Membrane in water
40344
    1TMC1    C1    1   2.168   2.640  11.560 -0.6026  0.1615  0.2553
    1TMC1    C2    2   2.182   2.518  11.499 -0.0561  0.9306  0.5430
    1TMC1    C3    3   2.303   2.458  11.505  0.3608 -0.5688  0.0585
    1TMC1    C4    4   2.278   2.703  11.616  0.5258  0.5368  0.1819
    1TMC1    C5    5   2.392   2.628  11.633  0.0099 -0.6989 -0.1277
    1TMC1    C6    6   2.407   2.500  11.581 -0.3674 -0.2593 -0.1530
    1TMC1     C    7   2.040   2.704  11.575  0.0380  0.2254  0.3544
    1TMC1     O    8   2.043   2.825  11.587 -0.3587 -0.7796 -0.0777
    1TMC1     H    9   2.104   2.469  11.442  1.4800  0.3235 -1.0415
    1TMC1    H1   10   2.261   2.796  11.668 -0.5687  0.5608 -0.2108
    1TMC1    H2   11   2.508   2.459  11.582 -0.3923 -0.3081  1.5006
    1TMC1    C7   12   2.488   2.664  11.730 -0.5132  0.1308  0.1385
    1TMC1    C8   13   2.319   2.341  11.416  1.1945 -0.7571  0.6973
    1TMC1    O1   14   2.564   2.575  11.771  0.5393  0.2724 -0.5694
    1TMC1    O2   15   2.278   2.354  11.300 -0.9238 -0.1960 -0.0312
    1TMC1    O3   16   2.493   2.798  11.755 -0.3630  0.0010 -0.0715
    1TMC1    H3   17   2.441   2.850  11.690 -0.1254 -0.0569 -0.3072
    1TMC1    O5   18   2.432   2.283  11.455 -0.5902 -0.4085  0.1328
    1TMC1    H5   19   2.439   2.293  11.552 -1.4462  1.2599  0.0184
    2MPD2     C   20   1.529   2.709  11.662 -0.5204  0.3332  0.0194
    2MPD2    C1   21   1.634   2.790  11.708 -0.5935  0.7057 -0.4857
    2MPD2    C2   22   1.764   2.774  11.674 -0.0581 -0.2806  0.2578
    2MPD2    C3   23   1.799   2.659  11.596 -0.2482  0.4511  0.0952
    2MPD2    C4   24   1.702   2.575  11.555  0.1520  0.2724 -0.6391
    2MPD2    C5   25   1.567   2.602  11.582  0.1961 -0.3083 -0.6201
    2MPD2     H   26   1.839   2.847  11.699 -0.7246  0.0580  1.2484
    2MPD2    H1   27   1.731   2.488  11.498 -1.5883  0.8095 -2.3435
    2MPD2    H2   28   1.424   2.729  11.681 -0.5030 -0.1875  0.6661
    2MPD2    H3   29   1.493   2.533  11.542 -2.8914  1.3452  2.2876
    2MPD2     N   30   1.934   2.621  11.565 -0.4073  0.0305 -0.0149
    2MPD2    H5   31   1.941   2.523  11.539 -0.9012  0.3809 -1.5083
    2MPD2    N1   32   1.603   2.910  11.772  0.4923  0.0482 -0.2789
    2MPD2    H7   33   1.692   2.954  11.790  1.1144 -0.6309 -1.6854
    3TMC1    C1   34   0.812   3.646  10.748 -0.0328  1.1899  0.0965
    3TMC1    C2   35   0.788   3.518  10.796  0.1738 -0.7957 -0.1432
    3TMC1    C3   36   0.768   3.429  10.694 -0.7556 -0.2859 -0.5978
    3TMC1    C4   37   0.808   3.690  10.626 -0.3003 -0.1708 -0.4335
    3TMC1    C5   38   0.796   3.593  10.527 -0.0550 -0.0572  0.8765
    3TMC1    C6   39   0.773   3.463  10.559 -0.3178 -0.1593 -0.4343
    3TMC1     C   40   0.831   3.745  10.861  0.0100  0.2371  0.2449
    3TMC1     O   41   0.875   3.688  10.961  0.0961 -0.4273 -0.0982
    3TMC1     H   42   0.781   3.493  10.901  2.0567  1.1822  0.4468
    3TMC1    H1   43   0.819   3.791  10.589  3.1676 -0.2157  0.5205
    3TMC1    H2   44   0.748   3.385  10.489  2.7051 -1.7105  0.2004
    3TMC1    C7   45   0.814   3.632  10.387 -0.0524  0.6210 -0.6916
    3TMC1    C8   46   0.716   3.293  10.736  0.2962  0.1750  0.4221
    3TMC1    O1   47   0.753   3.725  10.332 -0.1395  0.0882 -0.2689
    3TMC1    O2   48   0.733   3.188  10.679  0.2729  0.2226  0.1628
    3TMC1    O3   49   0.870   3.534  10.322  1.0004 -0.3682 -0.2010
    3TMC1    H3   50   0.941   3.487  10.371 -1.9653  0.1491  4.5506
    3TMC1    O5   51   0.611   3.314  10.822 -0.8999 -0.1877  0.6304
    3TMC1    H5   52   0.599   3.407  10.850 -1.9678 -0.2374  0.3622
    4MPD2     C   53   0.794   4.167  11.128 -0.3574  0.0789 -0.3728
    4MPD2    C1   54   0.787   4.212  10.993 -0.2359  0.3918 -0.5725
    4MPD2    C2   55   0.795   4.110  10.899 -0.5215 -0.1772  0.4359
    4MPD2    C3   56   0.800   3.975  10.934 -0.4241 -0.0591 -0.2802
    4MPD2    C4   57   0.788   3.938  11.065 -0.8052  0.0694  0.0254
    4MPD2    C5   58   0.791   4.037  11.162  0.1083 -0.2675  0.4289
    4MPD2     H   59   0.798   4.125  10.792 -0.5632 -2.0591  0.1669
    4MPD2    H1   60   0.779   3.837  11.102 -0.4913 -0.6872 -2.0145
    4MPD2    H2   61   0.798   4.248  11.200 -0.6695  0.9153 -1.2903
    4MPD2    H3   62   0.789   3.996  11.262  0.5701  0.6467  0.8056
    4MPD2     N   63   0.803   3.881  10.834  0.5699 -0.1499 -0.1870
    4MPD2    H5   64   0.782   3.909  10.739  2.4339  0.4151 -0.4268
    4MPD2    N1   65   0.770   4.344  10.951 -0.3615  0.8316  0.1415
    4MPD2    H7   66   0.768   4.371  10.853 -3.6689 -0.1445 -0.0681
    5TCq1    O1   67   0.764   2.415  10.393  0.2328 -0.2631 -0.5685
    5TCq1    C1   68   0.834   2.351  10.296 -0.0736  0.2391 -0.4495
    5TCq1    O2   69   0.853   2.386  10.185  0.0470 -0.0507 -0.2070
    5TCq1    C2   70   0.934   2.269  10.363  0.2942  0.2736 -0.4379
    5TCq1    C3   71   0.955   2.287  10.497  0.1091  0.3166  0.0084
    5TCq1    C4   72   0.995   2.175  10.566 -0.3759  0.1133  0.5644
    5TCq1    C5   73   1.022   2.053  10.516 -0.3754 -0.1365  0.0367
    5TCq1    C6   74   0.994   2.047  10.375  0.0703  0.1537 -0.3341
    5TCq1    C7   75   0.949   2.151  10.304 -0.3617  0.7120  0.5210
    5TCq1    C8   76   1.005   1.913  10.312  0.1134  0.6094 -0.0302
    5TCq1    O4   77   1.026   1.818  10.385 -0.4467  0.0005 -0.4004
    5TCq1    C9   78   1.026   2.185  10.707 -0.8871 -0.2511  0.4257
    5TCq1    O5   79   1.069   2.082  10.767  0.3951 -0.5995 -0.2920
    5TCq1    O6   80   0.992   2.295  10.758  0.0918  0.6125 -0.7985
    5TCq1    H1   81   0.759   2.365  10.477 -1.2350  0.0032 -0.5102
    5TCq1    H2   82   0.954   2.386  10.542  2.4491 -0.6807  2.2167
    5TCq1    H3   83   1.063   1.966  10.565 -0.1100 -1.0694 -1.8284
    5TCq1    H4   84   0.929   2.157  10.197  0.4584  0.0258  0.3309
    6MPD2     C   85   0.970   1.805   9.960  0.5785  0.3162 -0.7196
    6MPD2    C1   86   1.009   1.797  10.091  0.8129 -0.2658  0.3288
    6MPD2    C2   87   1.063   1.675  10.138 -0.2390  0.3048 -0.5413
    6MPD2    C3   88   1.071   1.566  10.051 -0.7143 -0.7026  0.1548
    6MPD2    C4   89   1.033   1.580   9.918 -0.2461  0.8111 -0.5173
    6MPD2    C5   90   0.990   1.708   9.872 -0.1523  0.1029 -0.0073
    6MPD2     H   91   1.102   1.664  10.238 -0.8707  0.3543 -0.2929
    6MPD2    H1   92   1.060   1.502   9.848  1.6540  1.7510 -0.8422
    6MPD2    H2   93   0.934   1.901   9.926 -0.3593  0.7353  1.4616
    6MPD2    H3   94   0.962   1.709   9.767 -4.0104 -0.5119  1.0117
    6MPD2     N   95   1.107   1.444  10.102  0.5557  0.1730 -0.3025
    6MPD2    H5   96   1.148   1.442  10.195 -0.1136  0.9079  0.0162
    6MPD2    N1   97   0.999   1.914  10.174 -0.0405 -0.6874 -0.4087
    6MPD2    H7   98   0.988   2.005  10.130  2.3041 -0.6163 -0.8716
    7TCq1    O1   99   3.759   0.651  12.556  0.0545 -0.4919  0.0186
    7TCq1    C1  100   3.767   0.607  12.680  0.3885 -0.2772 -0.7848
    7TCq1    O2  101   3.841   0.512  12.717  0.2466  0.4905  0.4085
    7TCq1    C2  102   3.658   0.654  12.764  0.1858 -0.9357  0.0190
    7TCq1    C3  103   3.636   0.792  12.782 -0.0679 -0.3502 -0.1627
    7TCq1    C4  104   3.590   0.831  12.906 -0.1280  0.3106 -0.3722
    7TCq1    C5  105   3.552   0.747  13.003 -0.3826  0.6493 -0.9192
    7TCq1    C6  106   3.573   0.610  12.983 -0.6882 -0.3295  0.8280
    7TCq1    C7  107   3.626   0.565  12.863  0.6056 -0.2235 -0.6899
    7TCq1    C8  108   3.577   0.519  13.095 -0.2258  0.1824  0.1186
    7TCq1    O4  109   3.556   0.402  13.068 -0.3838  0.2436 -0.2829
    7TCq1    C9  110   3.556   0.961  12.933  0.7429 -0.0334  0.8936
    7TCq1    O5  111   3.576   1.048  12.842 -0.0389  0.0501  0.8048
    7TCq1    O6  112   3.504   0.991  13.045 -0.2262 -0.1972  0.5510
    7TCq1    H1  113   3.697   0.725  12.540 -1.3827 -1.2560  2.1160
    7TCq1    H2  114   3.665   0.866  12.708  1.1149 -2.1255 -1.4683
    7TCq1    H3  115   3.514   0.781  13.098 -0.9517 -0.5779 -0.7078
    7TCq1    H4  116   3.644   0.461  12.839 -2.1705 -1.1461  1.3610
    8MPD2     C  117   3.610   0.382  13.598 -0.1666  0.0896  0.0545
    8MPD2    C1  118   3.591   0.305  13.484 -0.3642  0.5286  0.2882
    8MPD2    C2  119   3.601   0.360  13.354  0.2269  0.5331  0.3518
    8MPD2    C3  120   3.614   0.498  13.339  0.1726  0.0170 -0.2244
    8MPD2    C4  121   3.627   0.581  13.450 -0.2731 -0.2952  0.4152
    8MPD2    C5  122   3.623   0.519  13.574  0.4679  0.5715 -0.1554
    8MPD2     H  123   3.590   0.293  13.269  0.5800 -2.0263  2.3574
    8MPD2    H1  124   3.649   0.686  13.436  0.9851 -0.9067 -2.2206
    8MPD2    H2  125   3.610   0.336  13.696 -4.1709 -2.5409 -1.2054
    8MPD2    H3  126   3.614   0.586  13.659  0.3658 -0.6698  0.8172
    8MPD2     N  127   3.602   0.570  13.215  0.3871 -0.1021  0.0346
    8MPD2    H5  128   3.633   0.666  13.222  0.0094  0.0468 -0.3410
    8MPD2    N1  129   3.562   0.168  13.508  0.7538 -0.1515 -0.4132
    8MPD2    H7  130   3.563   0.143  13.606 -1.6205  1.7961  0.1054
    9TMC1    C1  131   2.001   4.721  10.591  0.0817 -0.5251 -0.3265
    9TMC1    C2  132   2.089   0.001  10.695  0.0178 -0.0833  0.4476
    9TMC1    C3  133   2.155   0.125  10.700 -0.3647 -0.0838 -0.3966
    9TMC1    C4  134   1.969   0.088  10.504 -0.1917  0.3465  0.3437
    9TMC1    C5  135   2.023   0.215  10.530  0.1041 -0.1297 -0.6442
    9TMC1    C6  136   2.122   0.224  10.621  0.1851  0.0387 -0.0638
    9TMC1     C  137   1.911   4.605  10.584  0.0630  1.0908 -0.2821
    9TMC1     O  138   1.863   4.579  10.473 -0.1336 -0.5334 -0.0329
    9TMC1     H  139   2.124   4.650  10.750 -0.4817 -0.8956 -0.5162
    9TMC1    H1  140   1.905   0.065  10.420  0.3668  3.2389 -0.8688
    9TMC1    H2  141   2.166   0.320  10.648  0.6021 -0.3504  0.6268
    9TMC1    C7  142   1.984   0.322  10.433 -0.2980  0.0099  0.9334
    9TMC1    C8  143   2.269   0.138  10.790  0.1976  0.1644  0.0355
    9TMC1    O1  144   1.973   0.283  10.319 -0.0483 -0.0980 -0.7232
    9TMC1    O2  145   2.346   0.228  10.772 -0.4920 -0.0563  0.1663
    9TMC1    O3  146   2.043   0.430  10.472  0.2402  0.0883  0.7725
    9TMC1    H3  147   2.046   0.433  10.570  0.1707  1.1769  0.7345
    9TMC1    O5  148   2.238   0.083  10.904 -0.1747  0.1506  0.5370
    9TMC1    H5  149   2.154   0.034  10.907  0.8354 -1.4305  2.4643
   10MPD2     C  150   1.795   4.340  10.635  0.4879 -0.0447 -0.5936
   10MPD2    C1  151   1.844   4.418  10.735 -0.3020 -0.5942  0.1506
   10MPD2    C2  152   1.845   4.379  10.865  0.0638 -0.2306  0.2097
   10MPD2    C3  153   1.781   4.256  10.898  0.1584  1.1665 -0.4296
   10MPD2    C4  154   1.717   4.190  10.801  0.9392 -0.6199  0.1010
   10MPD2    C5  155   1.735   4.223  10.669  0.9941  0.2288 -0.0015
   10MPD2     H  156   1.889   4.444  10.940 -2.5253 -1.3022  2.6413
   10MPD2    H1  157   1.658   4.102  10.827  1.3141 -0.8853  0.0539
   10MPD2    H2  158   1.797   4.371  10.531  0.9229  0.3096 -0.4794
   10MPD2    H3  159   1.698   4.161  10.589  0.2419  0.3324  0.2653
   10MPD2     N  160   1.784   4.205  11.029  0.4815  0.2900 -0.2187
   10MPD2    H5  161   1.748   4.113  11.053  0.9966 -0.1517 -1.1146
   10MPD2    N1  162   1.904   4.543  10.710  0.4121  0.0998  0.4565
   10MPD2    H7  163   1.945   4.588  10.790  0.5093 -1.7450  1.4394
   11TCq1    O1  164   2.148   4.302  13.854  0.1417 -0.0008 -0.0112
   11TCq1    C1  165   2.181   4.242  13.968  0.1888 -0.1579  0.7235
   11TCq1    O2  166   2.137   4.284  14.072  0.1327  0.3483  0.1953
   11TCq1    C2  167   2.185   4.096  13.940  0.4885  0.4464  0.2010
   11TCq1    C3  168   2.303   4.024  13.936  0.3142 -0.4856  0.1113
   11TCq1    C4  169   2.278   3.886  13.935 -0.7610  0.1684 -0.0569
   11TCq1    C5  170   2.156   3.828  13.937  0.1143  0.1438 -0.3277
   11TCq1    C6  171   2.047   3.906  13.938  0.3830  0.4485 -0.7926
   11TCq1    C7  172   2.060   4.039  13.937 -0.3938  0.2183 -0.0924
   11TCq1    C8  173   1.914   3.857  13.925  0.4699 -0.2714 -0.6769
   11TCq1    O4  174   1.821   3.924  13.963 -0.4917  0.5546 -0.9615
   11TCq1    C9  175   2.390   3.797  13.930  0.2961  0.0151  0.6393
   11TCq1    O5  176   2.495   3.860  13.903 -0.1238 -0.5297  0.5808
   11TCq1    O6  177   2.370   3.674  13.940 -0.5308 -0.0670 -0.2632
   11TCq1    H1  178   2.173   4.245  13.778  2.2163 -0.2420  0.8812
   11TCq1    H2  179   2.398   4.068  13.962  0.8366 -0.4960 -1.7816
   11TCq1    H3  180   2.153   3.720  13.941 -2.8152  0.2300 -0.1151
   11TCq1    H4  181   1.970   4.099  13.931 -0.4535  0.0079 -1.3835
   12MPD2     C  182   1.673   3.692  13.884 -0.3857  0.1286 -0.1003
   12MPD2    C1  183   1.799   3.641  13.890 -0.0777 -0.3946 -0.3584
   12MPD2    C2  184   1.809   3.503  13.872 -0.3842 -0.0822 -0.4487
   12MPD2    C3  185   1.699   3.422  13.865  0.3830 -0.3477  0.1491
   12MPD2    C4  186   1.579   3.478  13.849 -0.1443 -0.4157  0.2324
   12MPD2    C5  187   1.569   3.615  13.853 -0.3176  0.3669  0.5608
   12MPD2     H  188   1.908   3.459  13.868  0.6942  2.1454  1.7631
   12MPD2    H1  189   1.484   3.426  13.856 -0.0070 -0.9630 -2.0352
   12MPD2    H2  190   1.651   3.797  13.903 -2.1561 -0.3573  0.5942
   12MPD2    H3  191   1.471   3.662  13.848 -0.2733  0.3534 -0.5397
   12MPD2     N  192   1.711   3.286  13.888 -0.2913  0.1105 -0.5260
   12MPD2    H5  193   1.628   3.229  13.873 -0.6723  1.3363 -3.1787
   12MPD2    N1  194   1.909   3.722  13.907  0.0103  0.7535  0.2450
   12MPD2    H7  195   1.997   3.671  13.907 -0.9228 -0.8203  1.3575
   13TCq1    O1  196   1.123   4.574  10.061 -0.0798 -0.2087  0.3528
   13TCq1    C1  197   1.038   4.529  10.157 -0.3276 -0.0367 -0.6496
   13TCq1    O2  198   0.984   4.594  10.243  0.0787 -0.5187 -0.1470
   13TCq1    C2  199   1.022   4.377  10.156 -0.3325 -0.3961 -0.3371
   13TCq1    C3  200   1.029   4.298  10.040 -0.1021 -0.4414  0.0641
   13TCq1    C4  201   0.988   4.170  10.053 -1.2058 -0.9042 -0.4945
   13TCq1    C5  202   0.957   4.114  10.175 -0.4403 -0.1628 -0.0390
   13TCq1    C6  203   0.951   4.197  10.284 -0.6100 -0.5410  0.0782
   13TCq1    C7  204   0.974   4.331  10.270  0.3351  1.1385  0.1518
   13TCq1    C8  205   0.937   4.130  10.412 -0.0813 -0.0622  0.0931
   13TCq1    O4  206   0.877   4.185  10.505 -0.4433 -0.4945 -0.6385
   13TCq1    C9  207   0.993   4.083   9.938  0.0746  0.0159  0.2176
   13TCq1    O5  208   1.022   4.130   9.823  0.0810 -0.0971 -0.0273
   13TCq1    O6  209   0.978   3.963   9.959 -0.1781 -0.1020 -0.1704
   13TCq1    H1  210   1.149   4.503   9.999 -0.1907  0.2967 -0.2712
   13TCq1    H2  211   1.034   4.347   9.943  1.8407 -0.0533  0.3597
   13TCq1    H3  212   0.928   4.009  10.173 -1.1443  0.0346 -0.4552
   13TCq1    H4  213   0.974   4.391  10.360  0.5996  1.7019 -0.2192
   14MPD2     C  214   1.132   3.835  10.498  0.3466  0.3395 -0.3309
   14MPD2    C1  215   1.054   3.947  10.521 -0.4346 -0.3794  0.0761
   14MPD2    C2  216   1.054   4.000  10.651  0.4036 -0.2152 -0.3101
   14MPD2    C3  217   1.127   3.942  10.750  0.0303  0.0776  0.2484
   14MPD2    C4  218   1.181   3.821  10.728  0.3212 -0.1447 -0.0299
   14MPD2    C5  219   1.189   3.770  10.601  1.0190 -0.1921  0.0482
   14MPD2     H  220   0.996   4.088  10.677  0.1460 -0.3144 -0.5533
   14MPD2    H1  221   1.230   3.769  10.810 -0.2758  1.4737  1.3565
   14MPD2    H2  222   1.151   3.790  10.401  1.3411 -1.1079  0.5353
   14MPD2    H3  223   1.237   3.674  10.584 -1.4513 -1.8082  2.0775
   14MPD2     N  224   1.121   4.010  10.876 -0.0105 -0.1648 -0.3613
   14MPD2    H5  225   1.091   4.106  10.873  0.8029  0.1019  0.0697
   14MPD2    N1  226   1.000   4.011  10.407 -0.9856 -0.4161 -0.3785
   14MPD2    H7  227   1.030   3.968  10.320  0.2119 -2.6997  1.1551
   15TCq1    O1  228   3.723   2.943   2.156  0.0543 -0.0750  0.0352
   15TCq1    C1  229   3.627   3.030   2.110  0.2396 -0.7970  0.2844
   15TCq1    O2  230   3.510   2.998   2.085 -0.2128  0.3937  0.1140
   15TCq1    C2  231   3.704   3.103   2.010  0.7256  0.0971  0.5665
   15TCq1    C3  232   3.813   3.166   2.059 -0.3580 -0.6992 -0.5603
   15TCq1    C4  233   3.904   3.207   1.968 -0.4737  0.7082  0.0757
   15TCq1    C5  234   3.891   3.180   1.832 -0.1343  0.0941  0.1059
   15TCq1    C6  235   3.781   3.112   1.791  0.2058 -0.4059 -0.2870
   15TCq1    C7  236   3.681   3.070   1.881 -0.2239  0.4658  0.4481
   15TCq1    C8  237   3.806   3.035   1.671 -0.6237  0.4108  0.1984
   15TCq1    O4  238   3.921   3.022   1.638 -0.5698  0.5387 -0.0219
   15TCq1    C9  239   4.019   3.278   2.019  0.3647  0.6044 -1.1852
   15TCq1    O5  240   4.119   3.272   1.946 -0.1541  0.4001 -0.5492
   15TCq1    O6  241   4.009   3.310   2.141 -0.2130  0.3523 -0.6290
   15TCq1    H1  242   3.813   2.965   2.122 -0.3762 -0.4815 -1.3583
   15TCq1    H2  243   3.823   3.193   2.163 -1.3047  1.8815 -1.1536
   15TCq1    H3  244   3.962   3.223   1.764 -0.6042  0.0131 -0.4370
   15TCq1    H4  245   3.597   3.003   1.866  0.5050 -0.6798  1.4287
   16MPD2     C  246   3.546   2.836   1.507 -0.5355  0.0037 -0.1905
   16MPD2    C1  247   3.678   2.875   1.534 -0.4107  0.0223  0.1890
   16MPD2    C2  248   3.780   2.800   1.485 -0.3084  0.8630 -0.4872
   16MPD2    C3  249   3.750   2.693   1.407  0.2231  0.8056 -0.1105
   16MPD2    C4  250   3.615   2.660   1.374  0.1966  0.0416  0.8345
   16MPD2    C5  251   3.512   2.722   1.433  0.2844  0.0491 -0.1423
   16MPD2     H  252   3.882   2.830   1.507 -0.3517  0.5059  0.1860
   16MPD2    H1  253   3.588   2.580   1.305 -1.3795  0.3502  1.1012
   16MPD2    H2  254   3.462   2.892   1.546 -2.3421 -2.3131 -0.7473
   16MPD2    H3  255   3.409   2.691   1.416  0.5015 -0.2161 -0.9558
   16MPD2     N  256   3.868   2.630   1.358  0.3132 -0.4612  0.2169
   16MPD2    H5  257   3.953   2.681   1.376  0.6224 -1.2617  1.0663
   16MPD2    N1  258   3.689   2.986   1.620 -0.4045 -0.2321 -0.5497
   16MPD2    H7  259   3.604   3.018   1.664  1.4625  2.2584  1.2287
   17TMC1    C1  260   0.894   2.769  10.252  0.2506 -0.3204 -0.9058
   17TMC1    C2  261   0.779   2.696  10.247  0.0136 -0.5477  0.2821
   17TMC1    C3  262   0.720   2.683  10.126  0.6961 -0.3505  0.3210
   17TMC1    C4  263   0.959   2.810  10.137 -0.6182 -0.5515  0.5725
   17TMC1    C5  264   0.887   2.794  10.023 -0.1223  0.0691  0.9685
   17TMC1    C6  265   0.761   2.745  10.015  0.5509 -0.0589  0.8274
   17TMC1     C  266   0.981   2.747  10.364  0.5214 -0.2732 -0.3614
   17TMC1     O  267   0.951   2.654  10.438 -0.1076  0.4955  0.5638
   17TMC1     H  268   0.735   2.650  10.335 -0.8623  0.5699  0.4297
   17TMC1    H1  269   1.064   2.835  10.131 -0.7196 -0.1573  0.5013
   17TMC1    H2  270   0.709   2.721   9.922  2.6224 -0.7174 -0.1537
   17TMC1    C7  271   0.954   2.811   9.898 -0.0341 -0.5497 -0.8256
   17TMC1    C8  272   0.592   2.613  10.115  0.0150 -0.5795  0.3357
   17TMC1    O1  273   1.032   2.901   9.881  0.1466 -0.7591  0.5151
   17TMC1    O2  274   0.518   2.650  10.028 -0.3641 -0.6290  0.2014
   17TMC1    O3  275   0.951   2.694   9.827  0.3949  0.5003 -0.4489
   17TMC1    H3  276   0.913   2.614   9.871  0.0905  1.2767  0.7004
   17TMC1    O5  277   0.598   2.496  10.168 -0.3248 -0.5880 -0.1341
   17TMC1    H5  278   0.685   2.485  10.213 -0.9214  0.5655  1.2817
   18MPD2     C  279   1.208   2.711  10.555 -0.2413  0.9042 -1.0928
   18MPD2    C1  280   1.203   2.809  10.463 -0.1270 -0.3439  0.6064
   18MPD2    C2  281   1.315   2.892  10.449 -0.4187  0.6786 -0.2125
   18MPD2    C3  282   1.426   2.878  10.534  0.6402 -0.8185  0.4120
   18MPD2    C4  283   1.419   2.790  10.638  0.7101  0.0057 -0.2495
   18MPD2    C5  284   1.311   2.709  10.647  0.8029  0.2169 -0.6142
   18MPD2     H  285   1.311   2.966  10.370 -1.8003 -0.2578 -1.0264
   18MPD2    H1  286   1.505   2.761  10.697  2.2536  0.7678 -2.1662
   18MPD2    H2  287   1.143   2.625  10.556  0.2362  0.5346 -3.8525
   18MPD2    H3  288   1.325   2.626  10.716  0.7436  1.1729  0.5384
   18MPD2     N  289   1.551   2.943  10.500  0.2335  0.5048 -0.1945
   18MPD2    H5  290   1.631   2.915  10.554  0.1674 -2.7754 -1.7916
   18MPD2    N1  291   1.093   2.827  10.374  0.3210  0.2355 -0.3473
   18MPD2    H7  292   1.096   2.908  10.312  0.8013  0.9939  0.6611
   19TMC2    C1  293   3.270   3.832  13.878 -0.0237 -0.0759 -0.1646
   19TMC2    C2  294   3.197   3.946  13.911  0.8443 -0.5315  0.2292
   19TMC2    C3  295   3.062   3.940  13.909 -0.1686  0.6428 -0.1852
   19TMC2    C4  296   3.212   3.713  13.848  0.4667  0.4521 -0.5527
   19TMC2    C5  297   3.078   3.710  13.845  0.6282  0.7421  0.1285
   19TMC2    C6  298   3.000   3.822  13.873 -0.3229  0.3755 -0.3366
   19TMC2     C  299   3.406   3.841  13.916  0.4262  0.4508 -0.8987
   19TMC2     O  300   3.467   3.948  13.912 -0.0979 -0.0239  0.0999
   19TMC2     H  301   3.249   4.039  13.934  0.4632  0.1123 -1.5441
   19TMC2    H1  302   3.270   3.625  13.822 -2.1618 -1.3913 -0.2648
   19TMC2    H2  303   2.892   3.817  13.881 -0.4071  2.4894 -0.0648
   19TMC2    C7  304   3.017   3.579  13.860  0.1203 -0.1110 -0.0756
   19TMC2    C8  305   2.999   4.055  13.848 -0.2272  0.1560  0.2114
   19TMC2    O1  306   3.090   3.485  13.878  0.6405 -0.0587 -0.2101
   19TMC2    O2  307   3.059   4.145  13.796 -0.3993  0.0686 -0.5358
   19TMC2    O5  308   2.861   4.051  13.846 -0.2361  0.3313 -0.7241
   19TMC2    H5  309   2.829   3.987  13.913  1.7605  0.0572 -0.0390
   20MPD2     C  310   3.696   3.760  13.913 -0.5223  0.6610  0.0189
   20MPD2    C1  311   3.588   3.677  13.951 -0.2478 -0.0888 -0.0474
   20MPD2    C2  312   3.620   3.547  13.981 -0.5484  0.2182  0.5051
   20MPD2    C3  313   3.753   3.502  13.981  0.7073  0.2189  1.0417
   20MPD2    C4  314   3.854   3.589  13.939  0.5354  0.1502  0.0581
   20MPD2    C5  315   3.826   3.722  13.910 -0.1962 -0.1005  0.0873
   20MPD2     H  316   3.550   3.473  14.018 -2.6495  1.3418 -1.2442
   20MPD2    H1  317   3.956   3.557  13.928  0.3233  0.0997 -1.7062
   20MPD2    H2  318   3.685   3.865  13.890 -0.1174  0.9787  1.2898
   20MPD2    H3  319   3.903   3.791  13.880  0.2119 -0.5057  0.2075
   20MPD2     N  320   3.786   3.373  14.026  0.1264  0.2219  0.5364
   20MPD2    H5  321   3.882   3.340  14.028 -0.7398 -2.1281  2.5469
   20MPD2    N1  322   3.448   3.716  13.944 -0.0345  0.2434  0.2694
   20MPD2    H7  323   3.371   3.655  13.968 -0.6862  0.2228 -1.8812
   21TMC2    C1  324   0.830   4.219  14.202 -0.2901 -0.0676 -0.4919
   21TMC2    C2  325   0.891   4.096  14.173 -0.8565 -0.2179  0.3235
   21TMC2    C3  326   0.859   3.986  14.247  0.7028 -0.8086 -0.1691
   21TMC2    C4  327   0.734   4.226  14.297 -0.3575 -0.2148 -0.1077
   21TMC2    C5  328   0.697   4.109  14.361 -0.2984 -0.2802 -0.2155
   21TMC2    C6  329   0.766   3.993  14.348  0.7629  0.3873 -0.3372
   21TMC2     C  330   0.920   4.328  14.179  0.1304  0.0883  0.1379
   21TMC2     O  331   1.036   4.297  14.157  0.0402 -0.3039 -0.2297
   21TMC2     H  332   0.971   4.092  14.101 -2.0866 -2.3573 -0.9331
   21TMC2    H1  333   0.684   4.320  14.322  3.1417  2.1248 -1.8895
   21TMC2    H2  334   0.713   3.910  14.394 -0.9990  1.2760 -0.7873
   21TMC2    C7  335   0.609   4.123  14.480  0.2160  0.4120 -0.5198
   21TMC2    C8  336   0.939   3.866  14.234 -0.1757  0.0026  0.7978
   21TMC2    O1  337   0.620   4.047  14.575  0.2237  0.0549 -0.1784
   21TMC2    O2  338   1.019   3.851  14.151  0.0963  0.5281  0.1031
   21TMC2    O5  339   0.942   3.799  14.359  0.0416  0.4689  0.5526
   21TMC2    H5  340   0.888   3.840  14.429 -0.6329 -0.2438  0.4573
   22MPD2     C  341   1.095   0.050  14.325 -0.0386 -0.5261  0.6210
   22MPD2    C1  342   1.144   4.658  14.356 -0.4500 -0.3036 -0.2924
   22MPD2    C2  343   1.082   4.547  14.305 -0.0460  0.0467 -0.7209
   22MPD2    C3  344   0.957   4.558  14.239  0.1296 -0.9086 -0.0417
   22MPD2    C4  345   0.912   4.689  14.212 -0.5182 -0.4985 -0.2483
   22MPD2    C5  346   0.980   0.066  14.249  0.4271  0.3865  0.5802
   22MPD2     H  347   1.130   4.451  14.321 -0.3042  0.5059  2.7913
   22MPD2    H1  348   0.816   4.697  14.163  0.2232 -0.5715 -1.7295
   22MPD2    H2  349   1.146   0.133  14.372 -4.1211  2.7216 -0.6963
   22MPD2    H3  350   0.954   0.170  14.231  1.0460  0.0666 -2.1666
   22MPD2     N  351   0.871   4.457  14.198  0.4050  0.8492 -0.5299
   22MPD2    H5  352   0.773   4.480  14.193  0.1437  0.0781  0.9378
   22MPD2    N1  353   1.254   4.625  14.441 -0.8375 -0.2247  0.1942
   22MPD2    H7  354   1.271   4.529  14.470  4.1505  0.6219 -0.0149
   23TMC2    C1  355   1.961   0.732  15.032 -0.2966  0.9347 -0.3235
   23TMC2    C2  356   1.856   0.757  15.110 -0.3166  0.5279 -0.4433
   23TMC2    C3  357   1.740   0.782  15.054  0.6442 -0.3028  0.3065
   23TMC2    C4  358   1.946   0.733  14.895 -0.8528  0.1187 -0.8172
   23TMC2    C5  359   1.823   0.742  14.845  0.3126 -0.2497 -0.6443
   23TMC2    C6  360   1.713   0.768  14.922 -1.1042  0.5747 -0.6028
   23TMC2     C  361   2.093   0.723  15.082  0.7322 -0.3425 -0.4807
   23TMC2     O  362   2.179   0.756  15.004  0.1871 -0.2629 -0.3434
   23TMC2     H  363   1.878   0.771  15.216 -0.6937 -1.8447 -0.0392
   23TMC2    H1  364   2.036   0.713  14.837 -1.3428 -1.0735 -1.1675
   23TMC2    H2  365   1.614   0.769  14.878 -0.8094  0.1527 -1.2698
   23TMC2    C7  366   1.815   0.654  14.727  0.0306 -1.0503  0.2482
   23TMC2    C8  367   1.629   0.819  15.145 -0.1548  0.3500 -0.1840
   23TMC2    O1  368   1.910   0.580  14.710 -0.2704 -0.7110 -0.8582
   23TMC2    O2  369   1.619   0.766  15.255 -0.0387 -0.0983 -0.0660
   23TMC2    O5  370   1.525   0.864  15.076 -0.2114 -0.6309  0.3140
   23TMC2    H5  371   1.541   0.926  15.001  1.1195 -0.5279  0.6776
   24MPD2     C  372   2.419   0.423  15.350 -0.1034 -0.4209  0.3495
   24MPD2    C1  373   2.305   0.438  15.429  0.1657  0.1445 -0.2672
   24MPD2    C2  374   2.200   0.507  15.370  0.2227 -0.5086  0.4577
   24MPD2    C3  375   2.207   0.569  15.246 -0.1133  0.0226 -0.7131
   24MPD2    C4  376   2.320   0.546  15.170 -0.6339  0.1641  0.3340
   24MPD2    C5  377   2.428   0.475  15.222 -0.1465 -0.4258  0.1871
   24MPD2     H  378   2.107   0.521  15.424  0.4802 -0.6221  0.9244
   24MPD2    H1  379   2.332   0.587  15.071  1.9251 -1.3190  0.0403
   24MPD2    H2  380   2.512   0.379  15.383  1.0122 -0.0967 -2.3098
   24MPD2    H3  381   2.515   0.448  15.164  0.8020 -2.4695  2.5432
   24MPD2     N  382   2.100   0.655  15.204 -0.5076 -0.4697  0.1049
   24MPD2    H5  383   2.012   0.656  15.254 -0.8195 -0.4951 -0.4511
   24MPD2    N1  384   2.292   0.397  15.563  0.5619  0.0929  0.3736
   24MPD2    H7  385   2.206   0.425  15.609 -1.5680 -0.7875 -3.1317
   25TMC2    C1  386   0.993   3.051  11.434 -0.1187  0.3545 -1.0982
   25TMC2    C2  387   1.107   3.130  11.445 -0.7017  0.0080 -0.3731
   25TMC2    C3  388   1.145   3.137  11.573  0.2718 -0.5115 -1.0620
   25TMC2    C4  389   0.915   3.005  11.540  0.4673  0.0652  0.0646
   25TMC2    C5  390   0.958   3.045  11.664 -0.2216 -0.2584 -0.6935
   25TMC2    C6  391   1.072   3.114  11.687  0.8803  0.2626 -0.3592
   25TMC2     C  392   0.934   3.023  11.302  0.1157 -0.6168  0.7529
   25TMC2     O  393   0.955   3.113  11.223  0.3255  0.0834  0.2956
   25TMC2     H  394   1.175   3.158  11.365  2.2616 -0.4573  1.9827
   25TMC2    H1  395   0.825   2.945  11.531 -1.1347  2.1908  1.7409
   25TMC2    H2  396   1.115   3.122  11.786 -0.6387  0.9748  0.2523
   25TMC2    C7  397   0.855   3.054  11.768  0.0797  0.0917  1.0703
   25TMC2    C8  398   1.273   3.183  11.604  0.6457 -0.1145  0.4651
   25TMC2    O1  399   0.880   3.066  11.887 -0.3507 -0.1360 -0.2931
   25TMC2    O2  400   1.368   3.169  11.532 -0.4032  0.3579  0.4063
   25TMC2    O5  401   1.236   3.291  11.668 -0.0225  0.1155 -0.7931
   25TMC2    H5  402   1.139   3.303  11.675 -0.2987 -1.8389 -1.2879
   26MPD2     C  403   0.694   2.807  10.915 -0.8929 -0.9461 -0.5761
   26MPD2    C1  404   0.717   2.714  11.014  0.2038 -0.0795 -0.2567
   26MPD2    C2  405   0.758   2.752  11.140  0.2393  0.2627 -0.0035
   26MPD2    C3  406   0.783   2.885  11.167  0.2851  0.4761 -0.3654
   26MPD2    C4  407   0.763   2.981  11.065  0.5807 -0.1194 -0.2313
   26MPD2    C5  408   0.716   2.938  10.941 -0.3985  0.0806  0.0290
   26MPD2     H  409   0.782   2.685  11.221 -1.1506 -0.0081  0.1903
   26MPD2    H1  410   0.770   3.088  11.078 -2.8938  0.0833 -0.0282
   26MPD2    H2  411   0.653   2.780  10.819  0.9970  1.2353 -1.9803
   26MPD2    H3  412   0.695   3.007  10.861  2.5032  0.5678 -0.3385
   26MPD2     N  413   0.858   2.905  11.282  0.2360 -0.4762  0.1933
   26MPD2    H5  414   0.870   2.838  11.357  0.1888  2.2160  2.6330
   26MPD2    N1  415   0.697   2.580  10.974 -0.0926  0.1339  0.8842
   26MPD2    H7  416   0.659   2.571  10.881 -0.2210 -2.4687  1.2041
   27TMC2    C1  417   3.905   0.154  11.546 -0.2505  0.3428  0.0850
   27TMC2    C2  418   3.809   0.215  11.464  0.2761  0.2969  0.0567
   27TMC2    C3  419   3.819   0.351  11.460 -0.7516 -0.1941 -0.2245
   27TMC2    C4  420   4.006   0.218  11.613 -0.1541  0.4974  0.8728
   27TMC2    C5  421   4.012   0.354  11.585 -0.1081 -0.5045  0.1137
   27TMC2    C6  422   3.917   0.422  11.513 -0.1676  0.0034 -0.0754
   27TMC2     C  423   3.882   0.017  11.587 -0.6780  0.5096 -0.3029
   27TMC2     O  424   3.826   4.676  11.506  0.2934 -0.2488  0.1764
   27TMC2     H  425   3.721   0.161  11.430  1.6827 -1.4902 -0.7498
   27TMC2    H1  426   4.087   0.170  11.666 -1.4346 -1.7720  0.7899
   27TMC2    H2  427   3.926   0.530  11.511 -0.7985  0.0362 -1.1065
   27TMC2    C7  428   4.128   0.420  11.640  0.1637  0.0173 -0.5224
   27TMC2    C8  429   3.721   0.423  11.379 -0.1319 -0.4177 -0.5441
   27TMC2    O1  430   4.165   0.519  11.578  0.1812 -0.2302 -0.3791
   27TMC2    O2  431   3.654   0.366  11.299 -0.0582 -0.1522 -0.5695
   27TMC2    O5  432   3.726   0.553  11.401  0.7636  0.1202  0.4799
   27TMC2    H5  433   3.797   0.603  11.447  0.6479 -0.1770  0.9861
   28MPD2     C  434   3.852   4.397  11.954 -0.0242 -0.2210 -0.3350
   28MPD2    C1  435   3.867   4.521  12.020  0.4456  0.0254 -0.2444
   28MPD2    C2  436   3.887   4.630  11.940  0.5031  0.4863 -0.2446
   28MPD2    C3  437   3.903   4.614  11.804  0.1880  0.2273 -0.0426
   28MPD2    C4  438   3.885   4.497  11.740  0.1568  0.1819  0.0037
   28MPD2    C5  439   3.864   4.385  11.818 -0.3634 -0.1666 -0.0133
   28MPD2     H  440   3.885   4.731  11.978  2.7430  0.9530 -1.3859
   28MPD2    H1  441   3.886   4.486  11.632  1.7083  2.0573 -0.1578
   28MPD2    H2  442   3.837   4.305  12.010  0.8683 -0.7752 -1.0097
   28MPD2    H3  443   3.857   4.286  11.774 -0.6909 -0.3813  0.5241
   28MPD2     N  444   3.913   0.002  11.725 -0.1649 -0.9782  0.1936
   28MPD2    H5  445   3.929   0.082  11.787  3.7313 -0.4052 -1.5938
   28MPD2    N1  446   3.860   4.527  12.160 -0.2125 -0.9594 -0.1820
   28MPD2    H7  447   3.833   4.438  12.203  0.2916 -0.3180  1.4618
   29TMC2    C1  448   4.250   2.396  14.587  0.5866  0.1765  0.0123
   29TMC2    C2  449   4.255   2.380  14.721 -0.4836 -0.4080  0.3499
   29TMC2    C3  450   4.288   2.489  14.794  0.3891 -0.6520 -0.0269
   29TMC2    C4  451   4.283   2.515  14.526 -0.6318  0.0181  0.4750
   29TMC2    C5  452   4.323   2.624  14.604  0.1014 -0.1819 -0.6857
   29TMC2    C6  453   4.331   2.607  14.739 -0.0069 -0.5546 -1.3533
   29TMC2     C  454   4.215   2.276  14.510  0.0615  0.2715  0.1430
   29TMC2     O  455   4.185   2.177  14.574  0.5367 -0.2562 -0.1584
   29TMC2     H  456   4.205   2.297  14.771 -2.9011  1.4728  1.0500
   29TMC2    H1  457   4.290   2.517  14.418 -0.0104  0.0231  0.5108
   29TMC2    H2  458   4.366   2.684  14.806 -1.1280 -2.1945  1.1157
   29TMC2    C7  459   4.369   2.744  14.547  0.4329 -0.3366 -0.5032
   29TMC2    C8  460   4.266   2.476  14.935  0.3417  0.5975 -0.3182
   29TMC2    O1  461   4.429   2.812  14.626  0.4499 -0.3166 -0.1552
   29TMC2    O2  462   4.257   2.363  14.982 -0.2148  0.1832  0.3798
   29TMC2    O5  463   4.199   2.584  14.979  0.0539 -0.2619  0.5602
   29TMC2    H5  464   4.204   2.665  14.924  1.2505 -2.1580 -2.1376
   30MPD2     C  465   4.069   2.018  14.094  0.2348 -0.3863 -0.3804
   30MPD2    C1  466   4.126   1.973  14.208 -0.3774  0.3415  0.1107
   30MPD2    C2  467   4.176   2.063  14.298 -0.0726 -0.1835 -0.3337
   30MPD2    C3  468   4.165   2.203  14.271  0.2988 -0.1408 -0.5239
   30MPD2    C4  469   4.115   2.248  14.152 -0.3239  0.3537  0.4609
   30MPD2    C5  470   4.058   2.156  14.071 -0.2164  0.1281  0.8497
   30MPD2     H  471   4.225   2.026  14.388 -1.4768 -2.7439 -0.6165
   30MPD2    H1  472   4.093   2.351  14.127  1.1145  0.3727 -0.7714
   30MPD2    H2  473   4.017   1.953  14.024 -0.8856  0.1373 -0.0329
   30MPD2    H3  474   4.006   2.194  13.984 -1.0466 -0.7033  0.9855
   30MPD2     N  475   4.200   2.299  14.374  0.1775  0.5406 -0.3156
   30MPD2    H5  476   4.201   2.396  14.345  0.0176  0.0681 -1.8736
   30MPD2    N1  477   4.130   1.835  14.247  0.1317 -0.2964 -0.1901
   30MPD2    H7  478   4.193   1.811  14.323  0.2668 -1.1351 -0.5678
   31TMC2    C1  479   1.438   1.358  15.722 -0.5498 -0.1178 -0.1813
   31TMC2    C2  480   1.319   1.423  15.725 -0.4552 -0.0399  0.2328
   31TMC2    C3  481   1.249   1.427  15.848  0.0490 -0.1044 -0.3015
   31TMC2    C4  482   1.495   1.298  15.835 -0.0087  0.2768  0.1680
   31TMC2    C5  483   1.424   1.292  15.948  0.0555  0.4091 -0.9756
   31TMC2    C6  484   1.301   1.361  15.961  0.1026 -0.3835 -0.3906
   31TMC2     C  485   1.499   1.348  15.589 -0.3132  0.3097  0.3589
   31TMC2     O  486   1.435   1.379  15.492 -0.3284 -0.6707 -0.2793
   31TMC2     H  487   1.282   1.474  15.638 -1.7299  2.4228  2.2348
   31TMC2    H1  488   1.573   1.224  15.822  0.5833  1.0805 -0.8618
   31TMC2    H2  489   1.266   1.381  16.061  1.9071 -0.0894  0.1761
   31TMC2    C7  490   1.497   1.261  16.065  0.0320 -0.0063  0.1918
   31TMC2    C8  491   1.146   1.521  15.870  0.2037 -0.2919 -0.1167
   31TMC2    O1  492   1.452   1.176  16.137  0.0570 -0.3330  0.3673
   31TMC2    O2  493   1.123   1.580  15.973  0.2898  0.0942 -0.1851
   31TMC2    O5  494   1.052   1.501  15.784  0.1930 -0.5794  0.1616
   31TMC2    H5  495   1.073   1.449  15.703 -1.8874 -0.2361 -0.5806
   32MPD2     C  496   1.793   1.106  15.254  0.1034  0.1800  0.0101
   32MPD2    C1  497   1.740   1.234  15.250  0.4466 -0.4932  0.1829
   32MPD2    C2  498   1.681   1.290  15.362 -0.6464  0.1875  0.7631
   32MPD2    C3  499   1.691   1.228  15.484 -0.0040 -0.4778  0.2017
   32MPD2    C4  500   1.755   1.103  15.486 -0.1177 -0.2751 -0.6464
   32MPD2    C5  501   1.797   1.037  15.371 -0.3242  0.2680 -0.5991
   32MPD2     H  502   1.631   1.386  15.360 -0.0218  0.4731 -0.7155
   32MPD2    H1  503   1.753   1.050  15.581  1.4179 -2.7949 -2.0304
   32MPD2    H2  504   1.839   1.062  15.166  1.6250 -0.6093  1.1966
   32MPD2    H3  505   1.839   0.937  15.371  0.5427  0.6271 -1.5089
   32MPD2     N  506   1.616   1.276  15.597  0.2452 -0.4087  0.1082
   32MPD2    H5  507   1.653   1.244  15.686 -1.7892  2.0125  1.7848
   32MPD2    N1  508   1.745   1.305  15.129 -0.1337  0.1552  0.0196
   32MPD2    H7  509   1.805   1.261  15.060 -1.1247 -0.7287 -0.2925
   33TMC2    C1  510   1.971   3.678   9.634 -0.4234 -0.2271  0.1858
   33TMC2    C2  511   1.943   3.608   9.525  0.6605 -0.3414  0.0625
   33TMC2    C3  512   1.928   3.676   9.412  0.4383 -0.0858 -0.6062
   33TMC2    C4  513   1.953   3.811   9.647  0.2471 -0.5850 -0.0545
   33TMC2    C5  514   1.940   3.879   9.526 -0.1945  0.3421  0.8019
   33TMC2    C6  515   1.921   3.808   9.411 -0.2896  0.2071  0.0459
   33TMC2     C  516   1.990   3.602   9.755 -0.1911  0.2601 -0.5865
   33TMC2     O  517   1.931   3.495   9.759  0.0383 -0.1823 -0.4200
   33TMC2     H  518   1.959   3.500   9.527 -0.6602 -0.5570 -1.4704
   33TMC2    H1  519   1.956   3.863   9.742  1.0409 -1.3334  0.3222
   33TMC2    H2  520   1.924   3.854   9.312  1.0732 -1.0099 -0.4710
   33TMC2    C7  521   1.998   4.012   9.529 -0.7580 -0.3334 -0.8285
   33TMC2    C8  522   1.888   3.604   9.298 -0.3212  0.7565  0.3432
   33TMC2    O1  523   2.080   4.039   9.614  0.6758 -0.6174  0.0637
   33TMC2    O2  524   1.901   3.642   9.186  0.3148 -0.5662 -0.4248
   33TMC2    O5  525   1.796   3.513   9.327  0.4951  0.4849  0.2641
   33TMC2    H5  526   1.785   3.500   9.424 -0.4271  0.5121  0.1570
   34MPD2     C  527   2.135   3.576  10.256  0.5865 -0.0860 -0.3334
   34MPD2    C1  528   2.065   3.483  10.178  0.9933  0.1879 -0.1153
   34MPD2    C2  529   2.041   3.510  10.040  0.2583 -0.1029  0.2342
   34MPD2    C3  530   2.083   3.631   9.989  0.0628  0.1219 -0.1346
   34MPD2    C4  531   2.143   3.722  10.070  0.6845  0.3528 -0.2555
   34MPD2    C5  532   2.166   3.691  10.200 -0.1701 -0.2654 -0.4364
   34MPD2     H  533   1.984   3.439   9.981 -0.5250  1.7642 -1.2613
   34MPD2    H1  534   2.174   3.818  10.030  1.6841  0.6258  1.1874
   34MPD2    H2  535   2.162   3.550  10.358  1.8578 -2.8519 -1.3698
   34MPD2    H3  536   2.221   3.752  10.270 -2.3314  0.7488  0.3943
   34MPD2     N  537   2.056   3.668   9.854 -0.1182 -0.7465  0.4760
   34MPD2    H5  538   2.092   3.757   9.820  1.2064 -1.6689 -0.5416
   34MPD2    N1  539   2.025   3.367  10.246 -0.1972  0.0249 -0.5366
   34MPD2    H7  540   2.054   3.361  10.344 -0.8301  2.2125 -0.2091
   35TMC2    C1  541   3.241   0.072  11.237  0.9214 -0.4142  0.0882
   35TMC2    C2  542   3.204   0.117  11.109  0.2841 -0.5089 -0.6042
   35TMC2    C3  543   3.091   0.061  11.055  0.3695  0.3194 -0.7499
   35TMC2    C4  544   3.163   4.718  11.309  0.2308  0.5578  0.4177
   35TMC2    C5  545   3.039   4.695  11.260 -0.2307  0.1897 -1.2983
   35TMC2    C6  546   3.000   4.734  11.141  0.0466 -0.6020 -0.2983
   35TMC2     C  547   3.302   0.166  11.325  0.1124  1.0769  0.3655
   35TMC2     O  548   3.301   0.286  11.298  0.0294  0.6561  0.3740
   35TMC2     H  549   3.269   0.183  11.053  0.8997 -0.4667  0.1596
   35TMC2    H1  550   3.190   4.674  11.404 -1.6420 -0.8732  0.2897
   35TMC2    H2  551   2.896   4.717  11.113 -0.0367 -1.1053  0.3448
   35TMC2    C7  552   2.944   4.631  11.359  0.1684 -0.5710  0.1680
   35TMC2    C8  553   3.040   0.093  10.928 -0.2419 -0.0768  0.1520
   35TMC2    O1  554   2.990   4.566  11.450 -0.1862 -0.4285 -0.8631
   35TMC2    O2  555   2.921   0.060  10.903  0.4010  0.4164 -0.2372
   35TMC2    O5  556   3.139   0.128  10.842  0.3809  0.6686  1.0203
   35TMC2    H5  557   3.230   0.130  10.880  0.9798  2.5507 -0.5309
   36MPD2     C  558   3.549   0.261  11.769  0.3159  0.2392  0.0744
   36MPD2    C1  559   3.523   0.128  11.766 -0.1247 -0.2235 -0.0896
   36MPD2    C2  560   3.464   0.078  11.657 -0.2666  0.9465  0.0756
   36MPD2    C3  561   3.417   0.153  11.547  0.2544  0.3217 -0.0694
   36MPD2    C4  562   3.441   0.292  11.556 -0.8679  0.4817  0.2642
   36MPD2    C5  563   3.505   0.340  11.666  0.4013 -0.1436 -0.0768
   36MPD2     H  564   3.433   4.710  11.656  0.3793  0.7585 -0.3296
   36MPD2    H1  565   3.414   0.365  11.479 -0.0256 -0.7265 -1.1773
   36MPD2    H2  566   3.598   0.305  11.855 -1.6104  0.8829  0.8634
   36MPD2    H3  567   3.519   0.448  11.660  0.0857 -0.2315 -2.6022
   36MPD2     N  568   3.353   0.097  11.439  0.0815 -0.0245 -0.2085
   36MPD2    H5  569   3.338   4.732  11.433 -0.9140  0.1813 -1.2096
   36MPD2    N1  570   3.559   0.052  11.885  0.0582  0.0770  0.2809
   36MPD2    H7  571   3.588   0.108  11.965 -0.3723 -1.4840  1.5202
   37TMC2    C1  572   0.511   1.062  11.531 -0.0789 -0.1572  0.4917
   37TMC2    C2  573   0.432   1.114  11.432  0.3012  0.3870 -0.4019
   37TMC2    C3  574   0.496   1.163  11.326 -0.0562  0.4215 -0.5074
   37TMC2    C4  575   0.647   1.057  11.520 -0.1824 -0.1680 -0.3899
   37TMC2    C5  576   0.709   1.114  11.404  0.4633  0.6350  0.0361
   37TMC2    C6  577   0.636   1.170  11.305  0.2375 -0.1297  0.1364
   37TMC2     C  578   0.447   0.974  11.638 -0.1007 -0.5302 -0.0650
   37TMC2     O  579   0.338   0.998  11.684  0.3232 -0.4121 -0.4646
   37TMC2     H  580   0.325   1.101  11.439  0.3001  0.8672  0.5518
   37TMC2    H1  581   0.706   1.030  11.607 -0.0297 -0.1461 -0.4866
   37TMC2    H2  582   0.676   1.238  11.231 -0.3094 -0.7635 -0.7552
   37TMC2    C7  583   0.835   1.051  11.373 -0.0956  0.2521 -0.2647
   37TMC2    C8  584   0.402   1.198  11.219  0.3284 -0.4923 -0.0697
   37TMC2    O1  585   0.859   0.955  11.445  0.2960  0.7021  0.1194
   37TMC2    O2  586   0.282   1.222  11.242  0.1107  0.4057  0.0571
   37TMC2    O5  587   0.463   1.207  11.103 -0.6349 -0.2646  0.1879
   37TMC2    H5  588   0.549   1.160  11.093 -0.9336 -0.9588  0.8363
   38MPD2     C  589   0.574   0.573  11.952 -0.1005  0.3966 -0.4913
   38MPD2    C1  590   0.623   0.554  11.826 -0.1816  0.0916  0.4839
   38MPD2    C2  591   0.606   0.654  11.730  0.2140  0.5707  0.9033
   38MPD2    C3  592   0.523   0.763  11.755  0.2741  0.2018  0.3961
   38MPD2    C4  593   0.466   0.781  11.881 -0.4119  0.2685 -0.9200
   38MPD2    C5  594   0.491   0.685  11.976  0.3695  0.0320 -0.7133
   38MPD2     H  595   0.650   0.635  11.632 -0.7072 -2.8728  1.1356
   38MPD2    H1  596   0.407   0.868  11.908  0.3997  1.5998 -3.4218
   38MPD2    H2  597   0.580   0.505  12.037  2.3054 -0.8828 -1.6941
   38MPD2    H3  598   0.459   0.692  12.080  1.3060  1.4578 -0.5250
   38MPD2     N  599   0.528   0.865  11.655  0.4901  0.2692 -0.3784
   38MPD2    H5  600   0.603   0.855  11.588 -1.4198  1.2602 -2.6743
   38MPD2    N1  601   0.702   0.444  11.790 -0.1465 -0.2377 -0.6766
   38MPD2    H7  602   0.729   0.444  11.692  3.0724 -2.2532  0.1938
   39TMC2    C1  603   4.734   2.034   1.299  0.2410 -0.6014 -0.1511
   39TMC2    C2  604   0.018   1.904   1.248 -0.7916 -0.4464 -0.3044
   39TMC2    C3  605   0.147   1.864   1.223  0.5897  1.1142  0.1359
   39TMC2    C4  606   0.114   2.105   1.342  0.1155 -0.1766  0.3165
   39TMC2    C5  607   0.237   2.061   1.317 -0.2095 -0.6966  0.7426
   39TMC2    C6  608   0.260   1.933   1.257 -0.0671  0.7519 -0.1227
   39TMC2     C  609   4.606   2.060   1.355 -0.1290 -1.0687  0.4266
   39TMC2     O  610   4.507   2.000   1.320 -0.3269 -0.1277  0.2582
   39TMC2     H  611   4.666   1.850   1.214 -2.6726  2.1423  0.3660
   39TMC2    H1  612   0.102   2.211   1.364 -0.6892 -0.4660  1.2733
   39TMC2    H2  613   0.360   1.897   1.235 -0.8680 -1.2918 -0.3676
   39TMC2    C7  614   0.350   2.149   1.324 -0.2599  0.2463  0.3899
   39TMC2    C8  615   0.154   1.723   1.192 -0.5376 -0.2481  0.1773
   39TMC2    O1  616   0.439   2.125   1.243 -1.1710  0.4260  0.1383
   39TMC2    O2  617   0.059   1.647   1.214  0.9211  0.6085 -0.2832
   39TMC2    O5  618   0.240   1.697   1.088  0.2152 -0.1585 -0.0949
   39TMC2    H5  619   0.286   1.780   1.062  0.1843  1.0400  3.6382
   40MPD2     C  620   4.525   2.325   1.603  0.3184 -0.2580  0.4536
   40MPD2    C1  621   4.501   2.223   1.511 -0.4684 -0.3499  0.6090
   40MPD2    C2  622   4.367   2.188   1.485  0.1998 -0.2419  0.4987
   40MPD2    C3  623   4.254   2.255   1.540  0.5988 -0.0292  0.1657
   40MPD2    C4  624   4.294   2.358   1.620 -0.6166 -0.2530  0.0272
   40MPD2    C5  625   4.418   2.394   1.653  0.1120 -0.4792  0.2244
   40MPD2     H  626   4.347   2.117   1.405  1.0862 -1.5735  1.4738
   40MPD2    H1  627   4.215   2.422   1.657 -0.3623 -0.6263  1.2167
   40MPD2    H2  628   4.625   2.364   1.619 -0.6506  1.8498  1.4324
   40MPD2    H3  629   4.439   2.479   1.717 -2.5634 -1.0378  1.8411
   40MPD2     N  630   4.117   2.240   1.507  0.2459 -0.0398  0.1627
   40MPD2    H5  631   4.052   2.303   1.553 -1.5044 -0.2893 -1.9770
   40MPD2    N1  632   4.613   2.154   1.459 -0.2551  0.1456  0.3290
   40MPD2    H7  633   4.705   2.180   1.495 -0.1891 -1.0169  1.0143
   41TMC2    C1  634   3.174   0.152  13.409  0.7273  0.7690  0.3433
   41TMC2    C2  635   3.168   0.289  13.409 -0.0576 -0.3806  0.5225
   41TMC2    C3  636   3.163   0.357  13.291 -0.1722 -0.1443 -0.6047
   41TMC2    C4  637   3.171   0.086  13.292 -0.8298 -0.1284  0.2612
   41TMC2    C5  638   3.147   0.157  13.170 -0.4314 -0.0848 -0.4901
   41TMC2    C6  639   3.157   0.293  13.174 -0.4325  0.4288  0.3973
   41TMC2     C  640   3.187   0.081  13.539  0.7515  0.1915  0.2151
   41TMC2     O  641   3.222   4.700  13.532  0.1496  0.1741  0.3596
   41TMC2     H  642   3.195   0.337  13.503  0.5153 -0.6476  0.4938
   41TMC2    H1  643   3.161   4.714  13.298  0.2790 -0.2995 -0.8557
   41TMC2    H2  644   3.165   0.348  13.081 -2.8598 -3.0796 -1.8715
   41TMC2    C7  645   3.115   0.090  13.046  0.0690  0.2279 -0.0876
   41TMC2    C8  646   3.186   0.499  13.300  0.9823  0.5225  0.1692
   41TMC2    O1  647   3.128   4.706  13.058 -0.3032  0.6053  0.6610
   41TMC2    O2  648   3.205   0.572  13.201 -0.2448  0.0764 -0.6306
   41TMC2    O5  649   3.094   0.532  13.389  0.0088  0.1502 -0.3142
   41TMC2    H5  650   3.072   0.458  13.449 -0.3303  0.9876  0.6049
   42MPD2     C  651   3.212   4.735  13.806 -0.7171  0.0678  0.2196
   42MPD2    C1  652   3.116   0.085  13.766 -0.1013 -0.6606  0.2629
   42MPD2    C2  653   3.026   0.146  13.853  0.3708 -0.0855  0.0843
   42MPD2    C3  654   3.023   0.105  13.983 -0.1049 -0.3020  0.1406
   42MPD2    C4  655   3.119   0.020  14.028  0.0721  0.1708  0.4873
   42MPD2    C5  656   3.217   4.712  13.945  0.3590 -0.5069  0.5942
   42MPD2     H  657   2.964   0.223  13.810  0.8451  0.6868  0.7802
   42MPD2    H1  658   3.123   4.720  14.130  3.5672  1.4834  0.7780
   42MPD2    H2  659   3.298   4.706  13.747 -1.2161  1.4493 -1.1963
   42MPD2    H3  660   3.296   4.651  13.987  0.7129 -0.2540  0.2986
   42MPD2     N  661   2.928   0.147  14.083 -0.8593  0.3372 -0.4072
   42MPD2    H5  662   2.940   0.121  14.180 -0.3176 -0.2654 -0.6353
   42MPD2    N1  663   3.127   0.148  13.643 -0.3043 -0.1939 -0.4805
   42MPD2    H7  664   3.057   0.220  13.629  0.4730  0.7091  0.3436
   43TMC2    C1  665   4.365   3.384   0.734 -0.2030  0.3124  0.9234
   43TMC2    C2  666   4.233   3.354   0.741  0.2310 -0.6501 -0.6659
   43TMC2    C3  667   4.161   3.426   0.833  0.1288  0.1402 -0.1880
   43TMC2    C4  668   4.433   3.465   0.820  0.4185 -0.0080  0.5010
   43TMC2    C5  669   4.356   3.520   0.928 -0.3002  0.0936 -0.2469
   43TMC2    C6  670   4.217   3.517   0.921 -0.2780  0.0060 -0.0819
   43TMC2     C  671   4.446   3.316   0.631 -0.6138  1.1086 -0.6433
   43TMC2     O  672   4.565   3.351   0.636  0.2032 -0.3604 -0.6663
   43TMC2     H  673   4.190   3.293   0.663 -0.7341 -1.4710  0.5133
   43TMC2    H1  674   4.539   3.486   0.828  0.2913  0.7041  0.3142
   43TMC2    H2  675   4.151   3.563   0.993 -0.6755  0.7030 -0.8913
   43TMC2    C7  676   4.427   3.598   1.026  0.4161 -0.0410 -0.2799
   43TMC2    C8  677   4.020   3.458   0.813 -0.4341 -0.2817 -0.6819
   43TMC2    O1  678   4.528   3.655   0.986  0.3114 -0.3356 -0.3898
   43TMC2    O2  679   3.962   3.565   0.829  0.8320  0.6249  0.0827
   43TMC2    O5  680   3.971   3.363   0.734  0.1156  0.0341 -0.3694
   43TMC2    H5  681   4.023   3.280   0.735  1.1300  0.6894  0.2052
   44MPD2     C  682   4.523   3.004   0.230  0.2790  0.0390 -0.8740
   44MPD2    C1  683   4.620   3.056   0.324 -0.4058  0.9048  0.0379
   44MPD2    C2  684   4.575   3.146   0.420 -0.7683 -0.6043  0.3235
   44MPD2    C3  685   4.434   3.178   0.428  0.2341 -0.3990 -0.3453
   44MPD2    C4  686   4.347   3.117   0.339  0.1304  0.0991  0.1745
   44MPD2    C5  687   4.391   3.032   0.247 -0.1276 -0.2469  0.2104
   44MPD2     H  688   4.639   3.181   0.500 -0.4143 -0.1009 -0.1823
   44MPD2    H1  689   4.241   3.140   0.348 -0.1008 -0.9196  0.0805
   44MPD2    H2  690   4.546   2.943   0.143  1.8198 -0.2104 -0.2877
   44MPD2    H3  691   4.320   2.978   0.186 -0.0012 -0.3611  0.1615
   44MPD2     N  692   4.377   3.259   0.522 -0.2492  0.1256  0.4053
   44MPD2    H5  693   4.277   3.267   0.513 -0.1061  1.2373 -0.0897
   44MPD2    N1  694   0.018   3.020   0.317 -0.2489  0.5385  0.1344
   44MPD2    H7  695   0.086   3.075   0.369  0.9251 -1.6367  0.9164
   45TMC2    C1  696   0.436   0.221   9.641 -0.2425  0.5792 -0.0794
   45TMC2    C2  697   0.574   0.202   9.633  0.1074 -0.1355  0.0860
   45TMC2    C3  698   0.655   0.310   9.643 -0.7364 -0.4591  0.2640
   45TMC2    C4  699   0.386   0.342   9.674 -0.3530  0.1766 -0.5277
   45TMC2    C5  700   0.469   0.447   9.688 -0.0514  0.6406  0.1753
   45TMC2    C6  701   0.607   0.437   9.671 -0.7157  0.3181  0.3892
   45TMC2     C  702   0.342   0.123   9.590 -0.2001  0.0096 -0.8570
   45TMC2     O  703   0.371   0.005   9.585 -0.3982  0.3568  0.6203
   45TMC2     H  704   0.608   0.106   9.594  1.5506 -0.1650  1.4378
   45TMC2    H1  705   0.279   0.361   9.675 -0.9605 -3.2605 -1.1321
   45TMC2    H2  706   0.671   0.524   9.679 -0.0754  0.0554 -1.8714
   45TMC2    C7  707   0.423   0.580   9.663  0.1224  0.2569 -0.2418
   45TMC2    C8  708   0.797   0.302   9.660 -0.6288 -0.0139  0.4524
   45TMC2    O1  709   0.317   0.597   9.604 -0.0950  0.3316  0.1605
   45TMC2    O2  710   0.869   0.397   9.640 -0.1371  0.2159  0.3821
   45TMC2    O5  711   0.837   0.186   9.708  0.1439 -0.2633 -0.0515
   45TMC2    H5  712   0.761   0.123   9.714 -0.4599  0.4758  0.0668
   46MPD2     C  713   0.103   4.705   9.498  0.0956 -0.6174 -0.0200
   46MPD2    C1  714   0.109   0.106   9.509 -0.3289 -0.5831  0.2812
   46MPD2    C2  715   4.731   0.177   9.484 -0.3531 -0.3306 -0.3408
   46MPD2    C3  716   4.609   0.110   9.465 -0.0004 -1.1727 -0.0871
   46MPD2    C4  717   4.603   4.711   9.484 -0.3986 -0.1334 -0.3198
   46MPD2    C5  718   4.718   4.644   9.497  0.4316 -0.0420 -0.1727
   46MPD2     H  719   0.001   0.285   9.494 -1.3308 -0.3277  0.1595
   46MPD2    H1  720   4.511   4.655   9.479 -0.3911 -0.1958  0.2159
   46MPD2    H2  721   0.194   4.648   9.513  1.8822  2.6599  1.8532
   46MPD2    H3  722   4.719   4.535   9.493 -1.2655 -0.0035 -1.9789
   46MPD2     N  723   4.490   0.186   9.458 -0.5689 -0.5868  0.1527
   46MPD2    H5  724   4.502   0.284   9.478 -0.2940 -0.5309 -0.2820
   46MPD2    N1  725   0.227   0.178   9.534  0.1665  0.0457 -0.1501
   46MPD2    H7  726   0.213   0.278   9.535  0.2955  0.0493  0.7739
   47TMC2    C1  727   3.390   1.351   9.206  0.1701  0.2542  0.9036
   47TMC2    C2  728   3.278   1.328   9.122 -0.4002  0.2297 -0.4920
   47TMC2    C3  729   3.251   1.429   9.038  0.3907 -0.8355  0.1074
   47TMC2    C4  730   3.465   1.467   9.212 -0.4314  0.3749  0.4950
   47TMC2    C5  731   3.435   1.563   9.122 -0.1610  0.1743  0.1039
   47TMC2    C6  732   3.328   1.545   9.043  0.0548  0.2497  0.8124
   47TMC2     C  733   3.419   1.243   9.299 -0.1984  0.2053  0.0845
   47TMC2     O  734   3.373   1.132   9.271  0.1156 -0.7574 -0.2382
   47TMC2     H  735   3.214   1.246   9.153  0.2630  0.1666  0.7117
   47TMC2    H1  736   3.561   1.455   9.260  0.4433 -0.5572 -1.4960
   47TMC2    H2  737   3.315   1.621   8.967 -0.6123 -0.0523  0.6288
   47TMC2    C7  738   3.539   1.662   9.091  0.6624  0.2606  0.2791
   47TMC2    C8  739   3.123   1.438   8.967 -0.2053 -0.3136  0.7731
   47TMC2    O1  740   3.497   1.766   9.040 -0.0149 -0.1548  0.1637
   47TMC2    O2  741   3.061   1.536   8.942  0.0868  0.1427 -0.0560
   47TMC2    O5  742   3.094   1.312   8.927  0.6996 -0.4580 -0.3013
   47TMC2    H5  743   3.167   1.248   8.939 -0.5394 -1.5282  1.5830
   48MPD2     C  744   3.544   1.280   9.652 -0.3330  0.2109 -0.3285
   48MPD2    C1  745   3.479   1.216   9.546 -0.4418 -0.1624 -0.4495
   48MPD2    C2  746   3.439   1.085   9.559  0.3747 -0.1950  0.0373
   48MPD2    C3  747   3.453   1.021   9.683 -0.2428  0.8011  0.0383
   48MPD2    C4  748   3.512   1.095   9.786  0.3850  0.0354 -0.5669
   48MPD2    C5  749   3.566   1.218   9.775 -0.7857 -0.7263 -0.0160
   48MPD2     H  750   3.385   1.029   9.484 -0.2784  3.6575 -2.3635
   48MPD2    H1  751   3.530   1.051   9.884  1.0512 -0.0607 -0.7318
   48MPD2    H2  752   3.583   1.381   9.644  1.1146 -0.4316 -1.4384
   48MPD2    H3  753   3.622   1.272   9.851  0.2678 -2.0940  0.1635
   48MPD2     N  754   3.414   0.882   9.699  0.5602  0.5383 -1.0085
   48MPD2    H5  755   3.398   0.834   9.612 -0.0036  0.7897 -1.0422
   48MPD2    N1  756   3.464   1.288   9.423 -0.4732 -0.0772 -0.3861
   48MPD2    H7  757   3.492   1.385   9.431 -1.5790  0.3337 -1.5784
   49TMC2    C1  758   0.112   1.891  10.977 -0.5164 -0.0662  0.0516
   49TMC2    C2  759   0.172   1.769  10.944  0.4881  0.3197  0.5865
   49TMC2    C3  760   0.118   1.664  11.011 -0.6217 -0.0159 -0.1668
   49TMC2    C4  761   0.015   1.915  11.072  0.3647  0.8758 -0.0571
   49TMC2    C5  762   4.700   1.803  11.133 -0.1750 -0.1167 -0.1330
   49TMC2    C6  763   0.012   1.674  11.095  0.1632 -0.2426 -0.2253
   49TMC2     C  764   0.162   2.006  10.910  0.2063  0.8689  0.6725
   49TMC2     O  765   0.182   1.978  10.790  0.0843 -0.3643  0.2850
   49TMC2     H  766   0.255   1.761  10.874  0.7525 -0.6022  0.9932
   49TMC2    H1  767   4.714   2.016  11.077 -0.8726  0.3467  1.4933
   49TMC2    H2  768   4.718   1.586  11.152  1.8161  0.7295  2.1602
   49TMC2    C7  769   4.616   1.807  11.255  0.8907  0.1580 -0.2437
   49TMC2    C8  770   0.177   1.531  10.987 -0.0367 -0.0198 -0.5220
   49TMC2    O1  771   4.563   1.701  11.274 -0.3036  0.2128  0.0473
   49TMC2    O2  772   0.283   1.526  10.926 -0.3636 -0.5055  1.1013
   49TMC2    O5  773   0.071   1.469  10.937 -0.3193 -0.5473  0.4615
   49TMC2    H5  774   4.717   1.487  10.973 -1.7030 -1.0769 -2.7449
   50MPD2     C  775   0.292   2.258  10.805  0.8215  0.6486 -0.6158
   50MPD2    C1  776   0.245   2.244  10.938  0.2524 -0.4879 -0.2714
   50MPD2    C2  777   0.268   2.339  11.028  0.6555 -0.6006 -0.9201
   50MPD2    C3  778   0.332   2.454  10.994 -0.0035 -0.1697 -0.4660
   50MPD2    C4  779   0.387   2.471  10.871 -0.3582  0.7925 -0.5348
   50MPD2    C5  780   0.365   2.375  10.780 -0.7921  0.4044 -0.0595
   50MPD2     H  781   0.221   2.331  11.126 -0.1089  1.2805 -1.1280
   50MPD2    H1  782   0.440   2.563  10.849  1.5851 -0.3020 -0.4696
   50MPD2    H2  783   0.301   2.182  10.728  0.2890  0.5920 -0.6240
   50MPD2    H3  784   0.415   2.385  10.684  3.9314  1.9811  2.5600
   50MPD2     N  785   0.367   2.554  11.090  0.1665 -0.1688 -0.4634
   50MPD2    H5  786   0.420   2.635  11.058 -1.4921  1.4771  1.0095
   50MPD2    N1  787   0.180   2.123  10.982 -0.5531  0.2355  0.0175
   50MPD2    H7  788   0.160   2.118  11.082  1.6123  0.8443  0.4863
   51TMC2    C1  789   1.355   1.534   1.194 -0.0150  0.6058  0.9115
   51TMC2    C2  790   1.253   1.574   1.286 -0.4692  0.2232 -0.1307
   51TMC2    C3  791   1.234   1.708   1.291 -0.5175  0.0606 -0.6914
   51TMC2    C4  792   1.425   1.621   1.119  0.5278  0.0119 -0.5493
   51TMC2    C5  793   1.393   1.751   1.128 -0.2409 -0.4211  0.0287
   51TMC2    C6  794   1.309   1.801   1.226 -0.1704 -0.0577  0.4444
   51TMC2     C  795   1.409   1.401   1.212 -0.1704 -0.1689 -0.1001
   51TMC2     O  796   1.524   1.382   1.176 -0.0181 -0.6267 -0.9151
   51TMC2     H  797   1.201   1.501   1.348  1.2568  0.2769  1.3764
   51TMC2    H1  798   1.499   1.588   1.047 -1.0792 -2.0238 -1.2649
   51TMC2    H2  799   1.265   1.899   1.212 -0.1238  0.0294  0.9124
   51TMC2    C7  800   1.494   1.835   1.064  0.3663  0.5060 -0.8685
   51TMC2    C8  801   1.157   1.766   1.397 -0.3245 -0.3732 -0.0409
   51TMC2    O1  802   1.608   1.791   1.059  0.4369 -0.1594  0.1275
   51TMC2    O2  803   1.084   1.709   1.471  0.1414 -0.5703 -0.1532
   51TMC2    O5  804   1.200   1.887   1.430 -0.3099 -0.3946  0.3275
   51TMC2    H5  805   1.277   1.928   1.386 -1.0755  2.4808  1.6977
   52MPD2     C  806   1.347   0.909   1.351 -1.0379  0.4668 -0.4056
   52MPD2    C1  807   1.457   0.991   1.338  0.6919  0.2175  0.7760
   52MPD2    C2  808   1.450   1.123   1.298 -0.3272  0.1556 -0.3311
   52MPD2    C3  809   1.329   1.182   1.283 -0.3979  0.1822  0.2690
   52MPD2    C4  810   1.213   1.110   1.309 -0.6239  0.5690  0.8662
   52MPD2    C5  811   1.223   0.973   1.337 -0.3174 -0.4476 -0.3695
   52MPD2     H  812   1.539   1.184   1.284 -0.4295 -0.2208 -2.6268
   52MPD2    H1  813   1.117   1.150   1.280 -1.8074 -2.2632  0.9477
   52MPD2    H2  814   1.341   0.809   1.393  0.7968  0.7862  0.6449
   52MPD2    H3  815   1.136   0.909   1.342 -1.0423  0.6373  1.2591
   52MPD2     N  816   1.312   1.315   1.235 -0.3689 -0.7221  0.6450
   52MPD2    H5  817   1.218   1.348   1.219 -1.4654 -2.9740  2.4974
   52MPD2    N1  818   1.587   0.951   1.365  0.5054 -0.0546 -0.8388
   52MPD2    H7  819   1.667   1.006   1.336  1.9811 -0.9384  1.6114
   53TMC2    C1  820   1.401   0.566  11.288  0.6393  0.6600 -0.3855
   53TMC2    C2  821   1.506   0.487  11.254  0.0319 -0.3437  0.3779
   53TMC2    C3  822   1.543   0.393  11.350  0.3540  0.3875 -0.7491
   53TMC2    C4  823   1.328   0.551  11.405  0.2724  0.1020 -0.9032
   53TMC2    C5  824   1.364   0.454  11.490 -0.8575  0.2227 -0.1061
   53TMC2    C6  825   1.478   0.379  11.470 -0.3971  0.5710 -0.4999
   53TMC2     C  826   1.360   0.678  11.201 -0.7823  0.6085 -0.0736
   53TMC2     O  827   1.432   0.698  11.104  0.4768  0.6061  0.1449
   53TMC2     H  828   1.563   0.522  11.169  0.1399 -0.1214  0.5435
   53TMC2    H1  829   1.232   0.597  11.424  0.0712 -0.6692 -0.0934
   53TMC2    H2  830   1.531   0.335  11.554  2.0397 -0.0745 -2.4009
   53TMC2    C7  831   1.283   0.421  11.601  0.3097  0.0631 -0.0298
   53TMC2    C8  832   1.668   0.324  11.324  0.1166  0.1435 -0.0951
   53TMC2    O1  833   1.212   0.505  11.648  0.0789 -0.2168  0.2811
   53TMC2    O2  834   1.743   0.367  11.237 -0.0573 -0.3105  0.1992
   53TMC2    O5  835   1.654   0.201  11.368  0.6571 -0.7711  0.7601
   53TMC2    H5  836   1.570   0.190  11.418  0.4846 -1.0133  0.4161
   54MPD2     C  837   1.199   0.895  11.056  0.1080 -0.0864  0.9098
   54MPD2    C1  838   1.177   0.852  11.184  0.5161 -0.5115 -0.3210
   54MPD2    C2  839   1.070   0.911  11.249 -0.2398 -0.6217 -0.0231
   54MPD2    C3  840   0.998   1.019  11.194  0.1707  0.4696  0.3904
   54MPD2    C4  841   1.035   1.068  11.073 -0.9629 -0.3405 -0.2287
   54MPD2    C5  842   1.137   1.004  11.007 -0.0210 -0.0243 -0.1001
   54MPD2     H  843   1.048   0.880  11.351 -1.0948  0.5607  0.1598
   54MPD2    H1  844   0.992   1.159  11.032 -2.7571 -1.1698 -0.1956
   54MPD2    H2  845   1.282   0.862  10.995 -1.3999 -0.6458 -0.8425
   54MPD2    H3  846   1.166   1.038  10.908 -1.5961  0.0647 -0.5268
   54MPD2     N  847   0.895   1.087  11.259  0.7977 -0.2537 -0.7282
   54MPD2    H5  848   0.855   1.160  11.201  1.0592 -0.6949 -1.4697
   54MPD2    N1  849   1.251   0.749  11.248 -0.3400  0.1160  0.4888
   54MPD2    H7  850   1.207   0.707  11.330 -1.3635 -2.3953 -1.3632
   55TMC2    C1  851   2.595   3.277   0.042 -0.5737  0.4168  0.3911
   55TMC2    C2  852   2.650   3.312  17.667  0.1193  0.6621 -0.1153
   55TMC2    C3  853   2.718   3.213  17.598 -0.2234  0.3962  0.3109
   55TMC2    C4  854   2.598   3.147   0.091 -0.0174 -0.5685 -0.6903
   55TMC2    C5  855   2.654   3.045   0.013 -0.1327 -0.5754  0.0537
   55TMC2    C6  856   2.716   3.079  17.633  0.4135  0.0505 -0.2047
   55TMC2     C  857   2.496   3.377   0.091 -0.2893 -0.4207  0.3626
   55TMC2     O  858   2.425   3.344   0.186  0.4510 -0.2237  0.4664
   55TMC2     H  859   2.667   3.417  17.643 -0.6307  0.6804 -0.5708
   55TMC2    H1  860   2.542   3.127   0.182 -0.1072 -0.8698 -0.8114
   55TMC2    H2  861   2.768   3.008  17.570  1.7659  0.3687  0.5583
   55TMC2    C7  862   2.672   2.912   0.069 -0.1617  0.0546 -0.0702
   55TMC2    C8  863   2.806   3.268  17.501 -0.0499 -0.3552 -0.4405
   55TMC2    O1  864   2.731   2.827   0.005  0.7234  0.0039 -0.1403
   55TMC2    O2  865   2.854   3.380  17.489  0.4305 -0.0143  0.5060
   55TMC2    O5  866   2.836   3.166  17.416  0.4729  0.0114  0.6798
   55TMC2    H5  867   2.766   3.098  17.407  0.2621  0.6132 -2.2841
   56MPD2     C  868   2.434   3.713  17.716  0.6284 -0.5610 -0.0448
   56MPD2    C1  869   2.422   3.606   0.059 -0.0907  0.4442  1.0069
   56MPD2    C2  870   2.332   3.613   0.170 -0.5903 -0.8187  0.1968
   56MPD2    C3  871   2.262   3.731   0.182 -0.1210  0.4234  0.4530
   56MPD2    C4  872   2.280   3.836   0.100 -0.5299  0.3123  0.6596
   56MPD2    C5  873   2.358   3.829  17.732  0.0540 -0.2048 -0.3398
   56MPD2     H  874   2.319   3.535   0.244 -3.2971 -2.1662 -1.7251
   56MPD2    H1  875   2.231   3.933   0.102  0.5928  0.9685 -2.3725
   56MPD2    H2  876   2.510   3.701  17.640  0.1211 -0.2394 -0.6072
   56MPD2    H3  877   2.382   3.913  17.668 -0.6534 -0.0507 -0.3991
   56MPD2     N  878   2.156   3.721   0.277 -0.4209 -0.2282  0.6857
   56MPD2    H5  879   2.148   3.635   0.329  0.1097  1.2113  3.1629
   56MPD2    N1  880   2.499   3.495   0.029 -0.0063  0.2014 -0.0810
   56MPD2    H7  881   2.551   3.507  17.684 -1.4140  1.4421 -0.7489
   57TMC2    C1  882   1.431   4.256  13.048  0.6446 -0.5012 -0.3111
   57TMC2    C2  883   1.400   4.364  12.961  0.2910  0.4971 -0.5875
   57TMC2    C3  884   1.487   4.468  12.958 -0.2906  0.4548 -0.0420
   57TMC2    C4  885   1.553   4.249  13.113 -0.2081 -0.1842  0.3836
   57TMC2    C5  886   1.640   4.351  13.091  0.1614  0.5921 -0.5092
   57TMC2    C6  887   1.606   4.465  13.026 -0.4285 -0.7574 -0.5833
   57TMC2     C  888   1.321   4.166  13.087 -0.6146  0.4946 -0.3881
   57TMC2     O  889   1.242   4.151  12.993  0.2610  0.5169  0.3093
   57TMC2     H  890   1.304   4.373  12.910  0.3894 -1.1219 -1.0875
   57TMC2    H1  891   1.573   4.162  13.173  1.4770 -1.6077 -2.2517
   57TMC2    H2  892   1.667   4.554  13.033 -0.8173 -0.5776  0.6491
   57TMC2    C7  893   1.778   4.325  13.130 -0.1551 -0.0779  0.1845
   57TMC2    C8  894   1.422   4.596  12.957 -0.0610  0.4976 -0.1508
   57TMC2    O1  895   1.848   4.423  13.145 -0.0770  0.5057 -0.4395
   57TMC2    O2  896   1.302   4.603  12.982 -0.3311  0.1857 -0.0353
   57TMC2    O5  897   1.498   4.671  12.877 -0.3750 -0.0346  0.5039
   57TMC2    H5  898   1.573   4.619  12.842  0.8858  2.8100 -1.0577
   58MPD2     C  899   0.962   4.009  13.399  1.0176  0.4954 -0.2488
   58MPD2    C1  900   1.061   4.069  13.477 -0.5328 -0.9782 -0.3224
   58MPD2    C2  901   1.181   4.105  13.426 -0.1450  0.1278 -0.6192
   58MPD2    C3  902   1.206   4.091  13.290 -0.3670 -0.8179  0.1496
   58MPD2    C4  903   1.113   4.021  13.215 -0.0364  0.6323 -0.1266
   58MPD2    C5  904   0.994   3.974  13.274 -0.3559  0.2431 -0.4480
   58MPD2     H  905   1.256   4.153  13.488 -0.6604 -0.3693  0.3834
   58MPD2    H1  906   1.115   4.000  13.108 -2.3094 -0.0021 -0.0472
   58MPD2    H2  907   0.862   3.995  13.438  1.0837 -0.7701 -0.5297
   58MPD2    H3  908   0.914   3.933  13.213  0.2089  0.5322 -1.3969
   58MPD2     N  909   1.309   4.157  13.224  0.2275  0.0374  0.1119
   58MPD2    H5  910   1.379   4.202  13.283  0.5850  1.6140 -1.5024
   58MPD2    N1  911   1.034   4.121  13.608  0.3274  0.2880  1.0103
   58MPD2    H7  912   1.109   4.183  13.637  2.9884 -1.2500 -2.6329
   59TMC2    C1  913   3.762   3.998  12.884 -0.5873  0.6463 -1.0268
   59TMC2    C2  914   3.810   3.896  12.964 -0.9174  0.9380 -0.4823
   59TMC2    C3  915   3.779   3.772  12.928  0.0961 -0.0233 -0.2437
   59TMC2    C4  916   3.705   3.971  12.762 -0.2339 -0.4395  0.2650
   59TMC2    C5  917   3.674   3.844  12.735  0.2176 -1.1503 -0.1685
   59TMC2    C6  918   3.702   3.746  12.821 -0.0157  0.6202 -0.6078
   59TMC2     C  919   3.770   4.137  12.926  0.0992 -0.2019  0.7386
   59TMC2     O  920   3.712   4.228  12.864 -0.0164 -0.1216  0.0237
   59TMC2     H  921   3.862   3.919  13.056 -0.4726  0.7307 -0.6779
   59TMC2    H1  922   3.679   4.053  12.697  0.1775 -1.7906 -1.5870
   59TMC2    H2  923   3.689   3.644  12.787  0.3188 -0.1776  1.6936
   59TMC2    C7  924   3.578   3.816  12.625  0.2225  0.6358  0.3411
   59TMC2    C8  925   3.862   3.658  12.976  0.4684  0.1472  0.3592
   59TMC2    O1  926   3.501   3.719  12.650  0.1917  0.1676 -0.6613
   59TMC2    O2  927   3.832   3.541  12.942 -0.0723 -0.0279  0.3049
   59TMC2    O5  928   3.989   3.697  12.968 -0.0623  0.3241  0.4972
   59TMC2    H5  929   3.992   3.795  12.971 -0.6074  0.3860 -0.8846
   60MPD2     C  930   3.755   4.357  13.119  0.4613 -0.2986  0.2563
   60MPD2    C1  931   3.866   4.276  13.102 -0.7897  0.4493  0.3738
   60MPD2    C2  932   3.986   4.301  13.165 -0.1749  0.4325  0.2688
   60MPD2    C3  933   3.998   4.408  13.252 -0.1332  0.4904  0.4451
   60MPD2    C4  934   3.882   4.489  13.278 -0.1480 -0.1079  0.5782
   60MPD2    C5  935   3.768   4.464  13.203 -0.2535  0.3128 -0.2565
   60MPD2     H  936   4.072   4.239  13.140  0.1704  2.2019 -2.8555
   60MPD2    H1  937   3.880   4.572  13.347 -1.0093  1.2047 -1.0224
   60MPD2    H2  938   3.662   4.343  13.066  0.3777  1.2173 -0.0066
   60MPD2    H3  939   3.689   4.538  13.209  0.9806  1.5678  0.3780
   60MPD2     N  940   4.112   4.446  13.329  0.0487  0.1678 -0.0322
   60MPD2    H5  941   4.092   4.515  13.401  0.1525 -1.0732  1.1808
   60MPD2    N1  942   3.853   4.155  13.029  0.3132 -0.5734  0.0661
   60MPD2    H7  943   3.920   4.083  13.054  0.2665 -0.1438  1.4365
   61TMC2    C1  944   2.927   0.935  15.904  0.4154  0.4672 -0.4986
   61TMC2    C2  945   2.875   0.967  16.027  0.1073  0.1293  0.3077
   61TMC2    C3  946   2.847   1.099  16.055 -0.8317  0.7786  0.1828
   61TMC2    C4  947   2.938   1.031  15.811 -0.3486 -0.9143 -0.0623
   61TMC2    C5  948   2.889   1.158  15.831  0.2644 -0.2501 -0.0405
   61TMC2    C6  949   2.842   1.191  15.954 -0.0562  0.5836  0.7664
   61TMC2     C  950   3.000   0.808  15.885 -0.3299 -0.3643 -0.5215
   61TMC2     O  951   3.041   0.757  15.985 -0.1829 -0.0342  0.0492
   61TMC2     H  952   2.855   0.888  16.097 -0.4808  1.3936  1.5579
   61TMC2    H1  953   2.984   1.019  15.713  0.2753 -2.0547  0.3782
   61TMC2    H2  954   2.813   1.292  15.981 -1.2463  0.7610 -1.2336
   61TMC2    C7  955   2.874   1.247  15.720 -0.1931 -0.1514 -0.1589
   61TMC2    C8  956   2.738   1.126  16.151 -0.1862  0.7308 -0.2152
   61TMC2    O1  957   2.885   1.365  15.745 -0.2495 -0.1308 -0.5828
   61TMC2    O2  958   2.631   1.181  16.124 -0.0757  0.2963 -0.6604
   61TMC2    O5  959   2.762   1.043  16.253  0.4980  0.0205 -0.4035
   61TMC2    H5  960   2.859   1.028  16.252  0.6542  1.0020 -0.9368
   62MPD2     C  961   3.213   0.621  15.762  0.6869  0.3573 -0.0002
   62MPD2    C1  962   3.139   0.719  15.698  0.2028  0.3148  0.3775
   62MPD2    C2  963   3.146   0.736  15.563 -0.0004 -0.0933 -0.0995
   62MPD2    C3  964   3.244   0.679  15.488  0.3107  0.5055  0.4042
   62MPD2    C4  965   3.323   0.592  15.552  0.0011 -0.0191 -0.5725
   62MPD2    C5  966   3.310   0.566  15.686 -0.1155  0.2036  0.1215
   62MPD2     H  967   3.071   0.802  15.520 -1.3194 -2.1619 -0.9497
   62MPD2    H1  968   3.399   0.539  15.497 -1.3069 -2.5858  0.1022
   62MPD2    H2  969   3.205   0.613  15.870 -1.9626 -1.2380 -0.3259
   62MPD2    H3  970   3.365   0.489  15.738 -3.3037 -0.5288  2.4216
   62MPD2     N  971   3.279   0.715  15.361 -0.2701  0.3469 -0.1164
   62MPD2    H5  972   3.355   0.663  15.318  0.8544  0.9431  1.1840
   62MPD2    N1  973   3.033   0.791  15.758 -0.4651  0.7100 -0.2695
   62MPD2    H7  974   2.971   0.841  15.694 -0.6597  0.2914 -0.4119
   63TMC2    C1  975   2.885   1.136  10.342 -0.4150 -0.2943 -0.1748
   63TMC2    C2  976   2.914   1.260  10.384 -0.6675 -0.5972  0.2941
   63TMC2    C3  977   2.994   1.340  10.304  0.0622  0.3929 -0.2754
   63TMC2    C4  978   2.930   1.088  10.222 -0.0418 -0.6031 -0.1768
   63TMC2    C5  979   3.007   1.168  10.145 -0.5562 -0.0526  0.7374
   63TMC2    C6  980   3.038   1.302  10.184 -0.8269  0.3638 -0.2396
   63TMC2     C  981   2.745   1.101  10.363  0.2985 -0.5661 -0.5112
   63TMC2     O  982   2.676   1.192  10.402  0.0773 -0.2867 -0.1439
   63TMC2     H  983   2.869   1.298  10.475 -0.8237  0.8903 -0.4078
   63TMC2    H1  984   2.883   1.000  10.180  0.7883 -0.6929 -0.9280
   63TMC2    H2  985   3.092   1.379  10.130 -3.7828  1.5510 -1.4865
   63TMC2    C7  986   3.054   1.113  10.023 -0.0007 -0.1340  0.3477
   63TMC2    C8  987   3.057   1.461  10.352  0.8459  0.2867 -0.5293
   63TMC2    O1  988   3.026   0.997   9.993  0.4894 -0.1992 -0.0774
   63TMC2    O2  989   3.171   1.493  10.334 -0.0918 -0.0718 -0.2710
   63TMC2    O5  990   2.967   1.546  10.414  0.6078  0.0304 -0.9560
   63TMC2    H5  991   2.874   1.513  10.420  1.0064 -0.9886 -0.3558
   64MPD2     C  992   2.343   0.792  10.301 -0.5470 -0.6759 -0.1611
   64MPD2    C1  993   2.455   0.712  10.317  0.1283 -0.5614  0.0431
   64MPD2    C2  994   2.579   0.777  10.335 -0.1078 -0.0144  0.2673
   64MPD2    C3  995   2.583   0.912  10.335  0.0225  0.4039 -0.2228
   64MPD2    C4  996   2.477   0.988  10.310 -0.2048  0.2966  0.1697
   64MPD2    C5  997   2.360   0.930  10.287  0.2745 -0.1916  0.4868
   64MPD2     H  998   2.677   0.729  10.338  0.7261  1.9254  3.3585
   64MPD2    H1  999   2.477   1.096  10.299  2.7708  0.2253 -0.4696
   64MPD2    H2 1000   2.247   0.743  10.292 -0.4946 -1.3032  2.8086
   64MPD2    H3 1001   2.280   0.998  10.259  0.6393 -0.3970 -1.0517
   64MPD2     N 1002   2.711   0.970  10.354 -0.3575  0.0130 -0.3113
   64MPD2    H5 1003   2.789   0.906  10.348  0.1936  0.5090  1.6947
   64MPD2    N1 1004   2.459   0.571  10.307 -0.1577 -0.0028 -0.7021
   64MPD2    H7 1005   2.547   0.523  10.318  0.3790  1.3413  0.7745
   65TMC2    C1 1006   3.800   0.225  15.535 -0.4231 -0.2362  0.2405
   65TMC2    C2 1007   3.775   0.161  15.411  0.2927  0.4617 -0.2527
   65TMC2    C3 1008   3.687   0.233  15.330  0.8284 -0.8629 -0.4024
   65TMC2    C4 1009   3.762   0.355  15.559  0.2150 -0.1674  0.1213
   65TMC2    C5 1010   3.679   0.416  15.464  0.5224  0.1717 -0.1153
   65TMC2    C6 1011   3.647   0.360  15.348  0.5732 -0.1167 -0.0068
   65TMC2     C 1012   3.868   0.153  15.642  0.1387 -0.7409 -0.8241
   65TMC2     O 1013   3.897   0.215  15.744 -0.0174 -0.6035 -0.1193
   65TMC2     H 1014   3.801   0.057  15.391  0.3090  0.4213 -0.0260
   65TMC2    H1 1015   3.780   0.409  15.651 -0.1162 -0.2262  0.2195
   65TMC2    H2 1016   3.583   0.416  15.282 -0.7668 -2.5332 -0.7579
   65TMC2    C7 1017   3.659   0.564  15.468 -0.8356 -0.1770 -0.5311
   65TMC2    C8 1018   3.640   0.165  15.214 -0.9933  0.3596 -1.2149
   65TMC2    O1 1019   3.605   0.610  15.365  0.3265  0.2397 -0.1512
   65TMC2    O2 1020   3.721   0.112  15.140  0.2405 -0.1386 -0.3296
   65TMC2    O5 1021   3.519   0.199  15.186 -0.7607  0.1156 -0.2645
   65TMC2    H5 1022   3.471   0.240  15.262 -0.0171 -0.6774  0.6347
   66MPD2     C 1023   3.965   4.668  15.818  0.1207  0.2622  0.1219
   66MPD2    C1 1024   3.875   4.649  15.716 -0.0226  0.0154  0.6097
   66MPD2    C2 1025   3.824   4.526  15.694 -0.4438  0.5086  0.3596
   66MPD2    C3 1026   3.854   4.418  15.776 -0.8604 -0.2165 -0.0908
   66MPD2    C4 1027   3.936   4.441  15.876 -0.4146 -0.2150  0.4574
   66MPD2    C5 1028   3.990   4.561  15.898  0.5331 -0.2937 -0.7405
   66MPD2     H 1029   3.761   4.501  15.610 -0.2413  0.3878  0.2451
   66MPD2    H1 1030   3.967   4.359  15.939 -1.0713  0.5019  1.7166
   66MPD2    H2 1031   4.010   0.028  15.844  0.2188 -0.0199  1.0171
   66MPD2    H3 1032   4.049   4.571  15.988  0.4201  3.0839 -1.0100
   66MPD2     N 1033   3.804   4.281  15.759 -0.4800  0.0811  0.1725
   66MPD2    H5 1034   3.827   4.212  15.830  1.3632 -0.0604 -0.5751
   66MPD2    N1 1035   3.846   0.017  15.624 -0.0533 -0.1572 -0.2686
   66MPD2    H7 1036   3.780   4.726  15.551 -1.4446  2.8796 -0.1327
   67TMC2    C1 1037   3.891   4.482  14.271 -0.0978 -0.2871  0.1686
   67TMC2    C2 1038   3.814   4.588  14.317 -0.1600  0.3317 -0.6951
   67TMC2    C3 1039   3.855   4.650  14.431 -0.1119  0.0358  0.2339
   67TMC2    C4 1040   4.009   4.443  14.330  0.2912  0.0769 -0.4494
   67TMC2    C5 1041   4.043   4.502  14.451 -0.5106 -0.1340  0.2195
   67TMC2    C6 1042   3.967   4.605  14.497 -0.3291 -0.4996 -0.6029
   67TMC2     C 1043   3.843   4.401  14.160 -0.3812 -0.4313  0.6578
   67TMC2     O 1044   3.923   4.316  14.130 -0.1114 -0.0379  0.5610
   67TMC2     H 1045   3.734   4.635  14.262 -0.2858  0.8757 -0.0359
   67TMC2    H1 1046   4.090   4.385  14.287  2.1965  1.0232  1.7970
   67TMC2    H2 1047   3.993   4.648  14.593  2.5070  0.0855 -1.6419
   67TMC2    C7 1048   4.160   4.444  14.523  0.8794  0.3700 -0.0879
   67TMC2    C8 1049   3.769   0.018  14.488  0.9037  0.2234 -0.0732
   67TMC2    O1 1050   4.238   4.382  14.452  0.6188 -0.4781 -0.2325
   67TMC2    O2 1051   3.655   0.037  14.439  0.5418 -0.3572 -0.8404
   67TMC2    O5 1052   3.847   0.105  14.553 -0.2946 -0.0629  0.7064
   67TMC2    H5 1053   3.940   0.086  14.578  0.6634  1.0278 -1.9204
   68MPD2     C 1054   3.668   4.273  13.945  0.3128  0.3608 -0.3143
   68MPD2    C1 1055   3.624   4.347  14.053 -0.0933  0.3171  0.5598
   68MPD2    C2 1056   3.484   4.366  14.059 -0.7571  0.2368 -0.3930
   68MPD2    C3 1057   3.403   4.312  13.962 -0.0026 -0.6033 -1.0215
   68MPD2    C4 1058   3.444   4.250  13.852  0.1287 -0.3416  0.2374
   68MPD2    C5 1059   3.578   4.229  13.846  0.2465 -0.8169 -0.7105
   68MPD2     H 1060   3.443   4.435  14.131  2.1131  0.6963  0.7881
   68MPD2    H1 1061   3.379   4.186  13.793 -1.5020  0.5337  1.0775
   68MPD2    H2 1062   3.771   4.243  13.934  0.1508  0.6780 -2.7617
   68MPD2    H3 1063   3.625   4.182  13.761 -0.5759 -1.6436 -0.7111
   68MPD2     N 1064   3.267   4.338  13.964 -0.4226  0.2885  0.3945
   68MPD2    H5 1065   3.210   4.310  13.885  0.5542  1.3859 -0.7002
   68MPD2    N1 1066   3.709   4.408  14.147  0.2034  0.5245  0.4608
   68MPD2    H7 1067   3.663   4.448  14.228 -3.2084  0.6677 -1.5233
   69TMC2    C1 1068   1.150   1.073  12.180 -0.0015  0.8668  0.2474
   69TMC2    C2 1069   1.020   1.088  12.231 -0.4446  0.0991  0.0932
   69TMC2    C3 1070   0.945   1.173  12.159  0.8006  0.2495  0.4928
   69TMC2    C4 1071   1.204   1.156  12.096  0.0774  0.0684  0.1403
   69TMC2    C5 1072   1.123   1.242  12.029  0.0916 -0.4852 -0.4790
   69TMC2    C6 1073   0.993   1.256  12.061  0.3038 -0.0167  0.2969
   69TMC2     C 1074   1.187   0.934  12.166 -0.0768 -0.1049  0.3795
   69TMC2     O 1075   1.150   0.847  12.243 -0.7934  0.3247 -0.1744
   69TMC2     H 1076   0.981   1.014  12.300  0.1702 -0.1904  0.1355
   69TMC2    H1 1077   1.311   1.151  12.078  0.1633 -0.6631  0.8472
   69TMC2    H2 1078   0.917   1.305  12.000  0.1555  0.5434  0.9255
   69TMC2    C7 1079   1.154   1.239  11.891  0.0637  0.2510 -0.1035
   69TMC2    C8 1080   0.814   1.204  12.213 -0.1486 -0.0742 -0.3087
   69TMC2    O1 1081   1.255   1.175  11.874  0.1533 -0.3282  0.0432
   69TMC2    O2 1082   0.786   1.326  12.214 -0.3365 -0.2699  0.0072
   69TMC2    O5 1083   0.796   1.128  12.318  0.6115  0.4829  0.0711
   69TMC2    H5 1084   0.787   1.033  12.298 -1.1078  0.6176  0.1700
   70MPD2     C 1085   1.379   0.842  11.868 -0.2280 -0.2786  0.2635
   70MPD2    C1 1086   1.323   0.820  11.994 -0.2949 -0.5711 -0.0783
   70MPD2    C2 1087   1.340   0.695  12.058  0.4819  0.5694  0.2125
   70MPD2    C3 1088   1.408   0.593  12.001  0.7480  0.5132 -0.0399
   70MPD2    C4 1089   1.454   0.614  11.871  0.9853 -0.2705  0.0685
   70MPD2    C5 1090   1.448   0.736  11.818  0.3702  0.3158  0.5370
   70MPD2     H 1091   1.292   0.687  12.155  2.2094  0.8952  1.0955
   70MPD2    H1 1092   1.499   0.536  11.812  1.1734 -1.9870  2.4870
   70MPD2    H2 1093   1.362   0.926  11.801 -0.9702  1.4833  2.6200
   70MPD2    H3 1094   1.496   0.751  11.722 -0.2620 -1.9181 -0.1284
   70MPD2     N 1095   1.418   0.459  12.047  0.2862 -0.5684  0.0090
   70MPD2    H5 1096   1.470   0.395  11.987  1.1428  0.1196  0.0145
   70MPD2    N1 1097   1.250   0.926  12.048 -0.2148 -0.1556  0.1561
   70MPD2    H7 1098   1.249   1.014  11.997 -2.1253 -0.5373 -0.4475
   71TMC2    C1 1099   3.652   2.056   1.800 -0.7112  0.2155 -0.4590
   71TMC2    C2 1100   3.776   2.096   1.843 -0.3126  0.1047 -0.2406
   71TMC2    C3 1101   3.779   2.209   1.913 -0.1024  0.6174 -0.6341
   71TMC2    C4 1102   3.536   2.121   1.831 -0.1473 -0.6868  0.0625
   71TMC2    C5 1103   3.545   2.221   1.921 -0.0493  0.1946 -0.1869
   71TMC2    C6 1104   3.669   2.269   1.964  0.1054  0.0457  0.3628
   71TMC2     C 1105   3.646   1.960   1.693 -0.1432  0.1908  0.0676
   71TMC2     O 1106   3.749   1.950   1.624 -0.3565 -0.3948  0.5106
   71TMC2     H 1107   3.866   2.036   1.833  0.1514  0.6239  0.8006
   71TMC2    H1 1108   3.445   2.102   1.777 -1.4132  1.8809  1.3170
   71TMC2    H2 1109   3.670   2.354   2.032 -0.4019  1.2083 -1.0904
   71TMC2    C7 1110   3.427   2.287   1.965 -0.3639 -0.7908 -0.3553
   71TMC2    C8 1111   3.912   2.260   1.949 -0.1154  0.0801 -0.0359
   71TMC2    O1 1112   3.444   2.397   2.020  0.6601  0.4883  0.2247
   71TMC2    O2 1113   4.012   2.214   1.894 -0.7423 -0.1742 -0.6125
   71TMC2    O5 1114   3.904   2.303   2.072  0.2290  0.0284  0.3436
   71TMC2    H5 1115   3.813   2.320   2.106  0.2683 -0.4815  0.7055
   72MPD2     C 1116   3.353   1.678   1.387 -0.2450 -0.8065  0.7087
   72MPD2    C1 1117   3.489   1.693   1.390  0.0820  0.2375  0.0225
   72MPD2    C2 1118   3.549   1.781   1.480  0.1638  0.2635  0.2780
   72MPD2    C3 1119   3.469   1.832   1.577  0.6635  0.4245 -0.1088
   72MPD2    C4 1120   3.337   1.797   1.588  0.4027 -0.2449 -0.0983
   72MPD2    C5 1121   3.279   1.715   1.494  0.4102 -0.4974 -0.8152
   72MPD2     H 1122   3.657   1.789   1.481  0.2911 -0.9272 -2.6785
   72MPD2    H1 1123   3.277   1.818   1.676 -1.1560 -3.5795 -0.3448
   72MPD2    H2 1124   3.287   1.612   1.332 -0.5637 -0.2463  0.4175
   72MPD2    H3 1125   3.175   1.686   1.506 -0.1569  1.5447 -0.8513
   72MPD2     N 1126   3.521   1.914   1.680  0.2631 -0.3843 -0.1928
   72MPD2    H5 1127   3.456   1.933   1.756  0.7538 -1.1336  0.4022
   72MPD2    N1 1128   3.576   1.624   1.302 -0.4575  0.6184 -0.8301
   72MPD2    H7 1129   3.675   1.639   1.319 -0.1475  1.8816 -3.7242
   73TMC2    C1 1130   2.945   3.587  13.343  0.1399 -0.3043 -0.3793
   73TMC2    C2 1131   2.929   3.652  13.221  0.3759  0.7344 -0.9679
   73TMC2    C3 1132   2.900   3.577  13.109 -0.6145  0.1425 -0.3254
   73TMC2    C4 1133   2.937   3.454  13.343  0.3210 -0.1994 -0.4443
   73TMC2    C5 1134   2.926   3.381  13.230 -0.0510  0.4997 -1.1611
   73TMC2    C6 1135   2.903   3.442  13.113  0.3673  0.8086  0.6438
   73TMC2     C 1136   3.053   3.627  13.432  0.1416  0.5321  0.4134
   73TMC2     O 1137   3.122   3.534  13.477 -0.1652 -0.2554  0.4285
   73TMC2     H 1138   2.941   3.759  13.211  0.7358  0.7978  0.1378
   73TMC2    H1 1139   2.944   3.396  13.434 -2.0032  0.1078 -0.0744
   73TMC2    H2 1140   2.875   3.381  13.028 -0.9533  4.4628 -1.5037
   73TMC2    C7 1141   3.030   3.281  13.216 -0.2650  0.1927 -0.0858
   73TMC2    C8 1142   2.839   3.650  12.999  0.0238 -0.1828 -0.6523
   73TMC2    O1 1143   3.043   3.229  13.106  0.2540 -0.5720  0.2227
   73TMC2    O2 1144   2.766   3.747  13.005 -0.0264 -0.7576  0.0419
   73TMC2    O5 1145   2.839   3.568  12.892  0.4775 -0.5984  0.1129
   73TMC2    H5 1146   2.918   3.510  12.890 -0.1665 -1.4530 -0.8698
   74MPD2     C 1147   3.407   3.970  13.577 -0.3089 -0.4998  0.0872
   74MPD2    C1 1148   3.422   3.835  13.558 -0.8658 -0.0036  0.9517
   74MPD2    C2 1149   3.304   3.765  13.518 -0.1651 -0.1932  0.5562
   74MPD2    C3 1150   3.187   3.828  13.498 -0.3468 -0.9730  0.3977
   74MPD2    C4 1151   3.180   3.964  13.507 -0.1095 -0.1409 -0.2837
   74MPD2    C5 1152   3.288   4.033  13.555 -0.4324  0.1678 -0.9120
   74MPD2     H 1153   3.312   3.664  13.480 -1.2937 -0.8099  1.9553
   74MPD2    H1 1154   3.095   4.020  13.468 -0.0366 -0.5443 -1.0007
   74MPD2    H2 1155   3.490   4.031  13.609 -0.3332 -1.1228  1.3439
   74MPD2    H3 1156   3.292   4.141  13.558  0.6824  0.0911  0.1495
   74MPD2     N 1157   3.075   3.767  13.436 -0.0020  0.2195 -0.3162
   74MPD2    H5 1158   3.003   3.833  13.410 -0.2952 -0.4763 -1.2809
   74MPD2    N1 1159   3.548   3.772  13.577  0.0846  0.7980 -0.3160
   74MPD2    H7 1160   3.628   3.831  13.597  1.0291 -0.1938 -1.1646
   75TMC2    C1 1161   3.061   4.416  14.031 -0.3277 -1.1011 -0.6345
   75TMC2    C2 1162   2.966   4.448  14.125 -0.8392 -0.3323  0.2869
   75TMC2    C3 1163   2.847   4.497  14.090  0.5162  0.4120 -0.1253
   75TMC2    C4 1164   3.031   4.429  13.898  0.1875  0.3856 -0.2474
   75TMC2    C5 1165   2.910   4.482  13.866 -0.5583  0.0055  0.1489
   75TMC2    C6 1166   2.822   4.523  13.961 -0.6154 -0.0439  0.3807
   75TMC2     C 1167   3.199   4.390  14.070 -0.9380  0.0117 -0.0343
   75TMC2     O 1168   3.231   4.401  14.185 -0.0599 -0.1776  0.3936
   75TMC2     H 1169   3.004   4.451  14.226  1.7068 -0.6932 -0.6486
   75TMC2    H1 1170   3.098   4.430  13.812  0.8947  0.3516  0.3039
   75TMC2    H2 1171   2.735   4.583  13.938 -0.5500  0.6354  1.8957
   75TMC2    C7 1172   2.888   4.521  13.728  0.3778  0.2592  0.1424
   75TMC2    C8 1173   2.770   4.569  14.187  0.2135  0.2359 -0.1035
   75TMC2    O1 1174   2.933   4.454  13.634  0.4790 -0.4568 -0.3023
   75TMC2    O2 1175   2.701   4.666  14.171  0.5998 -0.4870 -0.0949
   75TMC2    O5 1176   2.771   4.491  14.294 -0.3848  0.0384 -0.0603
   75TMC2    H5 1177   2.788   4.396  14.274 -0.6237 -0.3821  1.7154
   76TMC2    C1 1178   1.942   0.214  11.637  0.2268 -0.2484  0.1845
   76TMC2    C2 1179   1.828   0.157  11.681  0.0513 -0.5789  0.1808
   76TMC2    C3 1180   1.838   0.036  11.757  0.0122 -0.3377 -0.4743
   76TMC2    C4 1181   2.063   0.161  11.659  0.1966 -0.4579  0.3050
   76TMC2    C5 1182   2.063   0.033  11.714  0.3639  0.0861 -0.3898
   76TMC2    C6 1183   1.955   4.704  11.763  0.0089  0.2503 -0.7926
   76TMC2     C 1184   1.925   0.336  11.560  0.0016  0.8682 -0.2302
   76TMC2     O 1185   1.818   0.390  11.574 -0.5436  0.0815 -0.5242
   76TMC2     H 1186   1.729   0.199  11.667 -0.3031 -1.5150 -0.1350
   76TMC2    H1 1187   2.158   0.197  11.621  0.2747  1.4962  2.3878
   76TMC2    H2 1188   1.958   4.598  11.788 -1.6210  0.0953 -1.2601
   76TMC2    C7 1189   2.186   4.708  11.757 -0.1446 -0.3183 -0.3106
   76TMC2    C8 1190   1.712   4.720  11.811  0.2907  0.5701  0.3799
   76TMC2    O1 1191   2.187   4.585  11.758  0.2309  0.2026  0.1844
   76TMC2    O2 1192   1.604   0.028  11.783 -0.0760 -0.2063 -0.0014
   76TMC2    O5 1193   1.743   4.643  11.921 -0.1483  0.0729 -0.1295
   76TMC2    H5 1194   1.831   4.599  11.920 -0.3439 -0.3534  0.7276
   77MPD2     C 1195   2.102   0.716  11.259 -0.0804 -0.6994  0.0500
   77MPD2    C1 1196   1.971   0.690  11.302  0.0140  0.0798  0.0285
   77MPD2    C2 1197   1.951   0.580  11.381 -0.3696 -0.7661 -0.6768
   77MPD2    C3 1198   2.056   0.488  11.408  1.3209  0.2333  0.3144
   77MPD2    C4 1199   2.186   0.522  11.368 -0.1286 -0.7494 -0.1244
   77MPD2    C5 1200   2.211   0.631  11.292 -0.0620 -0.4597  0.5470
   77MPD2     H 1201   1.852   0.547  11.411 -1.5495  0.5448 -3.1798
   77MPD2    H1 1202   2.267   0.452  11.387 -0.9063 -1.1188  1.8468
   77MPD2    H2 1203   2.123   0.804  11.198 -1.2949 -0.3943  0.0752
   77MPD2    H3 1204   2.304   0.658  11.242 -0.1514  0.1568  0.7147
   77MPD2     N 1205   2.043   0.377  11.499 -0.1251  0.2503  0.1183
   77MPD2    H5 1206   2.131   0.328  11.508 -0.1359 -0.1324 -1.8348
   77MPD2    N1 1207   1.863   0.776  11.265 -0.1015 -0.4181  0.1078
   77MPD2    H7 1208   1.885   0.852  11.202 -0.8453 -1.3784 -1.3266
   78TMC2    C1 1209   3.246   1.282   1.356  0.9728  0.4080  0.6159
   78TMC2    C2 1210   3.159   1.324   1.453 -0.5426  0.3813 -0.7411
   78TMC2    C3 1211   3.214   1.364   1.573 -0.0676  0.1214  0.2917
   78TMC2    C4 1212   3.382   1.287   1.380 -0.0987  0.9885  0.3873
   78TMC2    C5 1213   3.433   1.322   1.497 -0.1654 -0.4851 -0.3988
   78TMC2    C6 1214   3.345   1.360   1.605  0.1782 -0.9103  0.8647
   78TMC2     C 1215   3.201   1.243   1.223 -0.2741  0.0158  0.2505
   78TMC2     O 1216   3.261   1.150   1.173  0.2064  0.0137 -0.6889
   78TMC2     H 1217   3.051   1.322   1.441 -0.4061 -2.2830 -1.5941
   78TMC2    H1 1218   3.444   1.247   1.300 -2.2672 -0.2277 -0.6968
   78TMC2    H2 1219   3.376   1.394   1.703  1.8034  2.7878 -0.9315
   78TMC2    C7 1220   3.574   1.306   1.521  0.3296 -0.2947  0.2687
   78TMC2    C8 1221   3.111   1.391   1.669 -0.1170 -0.3246  0.3186
   78TMC2    O1 1222   3.644   1.299   1.421 -0.1519  0.2090 -0.1564
   78TMC2    O2 1223   2.993   1.357   1.665  0.7369 -0.9375  0.6592
   78TMC2    O5 1224   3.168   1.481   1.749  0.0515  0.6860  0.4121
   78TMC2    H5 1225   3.115   1.493   1.831 -2.7004 -0.1816 -1.2434
   79MPD1     C 1226   2.801   1.180   0.909 -1.1031 -0.6329 -0.4371
   79MPD1    C1 1227   2.926   1.121   0.909 -0.3847  0.4312  0.1868
   79MPD1    C2 1228   3.024   1.172   1.000  0.5308 -0.8805 -0.5531
   79MPD1    C3 1229   2.998   1.263   1.095 -0.9499  0.8480 -0.0413
   79MPD1    C4 1230   2.870   1.317   1.090  0.0534  0.3043 -0.1079
   79MPD1    C5 1231   2.767   1.268   1.010 -0.7778 -0.1909 -0.2213
   79MPD1     H 1232   3.120   1.122   1.004  0.6555 -0.7225 -1.5027
   79MPD1    H1 1233   2.843   1.394   1.161  0.9756  0.3680  0.1772
   79MPD1    H2 1234   2.722   1.144   0.844 -1.5234  1.0374 -0.8568
   79MPD1    H3 1235   2.667   1.309   1.010 -1.9286 -2.9722 -0.9966
   79MPD1     N 1236   3.088   1.310   1.188  0.5454 -0.1250  0.0235
   79MPD1    H5 1237   3.050   1.386   1.244  0.5304 -0.7879  0.9149
   79MPD1    N1 1238   2.971   1.037   0.810 -0.2779 -0.0353 -0.2017
   79MPD1    H6 1239   3.038   0.975   0.855 -0.5455 -0.9573 -1.0876
   79MPD1    H7 1240   2.894   0.975   0.786 -1.3276  1.8829 -1.7766
   80TMC2    C1 1241   1.476   0.181  10.923  0.0450 -0.2030  0.1688
   80TMC2    C2 1242   1.566   0.225  10.832  0.2311 -0.6887  0.2790
   80TMC2    C3 1243   1.625   0.131  10.750 -0.2945  0.0751  0.1659
   80TMC2    C4 1244   1.434   0.046  10.925 -0.0438 -0.0490  0.0054
   80TMC2    C5 1245   1.512   4.687  10.860 -0.5349  0.6176  0.0766
   80TMC2    C6 1246   1.606   4.733  10.766 -0.0175  0.4016  0.1840
   80TMC2     C 1247   1.396   0.279  10.992  0.2687 -0.9311  0.0650
   80TMC2     O 1248   1.411   0.398  10.964  0.0663  0.0438 -0.4198
   80TMC2     H 1249   1.584   0.331  10.816 -0.0649 -0.4953  1.2506
   80TMC2    H1 1250   1.357   0.004  10.988 -1.2138  2.0644  0.0058
   80TMC2    H2 1251   1.654   4.662  10.701  0.6678  1.2723 -0.2649
   80TMC2    C7 1252   1.474   4.545  10.855  0.8157  0.3058  0.0025
   80TMC2    C8 1253   1.666   0.180  10.622  0.5161 -0.3045  0.4435
   80TMC2    O1 1254   1.491   4.491  10.746  0.5254  0.3445 -0.0285
   80TMC2    O2 1255   1.613   0.155  10.517 -0.3318  0.1012 -0.1602
   80TMC2    O5 1256   1.740   0.289  10.641 -0.0945 -0.2303  0.5371
   80TMC2    H5 1257   1.771   0.307  10.732  0.0542 -1.7541  0.7954
   81MPD2     C 1258   1.163   0.423  11.103  0.4151  0.1192 -0.0659
   81MPD2    C1 1259   1.211   0.305  11.154 -0.3804 -0.4260  0.0260
   81MPD2    C2 1260   1.153   0.253  11.267  0.2521 -0.0260 -0.0408
   81MPD2    C3 1261   1.045   0.319  11.324  0.2928 -0.4145 -0.1507
   81MPD2    C4 1262   1.003   0.440  11.269  0.5746 -0.0304  0.6055
   81MPD2    C5 1263   1.059   0.492  11.160  0.3522  0.2411  0.2908
   81MPD2     H 1264   1.192   0.158  11.301 -0.6634  0.4728  2.4561
   81MPD2    H1 1265   0.931   0.504  11.319 -1.0458 -0.7359 -0.8462
   81MPD2    H2 1266   1.200   0.470  11.013 -3.2692 -0.1326 -1.7233
   81MPD2    H3 1267   1.025   0.588  11.123  2.1846  0.1952 -1.4895
   81MPD2     N 1268   0.971   0.268  11.432  0.3578 -0.0071 -0.0039
   81MPD2    H5 1269   0.897   0.327  11.468 -2.2117 -3.6454  0.6802
   81MPD2    N1 1270   1.315   0.234  11.090  0.6292  0.4037 -0.4185
   81MPD2    H7 1271   1.328   0.138  11.121 -0.9853  0.4000  0.2160
   82TMC2    C1 1272   4.279   3.614  11.195  0.1584  0.0858  0.6680
   82TMC2    C2 1273   4.370   3.691  11.269  0.3791  0.6124  0.8811
   82TMC2    C3 1274   4.387   3.654  11.397  0.3839  0.4365 -1.6030
   82TMC2    C4 1275   4.216   3.501  11.253  0.1421  0.2399 -0.0273
   82TMC2    C5 1276   4.245   3.469  11.384  0.2172  0.3876  0.3385
   82TMC2    C6 1277   4.334   3.549  11.456  0.8482  0.2928 -0.0769
   82TMC2     C 1278   4.206   3.669  11.081  0.6179  0.3961 -0.0347
   82TMC2     O 1279   4.138   3.589  11.024 -0.0093  0.1734  0.3561
   82TMC2     H 1280   4.428   3.773  11.228  2.0005 -2.2010 -2.4527
   82TMC2    H1 1281   4.157   3.434  11.193  1.2749 -2.3779  1.7722
   82TMC2    H2 1282   4.366   3.529  11.558  0.2444 -0.6881 -0.0829
   82TMC2    C7 1283   4.162   3.385  11.465 -0.5130 -0.0022 -0.1477
   82TMC2    C8 1284   4.510   3.705  11.455 -0.3327 -0.0574 -0.9234
   82TMC2    O1 1285   4.187   3.376  11.580 -0.1939  0.6407  0.0302
   82TMC2    O2 1286   4.595   3.631  11.502  0.1542  0.5096 -0.1771
   82TMC2    O5 1287   4.519   3.839  11.446 -0.1029 -0.0670  0.1384
   82TMC2    H5 1288   4.430   3.878  11.430  1.1680  2.6828 -0.1704
   83MPD2     C 1289   4.011   4.017  10.768 -0.8119 -0.1423  1.1282
   83MPD2    C1 1290   3.984   3.882  10.787  0.0205  0.5441 -0.4646
   83MPD2    C2 1291   4.041   3.814  10.897  0.1985 -0.7897 -0.1939
   83MPD2    C3 1292   4.142   3.871  10.963  0.1253 -0.2489 -0.1476
   83MPD2    C4 1293   4.172   4.002  10.937 -0.9436 -0.2838  0.6161
   83MPD2    C5 1294   4.108   4.073  10.844  0.0639  0.4996 -0.0697
   83MPD2     H 1295   4.012   3.714  10.927 -1.0431 -0.6839 -1.0749
   83MPD2    H1 1296   4.255   4.050  10.987 -0.2874  0.7944 -1.5262
   83MPD2    H2 1297   3.962   4.068  10.686  1.7412  0.8064  0.1991
   83MPD2    H3 1298   4.134   4.177  10.826  3.8495 -0.5363 -0.5435
   83MPD2     N 1299   4.217   3.808  11.063  0.2825 -0.1534 -0.1132
   83MPD2    H5 1300   4.274   3.868  11.121 -0.2966  0.8604 -0.6093
   83MPD2    N1 1301   3.892   3.822  10.703 -0.5964 -0.0134 -0.6822
   83MPD2    H7 1302   3.863   3.868  10.617  0.8305  0.0193 -1.1495
   84TMC2    C1 1303   0.477   2.880  11.304 -0.6023 -0.0176  0.1370
   84TMC2    C2 1304   0.536   2.860  11.425 -0.5905  0.4304  0.6550
   84TMC2    C3 1305   0.532   2.733  11.478 -0.1628 -0.5485  0.4989
   84TMC2    C4 1306   0.406   2.779  11.237 -0.1296  0.1053  0.8835
   84TMC2    C5 1307   0.401   2.655  11.299 -0.6998  0.1298 -0.0565
   84TMC2    C6 1308   0.465   2.627  11.422  0.1095  0.2371  0.3875
   84TMC2     C 1309   0.462   3.025  11.269 -0.3764 -0.0730  0.2596
   84TMC2     O 1310   0.530   3.099  11.341  0.1434  0.5446  0.0439
   84TMC2     H 1311   0.597   2.935  11.475 -0.2339 -0.5858  1.7586
   84TMC2    H1 1312   0.345   2.804  11.151  1.1509  1.3055  0.3216
   84TMC2    H2 1313   0.477   2.528  11.464  1.1160 -0.3845 -1.3657
   84TMC2    C7 1314   0.356   2.537  11.229 -0.4878  0.2464  0.0524
   84TMC2    C8 1315   0.575   2.719  11.613  0.1192  0.3101 -0.6425
   84TMC2    O1 1316   0.314   2.440  11.290  0.2372  0.1762 -0.1350
   84TMC2    O2 1317   0.675   2.767  11.661 -0.0762 -0.2592 -0.5583
   84TMC2    O5 1318   0.468   2.666  11.667 -0.2232  0.2682 -0.2993
   84TMC2    H5 1319   0.388   2.677  11.612 -0.1574  1.5777 -0.1297
   85TMC2    C1 1320   1.513   1.903  16.305 -0.1132  0.3244  0.6116
   85TMC2    C2 1321   1.514   2.028  16.356  0.1330  0.4775  0.4917
   85TMC2    C3 1322   1.526   2.124  16.260 -0.8118 -0.5576  0.1641
   85TMC2    C4 1323   1.558   1.868  16.179  0.5154 -0.1273  0.3159
   85TMC2    C5 1324   1.590   1.971  16.100 -0.0698  0.2036  0.0717
   85TMC2    C6 1325   1.573   2.103  16.136 -0.1145  0.4422 -0.5309
   85TMC2     C 1326   1.528   1.802  16.408 -0.0974 -0.4276  0.4129
   85TMC2     O 1327   1.588   1.840  16.507  0.1284  0.4749  0.1203
   85TMC2     H 1328   1.523   2.049  16.462  0.6511 -2.9873  1.1439
   85TMC2    H1 1329   1.593   1.768  16.158  0.2796 -0.6905  2.6139
   85TMC2    H2 1330   1.573   2.181  16.060 -1.0592  1.5398  0.5857
   85TMC2    C7 1331   1.694   1.937  16.005 -0.2377 -0.3380 -0.1722
   85TMC2    C8 1332   1.514   2.264  16.297  0.4101 -0.3603 -0.2472
   85TMC2    O1 1333   1.769   1.844  16.024 -0.2223  0.5111 -0.1085
   85TMC2    O2 1334   1.552   2.345  16.216 -0.0370  0.4662 -0.1842
   85TMC2    O5 1335   1.406   2.270  16.379  0.3531 -0.5936 -0.4910
   85TMC2    H5 1336   1.360   2.185  16.394 -1.0382  0.3619  0.7127
   86MPD2     C 1337   1.453   1.342  16.598  0.0155 -0.3047 -0.2934
   86MPD2    C1 1338   1.357   1.359  16.496  0.2449 -0.1653 -0.5621
   86MPD2    C2 1339   1.376   1.468  16.414  0.0682 -0.3892 -0.2836
   86MPD2    C3 1340   1.459   1.569  16.450  0.3730  0.2412  0.5627
   86MPD2    C4 1341   1.564   1.552  16.548 -0.0985  0.7465 -0.0110
   86MPD2    C5 1342   1.557   1.436  16.612 -0.3551  0.5191  0.1995
   86MPD2     H 1343   1.306   1.481  16.333  0.3939  0.7046 -0.3979
   86MPD2    H1 1344   1.637   1.628  16.570  1.5336 -0.9234  0.2901
   86MPD2    H2 1345   1.462   1.248  16.652 -2.0426 -2.0752 -3.0466
   86MPD2    H3 1346   1.635   1.404  16.680  0.7713  0.9982 -0.8626
   86MPD2     N 1347   1.459   1.684  16.371  0.5133  0.2250 -0.3940
   86MPD2    H5 1348   1.400   1.673  16.289 -1.1194 -0.3108  0.8409
   86MPD2    N1 1349   1.267   1.253  16.471 -0.4940 -0.3829  0.5074
   86MPD2    H7 1350   1.224   1.252  16.379 -0.9884 -0.8739  0.7441
   87TMC2    C1 1351   3.564   0.099   0.367 -0.0066 -0.5493  0.6659
   87TMC2    C2 1352   3.617   0.184   0.463 -0.9114 -0.6588 -0.0188
   87TMC2    C3 1353   3.566   0.314   0.446 -0.0555 -0.0633  0.3446
   87TMC2    C4 1354   3.459   0.129   0.282  0.4432 -0.5101 -0.3078
   87TMC2    C5 1355   3.411   0.255   0.281 -0.2263  0.7658  0.1486
   87TMC2    C6 1356   3.465   0.347   0.365  0.3379 -0.0885  0.2511
   87TMC2     C 1357   3.631   4.710   0.343 -0.1218  0.3870  1.2760
   87TMC2     O 1358   3.559   4.619   0.297 -0.0667 -0.4492  0.8106
   87TMC2     H 1359   3.701   0.157   0.525  1.2295  1.4895 -1.9924
   87TMC2    H1 1360   3.421   0.044   0.226  1.9585 -0.1523 -1.8715
   87TMC2    H2 1361   3.412   0.439   0.386  0.9357  0.1802  0.5777
   87TMC2    C7 1362   3.276   0.282   0.229  0.1327  0.1140 -0.2030
   87TMC2    C8 1363   3.586   0.406   0.555  0.6148  0.2730  0.1042
   87TMC2    O1 1364   3.216   0.371   0.288 -0.0437 -0.1824  0.2356
   87TMC2    O2 1365   3.504   0.494   0.582 -0.2707  0.7437 -0.2069
   87TMC2    O5 1366   3.715   0.402   0.591 -0.5666 -0.0741  0.3329
   87TMC2    H5 1367   3.765   0.332   0.544 -0.0485 -0.3258  1.2514
   88MPD2     C 1368   3.073   0.081   0.018  0.1800 -0.3061  0.9755
   88MPD2    C1 1369   3.102   0.196   0.081  0.1795  0.2001  0.5741
   88MPD2    C2 1370   3.001   0.295   0.103  0.0400  0.7334  0.3456
   88MPD2    C3 1371   2.871   0.271   0.062 -0.6261 -0.0449 -0.3871
   88MPD2    C4 1372   2.838   0.149   0.005 -0.4680  0.7308  0.1191
   88MPD2    C5 1373   2.944   0.059  17.717 -0.6359  0.5557  0.2610
   88MPD2     H 1374   3.046   0.382   0.150  2.0399  0.2666 -0.7180
   88MPD2    H1 1375   2.738   0.130  17.712 -0.6360  1.2954  0.2950
   88MPD2    H2 1376   3.147   0.003   0.002 -1.4550 -1.3757 -1.5203
   88MPD2    H3 1377   2.921   4.705  17.660 -2.3164  0.4619  1.0694
   88MPD2     N 1378   2.765   0.361   0.091 -0.4660  0.9490 -0.2211
   88MPD2    H5 1379   2.674   0.317   0.097  0.0551 -0.6346 -3.4745
   88MPD2    N1 1380   3.234   0.202   0.133  0.2557  0.0827 -0.0890
   88MPD2    H7 1381   3.293   0.136   0.083 -0.8016  0.2312 -1.5537
   89TMC2    C1 1382   0.394   2.875   1.748  0.9619 -0.0264 -0.5274
   89TMC2    C2 1383   0.464   2.972   1.816 -0.3823 -0.5454  0.6364
   89TMC2    C3 1384   0.395   3.066   1.881  0.5217 -0.0565 -0.9572
   89TMC2    C4 1385   0.258   2.873   1.748  0.2448  0.3820 -0.2794
   89TMC2    C5 1386   0.198   2.974   1.814  0.1806  0.2153 -0.1526
   89TMC2    C6 1387   0.262   3.076   1.882  0.2186  0.0085 -0.7591
   89TMC2     C 1388   0.475   2.782   1.672  0.4770 -0.3954  0.1209
   89TMC2     O 1389   0.587   2.828   1.636 -0.0466 -0.0266 -0.1765
   89TMC2     H 1390   0.572   2.965   1.807 -0.2612  1.4441  0.5094
   89TMC2    H1 1391   0.210   2.826   1.663  0.9031 -0.8823  0.0402
   89TMC2    H2 1392   0.209   3.168   1.902  2.1068  0.4473  2.1607
   89TMC2    C7 1393   0.082   3.013   1.735  0.1256  0.1864 -0.5735
   89TMC2    C8 1394   0.467   3.183   1.935 -0.1525 -0.3688 -0.1592
   89TMC2    O1 1395   4.710   2.999   1.794  0.0148  0.1408 -0.6605
   89TMC2    O2 1396   0.434   3.296   1.900 -0.0698 -0.1874  0.4590
   89TMC2    O5 1397   0.581   3.136   1.976  0.0485  0.0003 -0.3273
   89TMC2    H5 1398   0.573   3.041   1.998 -1.0805 -0.4379 -2.6031
   90MPD2     C 1399   0.552   2.369   1.373  0.0040 -0.0233 -0.4147
   90MPD2    C1 1400   0.427   2.356   1.427 -0.4460  0.6282 -0.3060
   90MPD2    C2 1401   0.382   2.461   1.508 -0.5293 -0.3605 -0.2117
   90MPD2    C3 1402   0.457   2.578   1.531 -0.3278 -0.1674  0.3551
   90MPD2    C4 1403   0.580   2.598   1.456 -0.3969 -0.3290  0.6059
   90MPD2    C5 1404   0.614   2.492   1.381 -0.1123  0.2616 -0.3096
   90MPD2     H 1405   0.287   2.459   1.559  0.8433 -1.0418  2.3054
   90MPD2    H1 1406   0.636   2.690   1.463  0.5885 -0.8892  0.0461
   90MPD2    H2 1407   0.588   2.292   1.306  2.9323 -1.5675  2.9096
   90MPD2    H3 1408   0.707   2.502   1.326 -1.3171  0.6404 -2.3258
   90MPD2     N 1409   0.403   2.674   1.620 -1.2353 -0.4238  0.1410
   90MPD2    H5 1410   0.312   2.654   1.659 -0.7537 -0.9187  1.0112
   90MPD2    N1 1411   0.340   2.247   1.417 -0.2072  0.7568  0.8655
   90MPD2    H7 1412   0.259   2.239   1.476  0.3961 -1.9065  1.3404
   91TMC2    C1 1413   1.250   2.490  16.162  0.8452  0.3784  0.5338
   91TMC2    C2 1414   1.303   2.580  16.246 -0.4512  0.0481  0.2387
   91TMC2    C3 1415   1.260   2.579  16.373  0.1970  0.2537  0.2723
   91TMC2    C4 1416   1.143   2.415  16.196  0.8727 -0.0132 -0.0447
   91TMC2    C5 1417   1.104   2.409  16.329 -0.5074 -0.2061  0.3920
   91TMC2    C6 1418   1.156   2.499  16.422 -0.0456 -0.5856  0.7055
   91TMC2     C 1419   1.319   2.453  16.032  0.2421 -0.3332 -0.4017
   91TMC2     O 1420   1.267   2.369  15.958 -0.6560  0.2722  0.9200
   91TMC2     H 1421   1.388   2.640  16.214 -0.6596 -1.4985 -3.2490
   91TMC2    H1 1422   1.113   2.332  16.134  0.5771 -0.8765  1.2557
   91TMC2    H2 1423   1.128   2.499  16.527  0.6249 -0.5116  0.8857
   91TMC2    C7 1424   0.968   2.350  16.355  0.4290  0.5343 -0.0967
   91TMC2    C8 1425   1.334   2.648  16.474 -0.0341 -0.2313  0.1567
   91TMC2    O1 1426   0.956   2.298  16.465 -0.4311  0.5648 -0.0669
   91TMC2    O2 1427   1.455   2.657  16.483 -0.1745  0.5995  0.3107
   91TMC2    O5 1428   1.240   2.708  16.553 -0.1735 -0.2233 -0.5295
   91TMC2    H5 1429   1.152   2.699  16.510  0.3809 -1.9987 -1.2678
   92MPD2     C 1430   1.467   2.472  15.771  0.3587 -0.4880 -0.3252
   92MPD2    C1 1431   1.512   2.521  15.891 -0.1631 -0.1540 -0.0071
   92MPD2    C2 1432   1.645   2.560  15.888 -0.1816  0.4300 -0.7596
   92MPD2    C3 1433   1.723   2.565  15.779 -0.2202  0.0163 -0.3961
   92MPD2    C4 1434   1.663   2.534  15.660 -0.0443  0.4194  0.5128
   92MPD2    C5 1435   1.542   2.475  15.660  0.5772 -0.3807 -0.6095
   92MPD2     H 1436   1.690   2.592  15.982  1.4704  0.0409 -1.4078
   92MPD2    H1 1437   1.714   2.524  15.564 -2.0487  2.8880 -0.8204
   92MPD2    H2 1438   1.365   2.436  15.764 -0.0353  0.5497  0.1350
   92MPD2    H3 1439   1.497   2.443  15.567 -0.6533 -0.3114 -0.0401
   92MPD2     N 1440   1.858   2.601  15.803  0.0688 -0.4101 -0.3136
   92MPD2    H5 1441   1.883   2.602  15.901  2.1684 -2.2380 -0.8573
   92MPD2    N1 1442   1.446   2.512  16.012  0.2437 -0.1427  0.1494
   92MPD2    H7 1443   1.476   2.561  16.097 -2.8747  2.1534 -0.0582
   93TMC2    C1 1444   3.177   2.113  13.671  0.2014  0.1814 -0.0972
   93TMC2    C2 1445   3.163   2.039  13.554 -0.1779 -0.2308  1.2659
   93TMC2    C3 1446   3.263   2.035  13.475 -0.0883 -0.1512  0.2189
   93TMC2    C4 1447   3.283   2.189  13.700  0.3785  1.0681 -0.2970
   93TMC2    C5 1448   3.391   2.185  13.607 -0.2892 -0.8135  0.4862
   93TMC2    C6 1449   3.380   2.098  13.500  0.0243  0.0190  0.2362
   93TMC2     C 1450   3.061   2.140  13.745 -0.2638  0.2165  0.6885
   93TMC2     O 1451   3.068   2.210  13.844 -0.1100  0.2852  0.3491
   93TMC2     H 1452   3.075   1.978  13.535 -1.0880  1.6793 -0.6473
   93TMC2    H1 1453   3.288   2.243  13.794 -2.0015  1.2019 -0.2554
   93TMC2    H2 1454   3.450   2.092  13.418  0.0250 -1.8474  0.3659
   93TMC2    C7 1455   3.518   2.250  13.622 -0.9963 -0.4722  0.3799
   93TMC2    C8 1456   3.248   1.979  13.346 -0.2962  0.7723 -0.1261
   93TMC2    O1 1457   3.608   2.191  13.560 -0.4008 -0.6557 -0.5820
   93TMC2    O2 1458   3.152   1.985  13.272 -0.0630 -0.1102  0.1435
   93TMC2    O5 1459   3.340   1.880  13.334 -0.5180 -0.3179  0.2898
   93TMC2    H5 1460   3.397   1.880  13.414 -0.2745 -2.5938  0.1334
   94MPD2     C 1461   2.806   2.072  13.899 -0.0842  0.1498  0.3069
   94MPD2    C1 1462   2.820   2.055  13.766  0.1131  0.2665 -0.2432
   94MPD2    C2 1463   2.715   1.992  13.696 -1.0645 -0.4111 -0.3281
   94MPD2    C3 1464   2.602   1.953  13.761  0.2625  0.1416  0.3320
   94MPD2    C4 1465   2.590   1.972  13.900  0.4865 -0.1680 -0.6470
   94MPD2    C5 1466   2.694   2.032  13.966  0.2009 -0.2597 -0.0247
   94MPD2     H 1467   2.715   1.973  13.589 -0.1366  1.0967 -0.5995
   94MPD2    H1 1468   2.506   1.952  13.965  1.3008  0.2583  0.5427
   94MPD2    H2 1469   2.883   2.120  13.959  0.2968 -1.3883  1.0758
   94MPD2    H3 1470   2.681   2.047  14.072  2.2312  1.4861 -0.0347
   94MPD2     N 1471   2.485   1.909  13.699  0.1306  1.0636 -0.3753
   94MPD2    H5 1472   2.404   1.905  13.760 -0.8202  0.1059 -1.6787
   94MPD2    N1 1473   2.944   2.080  13.692  0.8628 -0.2500  0.1560
   94MPD2    H7 1474   2.942   2.046  13.597 -1.4182  0.5136 -0.0611
   95TMC2    C1 1475   3.196   3.878  16.516 -0.1625 -0.0316  0.1967
   95TMC2    C2 1476   3.108   3.777  16.554  0.6419  0.0524 -0.0439
   95TMC2    C3 1477   3.055   3.811  16.676  0.8649 -0.3626 -0.4933
   95TMC2    C4 1478   3.231   3.990  16.580 -0.0201 -0.2713  0.1757
   95TMC2    C5 1479   3.169   4.013  16.698 -0.1809 -0.4787  0.2462
   95TMC2    C6 1480   3.081   3.922  16.752 -0.2714  0.0987 -0.1350
   95TMC2     C 1481   3.274   3.856  16.395  0.1951 -0.2917 -0.3601
   95TMC2     O 1482   3.302   3.949  16.324  0.5670  0.0471 -0.0086
   95TMC2     H 1483   3.066   3.702  16.488 -0.4964  1.3014 -0.7262
   95TMC2    H1 1484   3.299   4.063  16.537 -0.1603 -0.4942 -0.4206
   95TMC2    H2 1485   3.028   3.961  16.838 -0.6221 -2.2783  0.7254
   95TMC2    C7 1486   3.213   4.127  16.768  0.1860  0.9106  0.3008
   95TMC2    C8 1487   2.937   3.731  16.722 -0.1615  0.0200  0.5847
   95TMC2    O1 1488   3.290   4.199  16.707 -0.0313  0.1870  0.3324
   95TMC2    O2 1489   2.871   3.762  16.822 -0.0291 -0.1921 -0.0970
   95TMC2    O5 1490   2.982   3.608  16.709  0.3067 -0.9238  0.7247
   95TMC2    H5 1491   3.065   3.604  16.656 -0.0871  1.4759 -0.0551
   96MPD2     C 1492   3.387   3.544  16.013  0.1216  0.7688 -0.6012
   96MPD2    C1 1493   3.424   3.680  16.024 -0.4330 -0.2805  0.6717
   96MPD2    C2 1494   3.389   3.740  16.142 -0.9713  0.1648  0.4293
   96MPD2    C3 1495   3.314   3.674  16.242  0.4910 -0.7551  0.1586
   96MPD2    C4 1496   3.290   3.542  16.226  0.6163  0.4726 -0.2433
   96MPD2    C5 1497   3.328   3.474  16.115  0.6802  0.4761 -0.7368
   96MPD2     H 1498   3.416   3.844  16.156 -0.2477  0.0156  0.1868
   96MPD2    H1 1499   3.237   3.488  16.304  0.5475  1.0980  0.1454
   96MPD2    H2 1500   3.403   3.494  15.918  2.6552  0.8292 -0.2052
   96MPD2    H3 1501   3.309   3.368  16.107 -0.6155  0.7538 -1.3271
   96MPD2     N 1502   3.270   3.725  16.362  0.0954  0.4633 -0.8035
   96MPD2    H5 1503   3.234   3.661  16.432  0.6819  0.8377 -0.1575
   96MPD2    N1 1504   3.499   3.751  15.923 -0.3442 -0.7358 -0.5752
   96MPD2    H7 1505   3.542   3.692  15.853 -0.2224 -1.5982  0.2383
   97TMC2    C1 1506   0.740   2.124  17.416  0.3795 -0.5661 -0.1374
   97TMC2    C2 1507   0.649   2.161  17.318 -0.1051  0.5688  0.5375
   97TMC2    C3 1508   0.653   2.283  17.265 -0.1552 -0.2457 -0.4780
   97TMC2    C4 1509   0.838   2.209  17.456  0.1995 -0.3961  0.3418
   97TMC2    C5 1510   0.857   2.335  17.387  0.5657  0.1279  0.7852
   97TMC2    C6 1511   0.757   2.371  17.289 -0.3360  0.1269  0.1265
   97TMC2     C 1512   0.704   2.015  17.504 -0.6832 -0.4141 -0.2301
   97TMC2     O 1513   0.759   2.009  17.613  0.1703 -0.3537 -0.6644
   97TMC2     H 1514   0.557   2.103  17.309  0.9157 -1.2674  1.9949
   97TMC2    H1 1515   0.928   2.183  17.510  1.4892 -0.1263 -1.6846
   97TMC2    H2 1516   0.756   2.475  17.256  2.6289 -0.2918 -1.2717
   97TMC2    C7 1517   0.981   2.399  17.393 -0.0543 -0.4720  0.5536
   97TMC2    C8 1518   0.566   2.311  17.152 -0.0439 -1.1957 -0.2592
   97TMC2    O1 1519   1.065   2.379  17.482  0.1127 -0.3717 -0.6100
   97TMC2    O2 1520   0.522   2.420  17.121 -0.4656 -0.2178 -0.1722
   97TMC2    O5 1521   0.614   2.220  17.065  0.8068 -0.0145 -0.2003
   97TMC2    H5 1522   0.673   2.157  17.110 -0.5182 -2.0934 -1.3553
   98MPD2     C 1523   0.450   1.571  17.614 -0.0623 -0.1109  0.3312
   98MPD2    C1 1524   0.511   1.661  17.699 -0.5206 -0.1861 -0.0240
   98MPD2    C2 1525   0.578   1.773  17.646 -0.1259  0.1126 -0.1408
   98MPD2    C3 1526   0.569   1.805  17.510 -0.5188 -0.1626 -0.2347
   98MPD2    C4 1527   0.505   1.715  17.431  1.0576 -0.4025 -0.0088
   98MPD2    C5 1528   0.452   1.595  17.479  0.2234 -0.1517 -0.2703
   98MPD2     H 1529   0.638   1.834  17.712 -1.2365  0.4970  0.5178
   98MPD2    H1 1530   0.494   1.744  17.327  1.4783  0.3755  0.1637
   98MPD2    H2 1531   0.408   1.480  17.656  0.4192 -0.5004 -0.0363
   98MPD2    H3 1532   0.419   1.523  17.405 -0.7388 -0.1756  0.1903
   98MPD2     N 1533   0.623   1.919  17.445  0.6333  0.5007 -0.1685
   98MPD2    H5 1534   0.608   1.919  17.344  0.7175  0.1130 -0.1802
   98MPD2    N1 1535   0.515   1.624   0.094 -0.8879  0.3311  0.8149
   98MPD2    H7 1536   0.461   1.540   0.116  1.6086 -1.3200  0.5752
   99TMC2    C1 1537   4.249   3.656   1.856 -0.2845  0.1495 -1.1523
   99TMC2    C2 1538   4.302   3.610   1.975  0.1175  0.1032 -0.0719
   99TMC2    C3 1539   4.216   3.570   2.074  0.4277  0.6689  0.4700
   99TMC2    C4 1540   4.112   3.654   1.828  0.4109 -0.9182 -0.4423
   99TMC2    C5 1541   4.032   3.625   1.935 -0.2473  0.1518  0.0658
   99TMC2    C6 1542   4.079   3.591   2.058 -0.2476  0.2898  0.3110
   99TMC2     C 1543   4.334   3.687   1.749 -0.0695  0.2233  0.0333
   99TMC2     O 1544   4.436   3.744   1.781 -0.4653  0.4030  0.0172
   99TMC2     H 1545   4.408   3.590   1.971  0.0909  0.1726 -1.1670
   99TMC2    H1 1546   4.066   3.676   1.732  0.5675 -1.3896 -0.6260
   99TMC2    H2 1547   4.008   3.559   2.134  2.1223 -0.5484  2.1645
   99TMC2    C7 1548   3.886   3.628   1.918 -0.3772  0.2295  0.0230
   99TMC2    C8 1549   4.266   3.546   2.209 -0.6136 -0.1446 -1.0037
   99TMC2    O1 1550   3.821   3.646   2.021 -0.1043  0.0489  0.2587
   99TMC2    O2 1551   4.384   3.570   2.233  0.4367 -0.2674 -0.5393
   99TMC2    O5 1552   4.201   3.438   2.262 -0.3414  0.6423 -0.7131
   99TMC2    H5 1553   4.121   3.413   2.212 -0.4992  0.6492 -0.4596
  100MPD2     C 1554   4.446   3.782   1.496  0.5580  0.0172  0.6069
  100MPD2    C1 1555   4.351   3.678   1.502 -0.8951  0.5054  0.0301
  100MPD2    C2 1556   4.338   3.606   1.385 -1.1296  0.0424  0.7584
  100MPD2    C3 1557   4.393   3.643   1.262  0.9956  1.0414  0.1080
  100MPD2    C4 1558   4.484   3.745   1.266 -0.1588  0.8195 -0.2379
  100MPD2    C5 1559   4.508   3.812   1.380  0.1414  0.8725  0.8828
  100MPD2     H 1560   4.264   3.529   1.370  1.1858 -1.9878 -0.1525
  100MPD2    H1 1561   4.545   3.770   1.180  2.1355  1.7392  1.6604
  100MPD2    H2 1562   4.469   3.845   1.581  0.4107 -0.0770  0.7167
  100MPD2    H3 1563   4.583   3.890   1.389  0.6179  0.3830  1.1313
  100MPD2     N 1564   4.366   3.575   1.146  1.0792 -0.1335  0.2772
  100MPD2    H5 1565   4.304   3.495   1.143  1.9819 -0.8497  0.7344
  100MPD2    N1 1566   4.288   3.654   1.627  0.1545  0.4593  0.2767
  100MPD2    H7 1567   4.217   3.581   1.633  1.1164 -0.4127  0.9716
  101TMC2    C1 1568   0.300   0.345  13.174 -0.0887 -0.3007 -0.2784
  101TMC2    C2 1569   0.200   0.439  13.158 -0.0874 -0.5445 -0.5086
  101TMC2    C3 1570   0.235   0.564  13.122  0.4690  0.2089  0.0513
  101TMC2    C4 1571   0.425   0.379  13.131  0.2358 -0.3166  0.3141
  101TMC2    C5 1572   0.457   0.508  13.097  1.1278  0.0646  0.3004
  101TMC2    C6 1573   0.362   0.610  13.095 -0.3477  0.4064 -0.1074
  101TMC2     C 1574   0.274   0.222  13.242 -0.6390 -0.7559 -0.0946
  101TMC2     O 1575   0.169   0.221  13.303  0.2177  0.2812 -0.5555
  101TMC2     H 1576   0.098   0.420  13.192  0.1632 -1.0893 -0.0540
  101TMC2    H1 1577   0.500   0.301  13.132 -0.0949 -0.6346  0.4713
  101TMC2    H2 1578   0.385   0.704  13.046 -0.9314 -0.5988 -2.3109
  101TMC2    C7 1579   0.572   0.521  13.013  0.3408 -0.3471 -0.1986
  101TMC2    C8 1580   0.125   0.664  13.116 -0.3179  0.4800 -0.0193
  101TMC2    O1 1581   0.567   0.609  12.929 -0.2894 -0.1132  0.2282
  101TMC2    O2 1582   0.159   0.780  13.118  0.0239  0.2288 -0.0150
  101TMC2    O5 1583   0.027   0.619  13.043  0.0858 -0.7483  0.1273
  101TMC2    H5 1584   0.024   0.521  13.035  3.2715 -0.8476  0.0942
  102MPD2     C 1585   0.401   4.612  13.151  0.7719  0.0926  0.0427
  102MPD2    C1 1586   0.330   4.714  13.219 -0.1685  0.5646  0.3571
  102MPD2    C2 1587   0.216   4.669  13.281 -0.1546 -0.0076  0.3454
  102MPD2    C3 1588   0.174   4.537  13.288 -0.5839  0.5068  0.2213
  102MPD2    C4 1589   0.244   4.443  13.215 -0.3577 -0.0217 -0.3577
  102MPD2    C5 1590   0.358   4.481  13.147  0.4808  1.0585 -0.3622
  102MPD2     H 1591   0.149   0.003  13.331 -2.1752 -0.5061 -1.6617
  102MPD2    H1 1592   0.222   4.337  13.217 -1.1346  0.1241 -1.6159
  102MPD2    H2 1593   0.501   4.622  13.110  0.8039 -0.3153  0.0208
  102MPD2    H3 1594   0.425   4.403  13.111 -0.1580  1.3449 -2.1425
  102MPD2     N 1595   0.051   4.517  13.354 -0.3869 -0.1625  0.5928
  102MPD2    H5 1596   0.016   4.596  13.407 -0.5080  0.8222 -0.9463
  102MPD2    N1 1597   0.357   0.117  13.200 -0.2334 -0.1310  0.5492
  102MPD2    H7 1598   0.431   0.134  13.132 -0.3282  0.7587  0.6630
  103TMC2    C1 1599   2.656   0.416  12.240  0.5586 -0.3236 -0.0270
  103TMC2    C2 1600   2.670   0.550  12.203 -0.4966 -0.8543 -0.0211
  103TMC2    C3 1601   2.774   0.620  12.267 -0.0807  0.5605 -0.6138
  103TMC2    C4 1602   2.727   0.360  12.344  0.3721  0.1852  0.3864
  103TMC2    C5 1603   2.830   0.437  12.400 -0.2062 -0.0410 -0.0967
  103TMC2    C6 1604   2.863   0.564  12.359 -0.1897 -0.9026  0.0371
  103TMC2     C 1605   2.555   0.337  12.169  0.4257  0.4787 -0.4560
  103TMC2     O 1606   2.457   0.394  12.130  0.6602 -0.5715 -0.1221
  103TMC2     H 1607   2.608   0.594  12.126 -2.3848  0.1895  2.0876
  103TMC2    H1 1608   2.698   0.268  12.393 -4.6156 -0.2871 -3.3857
  103TMC2    H2 1609   2.948   0.623  12.391 -1.3334  0.6745  0.1994
  103TMC2    C7 1610   2.911   0.389  12.509  0.3958 -0.7591 -0.4025
  103TMC2    C8 1611   2.826   0.731  12.194 -0.0004  0.0576 -0.4661
  103TMC2    O1 1612   2.935   0.470  12.599 -0.2149 -0.1059 -0.3094
  103TMC2    O2 1613   2.945   0.762  12.192  0.1881  0.0375 -0.2736
  103TMC2    O5 1614   2.724   0.797  12.146 -0.1506  0.1805  0.3046
  103TMC2    H5 1615   2.633   0.761  12.158 -0.4473  0.8311  0.0146
  104MPD2     C 1616   2.573   4.719  12.080 -0.9099 -0.1569  0.0850
  104MPD2    C1 1617   2.532   0.111  12.072 -0.8638  0.0972  0.0728
  104MPD2    C2 1618   2.425   0.141  11.986  0.4288  0.7143  0.1047
  104MPD2    C3 1619   2.364   0.034  11.920  0.5407 -0.6950  0.3332
  104MPD2    C4 1620   2.409   4.637  11.932  0.3399 -0.1484  0.8424
  104MPD2    C5 1621   2.512   4.615  12.006 -0.3660  0.2104  0.0308
  104MPD2     H 1622   2.388   0.242  11.972 -1.3727 -0.2040 -1.5947
  104MPD2    H1 1623   2.354   4.551  11.897 -0.9474  0.0911  2.3163
  104MPD2    H2 1624   2.665   4.696  12.132 -0.1811  3.1191  0.1979
  104MPD2    H3 1625   2.552   4.515  12.018 -0.2010  0.2570 -0.1342
  104MPD2     N 1626   2.260   0.065  11.828  0.5077 -0.9808  0.2576
  104MPD2    H5 1627   2.232   0.161  11.811 -1.6853 -1.4866  1.0620
  104MPD2    N1 1628   2.596   0.206  12.154 -0.3334 -0.0646  0.5334
  104MPD2    H7 1629   2.675   0.171  12.208  0.7231  0.4654 -0.6865
  105TMC2    C1 1630   4.055   3.865   0.079 -0.5915 -0.5870  0.1503
  105TMC2    C2 1631   3.929   3.822   0.117 -0.2830  0.0053 -0.5992
  105TMC2    C3 1632   3.838   3.913   0.158 -0.6930 -0.1128  0.5904
  105TMC2    C4 1633   4.089   3.998   0.075  0.7102 -0.4685 -0.0349
  105TMC2    C5 1634   3.991   4.075   0.122 -0.3992  0.1568 -0.9883
  105TMC2    C6 1635   3.870   4.043   0.166  0.0142 -0.0413  0.5483
  105TMC2     C 1636   4.141   3.767   0.010 -0.8208  0.8111  0.6423
  105TMC2     O 1637   4.109   3.653   0.030  0.6577  0.6568 -0.2745
  105TMC2     H 1638   3.904   3.716   0.119 -1.4425  0.3038  0.6312
  105TMC2    H1 1639   4.186   4.031   0.040  1.7249 -0.1470  3.0766
  105TMC2    H2 1640   3.808   4.121   0.208 -0.8701 -0.0507 -0.7275
  105TMC2    C7 1641   4.029   4.217   0.137  0.2959  0.2936 -0.4711
  105TMC2    C8 1642   3.696   3.880   0.157  0.0187 -0.5242 -0.0474
  105TMC2    O1 1643   4.148   4.237   0.124 -0.8776  0.0546 -0.2961
  105TMC2    O2 1644   3.608   3.946   0.202 -0.0143  0.1086  0.7319
  105TMC2    O5 1645   3.688   3.794   0.053 -0.0944  0.7137  0.6427
  105TMC2    H5 1646   3.768   3.785  17.738 -0.6578  0.7052 -0.1472
  106MPD2     C 1647   4.512   3.635  17.420 -0.2481  0.0706  0.3049
  106MPD2    C1 1648   4.517   3.765  17.453 -0.2352  0.0332  0.0674
  106MPD2    C2 1649   4.426   3.826  17.528  0.0512 -0.1667 -0.3447
  106MPD2    C3 1650   4.320   3.755  17.594  0.1208  0.1149  0.2790
  106MPD2    C4 1651   4.319   3.621  17.568  0.1258 -0.3495 -0.0597
  106MPD2    C5 1652   4.406   3.576  17.477 -0.4100  0.3661  0.0343
  106MPD2     H 1653   4.433   3.934  17.537 -1.1100  0.0335 -1.7642
  106MPD2    H1 1654   4.252   3.553  17.620 -2.5212  1.6048 -0.9560
  106MPD2    H2 1655   4.582   3.583  17.355 -1.2808  2.2075 -2.5241
  106MPD2    H3 1656   4.417   3.470  17.455 -0.2419  0.6060 -1.0133
  106MPD2     N 1657   4.239   3.824  17.679  0.2560  0.7790  0.8207
  106MPD2    H5 1658   4.257   3.924  17.674 -0.9282  0.9516  0.0457
  106MPD2    N1 1659   4.610   3.855  17.388  0.7749  0.7599  0.4721
  106MPD2    H7 1660   4.590   3.954  17.402  1.2192  0.8726  0.3128
  107TMC2    C1 1661   0.349   3.794  11.575 -0.2920  0.3694  0.5246
  107TMC2    C2 1662   0.434   3.901  11.544 -0.0054  0.0706  0.3935
  107TMC2    C3 1663   0.475   3.921  11.416  0.3368  0.1483  0.2080
  107TMC2    C4 1664   0.307   3.705  11.473  0.1077  0.5275  0.4855
  107TMC2    C5 1665   0.336   3.744  11.345 -0.0654  0.0270  0.0894
  107TMC2    C6 1666   0.422   3.849  11.312  0.1132  0.8361  0.2137
  107TMC2     C 1667   0.319   3.769  11.711  0.4464  0.3906  0.3777
  107TMC2     O 1668   0.223   3.701  11.733 -0.6718 -0.0523  0.0244
  107TMC2     H 1669   0.469   3.976  11.613 -0.4033 -0.7488  1.4875
  107TMC2    H1 1670   0.248   3.616  11.492 -1.1792  1.4007  0.5604
  107TMC2    H2 1671   0.443   3.887  11.213  1.1534 -2.2023 -0.7043
  107TMC2    C7 1672   0.310   3.657  11.232 -0.1199  0.1911 -0.5293
  107TMC2    C8 1673   0.530   4.047  11.378 -0.0223 -0.0611 -0.5169
  107TMC2    O1 1674   0.316   3.709  11.122  0.0350  0.6300  0.6978
  107TMC2    O2 1675   0.472   4.134  11.321  0.5344 -0.8066 -0.1168
  107TMC2    O5 1676   0.645   4.057  11.449 -0.4632  0.5392  0.3811
  107TMC2    H5 1677   0.682   3.971  11.478 -1.4581 -0.7305 -2.0815
  108MPD2     C 1678   0.565   3.792  11.983 -0.6366  0.4764 -0.1482
  108MPD2    C1 1679   0.435   3.783  11.932 -0.0160 -0.0123 -0.3026
  108MPD2    C2 1680   0.328   3.746  12.010 -0.3692  0.5739 -0.0544
  108MPD2    C3 1681   0.354   3.694  12.143  0.8096  0.1613 -0.3577
  108MPD2    C4 1682   0.485   3.696  12.188 -0.7796  0.4758  0.9674
  108MPD2    C5 1683   0.587   3.751  12.115  0.3502  0.4015  0.2789
  108MPD2     H 1684   0.227   3.756  11.973 -0.3980  0.9939  0.1365
  108MPD2    H1 1685   0.514   3.654  12.284  0.8999 -0.1544  0.1782
  108MPD2    H2 1686   0.650   3.823  11.924 -0.6946  0.4946 -0.2219
  108MPD2    H3 1687   0.689   3.756  12.153  0.5779 -0.3290 -0.2171
  108MPD2     N 1688   0.261   3.649  12.236  0.0552 -0.1204  0.5051
  108MPD2    H5 1689   0.294   3.620  12.327  1.6470  1.5976  0.4747
  108MPD2    N1 1690   0.420   3.808  11.789 -0.0354  0.2733 -0.5319
  108MPD2    H7 1691   0.507   3.826  11.739  1.2250  0.2160  1.6279
  109TMC2    C1 1692   4.579   0.676   0.487  0.2108  0.2257 -0.7280
  109TMC2    C2 1693   4.602   0.575   0.401 -0.2950  0.1432  0.7753
  109TMC2    C3 1694   4.706   0.594   0.315 -0.0241 -0.3993  0.2356
  109TMC2    C4 1695   4.661   0.784   0.510  0.2780  0.0231 -0.4216
  109TMC2    C5 1696   0.028   0.797   0.420  0.3637 -0.4857  0.1071
  109TMC2    C6 1697   0.060   0.706   0.322 -0.4130 -0.2617  0.1524
  109TMC2     C 1698   4.449   0.669   0.555 -0.7582 -0.5710 -0.5448
  109TMC2     O 1699   4.353   0.620   0.501  0.1932 -0.3512 -0.0798
  109TMC2     H 1700   4.529   0.495   0.396  0.5132 -0.5471  0.0482
  109TMC2    H1 1701   4.631   0.868   0.572  4.7779 -0.2914  2.1408
  109TMC2    H2 1702   0.142   0.732   0.256  1.5663 -0.9409  2.3495
  109TMC2    C7 1703   0.116   0.909   0.447 -0.2399  0.1682  0.2482
  109TMC2    C8 1704   0.002   0.495   0.208  0.2064 -0.2698 -0.1507
  109TMC2    O1 1705   0.183   0.953   0.355  0.8980  0.4821 -0.3663
  109TMC2    O2 1706   0.117   0.468   0.169  0.0259  0.2223  0.1768
  109TMC2    O5 1707   4.630   0.409   0.193  0.2043 -0.2430  0.1029
  109TMC2    H5 1708   4.543   0.451   0.212 -1.4887 -3.2781 -0.8928
  110MPD2     C 1709   4.119   0.777   0.943  0.5753  0.0162  0.0790
  110MPD2    C1 1710   4.238   0.846   0.957  0.2064  0.3141 -0.5130
  110MPD2    C2 1711   4.337   0.835   0.862 -0.1210 -0.4763  0.2884
  110MPD2    C3 1712   4.325   0.746   0.751  0.9333  0.1470  0.0860
  110MPD2    C4 1713   4.209   0.667   0.741  0.8447 -0.5545  0.9120
  110MPD2    C5 1714   4.106   0.693   0.834  0.4094 -0.2992 -0.1418
  110MPD2     H 1715   4.432   0.883   0.881 -0.3670 -0.0860  0.5437
  110MPD2    H1 1716   4.200   0.598   0.658 -1.9613 -0.6410  1.2961
  110MPD2    H2 1717   4.037   0.786   1.013 -0.1547 -0.0553 -0.7687
  110MPD2    H3 1718   4.014   0.640   0.815  0.3009  0.6279 -2.1349
  110MPD2     N 1719   4.441   0.740   0.670 -0.1994 -0.3308  0.2081
  110MPD2    H5 1720   4.524   0.788   0.702 -0.1788  0.8416 -1.5729
  110MPD2    N1 1721   4.249   0.914   1.081  0.5644 -0.4648  0.1052
  110MPD2    H7 1722   4.179   0.894   1.152  0.5844  0.1338  0.2873
  111TMC2    C1 1723   0.224   1.315  11.809  0.8705 -0.9957 -0.2172
  111TMC2    C2 1724   0.138   1.362  11.898  0.3332  0.7665 -0.6686
  111TMC2    C3 1725   0.169   1.337  12.028  0.0959  0.0200  0.4667
  111TMC2    C4 1726   0.356   1.277  11.831  0.0557  0.4315  0.4667
  111TMC2    C5 1727   0.381   1.247  11.959 -0.5593  0.3805 -0.3686
  111TMC2    C6 1728   0.291   1.275  12.056  0.0886 -0.1471 -0.7559
  111TMC2     C 1729   0.173   1.289  11.678  0.5835 -0.4177 -0.1983
  111TMC2     O 1730   0.253   1.329  11.594 -0.3887 -0.0943 -0.6263
  111TMC2     H 1731   0.043   1.404  11.867  0.7046  1.1876 -1.2329
  111TMC2    H1 1732   0.414   1.225  11.756 -0.8076 -2.7194  1.9832
  111TMC2    H2 1733   0.319   1.253  12.158  0.2381  2.0671 -0.3275
  111TMC2    C7 1734   0.492   1.158  11.992  0.2651  0.6292  0.3743
  111TMC2    C8 1735   0.108   1.427  12.120  0.6642 -0.0377 -0.4064
  111TMC2    O1 1736   0.485   1.098  12.098  0.0483 -0.6393 -0.1216
  111TMC2    O2 1737   0.094   1.394  12.237  0.0045  0.6733  0.0063
  111TMC2    O5 1738   0.065   1.539  12.049  0.5986  1.0250 -0.2945
  111TMC2    H5 1739   0.097   1.549  11.957 -2.1501  3.2842 -0.9905
  112MPD2     C 1740   4.539   1.079  11.385  0.1387  0.1026  0.0334
  112MPD2    C1 1741   4.666   1.130  11.352  0.2313 -0.1715 -0.2336
  112MPD2    C2 1742   0.016   1.176  11.456  0.2008  0.2767  0.4998
  112MPD2    C3 1743   4.702   1.183  11.582 -0.2955 -0.1638 -0.0260
  112MPD2    C4 1744   4.571   1.144  11.614  0.2030  0.7707  0.0645
  112MPD2    C5 1745   4.495   1.092  11.513  0.1750 -0.5630  0.2038
  112MPD2     H 1746   0.116   1.213  11.436 -0.5317  2.0359  0.0249
  112MPD2    H1 1747   4.532   1.152  11.715  1.4322  0.9737  0.5296
  112MPD2    H2 1748   4.471   1.030  11.316 -0.3819  0.7934  0.0667
  112MPD2    H3 1749   4.395   1.061  11.543 -1.7488  5.5539 -0.0496
  112MPD2     N 1750   0.049   1.223  11.688 -0.1283  1.1896  0.5875
  112MPD2    H5 1751   0.016   1.199  11.781  0.9025  1.0151  0.9025
  112MPD2    N1 1752   4.717   1.121  11.220 -0.4721 -0.3109 -0.0603
  112MPD2    H7 1753   0.081   1.143  11.217 -1.0373  2.2187 -0.0717
  113TMC2    C1 1754   3.404   3.301   0.762  0.3533  0.2020 -1.2367
  113TMC2    C2 1755   3.315   3.383   0.700  0.7371  0.3226 -0.1200
  113TMC2    C3 1756   3.210   3.321   0.648 -0.3959  0.3730  0.3970
  113TMC2    C4 1757   3.393   3.169   0.767  0.2008  0.6661  0.1135
  113TMC2    C5 1758   3.284   3.115   0.710 -0.6211  0.4220 -0.9476
  113TMC2    C6 1759   3.187   3.190   0.653 -0.4309  0.2344  0.1830
  113TMC2     C 1760   3.511   3.361   0.838 -0.3399 -0.2463 -0.3763
  113TMC2     O 1761   3.506   3.481   0.845  0.3219  0.3188 -0.5293
  113TMC2     H 1762   3.334   3.489   0.687  0.7026  0.2069 -1.0712
  113TMC2    H1 1763   3.463   3.102   0.815 -1.6963 -1.4727 -0.0971
  113TMC2    H2 1764   3.107   3.144   0.597 -0.9573  2.3241 -0.7805
  113TMC2    C7 1765   3.245   2.983   0.736  0.6912  0.2949  0.3524
  113TMC2    C8 1766   3.118   3.414   0.587 -0.0317  0.4795  0.7749
  113TMC2    O1 1767   3.248   2.906   0.642 -0.2087 -0.5442 -0.2515
  113TMC2    O2 1768   3.154   3.514   0.526  0.0713  0.1985  0.2879
  113TMC2    O5 1769   2.997   3.393   0.647  0.3161 -0.9729  0.8984
  113TMC2    H5 1770   2.992   3.320   0.712 -1.4781 -2.3103 -0.7152
  114MPD2     C 1771   3.897   3.352   1.161 -0.0356  0.3450  0.0012
  114MPD2    C1 1772   3.793   3.446   1.152 -0.5427 -0.8061  0.0158
  114MPD2    C2 1773   3.703   3.419   1.051 -0.2703  0.3898 -0.0087
  114MPD2    C3 1774   3.715   3.305   0.971  1.2367 -0.3613 -0.6246
  114MPD2    C4 1775   3.813   3.208   0.987  0.3081 -0.5514 -0.2616
  114MPD2    C5 1776   3.907   3.240   1.079  0.3065 -0.6776 -0.1006
  114MPD2     H 1777   3.613   3.479   1.040  0.4316  1.4067 -0.1113
  114MPD2    H1 1778   3.818   3.123   0.920 -1.0691 -0.1836 -0.8300
  114MPD2    H2 1779   3.965   3.355   1.245  2.8212  0.6892 -2.3432
  114MPD2    H3 1780   3.993   3.174   1.084 -1.0069 -2.2955  1.3019
  114MPD2     N 1781   3.606   3.276   0.883  0.2441 -0.9412 -0.1658
  114MPD2    H5 1782   3.601   3.183   0.841  2.2367 -1.4979  0.8174
  114MPD2    N1 1783   3.771   3.557   1.238 -0.2464  0.2001 -0.1146
  114MPD2    H7 1784   3.683   3.606   1.230  0.3308  1.0618 -1.2424
  115TMC2    C1 1785   4.216   1.263   0.177 -1.4341  0.1224  0.2857
  115TMC2    C2 1786   4.340   1.252   0.138 -0.2095  0.1294  0.0209
  115TMC2    C3 1787   4.403   1.369   0.102  0.7370 -0.1798 -0.4620
  115TMC2    C4 1788   4.152   1.386   0.200 -0.4678  0.1684  0.3603
  115TMC2    C5 1789   4.214   1.499   0.163  0.3984  0.1380 -0.4926
  115TMC2    C6 1790   4.349   1.494   0.124 -0.0093  0.2272  0.2980
  115TMC2     C 1791   4.131   1.154   0.161 -0.0879 -0.2524 -0.0591
  115TMC2     O 1792   4.162   1.071   0.075 -0.4055 -0.6719  0.0862
  115TMC2     H 1793   4.394   1.157   0.140 -0.1397  0.2583  3.9506
  115TMC2    H1 1794   4.045   1.396   0.216 -0.6837 -1.1018 -0.2892
  115TMC2    H2 1795   4.408   1.583   0.102  1.9418 -0.1090  4.2723
  115TMC2    C7 1796   4.145   1.615   0.202 -0.4554  0.2199 -0.8331
  115TMC2    C8 1797   4.549   1.361   0.076  0.0501 -0.3299  0.1085
  115TMC2    O1 1798   4.048   1.617   0.274 -0.1542 -0.4063  0.0100
  115TMC2    O2 1799   4.615   1.464   0.083 -0.2731 -0.3725  0.0656
  115TMC2    O5 1800   4.573   1.254  17.741  0.0126 -0.1195  0.2895
  115TMC2    H5 1801   4.493   1.201  17.725 -0.1055 -0.3188  1.5579
  116MPD2     C 1802   3.669   0.943   0.190 -0.0036  1.1568 -0.5482
  116MPD2    C1 1803   3.774   0.904   0.111  0.4186  0.3824 -0.2205
  116MPD2    C2 1804   3.891   0.980   0.121  0.4243  0.7730 -0.2829
  116MPD2    C3 1805   3.912   1.067   0.227 -0.0897  0.0994 -0.1653
  116MPD2    C4 1806   3.806   1.097   0.312  0.7073  0.0407 -0.0476
  116MPD2    C5 1807   3.690   1.040   0.284  0.2020  0.2982 -0.3413
  116MPD2     H 1808   3.971   0.963   0.050  1.1704  1.1409  0.4833
  116MPD2    H1 1809   3.806   1.172   0.390  0.6120 -0.6574  0.6204
  116MPD2    H2 1810   3.569   0.902   0.179  0.3595  0.4454 -1.1503
  116MPD2    H3 1811   3.599   1.063   0.338  1.0351  0.3017  1.0575
  116MPD2     N 1812   4.022   1.155   0.244 -0.6236  0.5566 -0.1881
  116MPD2    H5 1813   4.031   1.233   0.308  2.6130 -0.5733  0.7454
  116MPD2    N1 1814   3.750   0.805   0.011 -0.0446 -0.1644  0.6430
  116MPD2    H7 1815   3.656   0.771  17.736  0.9403 -2.3083 -0.5366
  117TMC2    C1 1816   2.796   2.703  14.081 -1.0177  0.1623 -0.6054
  117TMC2    C2 1817   2.905   2.656  14.145 -0.2544  0.1586  0.7925
  117TMC2    C3 1818   3.001   2.747  14.163 -0.6659  0.6882 -0.0907
  117TMC2    C4 1819   2.788   2.830  14.019  0.3698  0.1318 -0.5078
  117TMC2    C5 1820   2.893   2.922  14.048 -0.2471  0.9341  0.0443
  117TMC2    C6 1821   3.003   2.878  14.118 -0.0361  0.5859  0.5658
  117TMC2     C 1822   2.703   2.605  14.032  0.2638 -0.0575  0.4608
  117TMC2     O 1823   2.721   2.485  14.036 -0.0168 -0.0141 -0.0142
  117TMC2     H 1824   2.903   2.558  14.192  0.6719 -0.6470 -0.8439
  117TMC2    H1 1825   2.718   2.853  13.940  1.0814 -2.2149 -1.8285
  117TMC2    H2 1826   3.089   2.942  14.135  0.4880  0.3923 -1.3772
  117TMC2    C7 1827   2.902   3.048  13.983  0.0265 -0.9045 -0.3350
  117TMC2    C8 1828   3.101   2.724  14.266  0.6875  0.3856 -0.0432
  117TMC2    O1 1829   3.008   3.094  13.936 -0.3469 -0.5356 -0.5260
  117TMC2    O2 1830   3.149   2.815  14.336 -0.2868 -0.0641  0.0342
  117TMC2    O5 1831   3.169   2.609  14.242  0.3097 -0.0716 -0.3452
  117TMC2    H5 1832   3.140   2.545  14.174  0.3691  0.9602 -1.3506
  118MPD2     C 1833   2.611   3.261  13.896  0.7996 -0.1525  0.2376
  118MPD2    C1 1834   2.747   3.241  13.922  0.0977 -0.2925 -0.1828
  118MPD2    C2 1835   2.838   3.345  13.899  0.2202 -0.4030  0.2806
  118MPD2    C3 1836   2.795   3.469  13.869  0.3068  0.3824 -0.3596
  118MPD2    C4 1837   2.661   3.488  13.842 -0.4751  0.5232 -0.8858
  118MPD2    C5 1838   2.570   3.385  13.850  0.2997 -0.1289  0.2557
  118MPD2     H 1839   2.942   3.321  13.917 -0.5522 -1.8744  2.8664
  118MPD2    H1 1840   2.618   3.588  13.842 -1.0515  0.2759  0.2068
  118MPD2    H2 1841   2.537   3.182  13.905  0.4336  0.3615  1.6807
  118MPD2    H3 1842   2.464   3.397  13.834  0.2444 -0.4805  0.3416
  118MPD2     N 1843   2.878   3.580  13.845 -0.6640  0.0423  0.3400
  118MPD2    H5 1844   2.834   3.664  13.811  0.5737  1.2993  1.8282
  118MPD2    N1 1845   2.776   3.112  13.972  0.0484 -0.0732  0.8179
  118MPD2    H7 1846   2.699   3.055  14.005  0.0579 -0.4379  0.2080
  119TMC2    C1 1847   0.697   4.249  13.350  0.1522 -1.0126 -0.1586
  119TMC2    C2 1848   0.722   4.219  13.217 -0.3887  0.2983  0.1863
  119TMC2    C3 1849   0.615   4.166  13.146 -0.0252 -0.0921 -0.0123
  119TMC2    C4 1850   0.580   4.213  13.410  0.5793  0.0378  0.6229
  119TMC2    C5 1851   0.489   4.136  13.343  0.0599  0.0089  0.0694
  119TMC2    C6 1852   0.501   4.126  13.206 -0.2030  0.9133  0.0712
  119TMC2     C 1853   0.779   4.350  13.423  0.2633  0.6433  0.0712
  119TMC2     O 1854   0.741   4.386  13.531  0.1725  0.7526 -0.4976
  119TMC2     H 1855   0.820   4.239  13.176 -0.4163 -1.6563 -0.7994
  119TMC2    H1 1856   0.576   4.248  13.512  0.0415  2.0217 -0.0685
  119TMC2    H2 1857   0.414   4.086  13.154  2.0719 -0.6179 -2.5382
  119TMC2    C7 1858   0.356   4.135  13.400  0.0485 -0.5948  0.4537
  119TMC2    C8 1859   0.633   4.111  13.015  0.0393  0.1550 -0.5027
  119TMC2    O1 1860   0.259   4.115  13.331 -0.1176 -0.0415  0.1408
  119TMC2    O2 1861   0.547   4.054  12.952  0.9662  0.3030 -0.2202
  119TMC2    O5 1862   0.752   4.143  12.960 -0.0705 -0.2260  0.0978
  119TMC2    H5 1863   0.810   4.209  13.002 -0.1928  0.3461 -0.6343
  120MPD2     C 1864   1.257   4.511  13.523 -0.3413 -0.1790 -0.1636
  120MPD2    C1 1865   1.146   4.513  13.599 -0.1169 -0.4660 -0.0747
  120MPD2    C2 1866   1.026   4.477  13.543  0.1948 -0.6128  0.0687
  120MPD2    C3 1867   1.020   4.432  13.413  0.3860  0.2554  0.0755
  120MPD2    C4 1868   1.137   4.426  13.337 -0.7782  0.1578 -0.6291
  120MPD2    C5 1869   1.258   4.466  13.395  0.6300 -0.3979  0.2133
  120MPD2     H 1870   0.930   4.486  13.593  0.0779 -2.0294  0.1081
  120MPD2    H1 1871   1.135   4.393  13.234  0.0789 -2.8395  0.3074
  120MPD2    H2 1872   1.352   4.540  13.565  0.4263 -0.7526 -1.5144
  120MPD2    H3 1873   1.350   4.470  13.338 -0.5621  0.5708 -1.6446
  120MPD2     N 1874   0.900   4.378  13.359  0.4923  0.1176 -0.0509
  120MPD2    H5 1875   0.913   4.339  13.266 -1.7286 -0.8448  0.0565
  120MPD2    N1 1876   1.153   4.559  13.732  0.0226 -0.2305  0.3815
  120MPD2    H7 1877   1.244   4.602  13.747  0.3061 -0.3093 -1.0856
  121TMC2    C1 1878   1.979   1.311  14.474  0.3697 -0.6597 -0.4043
  121TMC2    C2 1879   2.041   1.278  14.597  0.1639 -0.3864  0.0530
  121TMC2    C3 1880   1.998   1.164  14.659 -0.2186  0.1791 -0.2104
  121TMC2    C4 1881   1.865   1.242  14.432  0.2218 -0.2128  0.6460
  121TMC2    C5 1882   1.825   1.133  14.509 -0.1375 -0.3139  0.1217
  121TMC2    C6 1883   1.901   1.079  14.612 -0.2581 -0.3299 -0.2672
  121TMC2     C 1884   1.976   1.448  14.426 -0.6610 -0.2543 -0.3148
  121TMC2     O 1885   1.974   1.545  14.504 -0.5570  0.0541 -0.2681
  121TMC2     H 1886   2.121   1.340  14.635 -1.7041  1.7441  0.5130
  121TMC2    H1 1887   1.801   1.277  14.352  1.1907 -1.7189 -0.7894
  121TMC2    H2 1888   1.873   0.987  14.662  0.1674 -0.2943  0.0370
  121TMC2    C7 1889   1.707   1.050  14.463 -0.5896 -0.4838 -0.1101
  121TMC2    C8 1890   2.078   1.115  14.775  0.0008  0.1537 -0.0764
  121TMC2    O1 1891   1.669   0.960  14.539 -0.5976 -0.6753  0.4699
  121TMC2    O2 1892   2.194   1.127  14.792  0.5740 -0.0376  0.2096
  121TMC2    O5 1893   1.977   1.104  14.866  0.5068  0.4901  0.4438
  121TMC2    H5 1894   1.884   1.107  14.833  0.8889 -1.5427 -0.7946
  122MPD2     C 1895   1.976   1.684  14.254 -0.0487  0.3609  0.2640
  122MPD2    C1 1896   1.990   1.556  14.205 -0.5115  0.1461  0.8074
  122MPD2    C2 1897   2.010   1.540  14.070 -0.4019  0.2828  0.3770
  122MPD2    C3 1898   1.995   1.646  13.984 -0.1988  0.4075  0.3339
  122MPD2    C4 1899   1.964   1.767  14.033  0.8822  0.0846 -0.5665
  122MPD2    C5 1900   1.960   1.788  14.171  0.2691 -0.5444 -0.6983
  122MPD2     H 1901   2.020   1.437  14.037 -2.0462  0.1428  0.3385
  122MPD2    H1 1902   1.964   1.854  13.969  1.5510 -1.0928 -2.1465
  122MPD2    H2 1903   1.951   1.711  14.356  0.3296  0.1605  0.4115
  122MPD2    H3 1904   1.945   1.885  14.217 -0.6710 -1.4092  0.8029
  122MPD2     N 1905   1.998   1.635  13.841 -0.2229  0.2297 -0.1163
  122MPD2    H5 1906   1.951   1.702  13.781  0.8730  0.3537 -0.8473
  122MPD2    N1 1907   1.991   1.445  14.289  0.7767 -0.4838  0.0155
  122MPD2    H7 1908   2.020   1.354  14.254 -2.5016 -1.6757  0.3469
  123TMC2    C1 1909   0.182   4.229  11.181 -0.0860  0.2035 -0.1112
  123TMC2    C2 1910   0.243   4.293  11.283 -0.9072 -0.2622 -0.4374
  123TMC2    C3 1911   0.327   4.401  11.253  0.0261  0.1130 -0.8999
  123TMC2    C4 1912   0.178   4.286  11.058  0.0027 -0.3735  0.6253
  123TMC2    C5 1913   0.241   4.405  11.037 -0.1358 -1.0553  0.5261
  123TMC2    C6 1914   0.320   4.465  11.134  0.7927 -0.5806 -0.0559
  123TMC2     C 1915   0.128   4.095  11.208 -0.3357 -0.2191  0.2825
  123TMC2     O 1916   0.129   4.054  11.327 -0.2858 -0.0426 -0.2240
  123TMC2     H 1917   0.240   4.257  11.386  0.4644  0.3741 -0.1771
  123TMC2    H1 1918   0.115   4.245  10.980  2.4752 -2.8495 -0.0808
  123TMC2    H2 1919   0.397   4.534  11.101 -1.0081  0.9051 -1.1438
  123TMC2    C7 1920   0.286   4.402  10.894  0.2313 -0.2517 -0.3124
  123TMC2    C8 1921   0.394   4.475  11.352 -0.1598 -0.3278  0.0889
  123TMC2    O1 1922   0.284   4.289  10.838  0.1831 -0.7447 -0.0993
  123TMC2    O2 1923   0.405   4.597  11.353 -0.3969 -0.0739  0.1753
  123TMC2    O5 1924   0.456   4.386  11.432 -0.6090  0.0495  0.3606
  123TMC2    H5 1925   0.450   4.298  11.391  2.9522 -0.3861  0.7383
  124MPD2     C 1926   4.679   3.653  10.983  0.1737  0.8260 -0.6032
  124MPD2    C1 1927   0.008   3.735  10.888 -0.5580  0.2754 -0.0520
  124MPD2    C2 1928   0.063   3.856  10.939  0.2119  0.7832  0.6044
  124MPD2    C3 1929   0.063   3.894  11.072  0.7171 -0.4453 -0.0425
  124MPD2    C4 1930   0.017   3.800  11.162 -0.2056 -0.0653 -0.3778
  124MPD2    C5 1931   4.695   3.685  11.115 -0.1618 -0.4098  0.3459
  124MPD2     H 1932   0.111   3.920  10.865  2.0335 -1.8529 -0.5126
  124MPD2    H1 1933   0.015   3.829  11.267  0.5424  1.0846 -0.6704
  124MPD2    H2 1934   4.659   3.548  10.961 -0.9466  1.3872 -2.2024
  124MPD2    H3 1935   4.670   3.608  11.187  0.5894 -2.3541 -1.5050
  124MPD2     N 1936   0.104   4.030  11.093 -0.3716  0.0353  0.2358
  124MPD2    H5 1937   0.143   4.075  11.010 -2.2409 -0.7819 -1.0883
  124MPD2    N1 1938   0.013   3.690  10.754 -0.0854  0.6785 -0.0580
  124MPD2    H7 1939   4.715   3.600  10.721  0.4234 -0.3150  2.1317
  125TMC2    C1 1940   3.781   2.425   8.933 -0.6970 -0.1226  0.4091
  125TMC2    C2 1941   3.884   2.512   8.914  0.7036 -0.1589 -0.2150
  125TMC2    C3 1942   4.010   2.451   8.902 -0.7202 -0.2704 -0.1536
  125TMC2    C4 1943   3.804   2.293   8.957  0.2731 -0.8398 -0.1003
  125TMC2    C5 1944   3.933   2.251   8.944  0.4817  0.0093  0.4691
  125TMC2    C6 1945   4.039   2.322   8.905 -0.8361  0.3606 -0.3828
  125TMC2     C 1946   3.652   2.467   8.936  0.0172 -0.4684  0.7714
  125TMC2     O 1947   3.564   2.402   8.987  0.0379  0.0781  0.3368
  125TMC2     H 1948   3.881   2.620   8.916 -2.4454 -0.2521  0.1523
  125TMC2    H1 1949   3.720   2.225   8.966 -0.2850 -0.1339  0.0557
  125TMC2    H2 1950   4.145   2.297   8.903 -0.9462 -0.1000 -0.6665
  125TMC2    C7 1951   3.978   2.114   8.983 -0.3552  0.1923  0.4457
  125TMC2    C8 1952   4.127   2.533   8.876 -0.0332  0.7751 -0.5669
  125TMC2    O1 1953   4.101   2.096   8.977 -0.0174 -0.2878  0.2192
  125TMC2    O2 1954   4.227   2.514   8.945  0.5331  0.0541 -0.0276
  125TMC2    O5 1955   4.087   2.636   8.803 -0.3210 -0.1616 -0.3262
  125TMC2    H5 1956   4.006   2.597   8.765 -0.6785 -1.6581  1.9105
  126MPD1     C 1957   3.279   2.792   8.790 -0.1420 -0.6417  0.2870
  126MPD1    C1 1958   3.398   2.834   8.742 -0.4003  0.4129 -0.5817
  126MPD1    C2 1959   3.512   2.756   8.760 -0.2429  0.0477 -0.4976
  126MPD1    C3 1960   3.508   2.650   8.846 -0.3620 -0.0622  0.1748
  126MPD1    C4 1961   3.384   2.614   8.894  0.7210  0.6313  0.1667
  126MPD1    C5 1962   3.267   2.679   8.863 -0.0869 -0.2982  0.1005
  126MPD1     H 1963   3.609   2.770   8.715 -0.8439 -0.7245 -2.0358
  126MPD1    H1 1964   3.373   2.524   8.954  0.7264  0.5537  0.0528
  126MPD1    H2 1965   3.196   2.862   8.780  0.3126 -0.3889 -1.7259
  126MPD1    H3 1966   3.171   2.657   8.908  0.1752  0.6537  1.1323
  126MPD1     N 1967   3.632   2.580   8.862  0.2234 -0.2530  0.0769
  126MPD1    H5 1968   3.713   2.606   8.805 -0.6853  0.9821 -0.6504
  126MPD1    N1 1969   3.408   2.944   8.657 -0.5739 -0.1406 -0.3248
  126MPD1    H6 1970   3.497   2.990   8.672 -1.6080  2.6272 -2.5375
  126MPD1    H7 1971   3.332   3.012   8.663  0.7501  1.4511 -1.7889
  127TMC2    C1 1972   2.661   4.671   9.601 -1.0234 -0.4765  0.8088
  127TMC2    C2 1973   2.632   4.647   9.732  0.0840 -0.3932 -0.1277
  127TMC2    C3 1974   2.509   4.602   9.763  0.1859  0.3311  0.1705
  127TMC2    C4 1975   2.571   4.653   9.499  0.4917 -0.6320 -0.3588
  127TMC2    C5 1976   2.449   4.603   9.535 -0.5498 -0.4971  0.0299
  127TMC2    C6 1977   2.419   4.588   9.668 -0.0471  0.4402  0.0770
  127TMC2     C 1978   2.774   0.017   9.577 -0.0686 -0.1345  0.0023
  127TMC2     O 1979   2.811   0.071   9.681 -0.7261 -0.2021 -0.6828
  127TMC2     H 1980   2.713   4.650   9.804  0.4387  2.6642 -0.6632
  127TMC2    H1 1981   2.596   4.674   9.396 -0.2118  1.7425 -0.0321
  127TMC2    H2 1982   2.316   4.558   9.685  0.5636 -0.9155  1.4044
  127TMC2    C7 1983   2.349   4.561   9.434  0.1486  0.4570  0.6769
  127TMC2    C8 1984   2.487   4.573   9.903 -0.4147  0.3147  0.5620
  127TMC2    O1 1985   2.369   4.611   9.326 -0.1443 -0.8398 -0.4658
  127TMC2    O2 1986   2.555   4.613   9.995 -0.2516 -0.1679  1.1167
  127TMC2    O5 1987   2.413   4.454   9.910 -0.6098 -0.3399  0.1691
  127TMC2    H5 1988   2.369   4.426   9.827  0.4725  0.2318 -0.6137
  128MPD2     C 1989   3.004   0.074   9.305  0.1278 -0.4738  0.6017
  128MPD2    C1 1990   2.944   0.103   9.430  0.4256 -0.4823 -0.8644
  128MPD2    C2 1991   3.010   0.189   9.515  0.0088  0.9239 -0.3539
  128MPD2    C3 1992   3.116   0.263   9.474 -0.8002  0.0720 -0.8252
  128MPD2    C4 1993   3.164   0.249   9.352  0.3571 -0.4175 -0.0776
  128MPD2    C5 1994   3.113   0.151   9.269 -0.2098 -0.3446 -0.3312
  128MPD2     H 1995   2.974   0.219   9.612  3.1284 -0.6461  1.2741
  128MPD2    H1 1996   3.237   0.314   9.305  0.8567  0.1863  1.5200
  128MPD2    H2 1997   2.963   4.735   9.237 -0.0813 -0.9851  1.2945
  128MPD2    H3 1998   3.163   0.139   9.173  1.5433 -1.7586  0.7811
  128MPD2     N 1999   3.175   0.341   9.576 -0.1093 -0.1398  0.1857
  128MPD2    H5 2000   3.129   0.337   9.667  1.4038  0.1368  0.9528
  128MPD2    N1 2001   2.828   0.026   9.452  0.2066 -0.2925 -0.1969
  128MPD2    H7 2002   2.815   4.689   9.383  0.9304 -0.9814  0.3999
  129TMC2    C1 2003   1.591   0.589   2.374  0.8387  0.4912 -0.0643
  129TMC2    C2 2004   1.554   0.614   2.503 -0.0335  1.1064  0.1706
  129TMC2    C3 2005   1.442   0.543   2.545 -0.0515  0.5857 -0.2878
  129TMC2    C4 2006   1.526   0.497   2.296  0.0160  0.2844 -0.3483
  129TMC2    C5 2007   1.415   0.435   2.347 -0.1616 -0.1268  0.0033
  129TMC2    C6 2008   1.364   0.463   2.472 -0.3988  0.4323 -0.2764
  129TMC2     C 2009   1.727   0.613   2.335 -0.1881 -0.1776 -0.2450
  129TMC2     O 2010   1.802   0.650   2.424  0.0888  0.4034 -0.4765
  129TMC2     H 2011   1.616   0.675   2.569 -0.5823  0.0867  1.6400
  129TMC2    H1 2012   1.554   0.478   2.193 -0.9533  1.6806 -0.8679
  129TMC2    H2 2013   1.302   0.392   2.526  0.3581  0.6990  0.9512
  129TMC2    C7 2014   1.343   0.332   2.272 -0.9155  0.3580 -0.7334
  129TMC2    C8 2015   1.415   0.539   2.687  0.2036 -0.5315  0.0647
  129TMC2    O1 2016   1.226   0.310   2.299 -0.9888  0.2009 -0.3392
  129TMC2    O2 2017   1.500   0.593   2.762  0.4045 -0.0276 -0.1541
  129TMC2    O5 2018   1.285   0.562   2.705 -0.0258 -0.6187  0.2730
  129TMC2    H5 2019   1.238   0.554   2.619  0.0906  0.3883  0.1170
  130MPD2     C 2020   1.981   0.669   2.183 -0.2098 -0.3305 -0.1916
  130MPD2    C1 2021   1.855   0.669   2.127 -0.1109  0.4797 -0.4701
  130MPD2    C2 2022   1.839   0.701   1.992  0.1230  0.4460 -0.2564
  130MPD2    C3 2023   1.946   0.753   1.921 -0.6371 -0.3942  0.1377
  130MPD2    C4 2024   2.071   0.730   1.975  0.1300 -0.4267 -0.0131
  130MPD2    C5 2025   2.084   0.691   2.107  0.1537 -0.1299  0.1025
  130MPD2     H 2026   1.739   0.698   1.952  0.9737 -0.5195 -2.2966
  130MPD2    H1 2027   2.158   0.736   1.910 -0.2695  2.4514 -0.2597
  130MPD2    H2 2028   1.992   0.628   2.282 -0.0446 -1.1118 -0.5325
  130MPD2    H3 2029   2.184   0.687   2.148  0.4471  0.6792 -0.5209
  130MPD2     N 2030   1.917   0.787   1.790  0.1853  0.8384 -0.3521
  130MPD2    H5 2031   1.818   0.790   1.767  0.1937  1.9774 -0.2639
  130MPD2    N1 2032   1.738   0.629   2.198  0.2950  0.1370 -0.0605
  130MPD2    H7 2033   1.654   0.632   2.141  0.0309  0.6711  0.3580
  131TMC2    C1 2034   0.241   4.603  10.176  0.4683  0.1951  0.5044
  131TMC2    C2 2035   0.201   4.699  10.263 -0.4252  0.3321  0.1462
  131TMC2    C3 2036   0.256   0.090  10.254  0.5042  0.4904 -0.3683
  131TMC2    C4 2037   0.332   4.634  10.079 -0.4941 -0.1622 -0.5893
  131TMC2    C5 2038   0.376   0.029  10.068 -0.2187  0.5417  0.2994
  131TMC2    C6 2039   0.337   0.130  10.156  0.5596 -0.2521  0.7178
  131TMC2     C 2040   0.210   4.464  10.188  0.3693  0.4743  0.3584
  131TMC2     O 2041   0.177   4.418  10.295  0.6274  0.0026 -0.0752
  131TMC2     H 2042   0.139   4.673  10.347 -0.1129 -2.1041 -0.3911
  131TMC2    H1 2043   0.390   4.566  10.019  1.6834 -0.3338  1.7410
  131TMC2    H2 2044   0.376   0.232  10.162  0.2131 -0.1709  1.6432
  131TMC2    C7 2045   0.514   0.048  10.018 -0.2328 -0.5043 -0.2794
  131TMC2    C8 2046   0.189   0.188  10.331  0.1040  0.6806  0.5201
  131TMC2    O1 2047   0.579   4.683   9.985  0.3666  0.8466  0.0314
  131TMC2    O2 2048   0.236   0.302  10.340 -0.1374  0.5367 -0.3234
  131TMC2    O5 2049   0.061   0.166  10.287 -0.0922 -0.5392  0.0319
  131TMC2    H5 2050   0.054   0.073  10.259 -2.0249  0.1416 -1.7625
  132MPD2     C 2051   0.181   4.235   9.898 -0.5202 -0.1639 -0.0833
  132MPD2    C1 2052   0.180   4.268  10.033  0.4974  0.3543 -0.4352
  132MPD2    C2 2053   0.153   4.167  10.122  0.3869  0.3866 -0.1511
  132MPD2    C3 2054   0.135   4.032  10.091  0.1544 -0.7986  0.0630
  132MPD2    C4 2055   0.137   3.997   9.954  0.0898 -1.0160  0.5957
  132MPD2    C5 2056   0.166   4.101   9.864  0.3495 -0.3979 -0.4181
  132MPD2     H 2057   0.151   4.188  10.228 -1.7574  1.2171 -0.3531
  132MPD2    H1 2058   0.151   3.896   9.918  0.6983 -0.2160 -1.4117
  132MPD2    H2 2059   0.213   4.311   9.828  0.0844 -0.8549 -0.5548
  132MPD2    H3 2060   0.192   4.084   9.760 -0.9463 -1.8407 -0.5094
  132MPD2     N 2061   0.122   3.931  10.194 -0.3931 -0.0377 -0.6082
  132MPD2    H5 2062   0.123   3.966  10.289  0.8758 -1.9209  0.0780
  132MPD2    N1 2063   0.208   4.404  10.065 -0.3300 -0.3158  0.3547
  132MPD2    H7 2064   0.218   4.468   9.987 -1.6225 -1.2619 -0.5784
  133TMC2    C1 2065   0.177   0.709   9.898 -0.4577  0.2137 -0.3132
  133TMC2    C2 2066   0.223   0.591   9.943 -0.1606  0.1570  0.4990
  133TMC2    C3 2067   0.330   0.593  10.033  1.0587  0.0999  0.2031
  133TMC2    C4 2068   0.219   0.830   9.958  0.1018 -0.2751 -0.4956
  133TMC2    C5 2069   0.328   0.834  10.040 -0.3480  0.1948  0.0669
  133TMC2    C6 2070   0.387   0.713  10.075 -0.2673  0.5600 -0.0764
  133TMC2     C 2071   0.073   0.700   9.798  0.0436 -0.0879  0.9243
  133TMC2     O 2072   0.022   0.592   9.779  1.0080 -0.0646 -0.4610
  133TMC2     H 2073   0.186   0.499   9.900  0.8944 -0.6989  1.4467
  133TMC2    H1 2074   0.170   0.925   9.937  2.2599  0.7841 -0.7641
  133TMC2    H2 2075   0.477   0.706  10.135 -1.4393  1.5233  1.8066
  133TMC2    C7 2076   0.374   0.954  10.114 -0.1860  0.5683 -0.2874
  133TMC2    C8 2077   0.397   0.472  10.053 -0.4563  0.3976 -0.5891
  133TMC2    O1 2078   0.467   0.942  10.191 -0.2276  0.5139  0.5217
  133TMC2    O2 2079   0.401   0.388   9.962 -0.1363 -0.2550 -0.7522
  133TMC2    O5 2080   0.431   0.463  10.182  0.0231 -0.9101 -0.3830
  133TMC2    H5 2081   0.411   0.536  10.245  1.4553 -1.0819  0.2691
  134MPD2     C 2082   4.651   0.983   9.617  0.2253  0.2054  0.3807
  134MPD2    C1 2083   4.689   0.847   9.632 -0.2991 -0.2841  1.1453
  134MPD2    C2 2084   4.611   0.744   9.575  0.0492  0.5022 -0.7439
  134MPD2    C3 2085   4.484   0.769   9.520 -0.2614  0.5071 -0.1884
  134MPD2    C4 2086   4.456   0.903   9.513 -0.3203  0.4482 -0.2380
  134MPD2    C5 2087   4.533   1.003   9.560 -0.5889  0.5172 -0.1613
  134MPD2     H 2088   4.652   0.644   9.567 -2.3269 -0.6230  0.8764
  134MPD2    H1 2089   4.364   0.938   9.468 -0.9554 -0.1403  0.6222
  134MPD2    H2 2090   4.691   1.074   9.660  0.2925  0.6622 -0.6614
  134MPD2    H3 2091   4.506   1.104   9.532 -0.9956  0.6385  0.6891
  134MPD2     N 2092   4.389   0.682   9.476  0.0317  0.1150 -0.2932
  134MPD2    H5 2093   4.300   0.715   9.441  0.2232 -1.1842 -2.0325
  134MPD2    N1 2094   0.052   0.818   9.729 -0.6816  0.0463  0.6753
  134MPD2    H7 2095   0.122   0.887   9.756 -0.7899  0.2377  0.4709
  135TMC2    C1 2096   2.825   2.015   9.836  0.2422  0.5334 -0.7624
  135TMC2    C2 2097   2.768   2.081   9.942 -0.4261  0.6846  0.8120
  135TMC2    C3 2098   2.648   2.036   9.984 -0.2776  0.6402  0.6080
  135TMC2    C4 2099   2.767   1.901   9.787  0.5639 -0.1967 -0.3887
  135TMC2    C5 2100   2.655   1.847   9.837 -0.4327  0.3919 -0.2358
  135TMC2    C6 2101   2.592   1.916   9.943 -0.6205  0.0922  0.6205
  135TMC2     C 2102   2.963   2.028   9.815  0.2828  0.0931  0.1551
  135TMC2     O 2103   3.029   1.961   9.896  0.0627 -1.0362  0.0223
  135TMC2     H 2104   2.823   2.154  10.000  0.2546  1.4881 -0.8484
  135TMC2    H1 2105   2.820   1.849   9.708  2.1017  1.8842 -0.6993
  135TMC2    H2 2106   2.489   1.894   9.968 -0.6297 -1.3847 -0.7655
  135TMC2    C7 2107   2.612   1.721   9.772  0.2946  0.2451  0.5924
  135TMC2    C8 2108   2.575   2.118  10.079  0.0043  0.7434  0.2045
  135TMC2    O1 2109   2.685   1.674   9.688 -0.0568 -0.3286  0.0814
  135TMC2    O2 2110   2.482   2.070  10.144  0.4221 -0.2017  0.4920
  135TMC2    O5 2111   2.590   2.251  10.047 -0.1220 -0.1253 -0.0356
  135TMC2    H5 2112   2.657   2.271   9.978  0.2967  0.1191  0.4443
  136MPD2     C 2113   3.225   2.010   9.643 -0.1561 -0.2347  0.1757
  136MPD2    C1 2114   3.120   2.097   9.625  0.6048  0.5342  0.3643
  136MPD2    C2 2115   3.141   2.203   9.531  0.5607  0.4472  0.6868
  136MPD2    C3 2116   3.255   2.216   9.456  0.7383 -0.1692  0.3563
  136MPD2    C4 2117   3.355   2.122   9.474  0.3554  0.0155 -0.0662
  136MPD2    C5 2118   3.341   2.027   9.570  0.8135 -0.1874 -0.1295
  136MPD2     H 2119   3.064   2.274   9.505  0.9998  0.4118 -0.6684
  136MPD2    H1 2120   3.432   2.118   9.398  0.1138  3.0111 -0.4912
  136MPD2    H2 2121   3.221   1.926   9.712 -1.2004  0.1734  0.6217
  136MPD2    H3 2122   3.416   1.950   9.585  0.6768  0.0018  1.4699
  136MPD2     N 2123   3.284   2.328   9.369  0.1086 -0.3037 -0.3451
  136MPD2    H5 2124   3.370   2.325   9.315 -0.4250 -2.9367 -1.0518
  136MPD2    N1 2125   2.996   2.093   9.705  0.1253 -0.0913 -0.4514
  136MPD2    H7 2126   2.922   2.147   9.661 -0.1065  1.7079  2.1225
  137TMC2    C1 2127   1.337   0.094   9.083 -0.6408  0.3310  0.0769
  137TMC2    C2 2128   1.351   0.028   8.962 -0.3656 -0.5131  0.0869
  137TMC2    C3 2129   1.262   0.071   8.864 -0.2766 -0.7523 -0.0129
  137TMC2    C4 2130   1.242   0.190   9.109  0.4636 -0.7607 -0.0037
  137TMC2    C5 2131   1.161   0.228   9.002  0.7784  0.7967  1.1376
  137TMC2    C6 2132   1.164   0.166   8.884  0.3711  0.0504  0.5635
  137TMC2     C 2133   1.434   0.074   9.191 -0.7720 -0.3984 -0.8524
  137TMC2     O 2134   1.464   0.170   9.261  0.4875 -0.0392 -0.7971
  137TMC2     H 2135   1.414   4.676   8.947  0.8059  0.1757  1.0179
  137TMC2    H1 2136   1.224   0.234   9.206  0.7609 -0.7787  0.0594
  137TMC2    H2 2137   1.093   0.189   8.806  0.2963 -0.0381  0.6052
  137TMC2    C7 2138   1.039   0.301   9.023  0.5206 -0.5301  0.1297
  137TMC2    C8 2139   1.242   4.725   8.758 -0.1767 -0.7740 -0.0666
  137TMC2    O1 2140   0.945   0.256   8.969 -0.2499  0.1148 -0.1333
  137TMC2    O2 2141   1.130   4.722   8.706  0.3239  0.4114  0.6012
  137TMC2    O5 2142   1.346   4.647   8.727 -0.6337  0.3310  0.1358
  137TMC2    H5 2143   1.423   4.708   8.736 -1.4393  1.2775  0.5716
  138MPD2     C 2144   1.549   4.471   9.283 -0.5641 -0.3074 -0.5974
  138MPD2    C1 2145   1.534   4.613   9.289 -0.7058  0.4941 -0.9331
  138MPD2    C2 2146   1.610   4.677   9.376 -0.8801  0.0618 -0.2214
  138MPD2    C3 2147   1.699   4.618   9.467 -0.8149  0.6241 -1.1415
  138MPD2    C4 2148   1.727   4.485   9.449  0.3508 -0.2923  0.3154
  138MPD2    C5 2149   1.657   4.415   9.357  0.0841 -0.0133 -0.1718
  138MPD2     H 2150   1.599   0.048   9.387  0.1619  0.3503 -2.1278
  138MPD2    H1 2151   1.794   4.426   9.510 -0.5509  1.0881  2.6345
  138MPD2    H2 2152   1.490   4.409   9.217  1.4709 -0.2414 -2.4943
  138MPD2    H3 2153   1.662   4.307   9.362  0.6384  0.0785  1.2511
  138MPD2     N 2154   1.757   4.696   9.572  0.3574  0.5245  0.6997
  138MPD2    H5 2155   1.718   0.052   9.587  0.6471  0.6279  0.8119
  138MPD2    N1 2156   1.446   4.679   9.198 -0.4505  0.2521  0.0540
  138MPD2    H7 2157   1.389   4.628   9.132 -0.2288 -0.6336  0.5445
  139TMC2    C1 2158   1.812   3.705  13.450  0.5888 -0.3859  0.4572
  139TMC2    C2 2159   1.902   3.802  13.423 -0.6410 -0.4651  0.1044
  139TMC2    C3 2160   1.852   3.928  13.408 -0.5246  0.1472 -0.8133
  139TMC2    C4 2161   1.672   3.731  13.459  0.5344 -0.4364 -0.1279
  139TMC2    C5 2162   1.634   3.862  13.437 -0.9013  0.1312 -0.1287
  139TMC2    C6 2163   1.717   3.964  13.404  0.5759  0.3806 -0.9888
  139TMC2     C 2164   1.871   3.576  13.492 -0.9844 -0.4564 -0.7617
  139TMC2     O 2165   1.993   3.566  13.509 -0.3392 -0.0851  0.1091
  139TMC2     H 2166   2.007   3.783  13.441 -0.2594  1.0214 -0.5290
  139TMC2    H1 2167   1.604   3.650  13.483  0.2284  0.7293  2.8781
  139TMC2    H2 2168   1.670   4.061  13.404  0.9413  0.5310  3.8953
  139TMC2    C7 2169   1.537   3.903  13.535 -0.2714 -0.5990 -0.7959
  139TMC2    C8 2170   1.932   4.035  13.462  1.0623 -0.5375  0.7491
  139TMC2    O1 2171   1.554   4.004  13.606  0.2656  0.5165  0.2060
  139TMC2    O2 2172   1.891   4.151  13.461  0.3078 -0.6650  0.4936
  139TMC2    O5 2173   2.039   3.988  13.528  0.1102  0.2455 -0.2042
  139TMC2    H5 2174   2.089   4.065  13.564  1.3945 -0.2269 -0.9852
  140MPD2     C 2175   1.711   3.239  13.495 -0.7472  0.0553  0.9397
  140MPD2    C1 2176   1.802   3.337  13.530  0.2380  0.5385  0.5471
  140MPD2    C2 2177   1.921   3.288  13.584 -0.2887  0.2750  0.6272
  140MPD2    C3 2178   1.955   3.158  13.578  0.3286 -0.1170  0.0309
  140MPD2    C4 2179   1.854   3.057  13.554  0.1167  0.1624 -0.5905
  140MPD2    C5 2180   1.737   3.110  13.512 -0.3161 -0.4013  0.1416
  140MPD2     H 2181   1.992   3.364  13.617 -2.7676  2.5616  0.6965
  140MPD2    H1 2182   1.863   2.951  13.571  0.8088  0.2669 -0.3172
  140MPD2    H2 2183   1.619   3.274  13.449 -1.3237 -1.2712  1.0938
  140MPD2    H3 2184   1.661   3.041  13.475  0.2416 -0.6684 -0.5215
  140MPD2     N 2185   2.081   3.126  13.628 -0.0316  0.3787 -0.3513
  140MPD2    H5 2186   2.126   3.205  13.672 -0.2024 -1.4086  3.0996
  140MPD2    N1 2187   1.778   3.477  13.497 -0.4510  0.1611 -0.1729
  140MPD2    H7 2188   1.689   3.495  13.451 -0.9623 -0.9900  0.3582
  141TMC2    C1 2189   2.731   0.244  14.161 -0.4563  0.2799  0.6195
  141TMC2    C2 2190   2.600   0.268  14.134  0.1054  0.0742 -0.2044
  141TMC2    C3 2191   2.531   0.344  14.227 -0.3120  0.1847 -0.0407
  141TMC2    C4 2192   2.802   0.287  14.275  0.0730  0.0218 -0.4279
  141TMC2    C5 2193   2.727   0.365  14.354 -0.1557 -0.1034  0.2039
  141TMC2    C6 2194   2.596   0.400  14.330 -0.5864 -0.7108  0.2625
  141TMC2     C 2195   2.804   0.189  14.041 -0.7874 -0.4254 -0.2031
  141TMC2     O 2196   2.756   0.192  13.931 -0.6498  0.7010 -0.1032
  141TMC2     H 2197   2.554   0.226  14.046  1.0887  0.8793 -1.1009
  141TMC2    H1 2198   2.909   0.276  14.289  0.2145  1.9414 -0.0939
  141TMC2    H2 2199   2.541   0.455  14.406 -0.0528  1.1277 -0.6933
  141TMC2    C7 2200   2.808   0.458  14.437 -0.2594 -0.0883  0.0208
  141TMC2    C8 2201   2.389   0.371  14.210  0.0023 -0.0912  0.2965
  141TMC2    O1 2202   2.926   0.422  14.464 -0.7959 -0.8900 -0.0588
  141TMC2    O2 2203   2.337   0.469  14.266 -0.0937  0.2442 -0.3811
  141TMC2    O5 2204   2.328   0.255  14.161 -0.1473  0.1417  0.3497
  141TMC2    H5 2205   2.385   0.176  14.166  1.6137  1.3305 -0.9795
  142TMC2    C1 2206   0.495   3.970  10.208  0.4482  0.4788  0.2614
  142TMC2    C2 2207   0.502   4.014  10.080 -0.5582 -0.1140 -0.1070
  142TMC2    C3 2208   0.522   4.146  10.065 -0.4554 -0.1268  0.5278
  142TMC2    C4 2209   0.520   4.049  10.318 -0.1701 -0.4763 -0.1819
  142TMC2    C5 2210   0.529   4.189  10.300  0.0050  0.2404 -0.0264
  142TMC2    C6 2211   0.526   4.236  10.170  0.1469  0.6462  0.8412
  142TMC2     C 2212   0.450   3.830  10.226  0.1652 -0.7609 -0.3410
  142TMC2     O 2213   0.442   3.767  10.120  0.7251  0.1570 -0.4618
  142TMC2     H 2214   0.492   3.954   9.990  0.3799 -2.2447  1.2129
  142TMC2    H1 2215   0.520   4.003  10.416  0.6306 -2.3205 -1.0511
  142TMC2    H2 2216   0.545   4.334  10.128  0.4497 -0.2585 -1.1170
  142TMC2    C7 2217   0.542   4.261  10.421 -0.0190  0.3960 -0.4708
  142TMC2    C8 2218   0.550   4.209   9.937  0.1364  0.0834 -0.4561
  142TMC2    O1 2219   0.575   4.205  10.524 -0.3359 -0.2362 -0.6042
  142TMC2    O2 2220   0.538   4.323   9.902  0.2378  0.2212  0.1802
  142TMC2    O5 2221   0.616   4.122   9.872 -0.8968 -0.0807 -0.1336
  142TMC2    H5 2222   0.648   4.043   9.921 -0.4767 -0.2493 -0.6783
  143MPD2     C 2223   0.398   3.415  10.526  0.8957  0.4799 -0.5889
  143MPD2    C1 2224   0.419   3.421  10.393  0.7306 -0.0438  0.7412
  143MPD2    C2 2225   0.427   3.546  10.338 -0.0999 -0.0891 -0.4246
  143MPD2    C3 2226   0.421   3.659  10.414  0.6030 -0.2135  0.4403
  143MPD2    C4 2227   0.407   3.652  10.551  0.0680 -0.4842  0.3710
  143MPD2    C5 2228   0.387   3.527  10.606 -0.8634  0.1564 -0.4791
  143MPD2     H 2229   0.449   3.558  10.232 -0.9234 -0.1759 -0.6036
  143MPD2    H1 2230   0.401   3.734  10.622 -1.0595 -0.1039 -0.1574
  143MPD2    H2 2231   0.382   3.319  10.573  2.0693  0.5055 -0.1456
  143MPD2    H3 2232   0.383   3.531  10.714 -1.1704  0.9122 -0.5201
  143MPD2     N 2233   0.440   3.789  10.358  0.1911  0.2292  0.0277
  143MPD2    H5 2234   0.446   3.862  10.428  2.7606 -0.2894  0.3387
  143MPD2    N1 2235   0.420   3.301  10.316 -0.2259  0.6446 -0.4212
  143MPD2    H7 2236   0.412   3.216  10.370 -1.3645 -1.2815 -3.6080
  144TMC2    C1 2237   3.626   2.174   0.721 -0.8630  0.4889  0.4344
  144TMC2    C2 2238   3.688   2.104   0.625 -0.0310  0.4065 -0.1329
  144TMC2    C3 2239   3.818   2.137   0.588  0.3017 -0.4209 -0.2271
  144TMC2    C4 2240   3.688   2.269   0.792  0.6154 -0.7701  0.3151
  144TMC2    C5 2241   3.818   2.294   0.765  0.6913 -0.1243 -0.1404
  144TMC2    C6 2242   3.884   2.229   0.665 -0.3287 -0.7381  0.1544
  144TMC2     C 2243   3.482   2.153   0.730 -0.7615  0.3335 -0.5447
  144TMC2     O 2244   3.424   2.137   0.625 -0.3122 -0.1367  0.1301
  144TMC2     H 2245   3.627   2.024   0.585  1.9954 -0.9428 -0.4865
  144TMC2    H1 2246   3.622   2.334   0.848  1.8141 -0.9090  1.8630
  144TMC2    H2 2247   3.989   2.248   0.644 -0.6352  0.8812  0.0489
  144TMC2    C7 2248   3.890   2.405   0.831 -0.6346  0.1677  0.0328
  144TMC2    C8 2249   3.895   2.070   0.486 -0.4141  0.0076  0.2429
  144TMC2    O1 2250   4.008   2.410   0.813 -0.3951 -0.1417 -0.3433
  144TMC2    O2 2251   4.018   2.075   0.490  0.0176 -0.1990  0.1404
  144TMC2    O5 2252   3.819   1.979   0.421 -0.0153  0.0280  0.2078
  144TMC2    H5 2253   3.725   2.001   0.438 -0.2766 -1.0594  0.1846
  145MPD2     C 2254   3.039   2.297   0.958  0.2176  0.0733  0.3161
  145MPD2    C1 2255   3.065   2.289   0.820 -0.0611 -0.4028 -0.3700
  145MPD2    C2 2256   3.196   2.247   0.784  0.2003  0.6064  0.3002
  145MPD2    C3 2257   3.293   2.229   0.879  0.0466  0.4907 -0.3878
  145MPD2    C4 2258   3.260   2.235   1.011 -0.3423  0.2860 -0.3221
  145MPD2    C5 2259   3.133   2.263   1.053 -0.4978  0.2507 -0.6196
  145MPD2     H 2260   3.214   2.261   0.678  0.8717 -1.5373  0.1388
  145MPD2    H1 2261   3.332   2.213   1.089 -1.2687 -1.9903 -0.1072
  145MPD2    H2 2262   2.942   2.328   0.995  0.4871  1.3109  0.0049
  145MPD2    H3 2263   3.105   2.264   1.158  0.6508 -1.3688 -0.3046
  145MPD2     N 2264   3.428   2.187   0.858  0.3888  0.2508 -0.0191
  145MPD2    H5 2265   3.487   2.207   0.938  0.8256  0.4736 -0.4007
  145MPD2    N1 2266   2.974   2.325   0.722  0.6366 -0.1089 -0.4284
  145MPD2    H7 2267   3.007   2.306   0.628  1.7707  0.3941 -0.1346
  146TMC2    C1 2268   4.653   1.296  12.630  0.0191 -0.0607 -1.1219
  146TMC2    C2 2269   4.560   1.289  12.523  0.3857 -1.1410 -0.0177
  146TMC2    C3 2270   4.608   1.222  12.416 -0.2135 -0.3029 -0.2977
  146TMC2    C4 2271   0.046   1.239  12.628  0.2091 -0.6319  0.2632
  146TMC2    C5 2272   0.084   1.171  12.516 -0.4561  0.6130 -0.8303
  146TMC2    C6 2273   0.001   1.169  12.406  0.0417  0.0718  0.9832
  146TMC2     C 2274   4.608   1.371  12.738  0.1219  0.5541 -0.0426
  146TMC2     O 2275   4.520   1.457  12.720 -0.3077 -0.0169 -0.3237
  146TMC2     H 2276   4.457   1.321  12.534  0.5914  0.0034 -1.4937
  146TMC2    H1 2277   0.115   1.274  12.705 -0.8393 -1.6504  1.6739
  146TMC2    H2 2278   0.029   1.125  12.311  0.0529  0.4747  0.8016
  146TMC2    C7 2279   0.221   1.125  12.504 -0.5890 -0.6382  0.0920
  146TMC2    C8 2280   4.528   1.209  12.289 -0.0432  0.1274  0.1964
  146TMC2    O1 2281   0.264   1.101  12.392  0.0589  0.0261  0.2565
  146TMC2    O2 2282   4.547   1.131  12.201  0.4896 -0.8148 -0.0686
  146TMC2    O5 2283   4.494   1.337  12.271  0.0298  0.6958 -0.1542
  146TMC2    H5 2284   4.531   1.393  12.342  0.1249 -1.0495  1.1684
  147MPD2     C 2285   0.650   0.924  12.704 -0.2138 -0.0217  0.1366
  147MPD2    C1 2286   0.569   0.962  12.808  0.2614  0.0090  0.2632
  147MPD2    C2 2287   0.447   1.020  12.782  0.3473 -0.4749  0.0313
  147MPD2    C3 2288   0.410   1.047  12.650 -0.1919  0.5032  0.0590
  147MPD2    C4 2289   0.502   1.021  12.547  1.2035  0.4217 -0.4081
  147MPD2    C5 2290   0.621   0.959  12.574 -0.0841  0.2490  0.0507
  147MPD2     H 2291   0.381   1.024  12.868  0.7335 -1.6799  0.3885
  147MPD2    H1 2292   0.487   1.058  12.446 -0.0033  1.9340  0.3156
  147MPD2    H2 2293   0.740   0.867  12.725 -0.9324 -1.0182  0.4917
  147MPD2    H3 2294   0.687   0.929  12.494  1.1828  0.2288  1.0931
  147MPD2     N 2295   0.282   1.109  12.631 -0.4367 -0.4047  0.6781
  147MPD2    H5 2296   0.221   1.131  12.709 -0.9622  2.5570 -0.5859
  147MPD2    N1 2297   0.609   0.918  12.936 -0.0530  0.0458 -0.1939
  147MPD2    H7 2298   0.696   0.866  12.938  0.6283  1.1986  0.1599
  148TMC2    C1 2299   4.364   0.550  10.384 -0.3808  0.3512 -0.3865
  148TMC2    C2 2300   4.397   0.683  10.407  0.1903 -0.7041  0.2235
  148TMC2    C3 2301   4.501   0.713  10.494  1.1495 -0.0400 -0.9124
  148TMC2    C4 2302   4.443   0.447  10.434 -0.5298  0.2070 -0.2105
  148TMC2    C5 2303   4.543   0.478  10.525 -0.4759  0.1632  0.4961
  148TMC2    C6 2304   4.576   0.608  10.552 -0.0462 -0.1289  0.3214
  148TMC2     C 2305   4.251   0.531  10.298  0.1925  0.2961 -0.4131
  148TMC2     O 2306   4.190   0.624  10.241 -1.0338 -0.0917  0.1840
  148TMC2     H 2307   4.326   0.761  10.380  0.3993 -0.1549  1.2750
  148TMC2    H1 2308   4.404   0.346  10.435 -0.1946  0.1033  2.8374
  148TMC2    H2 2309   4.664   0.630  10.611 -0.8470 -0.4856  1.6591
  148TMC2    C7 2310   4.619   0.368  10.585  1.0017  0.3497 -0.0477
  148TMC2    C8 2311   4.500   0.842  10.554  0.2400  0.3452 -0.9421
  148TMC2    O1 2312   4.723   0.398  10.638  0.9312 -0.0345 -0.1694
  148TMC2    O2 2313   4.425   0.932  10.514  0.3402 -0.0407  0.4558
  148TMC2    O5 2314   4.614   0.857  10.632 -0.1404  0.5459  0.1356
  148TMC2    H5 2315   4.688   0.794  10.620 -1.8489 -1.3877 -0.2474
  149MPD2     C 2316   3.971   0.418  10.236 -0.4068 -0.1181 -0.5157
  149MPD2    C1 2317   4.094   0.349  10.231  0.1582  0.0408 -0.5287
  149MPD2    C2 2318   4.091   0.231  10.165  0.4483  0.1578 -0.3003
  149MPD2    C3 2319   3.978   0.179  10.106  0.3225  0.2694 -0.3401
  149MPD2    C4 2320   3.859   0.249  10.115 -0.2057 -0.2506  0.6515
  149MPD2    C5 2321   3.855   0.369  10.183  0.1665 -0.4125 -0.5179
  149MPD2     H 2322   4.185   0.179  10.149 -0.3033 -1.3082  0.0978
  149MPD2    H1 2323   3.768   0.198  10.088 -1.7128  2.9974 -0.4197
  149MPD2    H2 2324   3.975   0.516  10.283 -1.1721 -0.7329  0.8064
  149MPD2    H3 2325   3.763   0.427  10.186  0.9676  0.8327  0.1230
  149MPD2     N 2326   3.975   0.057  10.035  0.3349  0.0305 -0.3303
  149MPD2    H5 2327   3.883   0.034   9.998 -0.1287 -0.8847  1.4188
  149MPD2    N1 2328   4.217   0.399  10.289 -0.7043 -0.3193  0.4267
  149MPD2    H7 2329   4.288   0.331  10.316  1.7976  1.6171 -1.3423
  150TMC2    C1 2330   2.086   4.598  12.160  0.3633  0.9176  0.2607
  150TMC2    C2 2331   2.021   4.716  12.154 -0.8241 -0.4895  0.5903
  150TMC2    C3 2332   2.081   0.092  12.197 -0.2477 -0.5071  0.1765
  150TMC2    C4 2333   2.214   4.594  12.214 -0.6257 -0.4879 -0.0994
  150TMC2    C5 2334   2.266   4.708  12.277  0.4739  0.5828  0.4517
  150TMC2    C6 2335   2.207   0.092  12.258  0.7255  0.1167 -0.3721
  150TMC2     C 2336   2.032   4.488  12.081  0.0873 -0.0991 -0.2245
  150TMC2     O 2337   1.942   4.516  12.003 -0.1290  0.2621 -0.0726
  150TMC2     H 2338   1.925   4.731  12.105 -1.4738  0.2605  2.1131
  150TMC2    H1 2339   2.276   4.505  12.207 -1.5353 -1.0640 -0.8474
  150TMC2    H2 2340   2.249   0.184  12.296  0.2595 -0.3469  1.2800
  150TMC2    C7 2341   2.393   4.707  12.357  0.7113 -0.0001  0.4847
  150TMC2    C8 2342   2.050   0.209  12.113 -0.0557 -0.1799 -0.6374
  150TMC2    O1 2343   2.422   0.072  12.418  0.3796 -0.1006  0.0333
  150TMC2    O2 2344   2.028   0.203  11.995 -0.1348  0.1964  0.4522
  150TMC2    O5 2345   2.007   0.311  12.188 -0.2873  0.5947  0.3135
  150TMC2    H5 2346   2.004   0.287  12.283  0.4857 -0.9273 -0.0454
  151MPD2     C 2347   2.036   4.014  11.902 -0.3667 -0.6552 -0.3395
  151MPD2    C1 2348   2.001   4.127  11.841 -0.1886  0.2922  0.1495
  151MPD2    C2 2349   2.024   4.251  11.906 -0.7766 -0.0301 -0.8074
  151MPD2    C3 2350   2.065   4.254  12.038  0.4757  0.1127  0.0610
  151MPD2    C4 2351   2.104   4.136  12.098 -0.5648 -0.7912  0.6216
  151MPD2    C5 2352   2.089   4.018  12.028 -0.5468 -0.2879  0.0612
  151MPD2     H 2353   2.010   4.346  11.855 -1.4261 -0.3732 -1.2553
  151MPD2    H1 2354   2.134   4.140  12.202  1.5196 -0.2808 -0.0077
  151MPD2    H2 2355   2.012   3.920  11.855 -1.4337 -0.9460  0.7671
  151MPD2    H3 2356   2.127   3.925  12.067 -0.8692  0.3756  1.9723
  151MPD2     N 2357   2.078   4.367  12.113  0.5553 -0.5830 -0.6963
  151MPD2    H5 2358   2.128   4.359  12.201  2.2482  0.5838 -1.5550
  151MPD2    N1 2359   1.958   4.111  11.703 -0.3568 -0.8773  0.4879
  151MPD2    H7 2360   1.954   4.017  11.664 -1.0340 -1.2782  1.5182
  152TMC2    C1 2361   1.839   3.927  12.485  0.1142 -0.1347 -0.4353
  152TMC2    C2 2362   1.882   3.815  12.550  0.4082 -1.0002 -0.1340
  152TMC2    C3 2363   1.933   3.830  12.678 -0.5222  0.3899 -0.1267
  152TMC2    C4 2364   1.837   4.053  12.548 -0.0662 -0.1304  0.7389
  152TMC2    C5 2365   1.887   4.067  12.672 -0.4702 -0.3088  0.4874
  152TMC2    C6 2366   1.935   3.956  12.739  0.0401  0.1938 -0.8510
  152TMC2     C 2367   1.810   3.925  12.341  0.1168  0.9806  0.4396
  152TMC2     O 2368   1.739   4.017  12.299  0.3976 -0.1792  0.7939
  152TMC2     H 2369   1.868   3.717  12.505 -0.2578 -0.4824 -1.0463
  152TMC2    H1 2370   1.796   4.138  12.494 -0.1488 -0.3122  0.5134
  152TMC2    H2 2371   1.986   3.969  12.834  0.8173  0.0320 -1.2447
  152TMC2    C7 2372   1.903   4.200  12.729  0.0513  0.5102 -0.7650
  152TMC2    C8 2373   2.009   3.719  12.725 -0.1732  0.2311  0.0371
  152TMC2    O1 2374   1.812   4.277  12.711 -0.3555 -0.8640  0.9729
  152TMC2    O2 2375   1.986   3.604  12.682 -0.2240  0.0750 -0.1170
  152TMC2    O5 2376   2.123   3.767  12.758 -0.0664  0.5565 -0.0091
  152TMC2    H5 2377   2.138   3.859  12.729  1.8817 -0.0913 -1.0522
  153MPD2     C 2378   1.964   3.717  12.080 -0.5754  0.3506  0.4632
  153MPD2    C1 2379   1.875   3.805  12.134  0.0248 -0.6127 -0.0607
  153MPD2    C2 2380   1.774   3.866  12.055  0.8888 -0.9973 -0.7011
  153MPD2    C3 2381   1.765   3.840  11.917 -0.1137  0.3572  0.3147
  153MPD2    C4 2382   1.853   3.743  11.866 -0.5392 -0.4576  0.0049
  153MPD2    C5 2383   1.946   3.684  11.947  0.7746 -0.0032  0.1535
  153MPD2     H 2384   1.695   3.928  12.095  2.3776  1.3297 -1.3620
  153MPD2    H1 2385   1.854   3.716  11.761  0.3048 -0.4305  0.0057
  153MPD2    H2 2386   2.033   3.663  12.144 -2.5948 -1.1985  1.3013
  153MPD2    H3 2387   2.029   3.625  11.907 -0.6225 -0.4035 -2.1670
  153MPD2     N 2388   1.663   3.901  11.846 -0.7938 -0.6313 -0.5794
  153MPD2    H5 2389   1.605   3.949  11.914  0.2603  0.9086 -0.7777
  153MPD2    N1 2390   1.893   3.830  12.274 -0.3010 -0.2364 -0.0082
  153MPD2    H7 2391   1.958   3.782  12.335 -0.6943 -1.3757 -0.4859
  154TMC2    C1 2392   3.986   3.737   0.486  0.2796 -0.1564  0.6642
  154TMC2    C2 2393   4.108   3.784   0.508 -0.3934  0.1373  0.3639
  154TMC2    C3 2394   4.207   3.688   0.499  0.0992  0.0610  0.0526
  154TMC2    C4 2395   3.962   3.614   0.421  0.5310 -0.6360  0.3230
  154TMC2    C5 2396   4.070   3.534   0.404  0.1797 -0.6465  0.6097
  154TMC2    C6 2397   4.194   3.573   0.441  0.0800 -0.5275 -1.0933
  154TMC2     C 2398   3.873   3.820   0.521 -0.1094 -0.6988 -0.2125
  154TMC2     O 2399   3.764   3.784   0.479  0.7047  0.4282  0.1684
  154TMC2     H 2400   4.141   3.871   0.562  0.3028 -0.5099  0.9860
  154TMC2    H1 2401   3.862   3.574   0.413  0.5557 -0.5946 -0.1624
  154TMC2    H2 2402   4.281   3.508   0.439  0.2798 -0.3425  1.5051
  154TMC2    C7 2403   4.046   3.391   0.387 -0.4752  0.3392 -1.0234
  154TMC2    C8 2404   4.314   3.710   0.597  0.3494  0.0386 -0.5390
  154TMC2    O1 2405   4.133   3.320   0.443  0.7608 -0.2722 -0.0709
  154TMC2    O2 2406   4.300   3.746   0.716 -0.0033 -0.3460  0.1035
  154TMC2    O5 2407   4.428   3.672   0.538  1.0725 -0.2442 -0.4228
  154TMC2    H5 2408   4.419   3.651   0.443 -0.7067  0.1845 -0.3516
  155MPD2     C 2409   3.896   4.189   0.496  0.6736 -0.2577 -0.0648
  155MPD2    C1 2410   3.836   4.064   0.517 -0.2270 -0.9133 -0.2137
  155MPD2    C2 2411   3.698   4.063   0.538 -0.3318 -0.4829  0.5440
  155MPD2    C3 2412   3.633   4.190   0.545 -0.1061 -0.0865  0.4064
  155MPD2    C4 2413   3.696   4.308   0.510  0.2173 -0.5268  0.4001
  155MPD2    C5 2414   3.830   4.311   0.494 -0.1878  0.3421 -0.7369
  155MPD2     H 2415   3.644   3.970   0.547 -0.0095 -0.8512 -1.2383
  155MPD2    H1 2416   3.643   4.403   0.512  0.9122 -0.1272 -0.2062
  155MPD2    H2 2417   4.004   4.186   0.501  0.6596  1.2942  1.2355
  155MPD2    H3 2418   3.883   4.403   0.474  1.2396 -0.3388 -0.1215
  155MPD2     N 2419   3.498   4.185   0.588 -0.3740  0.0182 -0.0462
  155MPD2    H5 2420   3.464   4.093   0.617  1.8299  0.3374  3.4988
  155MPD2    N1 2421   3.919   3.952   0.530  0.2020 -0.1387  0.3103
  155MPD2    H7 2422   4.017   3.966   0.554 -0.0538 -0.0833  1.3368
  156TMC2    C1 2423   1.808   1.311  12.133  0.1542 -0.3945 -0.0305
  156TMC2    C2 2424   1.834   1.174  12.127 -0.4916  0.3671  0.3012
  156TMC2    C3 2425   1.850   1.118  12.000 -0.0786  0.0966 -0.2355
  156TMC2    C4 2426   1.816   1.391  12.023  0.2546 -0.0553  0.1872
  156TMC2    C5 2427   1.844   1.332  11.907 -0.1222 -0.3954 -0.1596
  156TMC2    C6 2428   1.862   1.196  11.889 -0.0920  0.0549 -0.4104
  156TMC2     C 2429   1.816   1.389  12.251 -0.4478  0.6335 -0.2985
  156TMC2     O 2430   1.802   1.511  12.244 -0.0668  0.3816 -0.1371
  156TMC2     H 2431   1.836   1.110  12.215 -1.7374  0.1146  0.1530
  156TMC2    H1 2432   1.815   1.499  12.034  0.6965  0.1575 -1.9464
  156TMC2    H2 2433   1.903   1.158  11.796  0.2161  1.5819 -0.8940
  156TMC2    C7 2434   1.836   1.411  11.788  0.3908  0.6027 -0.5810
  156TMC2    C8 2435   1.894   0.985  11.994 -0.4591 -0.0848 -0.5922
  156TMC2    O1 2436   1.827   1.535  11.808 -0.3883  0.1295 -0.5013
  156TMC2    O2 2437   1.959   0.943  11.899  0.4391  0.0280 -0.3004
  156TMC2    O5 2438   1.817   0.898  12.063 -0.3848 -0.3037  0.2122
  156TMC2    H5 2439   1.778   0.917  12.151  0.7685 -2.1758  1.1244
  157MPD2     C 2440   1.751   1.280  12.605 -0.7307 -0.2863  0.2347
  157MPD2    C1 2441   1.788   1.364  12.492  0.0245 -0.4939  0.0565
  157MPD2    C2 2442   1.854   1.487  12.524  0.1223  0.4069  0.0617
  157MPD2    C3 2443   1.875   1.526  12.655 -1.2438 -0.4483 -0.1758
  157MPD2    C4 2444   1.813   1.459  12.755  0.2540 -0.2037  0.1590
  157MPD2    C5 2445   1.758   1.335  12.731 -0.0870  1.0107  0.2405
  157MPD2     H 2446   1.893   1.556  12.450 -0.7386 -2.0324 -2.6571
  157MPD2    H1 2447   1.804   1.495  12.857  2.2504 -1.1942  0.6799
  157MPD2    H2 2448   1.719   1.176  12.600  0.9134 -0.8320  0.9143
  157MPD2    H3 2449   1.717   1.278  12.815 -1.0518  0.0078 -0.9066
  157MPD2     N 2450   1.940   1.651  12.663  0.5205  0.4787  0.6534
  157MPD2    H5 2451   1.977   1.693  12.578  0.9116  0.2894  0.7301
  157MPD2    N1 2452   1.787   1.307  12.363  0.3590 -0.0420 -0.5431
  157MPD2    H7 2453   1.762   1.208  12.358  1.8719 -0.4531  0.0575
  158TMC2    C1 2454   2.290   0.042  13.696  0.2083 -0.5513 -0.3717
  158TMC2    C2 2455   2.370   0.157  13.696  0.0356  0.4153  0.9055
  158TMC2    C3 2456   2.328   0.261  13.773 -0.2767 -0.0824  0.3514
  158TMC2    C4 2457   2.184   0.034  13.782 -0.2448  1.1500  0.6718
  158TMC2    C5 2458   2.161   0.137  13.874 -0.1497 -0.2018  0.3148
  158TMC2    C6 2459   2.228   0.253  13.864 -0.6734 -0.0183 -0.1540
  158TMC2     C 2460   2.365   4.653  13.680  0.9774 -0.4975 -0.3140
  158TMC2     O 2461   2.443   4.651  13.592 -0.0495 -0.5932  0.3752
  158TMC2     H 2462   2.456   0.173  13.632 -0.3384 -1.7876 -0.1587
  158TMC2    H1 2463   2.109   4.693  13.769  1.5806 -0.5191 -0.1205
  158TMC2    H2 2464   2.212   0.343  13.924  0.4557  0.1029 -0.0367
  158TMC2    C7 2465   2.027   0.151  13.933 -0.1389  0.3402  0.1820
  158TMC2    C8 2466   2.424   0.370  13.798  0.1260  0.2987  0.1662
  158TMC2    O1 2467   1.984   0.265  13.953  0.1241 -0.1388  0.0440
  158TMC2    O2 2468   2.440   0.415  13.908 -0.0599 -0.4924 -0.4398
  158TMC2    O5 2469   2.481   0.423  13.686 -0.1073  0.7939 -0.1056
  158TMC2    H5 2470   2.449   0.394  13.599 -1.5502 -1.0739  1.0502
  159MPD2     C 2471   2.569   4.262  13.946  1.0703  0.0584 -0.1579
  159MPD2    C1 2472   2.503   4.354  14.032  0.3055  0.5496 -0.0615
  159MPD2    C2 2473   2.449   4.470  13.981 -0.5455  0.4641 -0.0247
  159MPD2    C3 2474   2.451   4.495  13.845  0.6857  0.7498  0.2659
  159MPD2    C4 2475   2.533   4.414  13.763 -1.0732 -0.1605 -0.3291
  159MPD2    C5 2476   2.589   4.305  13.817  0.0074 -0.2484 -0.3402
  159MPD2     H 2477   2.394   4.534  14.049  1.0566 -0.1457  1.8528
  159MPD2    H1 2478   2.550   4.449  13.662 -0.0372 -2.4183 -0.9205
  159MPD2    H2 2479   2.610   4.166  13.976  0.1821 -0.6244 -1.1165
  159MPD2    H3 2480   2.636   4.236  13.748 -0.8037  1.3813 -2.5251
  159MPD2     N 2481   2.374   4.601  13.803 -0.6498  0.0201 -0.2376
  159MPD2    H5 2482   2.303   4.621  13.873 -1.1877 -2.4569 -0.0916
  159MPD2    N1 2483   2.482   4.324  14.170  0.4757 -0.0934  0.0028
  159MPD2    H7 2484   2.434   4.395  14.222  3.0389  0.1790  1.9767
  160TMC2    C1 2485   1.614   2.661   1.257 -0.0781  0.1456  0.2719
  160TMC2    C2 2486   1.577   2.537   1.221 -0.6466 -0.1151 -0.0703
  160TMC2    C3 2487   1.676   2.446   1.198 -0.0941  0.6186 -0.0032
  160TMC2    C4 2488   1.746   2.701   1.252 -0.2987 -0.3829  0.6481
  160TMC2    C5 2489   1.843   2.613   1.234  0.1063  0.5788 -0.1999
  160TMC2    C6 2490   1.807   2.484   1.210  0.6929 -0.4780  0.0784
  160TMC2     C 2491   1.508   2.752   1.279 -0.0452  0.1165 -0.1964
  160TMC2     O 2492   1.405   2.706   1.322  0.0755  0.0370 -0.0815
  160TMC2     H 2493   1.472   2.510   1.214 -0.6779  0.2781 -1.1497
  160TMC2    H1 2494   1.770   2.805   1.270  0.0191  0.0273 -2.0902
  160TMC2    H2 2495   1.892   2.417   1.202 -0.3903 -1.9232  0.7176
  160TMC2    C7 2496   1.991   2.634   1.253  0.4878  0.7304 -0.0007
  160TMC2    C8 2497   1.634   2.310   1.225 -0.6149  0.3162  0.5297
  160TMC2    O1 2498   2.058   2.539   1.285 -0.7061  0.3007 -0.2665
  160TMC2    O2 2499   1.514   2.283   1.204  0.3869 -0.5010  0.3267
  160TMC2    O5 2500   1.700   2.279   1.334 -0.8531  0.0035  0.4749
  160TMC2    H5 2501   1.791   2.311   1.315 -0.5767  0.7024  2.9247
  161MPD2     C 2502   1.333   2.999   1.300  0.3089 -0.0277  0.0879
  161MPD2    C1 2503   1.462   2.991   1.245  0.4114 -0.1881  0.7310
  161MPD2    C2 2504   1.518   3.103   1.190  0.7423  0.5069 -0.0929
  161MPD2    C3 2505   1.455   3.221   1.182 -0.1327 -0.0192  0.8665
  161MPD2    C4 2506   1.322   3.228   1.221 -0.6784 -0.3393  0.0441
  161MPD2    C5 2507   1.265   3.116   1.280  0.4258  0.2240 -0.6454
  161MPD2     H 2508   1.621   3.100   1.155  0.9765 -1.6793  0.7505
  161MPD2    H1 2509   1.261   3.317   1.211 -3.8139 -2.2838  2.0830
  161MPD2    H2 2510   1.289   2.918   1.358  0.0586  1.4603  1.9689
  161MPD2    H3 2511   1.165   3.123   1.320  0.2279  0.7347 -1.2336
  161MPD2     N 2512   1.525   3.337   1.131  0.0269  0.3209 -0.4624
  161MPD2    H5 2513   1.473   3.424   1.130  0.2686  0.4791  0.5830
  161MPD2    N1 2514   1.548   2.875   1.239  0.0906 -0.1260 -0.2751
  161MPD2    H7 2515   1.636   2.880   1.190  0.9972 -2.3024  1.1454
  162TMC2    C1 2516   0.030   0.460   1.469 -0.0098  0.1553 -0.2724
  162TMC2    C2 2517   4.660   0.543   1.488  0.1178  1.1692 -0.7355
  162TMC2    C3 2518   4.651   0.606   1.612  0.3707  0.7368 -0.2075
  162TMC2    C4 2519   0.141   0.466   1.550  0.2387  0.3249  0.3332
  162TMC2    C5 2520   0.135   0.543   1.665  0.5055  0.2337  0.2216
  162TMC2    C6 2521   0.023   0.610   1.694 -0.3260  0.4289 -0.2717
  162TMC2     C 2522   0.022   0.367   1.363  0.4592 -0.6186  0.0728
  162TMC2     O 2523   4.701   0.396   1.261 -0.7315 -0.4800  0.1183
  162TMC2     H 2524   4.573   0.527   1.424 -1.4418 -0.2346  1.7250
  162TMC2    H1 2525   0.230   0.417   1.511 -1.0518 -1.3033 -0.5524
  162TMC2    H2 2526   0.011   0.656   1.791 -2.6805  0.4111 -0.5530
  162TMC2    C7 2527   0.255   0.560   1.747  0.0499 -0.2653  0.6788
  162TMC2    C8 2528   4.524   0.651   1.667 -0.3841  0.1186 -0.0569
  162TMC2    O1 2529   0.253   0.639   1.838  0.3758 -0.2419 -0.1206
  162TMC2    O2 2530   4.519   0.734   1.756  0.2353 -0.0073 -0.4782
  162TMC2    O5 2531   4.425   0.565   1.641  0.1925  0.3092 -0.0077
  162TMC2    H5 2532   4.462   0.485   1.597  2.0685  0.5516  1.0924
  163MPD2     C 2533   0.197   4.663   1.157 -0.2026  0.5912 -0.1807
  163MPD2    C1 2534   0.138   0.034   1.101  0.2180  0.5017  0.7068
  163MPD2    C2 2535   0.104   0.140   1.174 -0.4103 -0.4030  0.6672
  163MPD2    C3 2536   0.111   0.136   1.317 -0.0663  0.2672 -0.3314
  163MPD2    C4 2537   0.174   0.027   1.373 -0.8904 -0.3625 -0.0327
  163MPD2    C5 2538   0.225   4.662   1.293 -0.3369 -0.0293  0.2569
  163MPD2     H 2539   0.066   0.231   1.130 -1.1417 -0.0128  2.1192
  163MPD2    H1 2540   0.180   0.016   1.481 -0.4649 -1.1554 -0.1365
  163MPD2    H2 2541   0.237   4.582   1.097  2.3757  1.5874  0.1935
  163MPD2    H3 2542   0.265   4.575   1.345 -0.3072 -0.3782 -0.3418
  163MPD2     N 2543   0.076   0.249   1.401  0.1347  0.8246 -0.4598
  163MPD2    H5 2544   0.114   0.237   1.494 -2.2436  0.9622  0.5152
  163MPD2    N1 2545   0.137   0.034   0.960  0.5000 -0.1319 -0.1913
  163MPD2    H7 2546   0.164   4.682   0.916 -1.8555 -0.7769 -0.3566
  164TMC2    C1 2547   0.709   4.579  10.964 -0.3765  0.3840 -0.2711
  164TMC2    C2 2548   0.757   4.591  10.840 -0.4134  0.0744 -0.2239
  164TMC2    C3 2549   0.719   4.709  10.780  1.4161  0.1153  0.4914
  164TMC2    C4 2550   0.626   4.671  11.027  0.5771  0.0085 -0.2551
  164TMC2    C5 2551   0.607   0.059  10.972 -0.5743 -1.1999 -0.5308
  164TMC2    C6 2552   0.656   0.080  10.844  0.2544 -0.1682  0.1277
  164TMC2     C 2553   0.731   4.447  11.030  0.3613 -0.0748  0.3382
  164TMC2     O 2554   0.687   4.436  11.145 -0.4071  0.2824 -0.0780
  164TMC2     H 2555   0.848   4.538  10.816  0.2018  1.7974 -1.7060
  164TMC2    H1 2556   0.588   4.644  11.125 -1.3168 -1.1356 -1.2958
  164TMC2    H2 2557   0.645   0.173  10.788  2.2774 -0.5751 -0.9697
  164TMC2    C7 2558   0.475   0.111  10.989 -0.1931 -0.0615 -0.2492
  164TMC2    C8 2559   0.797   0.016  10.671  0.1252  0.5119  0.3840
  164TMC2    O1 2560   0.386   0.032  11.009  0.2298 -0.3831 -0.1074
  164TMC2    O2 2561   0.818   0.136  10.639  0.6158  0.4067 -0.1813
  164TMC2    O5 2562   0.816   4.642  10.595 -0.3077  0.2607  0.4887
  164TMC2    H5 2563   0.767   4.566  10.634 -1.2009 -1.1247 -3.3208
  165TMC2    C1 2564   2.073   2.213   0.977 -0.5227  0.2849 -0.0457
  165TMC2    C2 2565   2.121   2.188   0.846 -0.7174  0.4545 -0.2943
  165TMC2    C3 2566   2.247   2.228   0.809 -0.3127 -0.1015  0.7177
  165TMC2    C4 2567   2.150   2.264   1.075  0.6749  0.1258 -0.4875
  165TMC2    C5 2568   2.282   2.297   1.038  0.2748 -0.0955  0.3289
  165TMC2    C6 2569   2.322   2.277   0.908 -1.0231  0.7977 -0.3954
  165TMC2     C 2570   1.936   2.187   1.012 -0.2725  0.3897  0.4028
  165TMC2     O 2571   1.896   2.179   1.128 -0.4476 -0.0476  0.0288
  165TMC2     H 2572   2.057   2.136   0.775 -2.2570 -0.0288  1.4227
  165TMC2    H1 2573   2.109   2.278   1.174 -0.2246  0.2920 -0.8839
  165TMC2    H2 2574   2.426   2.300   0.887 -0.5299  0.2090  1.4255
  165TMC2    C7 2575   2.369   2.357   1.145  0.5770  0.4239  0.5025
  165TMC2    C8 2576   2.319   2.149   0.717 -0.5250  0.3790  0.9722
  165TMC2    O1 2577   2.471   2.409   1.106  0.0235  0.3699  0.1800
  165TMC2    O2 2578   2.324   2.026   0.729  0.5124 -0.2816  0.2089
  165TMC2    O5 2579   2.424   2.218   0.669  0.3495  0.5349 -0.0760
  165TMC2    H5 2580   2.402   2.313   0.679  1.4186  0.7896 -0.1561
  166MPD2     C 2581   1.446   2.141   0.880 -0.3370  0.7234 -0.0436
  166MPD2    C1 2582   1.520   2.052   0.952 -0.1674 -0.4025 -0.0116
  166MPD2    C2 2583   1.653   2.085   0.971  0.7212  0.5199 -0.4505
  166MPD2    C3 2584   1.708   2.196   0.907 -0.9507 -0.7060  0.7897
  166MPD2    C4 2585   1.638   2.267   0.817 -0.8786 -0.2235 -0.2914
  166MPD2    C5 2586   1.508   2.242   0.804 -0.2992  0.1212  0.6057
  166MPD2     H 2587   1.713   2.024   1.037 -0.2593 -2.3247 -2.1503
  166MPD2    H1 2588   1.692   2.346   0.765 -0.0839  0.9505  2.3030
  166MPD2    H2 2589   1.339   2.127   0.890  0.3421 -2.9751  2.1443
  166MPD2    H3 2590   1.452   2.303   0.734  0.4732  0.5576  0.3716
  166MPD2     N 2591   1.849   2.221   0.911 -0.0457  0.1672 -0.3436
  166MPD2    H5 2592   1.885   2.291   0.846 -2.0822  1.4191 -0.1012
  166MPD2    N1 2593   1.444   1.949   1.011  0.3926  0.3365 -0.1349
  166MPD2    H7 2594   1.343   1.954   1.000  0.3770  4.8287  1.7259
  167TMC2    C1 2595   4.501   0.305  12.393 -0.0071  0.1081  0.2459
  167TMC2    C2 2596   4.384   0.345  12.463  0.1731 -0.8650  0.2156
  167TMC2    C3 2597   4.378   0.321  12.599 -0.7984 -0.4680 -0.0028
  167TMC2    C4 2598   4.611   0.255  12.454 -0.3100 -0.0233 -0.7158
  167TMC2    C5 2599   4.612   0.246  12.594 -0.8410 -0.4174 -0.3005
  167TMC2    C6 2600   4.494   0.276  12.664 -0.0766 -1.1604  0.2795
  167TMC2     C 2601   4.522   0.337  12.254 -0.1493 -0.2178  0.3057
  167TMC2     O 2602   4.632   0.324  12.198 -0.0579  0.0274  0.1333
  167TMC2     H 2603   4.304   0.398  12.413  0.2798  1.3987  2.4062
  167TMC2    H1 2604   4.703   0.254  12.397  1.0358  0.7883  1.4211
  167TMC2    H2 2605   4.490   0.260  12.771 -0.4510 -1.8226  0.1646
  167TMC2    C7 2606   4.727   0.187  12.665  0.7169 -0.2736  0.1685
  167TMC2    C8 2607   4.300   0.431  12.661 -0.3918  0.3519 -0.3393
  167TMC2    O1 2608   4.719   0.167  12.786 -0.3718  0.1904 -0.0015
  167TMC2    O2 2609   4.295   0.543  12.615 -0.3675 -0.3023 -0.3709
  167TMC2    O5 2610   4.246   0.386  12.776 -0.1327 -0.3383  0.4618
  167TMC2    H5 2611   4.244   0.288  12.784 -0.5604 -0.6236 -2.9481
  168MPD2     C 2612   4.500   0.455  11.973  0.4664 -0.4173  0.2080
  168MPD2    C1 2613   4.398   0.398  12.044  0.1100  0.3132 -0.6901
  168MPD2    C2 2614   4.287   0.364  11.969 -0.0450 -0.2054  0.6780
  168MPD2    C3 2615   4.267   0.419  11.848 -0.4039  0.0769  0.0569
  168MPD2    C4 2616   4.365   0.490  11.785 -0.0585 -0.4550  0.0223
  168MPD2    C5 2617   4.484   0.504  11.850  0.4131 -0.1445 -1.1974
  168MPD2     H 2618   4.215   0.307  12.027 -2.6088  1.3175 -1.0201
  168MPD2    H1 2619   4.360   0.541  11.689  1.2293 -1.2812 -0.4842
  168MPD2    H2 2620   4.595   0.476  12.022  0.3555 -0.0182  0.2579
  168MPD2    H3 2621   4.571   0.549  11.805 -0.2051  1.5540 -0.7097
  168MPD2     N 2622   4.154   0.382  11.768 -0.7681  0.0418 -0.3534
  168MPD2    H5 2623   4.088   0.321  11.813 -1.1419  0.7177  0.0127
  168MPD2    N1 2624   4.406   0.367  12.184  0.6923  0.2181 -0.0543
  168MPD2    H7 2625   4.317   0.351  12.232  1.1106 -0.3120  0.5575
  169MPD1     C 2626   2.272   4.556   8.509 -0.6529 -0.6396 -0.5734
  169MPD1    C1 2627   2.307   4.637   8.610  0.1662  0.7739 -0.0600
  169MPD1    C2 2628   2.317   4.573   8.736  0.2840  0.4339 -0.1486
  169MPD1    C3 2629   2.274   4.441   8.758  0.2186 -0.3415  0.0603
  169MPD1    C4 2630   2.229   4.366   8.650 -0.3990 -0.0557 -0.6071
  169MPD1    C5 2631   2.228   4.432   8.531 -0.2031 -0.0610  0.3340
  169MPD1     H 2632   2.372   4.624   8.814 -0.4745 -0.8718  1.2523
  169MPD1    H1 2633   2.196   4.263   8.646 -1.1071  0.2571 -3.0961
  169MPD1    H2 2634   2.247   4.593   8.410  1.6102 -0.4559 -1.0710
  169MPD1    H3 2635   2.181   4.382   8.447 -0.0174 -1.4560  1.0687
  169MPD1     N 2636   2.281   4.378   8.886 -0.1552 -0.0144 -0.1714
  169MPD1    H5 2637   2.336   4.430   8.954 -0.1533 -2.2086  1.4889
  169MPD1    N1 2638   2.362   0.030   8.585 -0.0491  0.0876 -0.0141
  169MPD1    H6 2639   2.342   0.076   8.496  0.5745  0.3118 -0.0408
  169MPD1    H7 2640   2.343   0.090   8.665  1.3292 -1.4476  1.4547
  170MPD1     C 2641   0.898   1.904  12.915  0.2662 -0.3234 -0.0077
  170MPD1    C1 2642   0.873   1.835  13.028  0.3488  0.2881  0.3910
  170MPD1    C2 2643   0.827   1.899  13.139 -0.5062 -0.5954 -0.1509
  170MPD1    C3 2644   0.817   2.037  13.142  0.7128  0.6542 -0.2345
  170MPD1    C4 2645   0.845   2.101  13.024  0.7287 -1.2066 -0.1873
  170MPD1    C5 2646   0.898   2.039  12.915 -0.5092 -0.3583  0.2984
  170MPD1     H 2647   0.790   1.844  13.224  0.6206 -2.3922 -0.8106
  170MPD1    H1 2648   0.826   2.208  13.015 -0.6002 -1.3016  1.3472
  170MPD1    H2 2649   0.930   1.852  12.825  1.0250 -1.4209  0.8876
  170MPD1    H3 2650   0.929   2.084  12.821 -1.7757  0.5153  0.3056
  170MPD1     N 2651   0.762   2.101  13.258  0.2852 -0.1680 -0.1398
  170MPD1    H5 2652   0.744   2.043  13.340  1.1896  1.3559  1.1405
  170MPD1    N1 2653   0.847   1.697  13.026  0.1025 -0.2629  0.2165
  170MPD1    H6 2654   0.869   1.649  13.113 -3.3421 -2.4226 -0.0948
  170MPD1    H7 2655   0.905   1.659  12.952 -0.1741  1.3525 -0.8285
  171MPD1     C 2656   4.107   3.406  15.274  0.7194  0.0045  0.7172
  171MPD1    C1 2657   4.061   3.278  15.250  0.2332  0.1347 -0.6700
  171MPD1    C2 2658   4.064   3.182  15.351  0.1624  0.2011  0.7261
  171MPD1    C3 2659   4.145   3.203  15.461 -0.3123 -0.1032  0.4870
  171MPD1    C4 2660   4.217   3.318  15.467 -0.1178  0.1178  0.5717
  171MPD1    C5 2661   4.193   3.426  15.376  0.0785 -0.6908 -0.5037
  171MPD1     H 2662   4.016   3.087  15.332  1.7304 -1.1536  3.6907
  171MPD1    H1 2663   4.277   3.339  15.555  1.2322  0.6111 -0.4764
  171MPD1    H2 2664   4.083   3.489  15.208 -0.8500  0.0353  1.3278
  171MPD1    H3 2665   4.239   3.521  15.396  1.7118 -1.2467 -1.6235
  171MPD1     N 2666   4.168   3.102  15.557  0.1627  0.0558 -0.0125
  171MPD1    H5 2667   4.252   3.113  15.613  0.9780  2.9690 -1.8411
  171MPD1    N1 2668   3.977   3.260  15.139  0.8912 -0.3091  0.4710
  171MPD1    H6 2669   3.983   3.166  15.101 -0.1725  0.2600 -1.1176
  171MPD1    H7 2670   4.009   3.322  15.066 -0.7530  0.0779  0.0726
  172MPD1     C 2671   3.180   2.208   0.263 -0.1430  0.4424 -0.3401
  172MPD1    C1 2672   3.175   2.243   0.395 -0.3419 -0.5724 -0.6979
  172MPD1    C2 2673   3.236   2.365   0.427 -0.6086 -0.5229  0.1588
  172MPD1    C3 2674   3.329   2.422   0.342  0.5491 -0.0034  0.5097
  172MPD1    C4 2675   3.337   2.378   0.214 -0.3329  0.6316 -0.0040
  172MPD1    C5 2676   3.255   2.272   0.175  0.3625 -0.1811  0.1354
  172MPD1     H 2677   3.227   2.407   0.526  1.0691 -1.1824  0.5799
  172MPD1    H1 2678   3.413   2.413   0.145  1.3557 -1.7569  0.6371
  172MPD1    H2 2679   3.110   2.135   0.225 -0.7040  1.5648 -1.4406
  172MPD1    H3 2680   3.264   2.237   0.073  0.3654  1.9870 -0.5945
  172MPD1     N 2681   3.431   2.514   0.382 -0.0961 -0.2136  0.3041
  172MPD1    H5 2682   3.499   2.543   0.312 -0.9823  0.9844 -0.0573
  172MPD1    N1 2683   3.083   2.174   0.480  0.1449 -0.1707  0.0556
  172MPD1    H6 2684   3.060   2.078   0.454 -2.6801 -0.1331  2.3929
  172MPD1    H7 2685   3.136   2.153   0.565  0.7663 -0.0478 -0.3057
  173MPD1     C 2686   4.417   1.540  13.759 -0.4068 -0.6606 -0.1019
  173MPD1    C1 2687   4.490   1.640  13.706  0.0626 -0.1094 -0.3581
  173MPD1    C2 2688   4.530   1.740  13.792 -0.1667  0.1523  0.2885
  173MPD1    C3 2689   4.489   1.749  13.915 -0.6260  0.1538 -0.2769
  173MPD1    C4 2690   4.391   1.659  13.966  0.5115  0.2522 -0.1326
  173MPD1    C5 2691   4.362   1.550  13.885 -0.1661  0.0467 -0.5794
  173MPD1     H 2692   4.607   1.810  13.760  0.8300 -1.2276 -0.3967
  173MPD1    H1 2693   4.344   1.660  14.064  0.6442  0.3278 -0.0701
  173MPD1    H2 2694   4.390   1.452  13.701  0.1333  0.9637 -2.8118
  173MPD1    H3 2695   4.294   1.475  13.924  0.4310 -0.6239 -0.7994
  173MPD1     N 2696   4.538   1.855  13.990 -0.0881  0.1171 -0.6075
  173MPD1    H5 2697   4.581   1.932  13.940 -0.5387 -0.1121 -1.3374
  173MPD1    N1 2698   4.549   1.630  13.576  0.1969  0.2600  0.5295
  173MPD1    H6 2699   4.489   1.585  13.508 -0.0526 -0.3597  1.1625
  173MPD1    H7 2700   4.591   1.718  13.547  1.5397 -0.7258 -0.5010
  174MPD1     C 2701   4.485   2.845  13.977 -0.2180  0.4416 -0.9391
  174MPD1    C1 2702   4.425   2.738  13.915  0.4213 -0.4166 -0.1531
  174MPD1    C2 2703   4.460   2.613  13.954  0.0224 -0.1839  0.3962
  174MPD1    C3 2704   4.533   2.591  14.071 -0.6071 -0.4815  0.0587
  174MPD1    C4 2705   4.577   2.703  14.138 -0.2736 -0.2988  0.1566
  174MPD1    C5 2706   4.551   2.831  14.089  0.5340  0.2606  0.4983
  174MPD1     H 2707   4.429   2.526  13.897  0.5170  2.8209 -4.4877
  174MPD1    H1 2708   4.642   2.690  14.223  0.7498  0.5678 -0.4981
  174MPD1    H2 2709   4.464   2.947  13.946 -0.4005  0.9841  0.9671
  174MPD1    H3 2710   4.599   2.916  14.135 -0.8193 -1.1772  4.5491
  174MPD1     N 2711   4.556   2.464  14.131 -0.5062  0.1967 -0.0998
  174MPD1    H5 2712   4.591   2.472  14.226 -0.6572  3.1434 -0.2879
  174MPD1    N1 2713   4.345   2.753  13.802 -0.5295 -0.5128 -0.5043
  174MPD1    H6 2714   4.286   2.673  13.780  0.5158 -1.3631 -0.2078
  174MPD1    H7 2715   4.294   2.841  13.799  0.1198 -0.0542  1.5253
  175MPD1     C 2716   3.274   3.269  15.510  0.2423  0.9691 -0.3392
  175MPD1    C1 2717   3.366   3.217  15.590 -0.0506  0.3936  0.1925
  175MPD1    C2 2718   3.332   3.173  15.715 -0.3202 -0.3501 -0.5413
  175MPD1    C3 2719   3.197   3.177  15.760 -0.0486 -0.1394  0.0131
  175MPD1    C4 2720   3.106   3.226  15.678 -0.5125  0.3692 -0.1981
  175MPD1    C5 2721   3.146   3.279  15.560 -0.0735  0.1197 -0.3683
  175MPD1     H 2722   3.411   3.140  15.782  1.3955 -0.4235 -2.5922
  175MPD1    H1 2723   3.003   3.235  15.710 -0.6180 -0.2439 -0.3724
  175MPD1    H2 2724   3.290   3.287  15.404  0.4432  2.0436 -0.1264
  175MPD1    H3 2725   3.070   3.317  15.492 -1.4359 -0.6687  0.7324
  175MPD1     N 2726   3.155   3.129  15.885  0.3362  0.6297 -0.4708
  175MPD1    H5 2727   3.061   3.158  15.910  0.1132  0.4974 -1.1605
  175MPD1    N1 2728   3.507   3.223  15.561  0.3303  0.7095  0.2118
  175MPD1    H6 2729   3.554   3.136  15.589  0.7099  0.9954  0.4670
  175MPD1    H7 2730   3.524   3.229  15.460  2.2612 -0.1748  0.4692
  176MPD1     C 2731   0.251   0.380  16.795  0.4819  0.9597 -0.0989
  176MPD1    C1 2732   0.146   0.478  16.788 -0.5516 -1.0601 -1.1066
  176MPD1    C2 2733   0.111   0.553  16.901  0.4256  0.9964  0.4442
  176MPD1    C3 2734   0.166   0.521  17.025  0.0575  0.1524 -0.4665
  176MPD1    C4 2735   0.262   0.419  17.029  0.5510 -1.0211  0.1954
  176MPD1    C5 2736   0.306   0.357  16.915 -0.5989 -0.0530 -0.2091
  176MPD1     H 2737   0.025   0.619  16.887  0.2463  0.9725  1.4402
  176MPD1    H1 2738   0.321   0.391  17.116  0.2273 -1.0956  0.3912
  176MPD1    H2 2739   0.286   0.324  16.709  0.9494 -0.0454  0.7422
  176MPD1    H3 2740   0.384   0.282  16.917 -0.4638  0.0332 -1.8668
  176MPD1     N 2741   0.127   0.596  17.137  0.1328 -0.4136  0.1855
  176MPD1    H5 2742   0.056   0.668  17.129  0.0219 -0.5085  0.3366
  176MPD1    N1 2743   0.089   0.507  16.664 -0.8202  0.1932 -0.4338
  176MPD1    H6 2744   4.727   0.535  16.667 -0.7721  0.4537 -1.2001
  176MPD1    H7 2745   0.075   0.418  16.617 -2.8803 -0.1263  0.7980
  177MPD1     C 2746   3.296   0.353  10.566  0.6265 -0.1565 -0.0184
  177MPD1    C1 2747   3.367   0.469  10.539 -0.6358 -0.3416  0.0230
  177MPD1    C2 2748   3.391   0.505  10.404 -0.0522  0.4885  0.8001
  177MPD1    C3 2749   3.350   0.416  10.300 -0.5313 -0.2931 -0.1298
  177MPD1    C4 2750   3.287   0.298  10.334 -0.4433 -0.2252  0.6232
  177MPD1    C5 2751   3.261   0.269  10.464  0.5068 -0.8419  0.1226
  177MPD1     H 2752   3.452   0.593  10.386  0.6679 -0.0106  0.8010
  177MPD1    H1 2753   3.248   0.226  10.263  0.3934 -2.3362  2.3046
  177MPD1    H2 2754   3.268   0.331  10.668  0.6479  0.4737  0.1242
  177MPD1    H3 2755   3.190   0.190  10.484 -0.5644  0.1391  0.2329
  177MPD1     N 2756   3.371   0.453  10.161  0.7770 -0.3884 -0.2992
  177MPD1    H5 2757   3.418   0.542  10.147 -1.3954  1.1960  2.4103
  177MPD1    N1 2758   3.379   0.560  10.648  0.8487 -0.2506 -0.7534
  177MPD1    H6 2759   3.453   0.625  10.622  1.1404 -0.6705 -0.9829
  177MPD1    H7 2760   3.401   0.520  10.739 -0.4254  0.6484 -0.0551
  178MPD1     C 2761   0.724   1.327   0.634  0.2037 -0.5613  0.0587
  178MPD1    C1 2762   0.795   1.443   0.628 -0.5121 -0.8214 -0.6370
  178MPD1    C2 2763   0.848   1.484   0.509 -0.0472  0.4907 -0.3819
  178MPD1    C3 2764   0.814   1.429   0.388  0.8626 -0.3049  0.0860
  178MPD1    C4 2765   0.747   1.311   0.396 -0.0256  0.3930  0.1219
  178MPD1    C5 2766   0.697   1.264   0.518  0.4630  0.5343  0.1557
  178MPD1     H 2767   0.898   1.580   0.520  1.2700  0.1312 -3.2914
  178MPD1    H1 2768   0.717   1.250   0.311 -3.5034  2.9353 -0.4716
  178MPD1    H2 2769   0.692   1.296   0.732 -0.6237 -0.8344 -0.2976
  178MPD1    H3 2770   0.636   1.175   0.526  1.5555 -0.3291 -1.0275
  178MPD1     N 2771   0.849   1.484   0.264  0.3584  0.3829 -0.5626
  178MPD1    H5 2772   0.803   1.447   0.181  0.9319  0.1157 -0.7584
  178MPD1    N1 2773   0.831   1.513   0.744  0.9357 -0.0379 -0.3397
  178MPD1    H6 2774   0.826   1.614   0.757  0.8344  0.1914 -2.2192
  178MPD1    H7 2775   0.791   1.474   0.829  0.2355  0.0088 -0.6495
  179MPD1     C 2776   0.202   4.522  15.121  0.2164 -0.0560 -0.0499
  179MPD1    C1 2777   0.304   4.487  15.207 -0.0552  0.5253  0.5683
  179MPD1    C2 2778   0.272   4.407  15.310  0.3454 -1.0533  0.1344
  179MPD1    C3 2779   0.149   4.356  15.334 -0.5617 -0.1202  1.1671
  179MPD1    C4 2780   0.050   4.401  15.250  0.5320 -0.2341 -0.0903
  179MPD1    C5 2781   0.074   4.489  15.146 -0.7669  0.2931 -0.0285
  179MPD1     H 2782   0.348   4.378  15.382  0.5028 -1.5033 -0.2094
  179MPD1    H1 2783   4.687   4.362  15.268  0.2814  1.3645  1.9838
  179MPD1    H2 2784   0.220   4.600  15.048  2.3684 -0.3425  0.1858
  179MPD1    H3 2785   4.734   4.511  15.072 -1.2178 -0.5504  0.1850
  179MPD1     N 2786   0.115   4.272  15.445 -0.3613  0.5935 -0.2795
  179MPD1    H5 2787   0.024   4.229  15.441  0.2250 -0.7413  0.9113
  179MPD1    N1 2788   0.430   4.552  15.187  0.2444 -0.8347 -0.6810
  179MPD1    H6 2789   0.428   4.592  15.093  0.5322 -1.4310 -0.9455
  179MPD1    H7 2790   0.439   4.621  15.261  2.2623  0.1463 -1.8476
  180MPD1     C 2791   0.509   0.342  15.324  0.0508 -0.2726 -0.2218
  180MPD1    C1 2792   0.600   0.404  15.244  0.3538 -0.5770 -0.0860
  180MPD1    C2 2793   0.552   0.471  15.140  0.4101  0.4779 -0.2930
  180MPD1    C3 2794   0.416   0.501  15.127 -0.1847 -0.3738  0.0254
  180MPD1    C4 2795   0.322   0.438  15.207  0.2479  0.6497  0.5095
  180MPD1    C5 2796   0.374   0.356  15.304  0.1322 -0.1621 -0.1029
  180MPD1     H 2797   0.614   0.503  15.057  1.6582  0.7532  0.7305
  180MPD1    H1 2798   0.215   0.432  15.192  0.1347  2.5363  0.5422
  180MPD1    H2 2799   0.536   0.295  15.418 -0.1365  2.5367  1.2267
  180MPD1    H3 2800   0.310   0.304  15.374  0.6642 -1.5189 -0.6339
  180MPD1     N 2801   0.375   0.593  15.022 -0.2241  0.1630 -0.1919
  180MPD1    H5 2802   0.449   0.642  14.973  0.1886 -0.9163 -0.6585
  180MPD1    N1 2803   0.731   0.374  15.262 -0.3468 -0.2014 -0.1490
  180MPD1    H6 2804   0.750   0.343  15.357 -1.7529  1.6254  0.7277
  180MPD1    H7 2805   0.795   0.449  15.236 -1.5316  0.9581  0.2786
  181MPD1     C 2806   2.015   2.437  10.649 -0.0356  0.7132  0.3607
  181MPD1    C1 2807   2.035   2.423  10.513  0.3917 -0.0853 -0.8216
  181MPD1    C2 2808   2.139   2.482  10.458  0.4779  0.0699  0.4076
  181MPD1    C3 2809   2.218   2.576  10.530 -0.4221 -0.5454  0.4765
  181MPD1    C4 2810   2.197   2.597  10.666  0.5530 -0.1103 -0.8972
  181MPD1    C5 2811   2.098   2.523  10.724 -0.2047 -0.0362  0.1946
  181MPD1     H 2812   2.168   2.453  10.358  1.8425 -2.0635  1.4196
  181MPD1    H1 2813   2.265   2.654  10.728  1.6566 -2.4146  0.0239
  181MPD1    H2 2814   1.929   2.391  10.697  0.3731 -0.0954  0.3215
  181MPD1    H3 2815   2.084   2.535  10.831 -1.3392 -2.4516  0.3200
  181MPD1     N 2816   2.330   2.644  10.476  0.2460  0.5490  0.0662
  181MPD1    H5 2817   2.389   2.700  10.536 -0.6516  0.6541  0.8486
  181MPD1    N1 2818   1.964   2.326  10.442 -0.4553 -0.4432 -0.0615
  181MPD1    H6 2819   1.878   2.306  10.494  0.4182 -1.0602  1.1410
  181MPD1    H7 2820   1.930   2.357  10.351 -0.4532  0.6444  0.2963
  182MPD1     C 2821   3.180   2.174   1.564  0.4393 -0.1672  0.4172
  182MPD1    C1 2822   3.054   2.227   1.576 -0.1834 -0.9344 -0.2007
  182MPD1    C2 2823   2.968   2.199   1.476  0.4320  0.2099 -0.7213
  182MPD1    C3 2824   3.001   2.128   1.367 -0.3309 -0.6133 -0.2636
  182MPD1    C4 2825   3.127   2.064   1.365  0.3830 -0.3690 -0.0172
  182MPD1    C5 2826   3.223   2.090   1.463  0.4505 -0.1513  0.7211
  182MPD1     H 2827   2.873   2.249   1.494  0.8175  0.3841  0.8246
  182MPD1    H1 2828   3.144   1.992   1.285  0.7904 -1.2406  0.8415
  182MPD1    H2 2829   3.255   2.204   1.636 -0.5815  2.2198  0.5182
  182MPD1    H3 2830   3.323   2.048   1.458  0.2965 -0.3344 -0.6941
  182MPD1     N 2831   2.913   2.090   1.266  0.0410 -0.1990  0.0215
  182MPD1    H5 2832   2.948   2.019   1.203 -1.3864 -2.1610  1.4663
  182MPD1    N1 2833   3.034   2.335   1.663 -0.0954 -0.5539 -0.1969
  182MPD1    H6 2834   2.934   2.355   1.672  0.0068 -1.5625  3.2051
  182MPD1    H7 2835   3.065   2.321   1.759  0.2526  1.3755 -0.0362
  183MPD1     C 2836   4.060   3.498   9.841 -0.0528 -0.6164  0.8794
  183MPD1    C1 2837   3.948   3.553   9.784  0.9088  0.2874  0.3062
  183MPD1    C2 2838   3.835   3.474   9.773 -0.1431 -0.1249 -0.2859
  183MPD1    C3 2839   3.826   3.347   9.818  0.6457  0.0330 -0.1976
  183MPD1    C4 2840   3.937   3.290   9.871 -0.6126 -0.1637 -0.5009
  183MPD1    C5 2841   4.049   3.368   9.882 -0.3270 -0.4066  0.0396
  183MPD1     H 2842   3.745   3.515   9.728  1.7588  1.3561 -2.7863
  183MPD1    H1 2843   3.937   3.193   9.919 -2.0607  0.0211 -0.1242
  183MPD1    H2 2844   4.156   3.549   9.844 -1.0656  1.2554  1.4404
  183MPD1    H3 2845   4.135   3.323   9.930 -0.9730  0.2537  1.8076
  183MPD1     N 2846   3.699   3.278   9.818 -0.2923 -0.3372 -0.0676
  183MPD1    H5 2847   3.620   3.338   9.795  0.5795  0.6476 -0.4980
  183MPD1    N1 2848   3.956   3.674   9.717 -0.3851  0.4947  0.2657
  183MPD1    H6 2849   3.866   3.717   9.738 -0.5869  0.0980  0.2087
  183MPD1    H7 2850   4.026   3.732   9.762  0.7879 -0.4990 -0.2817
  184MPD1     C 2851   1.930   0.235   9.419 -0.3762  0.2621 -0.0495
  184MPD1    C1 2852   2.007   0.330   9.487 -0.1712  0.5230 -0.9745
  184MPD1    C2 2853   2.144   0.309   9.497  0.1812  0.1484 -0.0721
  184MPD1    C3 2854   2.206   0.203   9.437  0.1426  0.0428 -0.0302
  184MPD1    C4 2855   2.127   0.105   9.380  0.4487  0.6857 -0.2200
  184MPD1    C5 2856   1.988   0.118   9.380 -0.1901  0.2903 -0.0066
  184MPD1     H 2857   2.201   0.389   9.544 -0.1514 -0.0094  0.6050
  184MPD1    H1 2858   2.180   0.018   9.341  3.5450  2.5729 -0.2391
  184MPD1    H2 2859   1.826   0.253   9.392 -0.1803 -0.5002 -1.2997
  184MPD1    H3 2860   1.919   0.050   9.333  0.7219 -0.7566  0.1529
  184MPD1     N 2861   2.347   0.201   9.403  0.1187  0.0587 -0.0039
  184MPD1    H5 2862   2.375   0.117   9.354 -0.1828 -0.1377  0.1534
  184MPD1    N1 2863   1.946   0.450   9.527  0.5492  0.2504  0.4459
  184MPD1    H6 2864   2.006   0.496   9.595  2.2750  1.2289 -1.7331
  184MPD1    H7 2865   1.862   0.425   9.578  0.9845 -1.7951  0.1990
  185MPD1     C 2866   2.849   4.593   8.637  0.0318 -0.7381 -0.0659
  185MPD1    C1 2867   2.722   4.594   8.689  0.4921  0.2098 -0.6579
  185MPD1    C2 2868   2.704   4.675   8.805  0.3256 -0.3524 -0.2013
  185MPD1    C3 2869   2.788   0.040   8.842  0.6436 -0.2711  0.6195
  185MPD1    C4 2870   2.912   0.054   8.772 -0.1585  0.2858 -0.4181
  185MPD1    C5 2871   2.938   4.695   8.679 -0.1174 -0.0581 -0.1252
  185MPD1     H 2872   2.610   4.657   8.856 -0.2311  2.6129 -0.1884
  185MPD1    H1 2873   2.983   0.134   8.788  0.0193  0.0186  0.1526
  185MPD1    H2 2874   2.878   4.516   8.566  2.3639 -1.3022  1.4806
  185MPD1    H3 2875   3.028   4.698   8.620 -1.6987  1.4569 -2.4463
  185MPD1     N 2876   2.760   0.140   8.943  0.4700  0.7306  0.1044
  185MPD1    H5 2877   2.836   0.205   8.958  0.7749  0.2745  0.5523
  185MPD1    N1 2878   2.634   4.489   8.663  0.0988 -0.7748  0.4809
  185MPD1    H6 2879   2.644   4.469   8.564 -1.1370 -1.2365  0.4528
  185MPD1    H7 2880   2.543   4.532   8.678 -0.1004 -2.1258  3.1227
  186MPD1     C 2881   0.789   4.338  16.156  0.0583  0.0230  0.3207
  186MPD1    C1 2882   0.759   4.452  16.079 -0.2624 -0.4774 -0.4999
  186MPD1    C2 2883   0.767   4.577  16.131 -0.1586 -0.4399 -0.1459
  186MPD1    C3 2884   0.784   4.584  16.267 -0.1498 -0.4028 -0.5795
  186MPD1    C4 2885   0.823   4.480  16.344 -0.5519  0.5624 -0.3879
  186MPD1    C5 2886   0.812   4.355  16.290  0.3378  0.0561  0.1529
  186MPD1     H 2887   0.754   4.669  16.075 -0.4365 -1.2162 -1.3555
  186MPD1    H1 2888   0.827   4.483  16.453 -0.1813 -0.3314 -0.3747
  186MPD1    H2 2889   0.800   4.239  16.113  1.3598  0.5353 -0.5409
  186MPD1    H3 2890   0.829   4.274  16.361  0.0403 -0.2653 -0.1461
  186MPD1     N 2891   0.784   4.708  16.335  0.2403  0.8412  0.2386
  186MPD1    H5 2892   0.797   4.721  16.435  2.2615  2.3301 -0.2025
  186MPD1    N1 2893   0.756   4.434  15.944 -0.2861  0.4135 -0.4716
  186MPD1    H6 2894   0.706   4.501  15.886 -0.4720  0.7113  0.0400
  186MPD1    H7 2895   0.711   4.347  15.917  0.1283  0.5164 -1.4902
  187MPD1     C 2896   0.225   1.866   0.414  0.4410 -0.0075 -0.0955
  187MPD1    C1 2897   0.304   1.953   0.340  0.0378 -0.2256 -0.5015
  187MPD1    C2 2898   0.288   1.948   0.201 -0.7068  0.7608  0.1895
  187MPD1    C3 2899   0.218   1.847   0.143  0.9639 -0.5238 -0.2985
  187MPD1    C4 2900   0.164   1.748   0.225 -0.1919 -0.2102  0.5417
  187MPD1    C5 2901   0.160   1.758   0.364 -0.0976 -0.4511 -0.2633
  187MPD1     H 2902   0.324   2.032   0.143  1.3097  1.7881  2.9279
  187MPD1    H1 2903   0.129   1.651   0.191 -1.6424  0.2886  0.6229
  187MPD1    H2 2904   0.228   1.876   0.522 -2.3991 -2.5906  0.2072
  187MPD1    H3 2905   0.101   1.687   0.421 -1.1175 -0.1917 -0.9964
  187MPD1     N 2906   0.205   1.833   0.006 -0.5774 -0.6175  0.0518
  187MPD1    H5 2907   0.163   1.747  17.713 -1.4720 -1.3000  2.8443
  187MPD1    N1 2908   0.341   2.074   0.404  0.2231  0.2493  0.0015
  187MPD1    H6 2909   0.373   2.078   0.501 -2.3102 -2.3307  0.9289
  187MPD1    H7 2910   0.411   2.131   0.357  2.7741 -1.0209  2.2643
  188MPD1     C 2911   0.321   1.841  10.471 -0.4908  0.0939 -0.3546
  188MPD1    C1 2912   0.246   1.840  10.356  0.6714 -0.2941  0.1842
  188MPD1    C2 2913   0.160   1.740  10.324  0.5374  0.0799 -0.6633
  188MPD1    C3 2914   0.137   1.642  10.414 -0.6776  0.7958  0.4319
  188MPD1    C4 2915   0.211   1.642  10.529  0.2647 -0.6117 -0.1057
  188MPD1    C5 2916   0.298   1.744  10.567  0.5976  0.7751 -0.1928
  188MPD1     H 2917   0.104   1.745  10.232  1.3990 -1.1330 -1.2551
  188MPD1    H1 2918   0.188   1.565  10.602 -1.5817 -1.0816 -1.1783
  188MPD1    H2 2919   0.397   1.916  10.490 -1.9586  0.8543  2.5856
  188MPD1    H3 2920   0.353   1.745  10.660  0.1339  1.3406  0.0766
  188MPD1     N 2921   0.054   1.536  10.383 -0.1297  0.0544  0.1252
  188MPD1    H5 2922   0.031   1.459  10.446 -0.4577 -0.6752 -0.8792
  188MPD1    N1 2923   0.258   1.954  10.280 -0.1252  0.0254 -0.1777
  188MPD1    H6 2924   0.271   1.945  10.180 -1.7747 -0.2231 -0.3647
  188MPD1    H7 2925   0.340   2.004  10.315  0.1440  0.4441 -1.4211
  189MPD1     C 2926   1.963   2.298   0.246 -0.5303 -0.2071 -0.6649
  189MPD1    C1 2927   1.828   2.273   0.250  0.5149 -0.1917  0.8167
  189MPD1    C2 2928   1.753   2.391   0.240 -0.2066  0.1076 -0.7153
  189MPD1    C3 2929   1.801   2.513   0.191  0.7590 -0.0329  0.8004
  189MPD1    C4 2930   1.936   2.528   0.186  0.8428 -0.7814 -0.3581
  189MPD1    C5 2931   2.015   2.419   0.215 -0.4052  0.3810  0.2348
  189MPD1     H 2932   1.645   2.384   0.246  0.0138 -0.8613  2.0190
  189MPD1    H1 2933   1.978   2.619   0.145  0.5652 -0.4295  0.1398
  189MPD1    H2 2934   2.033   2.219   0.273 -3.3258 -1.9539  1.5610
  189MPD1    H3 2935   2.122   2.426   0.201 -0.6185  2.5207 -0.3566
  189MPD1     N 2936   1.706   2.614   0.155  0.8452 -0.2333 -0.1100
  189MPD1    H5 2937   1.609   2.584   0.155  0.4677  1.0402 -1.8852
  189MPD1    N1 2938   1.777   2.143   0.273 -0.4164  0.3261 -0.1918
  189MPD1    H6 2939   1.679   2.151   0.301 -0.4360 -3.1649  0.7701
  189MPD1    H7 2940   1.827   2.092   0.346 -1.7616  0.8259  1.0715
  190MPD1     C 2941   0.159   1.279  15.900  0.3891 -0.1721  0.2724
  190MPD1    C1 2942   0.211   1.294  16.025 -0.3432  0.8158  0.2596
  190MPD1    C2 2943   0.343   1.256  16.040  0.2309 -0.4580 -0.1506
  190MPD1    C3 2944   0.425   1.220  15.936 -0.5857 -0.0932  0.0464
  190MPD1    C4 2945   0.376   1.223  15.809  0.1716  1.0357 -0.2968
  190MPD1    C5 2946   0.243   1.245  15.793 -0.0270 -0.3589 -0.6867
  190MPD1     H 2947   0.385   1.244  16.139  1.6949  0.6278 -0.6430
  190MPD1    H1 2948   0.442   1.217  15.723 -1.8831  1.7674 -1.9367
  190MPD1    H2 2949   0.053   1.297  15.884  0.3796 -0.1817  0.3246
  190MPD1    H3 2950   0.209   1.266  15.692  0.2994 -0.7022 -0.8670
  190MPD1     N 2951   0.556   1.182  15.969 -0.0467  0.2404  0.0313
  190MPD1    H5 2952   0.587   1.173  16.065  1.0895  0.5737 -0.3048
  190MPD1    N1 2953   0.125   1.298  16.139  0.2972 -0.2181  0.3721
  190MPD1    H6 2954   0.051   1.369  16.134 -2.8181 -3.6889 -2.7355
  190MPD1    H7 2955   0.169   1.329  16.225 -0.4222  0.3261  0.5498
  191MPD1     C 2956   4.589   2.568  12.459 -0.8779 -0.6203  0.1097
  191MPD1    C1 2957   4.641   2.653  12.545  0.0930  0.4188 -0.2115
  191MPD1    C2 2958   4.654   2.785  12.508  0.5868 -0.4802  0.0223
  191MPD1    C3 2959   4.619   2.824  12.379  0.1135 -0.4524  0.7992
  191MPD1    C4 2960   4.577   2.724  12.292 -0.7896  0.4124 -0.2505
  191MPD1    C5 2961   4.553   2.597  12.335  0.2474  0.6732 -0.1831
  191MPD1     H 2962   4.691   2.854  12.583  0.0829 -2.0464  1.7191
  191MPD1    H1 2963   4.571   2.740  12.185 -0.9308  0.8378 -0.1790
  191MPD1    H2 2964   4.576   2.464  12.486 -0.7141 -0.0193  2.5156
  191MPD1    H3 2965   4.527   2.518  12.266 -0.3318  0.8246 -0.1468
  191MPD1     N 2966   4.648   2.954  12.337 -0.0505  0.0308  0.0826
  191MPD1    H5 2967   4.697   3.016  12.401 -0.1766 -0.2578  0.4613
  191MPD1    N1 2968   4.666   2.621  12.679  0.2008 -0.1050 -0.3067
  191MPD1    H6 2969   0.011   2.678  12.706 -0.2042  0.0902  0.5164
  191MPD1    H7 2970   4.700   2.526  12.690  1.3175  0.2689 -0.5032
  192MPD1     C 2971   4.421   3.855  11.775  0.2488 -0.3951 -0.5074
  192MPD1    C1 2972   4.352   3.739  11.800  0.0505 -0.1524 -0.7276
  192MPD1    C2 2973   4.426   3.635  11.857 -0.2728  0.0767  0.3879
  192MPD1    C3 2974   4.565   3.643  11.861 -0.1855  0.3353  0.2487
  192MPD1    C4 2975   4.628   3.759  11.809  0.6665  0.0059  0.7879
  192MPD1    C5 2976   4.555   3.857  11.764  0.0279 -0.1564  0.4166
  192MPD1     H 2977   4.368   3.553  11.898  1.8822 -1.3948  0.5328
  192MPD1    H1 2978   4.735   3.770  11.803  0.6191  1.1565  1.8322
  192MPD1    H2 2979   4.364   3.942  11.743 -0.0469 -0.0682  0.9068
  192MPD1    H3 2980   4.604   3.950  11.735  0.5668 -0.2853  0.9166
  192MPD1     N 2981   4.639   3.542  11.930 -0.5964 -0.6223  0.6761
  192MPD1    H5 2982   4.735   3.565  11.954 -0.8126 -1.5436  2.4418
  192MPD1    N1 2983   4.213   3.736  11.811  0.1547  0.3351  0.2315
  192MPD1    H6 2984   4.163   3.776  11.732  2.6665 -0.5203 -1.8026
  192MPD1    H7 2985   4.182   3.639  11.812  0.5650  0.2100  0.8205
  193MPD1     C 2986   4.196   2.682  16.072 -0.6727  0.2228  0.5430
  193MPD1    C1 2987   4.146   2.778  16.154  0.4431 -0.0624  0.4309
  193MPD1    C2 2988   4.239   2.848  16.230  0.2527 -0.7516 -0.3017
  193MPD1    C3 2989   4.372   2.800  16.248 -0.1105 -0.1564  0.0567
  193MPD1    C4 2990   4.405   2.686  16.184  0.1741  0.5003 -0.0086
  193MPD1    C5 2991   4.315   2.630  16.099  0.2846  0.0156  0.0794
  193MPD1     H 2992   4.206   2.934  16.287 -0.0419 -0.1889 -1.3092
  193MPD1    H1 2993   4.503   2.645  16.206  0.6870  1.2674 -0.8178
  193MPD1    H2 2994   4.135   2.631  15.998 -1.2828 -0.9376  1.8551
  193MPD1    H3 2995   4.338   2.540  16.043 -1.5949 -0.3190 -0.1624
  193MPD1     N 2996   4.474   2.864  16.317 -1.2375 -0.0516  0.0863
  193MPD1    H5 2997   4.567   2.832  16.295 -0.5579  1.9508 -0.0148
  193MPD1    N1 2998   4.016   2.826  16.139  0.0046 -0.1526 -0.0274
  193MPD1    H6 2999   3.959   2.747  16.107 -1.1403  1.9341 -3.1164
  193MPD1    H7 3000   3.981   2.869  16.224  0.5298 -0.1328  0.1769
  194MPD1     C 3001   1.758   0.133  16.556 -0.1434 -0.3629 -0.2870
  194MPD1    C1 3002   1.740   0.190  16.678 -0.5279 -0.5243  0.1272
  194MPD1    C2 3003   1.804   0.127  16.777 -1.0027  0.1575  0.2602
  194MPD1    C3 3004   1.871   0.006  16.761  0.2055  0.0668  0.4142
  194MPD1    C4 3005   1.883   4.681  16.635  0.2355 -0.3482  0.7732
  194MPD1    C5 3006   1.831   0.018  16.533  0.5980 -0.1066 -0.2700
  194MPD1     H 3007   1.791   0.168  16.876  0.3703  0.2107  0.4189
  194MPD1    H1 3008   1.929   4.583  16.627 -1.8320 -1.3036  0.6152
  194MPD1    H2 3009   1.706   0.167  16.467 -0.2962  1.0789  0.3498
  194MPD1    H3 3010   1.850   4.704  16.439 -1.3743 -0.6761 -0.3595
  194MPD1     N 3011   1.932   4.674  16.869  0.3602 -0.1528 -0.1051
  194MPD1    H5 3012   1.963   4.580  16.844 -2.3755 -0.7752 -1.1903
  194MPD1    N1 3013   1.639   0.292  16.697  0.4202 -0.2769  0.3773
  194MPD1    H6 3014   1.668   0.345  16.779  2.4194 -1.1802  0.2355
  194MPD1    H7 3015   1.637   0.352  16.614  0.4958 -2.0971 -0.9408
  195MPD1     C 3016   0.135   2.041   0.944  0.6945  0.0884 -0.8028
  195MPD1    C1 3017   0.221   1.945   0.890  0.0862 -0.4688  0.4733
  195MPD1    C2 3018   0.170   1.839   0.814  0.1064  0.2538  0.0524
  195MPD1    C3 3019   0.035   1.846   0.765 -0.0091  0.2527  0.1414
  195MPD1    C4 3020   4.691   1.958   0.805 -0.4545  0.2666  0.0484
  195MPD1    C5 3021   0.003   2.035   0.905 -0.4695  0.0864 -0.1437
  195MPD1     H 3022   0.235   1.754   0.794  0.2896  0.6289 -0.9520
  195MPD1    H1 3023   4.586   1.970   0.785 -0.3655 -0.7318 -0.9813
  195MPD1    H2 3024   0.173   2.118   1.010  2.5596 -2.2412  0.8573
  195MPD1    H3 3025   4.663   2.107   0.935 -0.2841  0.3034 -0.1980
  195MPD1     N 3026   4.710   1.742   0.684 -0.1318  0.0084  0.1463
  195MPD1    H5 3027   4.619   1.766   0.647 -0.2242  2.4499  1.9722
  195MPD1    N1 3028   0.345   1.926   0.944  0.2325 -0.4025  0.2340
  195MPD1    H6 3029   0.385   2.017   0.966 -2.0161  0.8973 -1.1284
  195MPD1    H7 3030   0.412   1.879   0.884  0.3449 -3.7684  2.9438
  196MPD1     C 3031   3.393   1.235   0.418 -0.3197 -0.6119  0.3508
  196MPD1    C1 3032   3.509   1.307   0.404 -0.6169  0.1501  0.3995
  196MPD1    C2 3033   3.594   1.330   0.519  0.4514 -0.3057 -0.1589
  196MPD1    C3 3034   3.565   1.272   0.645  0.1346  0.5715 -0.2800
  196MPD1    C4 3035   3.448   1.205   0.647 -0.5285  0.1258  0.3123
  196MPD1    C5 3036   3.364   1.181   0.538  0.2352  0.4381  0.1574
  196MPD1     H 3037   3.675   1.402   0.521 -0.5140  0.6860  3.0822
  196MPD1    H1 3038   3.408   1.164   0.739  1.3860 -0.0637  1.0508
  196MPD1    H2 3039   3.334   1.215   0.330  1.1303 -0.2099 -0.7202
  196MPD1    H3 3040   3.276   1.120   0.557  0.2909  0.0918 -0.7096
  196MPD1     N 3041   3.621   1.310   0.769 -0.3963 -0.0745 -0.1258
  196MPD1    H5 3042   3.589   1.277   0.860 -0.3356 -1.9143 -0.7759
  196MPD1    N1 3043   3.534   1.385   0.287  0.1490 -0.2353 -0.0214
  196MPD1    H6 3044   3.513   1.333   0.203 -1.7840 -0.4981  0.6250
  196MPD1    H7 3045   3.626   1.424   0.271  0.5819 -1.0316  0.5248
  197MPD1     C 3046   3.094   3.035   0.075 -0.7252  0.5925  0.3378
  197MPD1    C1 3047   3.217   3.092   0.110  0.5194  0.0387 -0.1198
  197MPD1    C2 3048   3.283   3.157   0.008 -0.4247 -0.8488 -0.2663
  197MPD1    C3 3049   3.244   3.153  17.616  0.3866 -0.0518  0.3126
  197MPD1    C4 3050   3.124   3.090  17.587 -0.0379  0.3491  0.7962
  197MPD1    C5 3051   3.055   3.029  17.685  0.1669  1.0717 -0.0236
  197MPD1     H 3052   3.366   3.214   0.048 -0.5282 -1.6991  1.1665
  197MPD1    H1 3053   3.083   3.070  17.488  1.0672  0.9275  0.2205
  197MPD1    H2 3054   3.027   2.980   0.140  0.8475  0.6630  2.0185
  197MPD1    H3 3055   2.967   2.971  17.659  2.2668 -2.6476  1.3233
  197MPD1     N 3056   3.312   3.221  17.509 -0.6909 -0.0323  0.0886
  197MPD1    H5 3057   3.262   3.219  17.421  0.2434 -0.1693 -0.4422
  197MPD1    N1 3058   3.252   3.114   0.250 -0.1753 -0.8579  0.2192
  197MPD1    H6 3059   3.353   3.097   0.258 -0.1256 -0.7923 -0.2703
  197MPD1    H7 3060   3.213   3.044   0.312 -2.8506  2.1340  1.8594
  198MPD1     C 3061   0.354   1.909  15.121 -0.5572 -0.0727 -0.6340
  198MPD1    C1 3062   0.445   2.014  15.132  0.4008 -0.2001 -0.1922
  198MPD1    C2 3063   0.424   2.101  15.244  0.4341  0.9842  0.4468
  198MPD1    C3 3064   0.335   2.084  15.344  0.0106 -0.0256  0.1673
  198MPD1    C4 3065   0.252   1.976  15.327 -0.0810  0.2821 -0.0985
  198MPD1    C5 3066   0.274   1.884  15.223  0.2110  0.0005 -0.7952
  198MPD1     H 3067   0.491   2.186  15.245  0.8778  0.6487 -0.4525
  198MPD1    H1 3068   0.174   1.950  15.398  0.0934  0.2530  0.0826
  198MPD1    H2 3069   0.342   1.853  15.028  1.3626  0.9926 -1.5259
  198MPD1    H3 3070   0.197   1.808  15.221 -0.3100  0.5601 -1.8003
  198MPD1     N 3071   0.322   2.186  15.442 -0.1243  0.1933  0.2154
  198MPD1    H5 3072   0.402   2.245  15.456 -0.3950  0.3473  1.1647
  198MPD1    N1 3073   0.534   2.053  15.035 -0.1563  0.1272  0.6716
  198MPD1    H6 3074   0.567   1.974  14.981  1.0124 -0.8096  2.7845
  198MPD1    H7 3075   0.614   2.108  15.066 -0.4735  1.9193 -1.7384
  199MPD1     C 3076   2.802   3.972  10.696  0.0246  0.3781 -1.2093
  199MPD1    C1 3077   2.707   4.033  10.624 -0.2640  0.4513 -0.3004
  199MPD1    C2 3078   2.662   3.969  10.505 -0.1539  0.6330 -0.0867
  199MPD1    C3 3079   2.724   3.851  10.461  0.1791 -0.3166 -0.7709
  199MPD1    C4 3080   2.841   3.808  10.522  0.8112  0.1294 -0.2934
  199MPD1    C5 3081   2.873   3.864  10.650 -0.7865 -0.2702  0.3978
  199MPD1     H 3082   2.570   4.002  10.457 -0.7784  2.5367  2.4313
  199MPD1    H1 3083   2.895   3.719  10.494  0.6893  0.1578 -0.6314
  199MPD1    H2 3084   2.839   4.011  10.790 -0.1743 -0.2981 -0.8498
  199MPD1    H3 3085   2.960   3.828  10.704  0.2087  0.7613 -0.5065
  199MPD1     N 3086   2.686   3.785  10.341  0.5192  0.3825 -0.4484
  199MPD1    H5 3087   2.742   3.707  10.309 -1.5930 -1.5599  0.6275
  199MPD1    N1 3088   2.630   4.137  10.675  0.2635 -0.1675 -0.3831
  199MPD1    H6 3089   2.548   4.165  10.621 -0.5365  1.3817  1.6404
  199MPD1    H7 3090   2.681   4.216  10.713 -2.0387  1.2449 -0.2412
  200MPD1     C 3091   1.715   3.533  15.414  0.6453 -0.6075  0.4062
  200MPD1    C1 3092   1.817   3.503  15.326 -0.5837  0.7014  0.0937
  200MPD1    C2 3093   1.895   3.608  15.281 -0.4549  1.3354 -0.1518
  200MPD1    C3 3094   1.890   3.733  15.345  0.2827  0.2875  0.5755
  200MPD1    C4 3095   1.792   3.757  15.444  0.6257 -0.0474  0.1803
  200MPD1    C5 3096   1.708   3.660  15.479 -0.0658  0.1419  0.2429
  200MPD1     H 3097   1.977   3.592  15.211 -0.8527 -0.5736 -0.1763
  200MPD1    H1 3098   1.778   3.852  15.494  1.8340 -0.0576  0.5486
  200MPD1    H2 3099   1.643   3.457  15.440 -1.4285  1.0766 -0.4513
  200MPD1    H3 3100   1.620   3.680  15.540 -0.0464 -1.8648  0.9454
  200MPD1     N 3101   1.985   3.836  15.307 -0.6082  0.1291 -0.5451
  200MPD1    H5 3102   2.027   3.809  15.219 -1.1631  1.7702 -1.2983
  200MPD1    N1 3103   1.834   3.373  15.277 -0.0626  0.6816 -0.0216
  200MPD1    H6 3104   1.934   3.356  15.289 -0.4222 -0.8543  0.8210
  200MPD1    H7 3105   1.779   3.312  15.338  1.0243  0.9142  1.2059
  201MPD1     C 3106   3.648   2.118  12.409  0.0587 -0.2369 -0.3436
  201MPD1    C1 3107   3.645   1.984  12.370 -0.2714  0.0641  0.3056
  201MPD1    C2 3108   3.722   1.885  12.426  0.0415 -0.0785 -0.4702
  201MPD1    C3 3109   3.811   1.920  12.520 -0.1478  0.6110  0.1898
  201MPD1    C4 3110   3.817   2.056  12.558  0.3957  0.4749  0.0353
  201MPD1    C5 3111   3.736   2.154  12.511  0.2483 -0.0757 -0.7166
  201MPD1     H 3112   3.724   1.781  12.396 -1.7418 -0.2269 -0.0517
  201MPD1    H1 3113   3.889   2.089  12.632  1.0252  2.0845 -1.2912
  201MPD1    H2 3114   3.583   2.193  12.366  2.7680  2.1654 -0.1781
  201MPD1    H3 3115   3.738   2.252  12.558  1.8851 -0.6374  0.4120
  201MPD1     N 3116   3.890   1.819  12.577  0.3022  0.1346  0.3031
  201MPD1    H5 3117   3.883   1.723  12.544  0.9854  0.2884 -0.2840
  201MPD1    N1 3118   3.563   1.949  12.273 -0.4583 -0.5623  0.0673
  201MPD1    H6 3119   3.491   2.019  12.258 -0.1014 -0.0151  0.9051
  201MPD1    H7 3120   3.526   1.854  12.270  1.8592 -1.4267 -0.9708
  202MPD1     C 3121   4.597   2.145   9.693 -0.2734 -0.8431 -0.3471
  202MPD1    C1 3122   4.525   2.236   9.765  0.4610 -0.0611 -0.5367
  202MPD1    C2 3123   4.393   2.209   9.790 -0.5888  0.5915 -0.5773
  202MPD1    C3 3124   4.347   2.073   9.780  0.2800  0.4385  1.2438
  202MPD1    C4 3125   4.434   1.976   9.732  0.0996 -0.1360 -0.3236
  202MPD1    C5 3126   4.559   2.013   9.678  0.2861  0.6665 -0.3813
  202MPD1     H 3127   4.330   2.286   9.832 -0.8233  0.3495 -0.4818
  202MPD1    H1 3128   4.400   1.873   9.731  0.4898 -0.2862  2.0580
  202MPD1    H2 3129   4.687   2.178   9.641 -1.4401  1.4862 -0.8875
  202MPD1    H3 3130   4.629   1.940   9.639 -0.3522 -0.8604  1.3104
  202MPD1     N 3131   4.220   2.034   9.822 -0.6604  0.0674  0.5338
  202MPD1    H5 3132   4.201   1.936   9.804  0.9949  0.0022 -0.8114
  202MPD1    N1 3133   4.559   2.369   9.750  0.0684 -0.2324 -0.5100
  202MPD1    H6 3134   4.519   2.428   9.822  1.7865 -0.2903  0.4985
  202MPD1    H7 3135   4.659   2.389   9.749 -0.0264  0.2687  1.1197
  203MPD1     C 3136   2.340   2.985  13.118 -0.8457 -0.5790  0.2914
  203MPD1    C1 3137   2.328   2.875  13.194  1.0398 -0.4690 -0.5607
  203MPD1    C2 3138   2.276   2.762  13.134 -0.0765  0.6751 -0.4781
  203MPD1    C3 3139   2.229   2.765  13.004 -0.7425  0.5984 -0.0881
  203MPD1    C4 3140   2.219   2.884  12.938 -0.0925  0.3321 -0.0195
  203MPD1    C5 3141   2.280   2.997  12.991  0.1871 -0.2201  0.2753
  203MPD1     H 3142   2.276   2.666  13.184 -0.5395  1.2455  0.6182
  203MPD1    H1 3143   2.185   2.885  12.835  3.9930  1.0499 -1.3613
  203MPD1    H2 3144   2.393   3.076  13.145 -3.2134  0.8376  0.0856
  203MPD1    H3 3145   2.277   3.092  12.939 -1.4682 -1.5392 -2.0084
  203MPD1     N 3146   2.196   2.639  12.951 -0.4163 -0.7105 -0.0264
  203MPD1    H5 3147   2.206   2.568  13.022 -0.8152 -2.0946 -1.3720
  203MPD1    N1 3148   2.388   2.866  13.316  0.0857 -0.1614 -0.1260
  203MPD1    H6 3149   2.335   2.808  13.380  1.2636 -0.2495  0.7722
  203MPD1    H7 3150   2.426   2.951  13.360 -0.8313 -0.8025  1.8859
  204MPD1     C 3151   1.755   3.905   0.039  0.7520 -0.3992 -0.4782
  204MPD1    C1 3152   1.885   3.946   0.010  0.0986 -0.0769  0.0004
  204MPD1    C2 3153   1.963   3.847  17.694  0.4861  0.3733  0.1301
  204MPD1    C3 3154   1.930   3.713  17.704  0.4328  0.7053  0.6369
  204MPD1    C4 3155   1.816   3.670   0.012 -0.5914  0.3822  0.6092
  204MPD1    C5 3156   1.727   3.768   0.040 -0.6536  0.2824  0.2338
  204MPD1     H 3157   2.056   3.881  17.648  0.1972 -0.1259 -0.8050
  204MPD1    H1 3158   1.794   3.565   0.021 -0.2587  0.2298 -0.3008
  204MPD1    H2 3159   1.679   3.976   0.071  1.7814  0.5392 -0.1458
  204MPD1    H3 3160   1.631   3.742   0.083 -1.2185  0.7812 -0.7261
  204MPD1     N 3161   2.027   3.623  17.655 -0.1227  0.4663  0.0280
  204MPD1    H5 3162   2.109   3.663  17.611  1.0568 -1.5503  0.3874
  204MPD1    N1 3163   1.912   4.082   0.004  0.1105  0.0685 -0.0228
  204MPD1    H6 3164   2.009   4.104   0.026  0.2916 -1.6019  0.8030
  204MPD1    H7 3165   1.857   4.148   0.059 -1.5317 -0.3612 -1.1427
  205MPD1     C 3166   1.753   2.713  16.639  0.1015  0.7423  0.1772
  205MPD1    C1 3167   1.733   2.573  16.661  0.2142 -0.1695 -0.4675
  205MPD1    C2 3168   1.820   2.515  16.753  0.1528  0.7542  1.0339
  205MPD1    C3 3169   1.903   2.588  16.834  0.3276 -0.3195  0.4197
  205MPD1    C4 3170   1.912   2.724  16.814  0.1609  0.1023 -0.1046
  205MPD1    C5 3171   1.840   2.784  16.717  0.1652 -0.4508 -0.1089
  205MPD1     H 3172   1.826   2.407  16.763 -1.0554  0.7037  1.2384
  205MPD1    H1 3173   1.969   2.794  16.875 -2.5145  1.9779  0.2597
  205MPD1    H2 3174   1.691   2.765  16.567 -2.0697 -2.5702 -0.3753
  205MPD1    H3 3175   1.863   2.889  16.707 -1.0787 -0.0843  0.9619
  205MPD1     N 3176   1.983   2.534  16.938  0.5647 -1.2648 -0.2650
  205MPD1    H5 3177   2.055   2.592  16.979  0.0052 -0.4731 -0.4110
  205MPD1    N1 3178   1.653   2.506  16.573 -0.0244 -0.2346 -0.2345
  205MPD1    H6 3179   1.634   2.408  16.593 -0.9483 -0.1975 -0.9297
  205MPD1    H7 3180   1.575   2.556  16.531 -0.4387 -0.8903 -0.2476
  206MPD1     C 3181   2.038   0.812  17.449 -0.9551  0.2290  0.1104
  206MPD1    C1 3182   2.040   0.938  17.394  0.7073  0.0831 -0.0660
  206MPD1    C2 3183   2.058   0.959  17.258  0.9439 -0.0547  0.3814
  206MPD1    C3 3184   2.084   0.844  17.180  1.2083 -0.9037 -0.7082
  206MPD1    C4 3185   2.085   0.726  17.234  0.8109 -0.3779 -0.3153
  206MPD1    C5 3186   2.062   0.704  17.371 -0.5758 -0.6622 -0.8779
  206MPD1     H 3187   2.048   1.058  17.213  0.9286 -0.4298 -0.4417
  206MPD1    H1 3188   2.100   0.643  17.167 -0.8400  0.4694 -1.7221
  206MPD1    H2 3189   2.011   0.794  17.553 -0.4383  0.1039  0.2210
  206MPD1    H3 3190   2.076   0.600  17.400  2.6544  0.4593  1.5368
  206MPD1     N 3191   2.081   0.860  17.036 -0.8801  0.3478 -0.4179
  206MPD1    H5 3192   2.062   0.773  16.986  1.2335  0.4307 -1.3943
  206MPD1    N1 3193   1.985   1.035  17.479 -0.4009  0.1490 -0.5131
  206MPD1    H6 3194   2.026   1.128  17.473 -0.6083  0.3371  1.0472
  206MPD1    H7 3195   1.998   1.011  17.577  0.9803 -0.1005 -0.7662
  207MPD1     C 3196   0.459   2.628   9.452 -0.1251  0.8286  0.2125
  207MPD1    C1 3197   0.400   2.752   9.445 -0.9843 -0.4612 -0.3127
  207MPD1    C2 3198   0.391   2.836   9.554  0.0851 -0.1021  0.0677
  207MPD1    C3 3199   0.432   2.790   9.679  0.2075 -0.0653  0.7218
  207MPD1    C4 3200   0.485   2.663   9.687 -0.3681  0.7415  0.7416
  207MPD1    C5 3201   0.497   2.587   9.575 -0.0455  0.0720  0.2823
  207MPD1     H 3202   0.341   2.931   9.543  1.2547  0.4263 -0.6443
  207MPD1    H1 3203   0.518   2.622   9.782  0.6133  1.5662  0.7596
  207MPD1    H2 3204   0.474   2.573   9.360 -1.9798 -0.3519  0.6175
  207MPD1    H3 3205   0.538   2.487   9.583 -0.8345 -0.2352  0.5139
  207MPD1     N 3206   0.411   2.855   9.802 -0.0197  0.4618 -0.3602
  207MPD1    H5 3207   0.457   2.809   9.879 -0.3117 -1.3461 -1.2473
  207MPD1    N1 3208   0.343   2.794   9.327 -0.3569 -0.3056  0.0172
  207MPD1    H6 3209   0.332   2.895   9.323 -1.7891 -0.5255 -1.3559
  207MPD1    H7 3210   0.380   2.743   9.246  0.4020 -2.3228  1.6321
  208MPD1     C 3211   3.502   2.193  17.592  0.7185 -0.5494 -0.4968
  208MPD1    C1 3212   3.522   2.114  17.700 -0.5839 -0.1042 -0.2265
  208MPD1    C2 3213   3.414   2.035  17.731  0.0191  0.3812 -0.0300
  208MPD1    C3 3214   3.288   2.027  17.667 -0.3404 -0.3982  0.2646
  208MPD1    C4 3215   3.281   2.102  17.551 -0.0021  0.6372 -0.1116
  208MPD1    C5 3216   3.383   2.190  17.524  0.3237 -0.4571  0.1285
  208MPD1     H 3217   3.422   1.980   0.082  2.1345  0.3963 -0.2153
  208MPD1    H1 3218   3.189   2.105  17.495 -0.7932 -0.9530  1.1074
  208MPD1    H2 3219   3.577   2.264  17.559  1.7603 -2.1627 -1.6205
  208MPD1    H3 3220   3.382   2.250  17.433  0.1009 -0.8222 -0.1110
  208MPD1     N 3221   3.188   1.937  17.712 -0.0354  0.1874 -0.0090
  208MPD1    H5 3222   3.210   1.900   0.063  0.4644 -1.0272 -0.6114
  208MPD1    N1 3223   3.635   2.137   0.042  0.0680  0.4577  0.2479
  208MPD1    H6 3224   3.668   2.050   0.084  0.1495  1.5503  2.4688
  208MPD1    H7 3225   3.711   2.175  17.728  2.2760  0.2057  3.0734
  209MPD1     C 3226   4.476   1.689  10.816  0.5904  0.0823  0.3872
  209MPD1    C1 3227   4.581   1.741  10.737  0.5378 -0.5186 -0.0925
  209MPD1    C2 3228   4.580   1.879  10.714  0.6728 -0.5500 -0.0820
  209MPD1    C3 3229   4.510   1.963  10.804 -0.2040  0.0503  0.4372
  209MPD1    C4 3230   4.435   1.905  10.898 -0.5572 -1.2150  0.1139
  209MPD1    C5 3231   4.400   1.776  10.898  0.6303  0.1383  0.5013
  209MPD1     H 3232   4.652   1.918  10.643  0.6074  0.8994  0.6637
  209MPD1    H1 3233   4.400   1.966  10.981  1.4031  0.4727 -0.2823
  209MPD1    H2 3234   4.455   1.583  10.831  1.4529 -0.5166 -2.5682
  209MPD1    H3 3235   4.315   1.742  10.956  1.0155 -0.5245  0.6751
  209MPD1     N 3236   4.542   2.104  10.803 -0.1115 -0.0781 -0.3531
  209MPD1    H5 3237   4.615   2.139  10.743  0.0879  0.1150  0.0008
  209MPD1    N1 3238   4.649   1.658  10.641  0.4095  0.0276  0.0002
  209MPD1    H6 3239   4.672   1.565  10.674  1.2456 -0.2784 -1.4736
  209MPD1    H7 3240   4.735   1.704  10.610 -1.3358  2.6185 -1.0160
  210MPD1     C 3241   0.169   2.919  11.462 -0.3619  0.3480 -0.2507
  210MPD1    C1 3242   0.150   2.785  11.486  0.0698  0.3766 -0.3321
  210MPD1    C2 3243   0.098   2.705  11.385 -0.1730 -0.4678  0.3650
  210MPD1    C3 3244   0.056   2.761  11.264  0.7381  0.5531  0.1158
  210MPD1    C4 3245   0.071   2.896  11.240 -0.4973 -0.2542 -0.4404
  210MPD1    C5 3246   0.119   2.973  11.341 -0.4570  0.1100 -0.5711
  210MPD1     H 3247   0.076   2.604  11.417 -1.5571 -0.0256  0.7979
  210MPD1    H1 3248   0.045   2.944  11.146 -1.5670  0.8425  0.4120
  210MPD1    H2 3249   0.236   2.981  11.520  1.6675 -0.5113 -1.6780
  210MPD1    H3 3250   0.131   3.078  11.317  2.8113 -0.7967 -2.9027
  210MPD1     N 3251   4.731   2.687  11.164 -0.4090  0.2182 -0.0068
  210MPD1    H5 3252   4.717   2.736  11.076  1.7367 -0.2995 -0.6459
  210MPD1    N1 3253   0.206   2.726  11.596 -0.0473  0.2982  0.0918
  210MPD1    H6 3254   0.160   2.643  11.633 -0.0248  0.5473  0.6820
  210MPD1    H7 3255   0.189   2.782  11.680 -1.4701 -0.6016  0.4070
  211MPD1     C 3256   2.908   2.450  15.568 -0.0698 -0.2995  0.5145
  211MPD1    C1 3257   2.845   2.387  15.673 -0.0813  0.2364 -0.2256
  211MPD1    C2 3258   2.715   2.420  15.704 -0.4829  0.3318 -0.3213
  211MPD1    C3 3259   2.651   2.514  15.631 -0.9021 -0.3480 -0.1222
  211MPD1    C4 3260   2.710   2.582  15.527  0.7811 -0.3783 -0.9748
  211MPD1    C5 3261   2.846   2.548  15.499  0.1686  0.2712 -0.2029
  211MPD1     H 3262   2.662   2.362  15.778 -1.3943 -0.0792 -1.2931
  211MPD1    H1 3263   2.667   2.654  15.458 -0.2257  0.5449  0.6010
  211MPD1    H2 3264   3.007   2.424  15.534  1.0819  1.6284  2.4205
  211MPD1    H3 3265   2.893   2.589  15.411  1.2296  0.4395  0.4272
  211MPD1     N 3266   2.522   2.522  15.677 -0.0814  0.6271  0.1949
  211MPD1    H5 3267   2.491   2.495  15.770  1.0367  0.4780  0.5251
  211MPD1    N1 3268   2.920   2.286  15.743 -0.0166 -0.1119 -0.1634
  211MPD1    H6 3269   2.912   2.299  15.843  0.4782  0.0066 -0.1391
  211MPD1    H7 3270   3.020   2.306  15.741 -0.1995  0.8212  0.0445
  212MPD1     C 3271   1.701   0.928  16.979 -1.1685  0.5612  0.2056
  212MPD1    C1 3272   1.690   0.913  17.116 -0.3799  0.4807 -0.4866
  212MPD1    C2 3273   1.642   0.794  17.162 -0.3634  0.1355  0.6670
  212MPD1    C3 3274   1.637   0.678  17.078  0.3993 -1.2058  0.3192
  212MPD1    C4 3275   1.666   0.692  16.947 -0.0229  0.2644  1.0883
  212MPD1    C5 3276   1.693   0.818  16.898  0.3785  0.5634 -0.0151
  212MPD1     H 3277   1.611   0.777  17.264 -3.0044  1.8096  0.1319
  212MPD1    H1 3278   1.653   0.614  16.872  0.9795 -1.6768  2.9509
  212MPD1    H2 3279   1.730   1.022  16.933 -0.5908 -0.1966 -0.9877
  212MPD1    H3 3280   1.696   0.843  16.793 -0.8218  0.8251  0.0092
  212MPD1     N 3281   1.588   0.558  17.133  0.2579 -0.1196  0.0805
  212MPD1    H5 3282   1.571   0.557  17.233 -0.3798 -3.6206 -0.0690
  212MPD1    N1 3283   1.677   1.031  17.197 -0.5408  0.3979 -0.0644
  212MPD1    H6 3284   1.740   1.107  17.175 -0.9779  0.6968 -0.2775
  212MPD1    H7 3285   1.696   1.006  17.294  0.2567  0.1703 -0.2779
  213MPD1     C 3286   4.479   1.059  16.043 -0.0754  0.2698 -0.5900
  213MPD1    C1 3287   4.438   0.951  15.969 -0.9656 -0.4501 -0.1622
  213MPD1    C2 3288   4.383   0.979  15.846  0.7959  0.2873  0.1416
  213MPD1    C3 3289   4.399   1.094  15.779 -0.3404 -0.8087  0.5038
  213MPD1    C4 3290   4.483   1.193  15.844 -0.0692 -0.0452  0.1437
  213MPD1    C5 3291   4.507   1.174  15.975  1.0727 -0.8817 -0.7484
  213MPD1     H 3292   4.324   0.898  15.803 -0.7153  0.7194  1.4239
  213MPD1    H1 3293   4.526   1.281  15.798  0.8539 -2.3961 -3.5006
  213MPD1    H2 3294   4.510   1.048  16.147 -0.0419  0.8376 -0.5398
  213MPD1    H3 3295   4.544   1.256  16.036 -1.4357 -0.5589  0.3448
  213MPD1     N 3296   4.344   1.108  15.648  0.3297 -0.6288 -0.3774
  213MPD1    H5 3297   4.303   1.018  15.623 -1.2741 -0.6224  2.2183
  213MPD1    N1 3298   4.380   0.840  16.037 -0.3158  0.0284  0.1124
  213MPD1    H6 3299   4.364   0.750  15.992 -1.3202 -0.3430  1.2347
  213MPD1    H7 3300   4.438   0.822  16.118 -0.0153 -0.8825 -0.3037
  214MPD1     C 3301   3.879   0.632  14.925 -0.9972  0.1424  0.5931
  214MPD1    C1 3302   3.849   0.666  15.059  0.3347 -0.3573 -0.3263
  214MPD1    C2 3303   3.910   0.772  15.121 -0.1245  0.2008 -0.6877
  214MPD1    C3 3304   3.993   0.851  15.052 -0.7949 -0.3486  0.5903
  214MPD1    C4 3305   4.017   0.819  14.914  0.1372 -0.2151  0.2475
  214MPD1    C5 3306   3.964   0.709  14.850  0.2867 -0.3029 -0.0652
  214MPD1     H 3307   3.883   0.802  15.221 -1.0681 -0.8500 -0.6357
  214MPD1    H1 3308   4.089   0.886  14.869 -2.2253  1.1816 -1.4396
  214MPD1    H2 3309   3.826   0.553  14.873  1.0111  0.2827 -1.6626
  214MPD1    H3 3310   3.991   0.693  14.746  2.3781  1.8285  0.1543
  214MPD1     N 3311   4.059   0.962  15.111  0.0787  0.3218  0.7265
  214MPD1    H5 3312   4.133   0.999  15.052  1.2311 -1.2219  1.1987
  214MPD1    N1 3313   3.772   0.581  15.142  0.0490 -0.9344  0.0503
  214MPD1    H6 3314   3.696   0.539  15.089 -0.1609 -0.8374  0.2720
  214MPD1    H7 3315   3.740   0.632  15.224  0.0178  0.5003 -0.8546
  215MPD1     C 3316   3.587   2.021  11.197 -0.4592  0.0596 -0.7241
  215MPD1    C1 3317   3.705   1.994  11.266  0.2286 -0.2763 -0.4289
  215MPD1    C2 3318   3.817   2.054  11.216  0.1489 -0.2500  0.1847
  215MPD1    C3 3319   3.813   2.158  11.122  0.8993 -0.4625  0.2322
  215MPD1    C4 3320   3.694   2.182  11.063  0.2987 -0.5439 -0.3902
  215MPD1    C5 3321   3.582   2.117  11.100  0.3684  1.0700 -0.5816
  215MPD1     H 3322   3.909   2.038  11.271 -0.4319  2.3607  1.9342
  215MPD1    H1 3323   3.683   2.266  10.994  1.4972 -0.2700 -0.2428
  215MPD1    H2 3324   3.491   1.970  11.202 -0.5410  0.1634 -1.2546
  215MPD1    H3 3325   3.488   2.137  11.051  0.3648  0.3361 -0.8802
  215MPD1     N 3326   3.932   2.234  11.102 -0.6016  0.3439  0.3477
  215MPD1    H5 3327   4.013   2.211  11.159 -2.0567 -1.1784  1.8118
  215MPD1    N1 3328   3.713   1.900  11.369 -0.1548  0.2743 -0.5767
  215MPD1    H6 3329   3.789   1.920  11.432 -1.2853  1.7920  0.3078
  215MPD1    H7 3330   3.627   1.889  11.423 -0.7331  0.4832 -1.4373
  216MPD1     C 3331   1.759   0.453  17.447 -0.0229 -0.1664 -0.4448
  216MPD1    C1 3332   1.666   0.404  17.527 -0.5171  0.5084 -1.0654
  216MPD1    C2 3333   1.630   0.276  17.503  0.3821 -0.2037 -0.2722
  216MPD1    C3 3334   1.686   0.192  17.399 -0.3487 -0.5408  0.4489
  216MPD1    C4 3335   1.773   0.255  17.313 -0.0206  0.3725  0.1090
  216MPD1    C5 3336   1.816   0.384  17.341  0.0025  0.4486  0.1929
  216MPD1     H 3337   1.556   0.236  17.571  0.3009 -2.3548 -1.6212
  216MPD1    H1 3338   1.819   0.217  17.222  1.5168  0.6376  0.7688
  216MPD1    H2 3339   1.793   0.552  17.475  1.4148 -0.6655 -0.4601
  216MPD1    H3 3340   1.901   0.416  17.282 -0.8801  1.0321 -0.7556
  216MPD1     N 3341   1.644   0.057  17.382 -0.2863  0.0790  0.5355
  216MPD1    H5 3342   1.599   0.018  17.464  1.1253 -3.0441 -0.1793
  216MPD1    N1 3343   1.606   0.489  17.622  0.3157  0.4487  0.6393
  216MPD1    H6 3344   1.673   0.551  17.666  0.9142  0.2932 -0.0589
  216MPD1    H7 3345   1.547   0.447  17.694  1.9426  0.0241  1.7398
  217MPD1     C 3346   3.201   3.402   9.119  0.3356 -0.0432  0.4149
  217MPD1    C1 3347   3.106   3.327   9.186 -0.3905  0.1200 -0.5950
  217MPD1    C2 3348   3.127   3.190   9.195 -0.1744 -0.1885 -1.1572
  217MPD1    C3 3349   3.247   3.135   9.145 -0.5830 -0.1557 -0.2880
  217MPD1    C4 3350   3.331   3.216   9.076 -0.7385 -0.0319 -0.4012
  217MPD1    C5 3351   3.312   3.349   9.072  0.4058 -0.6011  0.9503
  217MPD1     H 3352   3.062   3.130   9.257 -1.0442  1.8403 -0.0977
  217MPD1    H1 3353   3.421   3.173   9.032 -2.0187 -2.7971 -0.3068
  217MPD1    H2 3354   3.193   3.510   9.117 -1.8330 -0.2372 -1.8722
  217MPD1    H3 3355   3.387   3.412   9.026  0.4962 -0.6967  0.9671
  217MPD1     N 3356   3.288   3.000   9.148 -0.2764  0.2863  0.4901
  217MPD1    H5 3357   3.375   2.968   9.108 -0.4401  1.5434 -0.8635
  217MPD1    N1 3358   2.981   3.391   9.216  0.3760 -0.1991  0.2801
  217MPD1    H6 3359   2.929   3.346   9.292 -0.6215  2.0615  0.9250
  217MPD1    H7 3360   2.987   3.485   9.253 -2.6972  1.0326 -2.2383
  218MPD1     C 3361   4.175   3.159  12.671  0.2781  0.3260 -0.0485
  218MPD1    C1 3362   4.240   3.130  12.554 -1.0243  0.6982 -0.2637
  218MPD1    C2 3363   4.268   2.998  12.517  0.4257  0.2502 -0.0845
  218MPD1    C3 3364   4.231   2.890  12.591 -0.0458 -0.0853  0.3777
  218MPD1    C4 3365   4.173   2.913  12.717 -0.2319  0.2739  0.3210
  218MPD1    C5 3366   4.145   3.047  12.752  0.6565 -0.2291 -0.3799
  218MPD1     H 3367   4.319   2.972  12.425  0.9349 -0.3428  0.3716
  218MPD1    H1 3368   4.141   2.833  12.783  1.1517 -0.6920 -0.1671
  218MPD1    H2 3369   4.156   3.257  12.713 -0.7029  0.7554 -1.5056
  218MPD1    H3 3370   4.082   3.062  12.840  0.0368 -0.0686 -0.8496
  218MPD1     N 3371   4.257   2.767  12.536 -0.3662 -0.7316  0.0949
  218MPD1    H5 3372   4.316   2.758  12.454 -2.3137 -0.2016 -1.3540
  218MPD1    N1 3373   4.300   3.236  12.489 -0.1654  0.5297  0.8709
  218MPD1    H6 3374   4.331   3.226  12.392  0.1609 -1.2951  1.1616
  218MPD1    H7 3375   4.240   3.318  12.489  0.5190  1.0256  1.8438
  219MPD1     C 3376   4.070   2.372  11.636  0.4076 -0.5559 -0.4980
  219MPD1    C1 3377   4.148   2.471  11.686  0.0906 -0.0360  0.1925
  219MPD1    C2 3378   4.185   2.472  11.820  0.1648 -0.2970 -0.0064
  219MPD1    C3 3379   4.131   2.381  11.912 -0.2264 -0.1499 -0.6741
  219MPD1    C4 3380   4.049   2.282  11.858 -0.3145 -0.4771 -0.5114
  219MPD1    C5 3381   4.018   2.282  11.726 -0.1157 -0.2994 -0.1010
  219MPD1     H 3382   4.239   2.557  11.860 -0.4964 -0.8904  2.1612
  219MPD1    H1 3383   3.991   2.212  11.916  1.4832 -0.1129  1.7197
  219MPD1    H2 3384   4.029   2.364  11.536  0.0917  0.2067 -0.4342
  219MPD1    H3 3385   3.959   2.198  11.690 -2.0317  0.3811  1.4596
  219MPD1     N 3386   4.148   2.392  12.054 -0.4154  0.3083  0.2211
  219MPD1    H5 3387   4.105   2.316  12.106 -0.6283  1.5423  1.8696
  219MPD1    N1 3388   4.197   2.578  11.603 -0.1361  0.2368 -0.0227
  219MPD1    H6 3389   4.211   2.540  11.509  1.2027  2.0604 -0.5480
  219MPD1    H7 3390   4.270   2.635  11.643 -1.4893  1.6632  0.3907
  220MPD1     C 3391   0.641   2.063   9.799 -0.5766 -0.0257 -0.2946
  220MPD1    C1 3392   0.572   2.182   9.805 -0.1961  0.5519  0.1066
  220MPD1    C2 3393   0.437   2.177   9.842 -0.1830 -0.5207 -0.1716
  220MPD1    C3 3394   0.375   2.061   9.887 -0.4736 -0.2595 -0.2276
  220MPD1    C4 3395   0.451   1.951   9.901  0.2933 -0.6414  0.6221
  220MPD1    C5 3396   0.582   1.953   9.854  0.2144  0.4709 -0.2235
  220MPD1     H 3397   0.377   2.266   9.823  0.5390 -0.2143 -1.0281
  220MPD1    H1 3398   0.410   1.853   9.920 -1.0149 -0.0910  0.6280
  220MPD1    H2 3399   0.746   2.062   9.771 -0.4313  1.7247  0.1537
  220MPD1    H3 3400   0.644   1.864   9.857  2.7060  2.2157  0.3545
  220MPD1     N 3401   0.234   2.069   9.923  0.1658 -0.0393 -0.7673
  220MPD1    H5 3402   0.191   2.159   9.904  0.2506  0.1951  0.1511
  220MPD1    N1 3403   0.635   2.295   9.755 -0.1383  0.1864  0.4859
  220MPD1    H6 3404   0.604   2.374   9.811 -2.4637 -1.0927  0.9741
  220MPD1    H7 3405   0.735   2.293   9.774 -0.1332  2.5575  0.7051
  221MPD1     C 3406   2.030   1.720  16.944 -0.2082  0.8664 -0.9415
  221MPD1    C1 3407   2.156   1.709  16.990 -0.7350 -0.2307 -0.3525
  221MPD1    C2 3408   2.231   1.594  16.963 -0.3192  0.0623  0.1773
  221MPD1    C3 3409   2.176   1.507  16.873  0.4116  0.2597  0.4616
  221MPD1    C4 3410   2.042   1.512  16.833 -0.2396  0.0279 -0.7377
  221MPD1    C5 3411   1.971   1.622  16.871  0.3057 -0.2249 -0.9780
  221MPD1     H 3412   2.327   1.569  17.006  0.3368  1.2288 -0.5844
  221MPD1    H1 3413   1.994   1.443  16.764 -0.6853 -0.5918  0.2001
  221MPD1    H2 3414   1.975   1.813  16.953 -3.1524 -0.9095 -0.9458
  221MPD1    H3 3415   1.865   1.637  16.855  0.4068  0.0088 -1.4221
  221MPD1     N 3416   2.244   1.396  16.824  0.8516  0.0323  0.5492
  221MPD1    H5 3417   2.204   1.344  16.746  0.1834  0.5266  0.5659
  221MPD1    N1 3418   2.216   1.822  17.052  0.3649 -0.2429  0.5082
  221MPD1    H6 3419   2.139   1.874  17.092  0.8180 -0.7941  2.0827
  221MPD1    H7 3420   2.288   1.800  17.121  2.1749  1.1882 -0.9205
  222MPD1     C 3421   1.263   0.385   1.074  0.2271 -0.1315  0.6023
  222MPD1    C1 3422   1.146   0.428   1.129  0.3194 -0.3804 -0.0462
  222MPD1    C2 3423   1.100   0.557   1.101  0.0866 -0.6068  1.3456
  222MPD1    C3 3424   1.163   0.634   1.009  0.0753 -0.7029  0.3498
  222MPD1    C4 3425   1.278   0.584   0.946 -0.0830 -0.1593 -0.0027
  222MPD1    C5 3426   1.327   0.463   0.981  0.1955  0.3758 -0.5002
  222MPD1     H 3427   1.016   0.591   1.161 -0.2171  0.9050  0.0661
  222MPD1    H1 3428   1.332   0.644   0.874 -3.3310  1.0002 -1.4844
  222MPD1    H2 3429   1.314   0.296   1.110  4.3907  1.9854 -0.1220
  222MPD1    H3 3430   1.422   0.428   0.943  0.7491  0.1940  1.0637
  222MPD1     N 3431   1.136   0.774   0.992  0.0656  0.4559  0.0335
  222MPD1    H5 3432   1.191   0.836   0.935 -0.6416  0.7815 -0.2932
  222MPD1    N1 3433   1.097   0.356   1.239  0.8989 -1.2611  0.2720
  222MPD1    H6 3434   0.996   0.366   1.237  0.9283 -0.6957  1.9654
  222MPD1    H7 3435   1.121   0.257   1.237  0.1332 -1.4279 -1.2480
  223MPD1     C 3436   0.345   1.380   1.235  0.4863  0.1719 -0.5648
  223MPD1    C1 3437   0.354   1.242   1.227 -0.0062 -0.0991 -0.1821
  223MPD1    C2 3438   0.469   1.176   1.200  0.2779  0.3299 -0.4779
  223MPD1    C3 3439   0.577   1.254   1.159 -1.0447 -0.6797 -0.2061
  223MPD1    C4 3440   0.573   1.394   1.166  0.5223 -0.2893 -0.1163
  223MPD1    C5 3441   0.455   1.459   1.209  0.0391  0.0153  0.2713
  223MPD1     H 3442   0.471   1.067   1.200  1.9759  0.3497  1.2073
  223MPD1    H1 3443   0.658   1.456   1.141 -0.1647  0.1251 -1.4139
  223MPD1    H2 3444   0.249   1.429   1.246  0.9898  0.3349  3.1832
  223MPD1    H3 3445   0.450   1.567   1.210  0.3485  0.0304  0.1529
  223MPD1     N 3446   0.693   1.182   1.100  0.0196 -0.1108  0.4433
  223MPD1    H5 3447   0.687   1.083   1.118  1.6107 -0.0742  1.1647
  223MPD1    N1 3448   0.238   1.175   1.274 -0.6779  0.3955 -0.8192
  223MPD1    H6 3449   0.240   1.075   1.253 -0.6204 -0.2591  2.3476
  223MPD1    H7 3450   0.156   1.221   1.234 -1.8559  1.4536  2.7815
  224MPD1     C 3451   3.626   3.174   9.449 -0.0100  0.3543 -0.0574
  224MPD1    C1 3452   3.490   3.139   9.458  0.6035  0.7224 -0.2334
  224MPD1    C2 3453   3.462   3.014   9.505  0.4001  0.0913  0.5084
  224MPD1    C3 3454   3.557   2.915   9.533 -0.3161 -0.0850 -0.3664
  224MPD1    C4 3455   3.691   2.951   9.520 -0.2066 -0.3876  0.0644
  224MPD1    C5 3456   3.726   3.083   9.478  0.1330 -0.2664  0.8439
  224MPD1     H 3457   3.358   2.984   9.503 -0.2404  2.3561  0.3826
  224MPD1    H1 3458   3.773   2.887   9.549  0.1106 -0.5139 -1.1225
  224MPD1    H2 3459   3.659   3.271   9.412  1.5319  0.7668  2.4121
  224MPD1    H3 3460   3.830   3.111   9.469 -0.3864  2.0167  2.1030
  224MPD1     N 3461   3.528   2.784   9.565 -0.1890 -0.3139  0.0465
  224MPD1    H5 3462   3.599   2.730   9.613 -0.2131 -1.6290 -1.3752
  224MPD1    N1 3463   3.388   3.234   9.449 -0.0469  0.0007 -0.3966
  224MPD1    H6 3464   3.306   3.184   9.415 -2.1552  3.2029 -0.0199
  224MPD1    H7 3465   3.411   3.317   9.395  1.9758  0.1517  0.7048
  225MPD1     C 3466   4.274   3.223  13.060 -0.3335  0.6875  0.2798
  225MPD1    C1 3467   4.193   3.126  13.121  0.0492 -0.5625 -0.2119
  225MPD1    C2 3468   4.057   3.127  13.098  0.1510  0.0350 -0.5861
  225MPD1    C3 3469   4.004   3.242  13.033  0.5595 -0.1228 -0.5137
  225MPD1    C4 3470   4.084   3.333  12.968  0.2634  0.4729  0.1138
  225MPD1    C5 3471   4.224   3.326  12.990  0.6762 -0.3394 -0.4743
  225MPD1     H 3472   3.992   3.050  13.138  0.5146 -0.8623 -1.6920
  225MPD1    H1 3473   4.046   3.421  12.918 -0.4539  0.0072 -0.1671
  225MPD1    H2 3474   4.381   3.218  13.080 -0.5443 -2.4891  0.5674
  225MPD1    H3 3475   4.295   3.393  12.941  1.1983 -1.0189 -0.6447
  225MPD1     N 3476   3.865   3.275  13.006 -0.4601  0.2277 -0.7297
  225MPD1    H5 3477   3.836   3.366  12.972 -1.6576  0.2622  0.3967
  225MPD1    N1 3478   4.258   3.027  13.194 -0.2396  0.5320 -0.1301
  225MPD1    H6 3479   4.336   2.983  13.145  0.4656 -1.6637  3.0514
  225MPD1    H7 3480   4.189   2.961  13.229  0.8051  0.6691  2.1450
  226MPD1     C 3481   2.557   4.149   8.798 -0.3184 -0.3293 -0.9923
  226MPD1    C1 3482   2.647   4.196   8.892 -0.7759  0.5079 -1.1476
  226MPD1    C2 3483   2.673   4.109   9.001 -0.3268 -0.2896 -0.2148
  226MPD1    C3 3484   2.605   3.989   9.021  0.0201 -0.3748 -0.0356
  226MPD1    C4 3485   2.506   3.958   8.930  0.9625  0.1085 -0.5440
  226MPD1    C5 3486   2.491   4.033   8.815 -0.8094 -0.1467 -0.3379
  226MPD1     H 3487   2.731   4.154   9.081  3.1378 -3.0516 -1.1715
  226MPD1    H1 3488   2.450   3.865   8.930  0.1349  0.6046 -3.5816
  226MPD1    H2 3489   2.534   4.207   8.709  0.9602  0.7906 -0.5837
  226MPD1    H3 3490   2.425   3.992   8.740 -1.1695 -1.5022  0.7264
  226MPD1     N 3491   2.639   3.904   9.137 -0.2245  0.0777  0.6250
  226MPD1    H5 3492   2.710   3.946   9.196 -0.8116 -0.5938  1.8186
  226MPD1    N1 3493   2.734   4.301   8.861  0.6172 -0.2253 -0.1838
  226MPD1    H6 3494   2.704   4.371   8.793  0.4767  0.8100  0.9420
  226MPD1    H7 3495   2.762   4.357   8.941 -2.9545 -0.5518  1.2689
  227MPD1     C 3496   2.831   3.993  10.103 -0.2405 -0.0062  0.0851
  227MPD1    C1 3497   2.939   3.930  10.049 -0.0447  0.3512  0.0783
  227MPD1    C2 3498   2.917   3.874   9.923  0.5374  0.1289 -0.2508
  227MPD1    C3 3499   2.804   3.904   9.852  0.2186  0.6608  0.2345
  227MPD1    C4 3500   2.697   3.974   9.909  0.6055  0.1062 -0.1366
  227MPD1    C5 3501   2.718   4.025  10.032  0.1583  0.8349  0.4085
  227MPD1     H 3502   2.991   3.812   9.874  0.8032 -0.5377  0.9667
  227MPD1    H1 3503   2.603   3.998   9.861  0.2857  0.8171  0.8427
  227MPD1    H2 3504   2.832   4.012  10.210  1.3839  2.3908 -0.3542
  227MPD1    H3 3505   2.637   4.073  10.087 -0.0129  1.0411 -0.0129
  227MPD1     N 3506   2.798   3.845   9.720 -0.3098  0.6012  0.8947
  227MPD1    H5 3507   2.874   3.787   9.685 -0.9503 -0.0488  0.5858
  227MPD1    N1 3508   3.052   3.896  10.124  0.2153  0.0394  0.4952
  227MPD1    H6 3509   3.065   3.972  10.191  2.2518 -0.5070  0.7201
  227MPD1    H7 3510   3.136   3.881  10.069  1.3829  1.2321  1.9550
  228MPD1     C 3511   1.449   0.811  13.215 -0.0918 -0.4992 -0.1132
  228MPD1    C1 3512   1.390   0.919  13.164  0.2973 -0.2833  0.0012
  228MPD1    C2 3513   1.252   0.910  13.155 -0.1401  0.0148  0.8838
  228MPD1    C3 3514   1.170   0.808  13.199 -0.3972  0.3265 -0.1113
  228MPD1    C4 3515   1.236   0.698  13.246 -0.1249  0.2277  0.2060
  228MPD1    C5 3516   1.377   0.694  13.252 -0.4551  0.0049 -0.3818
  228MPD1     H 3517   1.208   1.002  13.118 -1.0805 -0.5488  0.6199
  228MPD1    H1 3518   1.190   0.611  13.292 -1.4038  0.8288  0.0507
  228MPD1    H2 3519   1.557   0.815  13.209 -0.0877 -1.6410 -0.8384
  228MPD1    H3 3520   1.430   0.612  13.300 -0.6478  0.8082  1.1822
  228MPD1     N 3521   1.029   0.809  13.187 -0.0928  0.1764  0.8945
  228MPD1    H5 3522   0.988   0.895  13.152 -1.9072 -0.4280  1.5108
  228MPD1    N1 3523   1.454   1.044  13.154 -0.4251  0.2558  0.8530
  228MPD1    H6 3524   1.405   1.105  13.089 -1.3373  0.6063  1.8631
  228MPD1    H7 3525   1.544   1.028  13.110 -0.3625  0.1949  1.0043
  229MPD1     C 3526   0.199   0.219  14.546 -0.1215  0.4228  0.2089
  229MPD1    C1 3527   0.196   0.184  14.679  0.0564 -0.2289  0.6076
  229MPD1    C2 3528   0.293   0.101  14.732  0.0449 -0.1005  0.1550
  229MPD1    C3 3529   0.399   0.069  14.649  0.1353 -0.3830  0.0665
  229MPD1    C4 3530   0.404   0.118  14.523  0.3279 -0.2076 -0.0294
  229MPD1    C5 3531   0.310   0.206  14.475 -0.0368 -0.9571  0.6750
  229MPD1     H 3532   0.278   0.066  14.834 -0.0347  3.1033  1.2365
  229MPD1    H1 3533   0.490   0.099  14.459 -0.7510 -0.7365 -1.3410
  229MPD1    H2 3534   0.120   0.276  14.499  0.4263 -0.1941 -1.4712
  229MPD1    H3 3535   0.315   0.242  14.373  0.9549 -0.7216  0.8129
  229MPD1     N 3536   0.509   4.723  14.683 -0.4325 -0.4884 -0.4752
  229MPD1    H5 3537   0.584   4.712  14.616 -0.7082 -0.7123 -0.7498
  229MPD1    N1 3538   0.081   0.211  14.758 -0.7284  0.4663 -0.0965
  229MPD1    H6 3539   0.026   0.289  14.723 -3.5889 -1.0679  0.9700
  229MPD1    H7 3540   0.100   0.224  14.858  1.0319 -0.1144 -0.3487
  230MPD1     C 3541   0.757   4.262  15.600  0.0298 -0.2018  1.0659
  230MPD1    C1 3542   0.647   4.341  15.570  0.3092  0.5588  0.5182
  230MPD1    C2 3543   0.643   4.406  15.445  0.1029  0.0426 -0.2951
  230MPD1    C3 3544   0.743   4.388  15.352 -0.9176  0.0546 -0.4925
  230MPD1    C4 3545   0.848   4.308  15.387 -0.3294  0.5667  0.3896
  230MPD1    C5 3546   0.858   4.246  15.510  0.1722  0.1335 -0.1685
  230MPD1     H 3547   0.569   4.479  15.416 -1.3897 -1.8237 -1.1730
  230MPD1    H1 3548   0.940   4.292  15.332 -0.5878  4.0331 -1.0664
  230MPD1    H2 3549   0.768   4.219  15.699  0.9179 -1.3114  0.4897
  230MPD1    H3 3550   0.941   4.182  15.536 -0.4930  0.5087  2.8050
  230MPD1     N 3551   0.731   4.440  15.218  0.4512 -0.4329  0.1755
  230MPD1    H5 3552   0.650   4.498  15.202 -0.5697 -1.6660  0.9443
  230MPD1    N1 3553   0.551   4.367  15.663  0.1281 -0.0522  0.5132
  230MPD1    H6 3554   0.454   4.366  15.632  0.4619  0.5922 -0.5567
  230MPD1    H7 3555   0.553   4.303  15.742  0.0951  0.1709  0.6942
  231MPD1     C 3556   3.622   1.414  15.714  0.4335 -0.5071  0.1617
  231MPD1    C1 3557   3.569   1.415  15.588  0.5029 -0.3056  0.0705
  231MPD1    C2 3558   3.649   1.451  15.476 -0.0361 -0.6884 -0.1861
  231MPD1    C3 3559   3.785   1.468  15.490  0.7517 -0.0275  0.0779
  231MPD1    C4 3560   3.836   1.458  15.620 -0.1742 -0.0132 -0.1397
  231MPD1    C5 3561   3.758   1.441  15.729 -0.3787 -0.2096 -0.3872
  231MPD1     H 3562   3.608   1.460  15.376  2.0694  0.9252 -0.9164
  231MPD1    H1 3563   3.939   1.471  15.649 -0.4916  2.3685 -0.0957
  231MPD1    H2 3564   3.564   1.411  15.806 -0.9646  0.7933 -0.6794
  231MPD1    H3 3565   3.796   1.455  15.830  0.1893  0.4187 -0.6838
  231MPD1     N 3566   3.862   1.483  15.378 -0.4193  0.6741  0.0148
  231MPD1    H5 3567   3.806   1.457  15.297  1.0714  0.6698 -1.0031
  231MPD1    N1 3568   3.431   1.392  15.577 -0.6029  0.1368 -0.0263
  231MPD1    H6 3569   3.411   1.348  15.488  0.1421  0.6872 -0.4665
  231MPD1    H7 3570   3.373   1.353  15.651 -1.7419 -0.4144 -1.2140
  232MPD1     C 3571   0.827   4.346   0.579 -1.4315 -0.3796  0.9225
  232MPD1    C1 3572   0.728   4.417   0.503  0.1302  0.2223 -0.2753
  232MPD1    C2 3573   0.654   4.344   0.408 -0.3569 -0.9329 -0.0889
  232MPD1    C3 3574   0.694   4.213   0.371  0.6445  0.3346 -0.6156
  232MPD1    C4 3575   0.782   4.137   0.455 -0.4701  0.6730 -1.0459
  232MPD1    C5 3576   0.838   4.211   0.557  0.0942  0.0436 -0.2056
  232MPD1     H 3577   0.567   4.392   0.365  0.9135  1.4043 -0.0486
  232MPD1    H1 3578   0.810   4.036   0.428  3.2168  2.1954 -2.9326
  232MPD1    H2 3579   0.895   4.390   0.652 -0.6577 -0.2464  0.1142
  232MPD1    H3 3580   0.905   4.153   0.619 -0.3368  1.0021  1.1691
  232MPD1     N 3581   0.637   4.156   0.255  0.5887 -0.4926  0.2616
  232MPD1    H5 3582   0.571   4.213   0.203 -1.5987 -2.0291  1.3581
  232MPD1    N1 3583   0.672   4.537   0.554  0.1152  0.4150 -0.0076
  232MPD1    H6 3584   0.735   4.596   0.606  0.8485 -2.2386  2.0861
  232MPD1    H7 3585   0.636   4.591   0.475  1.6886  2.5270  0.7394
  233MPD1     C 3586   1.261   1.308   1.765 -0.9977 -0.0445 -0.6715
  233MPD1    C1 3587   1.331   1.279   1.647  0.1434  0.4402 -0.0628
  233MPD1    C2 3588   1.407   1.383   1.589 -0.4230 -0.6896 -0.5282
  233MPD1    C3 3589   1.390   1.508   1.644 -0.1505  0.4362  0.2527
  233MPD1    C4 3590   1.316   1.538   1.754  0.0031 -0.1568  0.2260
  233MPD1    C5 3591   1.258   1.437   1.817 -0.0917  0.2226 -0.1351
  233MPD1     H 3592   1.475   1.360   1.507  1.1136 -0.2080  0.6040
  233MPD1    H1 3593   1.303   1.634   1.803 -0.4763  0.4172 -1.0240
  233MPD1    H2 3594   1.197   1.233   1.810 -0.4698 -0.1528 -0.0968
  233MPD1    H3 3595   1.219   1.451   1.917 -2.2098  0.6444 -1.0206
  233MPD1     N 3596   1.451   1.624   1.585  0.4458  0.1132  0.6147
  233MPD1    H5 3597   1.426   1.710   1.632  1.4563  1.4960 -1.4151
  233MPD1    N1 3598   1.329   1.140   1.602  0.0022 -0.0731 -0.0224
  233MPD1    H6 3599   1.338   1.134   1.501 -2.8167  1.7240 -0.3715
  233MPD1    H7 3600   1.246   1.087   1.628 -1.4338  2.1741 -0.0114
  234MPD1     C 3601   0.215   2.350   9.432  0.3028 -0.0012  0.3089
  234MPD1    C1 3602   0.119   2.424   9.493 -0.6073  0.3487 -0.0321
  234MPD1    C2 3603   4.724   2.395   9.468 -0.7371  0.0077 -0.5676
  234MPD1    C3 3604   4.692   2.289   9.383  0.5177 -0.6470  0.3061
  234MPD1    C4 3605   0.054   2.213   9.334  0.4911 -0.4412  0.3368
  234MPD1    C5 3606   0.186   2.239   9.357  0.5865  0.5411 -0.0554
  234MPD1     H 3607   4.646   2.457   9.512 -1.7434 -2.6295  1.3710
  234MPD1    H1 3608   0.035   2.124   9.275  2.5414 -1.2355  0.8456
  234MPD1    H2 3609   0.319   2.379   9.433  0.9584 -2.3701 -0.0378
  234MPD1    H3 3610   0.273   2.194   9.310  0.3580  0.3831 -0.3205
  234MPD1     N 3611   4.554   2.263   9.362  0.4139 -0.0896  0.8387
  234MPD1    H5 3612   4.492   2.333   9.401  1.8854  0.9276  1.3558
  234MPD1    N1 3613   0.144   2.519   9.595 -0.5754  0.1024  0.0917
  234MPD1    H6 3614   0.236   2.560   9.602 -1.7874  2.4926  1.9183
  234MPD1    H7 3615   0.070   2.589   9.591 -0.1845  0.4503 -0.8968
  235MPD1     C 3616   4.659   2.932  10.128 -0.5121  0.0946 -0.0017
  235MPD1    C1 3617   4.652   3.038  10.038  0.5041 -0.4367 -0.3552
  235MPD1    C2 3618   4.662   3.163  10.087  0.1506  1.0294  0.4158
  235MPD1    C3 3619   4.721   3.182  10.212  0.0313  0.1073  0.0231
  235MPD1    C4 3620   0.014   3.070  10.292 -0.2602 -0.9191  0.5383
  235MPD1    C5 3621   4.700   2.950  10.256 -0.2535 -0.1854 -0.5261
  235MPD1     H 3622   4.628   3.245  10.024  1.7153  0.8199 -0.6982
  235MPD1    H1 3623   0.066   3.075  10.387  0.0599  3.1882  0.1333
  235MPD1    H2 3624   4.653   2.830  10.093  1.4929  0.2399 -0.8138
  235MPD1    H3 3625   0.000   2.866  10.314 -1.4999  0.5270  1.2793
  235MPD1     N 3626   0.014   3.314  10.246 -0.2697 -0.6210 -0.3360
  235MPD1    H5 3627   0.010   3.382  10.170 -0.6326 -0.3113 -0.0413
  235MPD1    N1 3628   4.613   3.015   9.904  0.1450  0.1063 -0.1463
  235MPD1    H6 3629   4.650   2.926   9.872  1.4739 -0.4471  3.0169
  235MPD1    H7 3630   4.655   3.081   9.839 -0.2788 -0.2160 -0.7518
  236MPD1     C 3631   3.343   4.728   9.598  0.4337 -0.1466 -0.2668
  236MPD1    C1 3632   3.355   4.612   9.666  0.6509  0.7410  0.0941
  236MPD1    C2 3633   3.478   4.556   9.678 -0.3427  0.7674  0.1148
  236MPD1    C3 3634   3.589   4.635   9.646  0.6958 -0.6739  0.2382
  236MPD1    C4 3635   3.574   0.033   9.597  0.0448 -0.2198 -0.4798
  236MPD1    C5 3636   3.449   0.071   9.567  0.8549  0.4939 -0.3785
  236MPD1     H 3637   3.484   4.455   9.715  0.5828  1.2069  1.1589
  236MPD1    H1 3638   3.653   0.104   9.579  1.9732 -1.7017  2.0814
  236MPD1    H2 3639   3.244   0.025   9.567  0.7964  1.0699 -0.1320
  236MPD1    H3 3640   3.424   0.170   9.531 -0.9429  0.9821  2.2938
  236MPD1     N 3641   3.716   4.593   9.686 -0.6151  0.3980 -0.0895
  236MPD1    H5 3642   3.794   4.653   9.661  0.7310 -1.0585  0.6088
  236MPD1    N1 3643   3.241   4.531   9.692 -0.0355  0.1687 -0.1512
  236MPD1    H6 3644   3.265   4.468   9.768 -1.9522 -0.9096 -0.4324
  236MPD1    H7 3645   3.154   4.578   9.716  1.1787  1.9152  0.7430
  237MPD1     C 3646   4.515   2.938  15.294 -0.3482  0.0560  0.3019
  237MPD1    C1 3647   4.416   3.024  15.259 -0.6388  0.1734 -0.2127
  237MPD1    C2 3648   4.289   2.971  15.226  0.8994  0.5831 -0.0797
  237MPD1    C3 3649   4.263   2.842  15.248 -0.5796  0.2601 -0.2306
  237MPD1    C4 3650   4.353   2.764  15.314 -0.3835  0.2931  0.6438
  237MPD1    C5 3651   4.479   2.808  15.332  0.3333 -0.0092  0.1902
  237MPD1     H 3652   4.218   3.044  15.190 -0.4711 -0.8255 -0.2335
  237MPD1    H1 3653   4.326   2.668  15.357 -3.2536  0.5772 -0.4731
  237MPD1    H2 3654   4.614   2.978  15.313 -0.5591  0.6330  0.1721
  237MPD1    H3 3655   4.547   2.742  15.384  0.7932  1.5013  1.5096
  237MPD1     N 3656   4.133   2.789  15.221 -0.6018  0.3794  0.5252
  237MPD1    H5 3657   4.116   2.696  15.259 -1.1172 -0.9870 -3.0426
  237MPD1    N1 3658   4.449   3.155  15.219  0.2688  0.0460 -0.0438
  237MPD1    H6 3659   4.366   3.214  15.212 -0.4633 -1.1640 -1.4937
  237MPD1    H7 3660   4.508   3.206  15.285  1.0372  0.1228 -0.7766
  238MPD1     C 3661   1.250   1.547  15.032  0.6248  0.3430 -0.1713
  238MPD1    C1 3662   1.147   1.544  15.122  0.0961  0.0606  0.3356
  238MPD1    C2 3663   1.029   1.482  15.097  0.1340  0.0352  0.2438
  238MPD1    C3 3664   1.016   1.404  14.982 -0.2901 -0.5775 -0.8329
  238MPD1    C4 3665   1.123   1.405  14.901 -0.4006 -0.1960 -0.1629
  238MPD1    C5 3666   1.234   1.483  14.917 -0.0130 -0.1998  0.8413
  238MPD1     H 3667   0.949   1.485  15.171 -1.7016  1.1596 -1.8138
  238MPD1    H1 3668   1.117   1.356  14.804 -0.5949 -0.9781  0.2410
  238MPD1    H2 3669   1.341   1.605  15.047  0.4922  0.4631  0.1671
  238MPD1    H3 3670   1.317   1.484  14.848 -0.3875 -2.5823  0.3651
  238MPD1     N 3671   0.895   1.337  14.945  0.4329  0.5114 -0.6674
  238MPD1    H5 3672   0.894   1.298  14.851 -1.3334 -1.2087  0.0764
  238MPD1    N1 3673   1.165   1.632  15.230  0.0735  0.4222 -0.2158
  238MPD1    H6 3674   1.116   1.607  15.316  0.6008  0.0703 -0.0180
  238MPD1    H7 3675   1.263   1.639  15.254  0.2877  1.7265 -1.4575
  239MPD1     C 3676   1.398   2.723  14.813  0.9065  0.1518  0.2444
  239MPD1    C1 3677   1.403   2.608  14.734  0.0132 -0.0973  0.3993
  239MPD1    C2 3678   1.310   2.588  14.637 -0.4998  0.5593  0.4074
  239MPD1    C3 3679   1.199   2.675  14.627  0.9276  0.0694  0.2786
  239MPD1    C4 3680   1.202   2.790  14.698  0.1111  0.5238 -0.1387
  239MPD1    C5 3681   1.307   2.817  14.792 -0.5329  1.0090  0.0284
  239MPD1     H 3682   1.314   2.502  14.572  0.0466  0.4722  0.5599
  239MPD1    H1 3683   1.122   2.863  14.689  0.1009  0.4118 -0.9537
  239MPD1    H2 3684   1.475   2.749  14.885 -1.6091 -0.5723  3.2102
  239MPD1    H3 3685   1.306   2.906  14.853 -0.1708  0.5833  0.6524
  239MPD1     N 3686   1.095   2.652  14.532 -0.6295  0.3920 -0.0021
  239MPD1    H5 3687   1.016   2.716  14.533 -0.1913  0.9690 -3.0924
  239MPD1    N1 3688   1.519   2.524  14.742  0.4047  0.2404 -0.6032
  239MPD1    H6 3689   1.559   2.524  14.836 -2.3886  0.2694  0.6002
  239MPD1    H7 3690   1.511   2.431  14.701 -1.7342 -0.2429  0.9078
  240MPD1     C 3691   0.707   1.723  15.055 -0.3622  0.4205 -0.0157
  240MPD1    C1 3692   0.633   1.740  14.939 -0.3062 -0.0674 -0.4352
  240MPD1    C2 3693   0.511   1.682  14.925  0.5223 -0.7577  0.0442
  240MPD1    C3 3694   0.467   1.592  15.021 -0.5709 -0.1777  0.2499
  240MPD1    C4 3695   0.545   1.572  15.134  0.5238  0.7324 -0.1130
  240MPD1    C5 3696   0.661   1.643  15.152  0.5571  0.3782  0.5541
  240MPD1     H 3697   0.444   1.691  14.840  0.4858 -1.7712 -0.0249
  240MPD1    H1 3698   0.519   1.511  15.219 -2.6081 -0.7023 -2.0924
  240MPD1    H2 3699   0.804   1.770  15.066 -0.2005  0.7006 -2.4981
  240MPD1    H3 3700   0.731   1.616  15.230 -0.1716  0.6997  1.3165
  240MPD1     N 3701   0.347   1.519  14.992 -0.1862  0.6350  0.2635
  240MPD1    H5 3702   0.306   1.543  14.903  1.4177 -3.5264 -1.5654
  240MPD1    N1 3703   0.680   1.815  14.830 -0.5104 -0.5142 -0.5359
  240MPD1    H6 3704   0.609   1.854  14.769 -2.6333 -0.0116  2.2473
  240MPD1    H7 3705   0.744   1.891  14.854 -2.2557  0.3244  1.5336
  241MPD1     C 3706   4.333   0.741  15.251  0.6912 -0.1710 -1.0071
  241MPD1    C1 3707   4.420   0.804  15.336  0.1693 -0.1868  0.0734
  241MPD1    C2 3708   4.494   0.911  15.284  0.1809  0.1537  0.1318
  241MPD1    C3 3709   4.504   0.933  15.146 -0.7057 -0.2366  0.3651
  241MPD1    C4 3710   4.432   0.856  15.063 -0.4029 -0.0347  0.2054
  241MPD1    C5 3711   4.347   0.761  15.113 -0.2282 -0.2730  0.4943
  241MPD1     H 3712   4.561   0.960  15.354  1.2702  0.1604 -0.9209
  241MPD1    H1 3713   4.434   0.869  14.956  1.2623 -0.1210  0.2353
  241MPD1    H2 3714   4.257   0.666  15.272 -0.5420  1.0257 -1.1675
  241MPD1    H3 3715   4.287   0.701  15.045  0.8080 -0.7389 -0.0138
  241MPD1     N 3716   4.582   1.034  15.085 -0.4250  0.7015 -0.0377
  241MPD1    H5 3717   4.586   1.034  14.983 -0.2914 -1.3035 -0.0283
  241MPD1    N1 3718   4.397   0.792  15.477  0.2289  0.7312  0.1349
  241MPD1    H6 3719   4.358   0.704  15.509 -0.0118  0.2271 -1.5781
  241MPD1    H7 3720   4.490   0.808  15.516 -0.0280  2.7402 -0.0526
  242MPD1     C 3721   4.625   4.409  16.184 -0.1820  0.4676 -0.6529
  242MPD1    C1 3722   4.565   4.373  16.068  0.0546 -0.2851  0.0783
  242MPD1    C2 3723   4.606   4.420  15.944  0.0336 -0.3709  0.5599
  242MPD1    C3 3724   4.712   4.514  15.937  0.4327 -0.4547  0.7798
  242MPD1    C4 3725   0.035   4.550  16.046 -0.7850 -0.0252  0.3003
  242MPD1    C5 3726   4.732   4.497  16.171  0.0499  0.0382 -0.3896
  242MPD1     H 3727   4.550   4.388  15.856  2.1292  2.1725 -1.7081
  242MPD1    H1 3728   0.113   4.625  16.045  0.1742 -1.0265 -0.8211
  242MPD1    H2 3729   4.603   4.366  16.281 -0.7897  0.1240 -0.9444
  242MPD1    H3 3730   0.046   4.534  16.259 -0.0688  2.4058 -1.3020
  242MPD1     N 3731   0.024   4.560  15.813  0.7217  0.0848 -0.4990
  242MPD1    H5 3732   0.106   4.620  15.816  0.3096  0.6068  0.4008
  242MPD1    N1 3733   4.489   4.260  16.075  0.0799 -0.5380 -0.5218
  242MPD1    H6 3734   4.420   4.272  16.149  0.3921 -0.2551 -0.2788
  242MPD1    H7 3735   4.432   4.244  15.991  0.1311 -1.0096 -0.4690
  243MPD1     C 3736   0.968   3.550  17.498 -0.4337 -0.5907 -0.0280
  243MPD1    C1 3737   1.070   3.493  17.564  0.4267  0.3815  0.0936
  243MPD1    C2 3738   1.186   3.460  17.495  0.3290 -0.2797  0.1078
  243MPD1    C3 3739   1.204   3.492  17.358  0.5261 -0.6175 -0.0833
  243MPD1    C4 3740   1.093   3.547  17.295 -0.4444  0.3353 -0.4263
  243MPD1    C5 3741   0.979   3.569  17.360 -0.2809  0.5638 -0.2522
  243MPD1     H 3742   1.263   3.407  17.549  0.3917  1.2690  1.5487
  243MPD1    H1 3743   1.093   3.571  17.189 -1.1857 -0.9630 -0.7220
  243MPD1    H2 3744   0.868   3.573  17.533 -0.1881  1.1632 -0.4765
  243MPD1    H3 3745   0.902   3.617  17.301  1.2343  1.5476 -1.4385
  243MPD1     N 3746   1.324   3.480  17.293  0.6797  0.6156 -0.6709
  243MPD1    H5 3747   1.402   3.447  17.348 -0.1156  1.9671  1.2367
  243MPD1    N1 3748   1.067   3.469  17.703 -0.2603 -0.8781 -1.0149
  243MPD1    H6 3749   1.120   3.389  17.735  2.1535  1.2328  0.2595
  243MPD1    H7 3750   0.968   3.463  17.728 -0.2717  0.3610 -0.7567
  244MPD1     C 3751   1.898   3.017  17.627  0.2415 -0.2155  0.5722
  244MPD1    C1 3752   1.891   3.143  17.670  0.0470  0.2501  0.7715
  244MPD1    C2 3753   1.840   3.228  17.571  0.2701  0.1216 -0.7726
  244MPD1    C3 3754   1.821   3.195  17.437 -0.6949  0.1702 -0.2859
  244MPD1    C4 3755   1.829   3.063  17.398 -0.7376 -0.3821 -0.1757
  244MPD1    C5 3756   1.879   2.982  17.498  0.0624 -0.5054 -0.5977
  244MPD1     H 3757   1.832   3.334  17.594 -1.5391 -0.3518  0.7601
  244MPD1    H1 3758   1.812   3.023  17.298 -0.1872  0.6395 -0.6816
  244MPD1    H2 3759   1.923   2.934  17.691  1.8959 -2.3291 -2.7762
  244MPD1    H3 3760   1.896   2.877  17.478  0.9913 -0.3844 -0.4382
  244MPD1     N 3761   1.770   3.295  17.351  0.4257  0.0627  0.1016
  244MPD1    H5 3762   1.755   3.389  17.387 -0.3065  0.5052 -1.3485
  244MPD1    N1 3763   1.898   3.168   0.065 -0.0229 -0.2206 -0.0706
  244MPD1    H6 3764   1.955   3.100   0.116  0.4832 -0.5841 -1.1235
  244MPD1    H7 3765   1.930   3.263   0.080 -0.7008 -0.4049  2.6311
  245MPD1     C 3766   3.513   3.900  13.096  0.4460  0.1847 -0.6467
  245MPD1    C1 3767   3.562   3.891  13.223 -0.2401 -0.1901 -0.2166
  245MPD1    C2 3768   3.564   4.005  13.297  0.0151  0.6421  0.2205
  245MPD1    C3 3769   3.502   4.121  13.257  0.2582  0.6006 -0.7216
  245MPD1    C4 3770   3.451   4.129  13.127 -0.1957 -0.6697  0.3344
  245MPD1    C5 3771   3.465   4.016  13.045  0.5633 -0.6633 -0.0547
  245MPD1     H 3772   3.620   4.002  13.389  0.9236 -1.7650 -0.4106
  245MPD1    H1 3773   3.406   4.219  13.086  1.1181 -0.8110 -1.3802
  245MPD1    H2 3774   3.524   3.816  13.028 -0.2316 -1.0920  0.8199
  245MPD1    H3 3775   3.435   4.015  12.941 -1.2907 -0.5225  0.4802
  245MPD1     N 3776   3.513   4.227  13.343  0.0629 -0.1245 -0.5761
  245MPD1    H5 3777   3.597   4.216  13.400 -0.0269 -0.0666 -0.4321
  245MPD1    N1 3778   3.628   3.776  13.267  0.2287 -0.6807  0.4406
  245MPD1    H6 3779   3.628   3.769  13.369  1.1494 -1.1186  0.4125
  245MPD1    H7 3780   3.584   3.696  13.223 -1.9451  1.8715 -1.9690
  246MPD1     C 3781   0.345   1.457  10.222  0.2139  0.2590 -0.0084
  246MPD1    C1 3782   0.280   1.439  10.106 -0.9774 -0.0761 -0.5068
  246MPD1    C2 3783   0.267   1.310  10.052 -0.0433 -0.4233 -0.0029
  246MPD1    C3 3784   0.318   1.199  10.130  0.1105  0.3810  0.0236
  246MPD1    C4 3785   0.368   1.223  10.257  0.3584 -0.0252 -0.2311
  246MPD1    C5 3786   0.377   1.353  10.300 -0.0369 -0.4527 -0.8195
  246MPD1     H 3787   0.218   1.284   9.959  0.2793  0.4847 -0.4246
  246MPD1    H1 3788   0.424   1.150  10.314  1.1384  0.3762 -0.4841
  246MPD1    H2 3789   0.371   1.554  10.263 -2.5559  1.1536 -0.3672
  246MPD1    H3 3790   0.431   1.370  10.393 -2.0671 -0.3693  0.3359
  246MPD1     N 3791   0.322   1.072  10.061 -0.4143  0.5443  0.5554
  246MPD1    H5 3792   0.270   1.073   9.973  1.5092 -0.6395 -0.5795
  246MPD1    N1 3793   0.236   1.549  10.029  0.1196  0.5135 -0.2540
  246MPD1    H6 3794   0.149   1.531   9.980 -0.5636  2.0281  0.4025
  246MPD1    H7 3795   0.244   1.636  10.081  2.6462  1.6537 -2.4964
  247MPD1     C 3796   3.190   4.481  17.134 -0.5168 -0.2636  0.2458
  247MPD1    C1 3797   3.242   4.489  17.005 -0.4964  0.3102  0.3150
  247MPD1    C2 3798   3.211   4.384  16.922 -0.1608  0.2090  0.3740
  247MPD1    C3 3799   3.155   4.264  16.972 -0.3841 -0.1299  0.6539
  247MPD1    C4 3800   3.110   4.257  17.102  0.2814 -0.1722 -0.5155
  247MPD1    C5 3801   3.142   4.366  17.186 -0.4477 -0.0652 -0.0078
  247MPD1     H 3802   3.256   4.396  16.824 -2.2418 -1.9711 -0.8536
  247MPD1    H1 3803   3.064   4.174  17.154  0.3326  1.0835  1.5357
  247MPD1    H2 3804   3.203   4.562  17.205 -0.9650  0.6192 -0.6667
  247MPD1    H3 3805   3.107   4.371  17.288 -0.2721 -0.8136  0.0914
  247MPD1     N 3806   3.164   4.142  16.898  0.4987  0.4586 -0.0188
  247MPD1    H5 3807   3.127   4.059  16.943  0.4568 -0.8046 -2.4258
  247MPD1    N1 3808   3.292   4.608  16.958 -0.1990 -0.9853  0.1956
  247MPD1    H6 3809   3.346   4.670  17.018 -0.0269 -1.0329  0.0905
  247MPD1    H7 3810   3.365   4.576  16.894 -0.9384  1.2509 -1.7281
  248MPD1     C 3811   3.790   2.974   0.221  0.0828 -0.5339  0.4631
  248MPD1    C1 3812   3.718   3.087   0.186  1.1430 -0.7826 -0.6540
  248MPD1    C2 3813   3.763   3.209   0.231  0.0676 -0.0483  0.2887
  248MPD1    C3 3814   3.886   3.224   0.293  0.0563 -0.7509 -0.1290
  248MPD1    C4 3815   3.953   3.111   0.326  0.2843 -0.6505 -0.0958
  248MPD1    C5 3816   3.900   2.988   0.302  0.2422  0.3051  0.0916
  248MPD1     H 3817   3.714   3.302   0.207 -0.7918 -0.6339 -0.1922
  248MPD1    H1 3818   4.050   3.117   0.374 -0.2101  0.4406  0.7481
  248MPD1    H2 3819   3.752   2.877   0.189  2.6473 -1.0390 -1.0072
  248MPD1    H3 3820   3.965   2.905   0.325  1.2642  0.5147 -2.0956
  248MPD1     N 3821   3.930   3.354   0.316 -0.3621 -0.0818 -0.4459
  248MPD1    H5 3822   3.867   3.428   0.286  0.3518  1.1614  1.1055
  248MPD1    N1 3823   3.592   3.076   0.119  0.3872  0.4506  0.6677
  248MPD1    H6 3824   3.581   3.145   0.045 -1.4434  0.8353  1.3005
  248MPD1    H7 3825   3.592   2.986   0.072  2.8471  1.5027 -1.3912
  249MPD1     C 3826   4.334   2.033  11.605  0.3273 -0.7664 -0.3726
  249MPD1    C1 3827   4.398   2.127  11.531  0.1271 -0.0597 -0.1897
  249MPD1    C2 3828   4.485   2.094  11.428  0.0029 -0.0961  0.2500
  249MPD1    C3 3829   4.513   1.965  11.405  0.3597 -0.3204  0.0072
  249MPD1    C4 3830   4.454   1.868  11.484 -0.1627  0.4136  0.1554
  249MPD1    C5 3831   4.371   1.903  11.584 -0.3650 -0.4738 -0.3624
  249MPD1     H 3832   4.542   2.174  11.381 -1.2297  0.3571 -0.4519
  249MPD1    H1 3833   4.464   1.760  11.473 -2.0491  0.4432 -1.8492
  249MPD1    H2 3834   4.262   2.056  11.682  2.1950 -1.3350  1.5152
  249MPD1    H3 3835   4.331   1.824  11.647  0.0454 -1.0930 -0.8879
  249MPD1     N 3836   4.602   1.932  11.303  0.2125  0.5463 -0.1743
  249MPD1    H5 3837   4.644   2.010  11.253 -1.1800  1.1227 -0.4353
  249MPD1    N1 3838   4.374   2.264  11.564 -0.1404  0.5288 -0.7794
  249MPD1    H6 3839   4.314   2.271  11.646 -0.0872 -1.3518 -0.5877
  249MPD1    H7 3840   4.334   2.326  11.493  0.2655  2.3137  0.5397
  250MPD2     C 3841   1.987   2.922  13.273  0.0248 -0.5295  0.1333
  250MPD2    C1 3842   1.921   3.018  13.196  0.6288  0.3382 -1.2014
  250MPD2    C2 3843   1.786   2.993  13.164  0.5121  0.3659  0.0626
  250MPD2    C3 3844   1.721   2.881  13.217  0.5669  0.1047 -0.2271
  250MPD2    C4 3845   1.789   2.796  13.302  0.2188 -0.3073 -0.6873
  250MPD2    C5 3846   1.924   2.814  13.323  0.4183  0.5147 -0.0557
  250MPD2     H 3847   1.736   3.059  13.095 -0.6161 -0.5849 -0.0345
  250MPD2    H1 3848   1.744   2.703  13.336  1.5802 -0.0922  1.6564
  250MPD2    H2 3849   2.087   2.943  13.308 -0.2402  2.4669 -0.9500
  250MPD2    H3 3850   1.981   2.739  13.377  2.0746  2.9683  1.6703
  250MPD2     N 3851   1.591   2.843  13.175 -0.0756 -0.1537  1.1548
  250MPD2    H5 3852   1.573   2.746  13.199  2.8060 -0.9052  0.2532
  250MPD2    N1 3853   1.991   3.136  13.154  0.1957  0.0355  0.5654
  250MPD2    H7 3854   2.091   3.136  13.173 -0.2513 -4.9047  2.7846
  251TMC3    C1 3855   2.032   3.367  13.095  0.2549 -0.0241  0.6039
  251TMC3    C2 3856   1.982   3.488  13.081 -0.3889  0.2972  0.3118
  251TMC3    C3 3857   2.064   3.588  13.040 -0.0028 -0.0462  0.3932
  251TMC3    C4 3858   2.158   3.332  13.055 -0.7791 -0.8406  0.5237
  251TMC3    C5 3859   2.243   3.434  13.016  0.2269 -0.4658  0.2139
  251TMC3    C6 3860   2.193   3.561  13.004  0.2988  0.3081 -0.2547
  251TMC3     C 3861   1.935   3.257  13.118  0.0459 -0.2275  0.2830
  251TMC3     O 3862   1.816   3.290  13.109  0.0881 -0.4877 -0.5792
  251TMC3     H 3863   1.877   3.500  13.105  0.2851 -0.1503  3.4344
  251TMC3    H1 3864   2.209   3.238  13.076 -2.0829 -2.1549 -2.1208
  251TMC3    H2 3865   2.262   3.640  12.974  0.7417  0.4787  1.1784
  251TMC3    C7 3866   2.377   3.414  13.050  0.2045  0.4444 -0.0712
  251TMC3    C8 3867   2.026   3.725  13.081  0.8119  0.1033 -0.6230
  251TMC3    O1 3868   2.422   3.300  13.045 -0.4121  0.5870  0.0036
  251TMC3    O2 3869   1.907   3.745  13.101  0.2313 -0.3910  0.1001
  252TMC3    C1 3870   2.289   4.198   9.034  0.2938  0.0062  0.0308
  252TMC3    C2 3871   2.380   4.267   9.120  0.4350  0.1481  0.7673
  252TMC3    C3 3872   2.421   4.210   9.236 -0.0039  0.3526 -0.5222
  252TMC3    C4 3873   2.247   4.071   9.070 -0.5464 -0.3355 -0.3179
  252TMC3    C5 3874   2.293   4.021   9.191 -0.2135  0.4994 -0.1889
  252TMC3    C6 3875   2.382   4.086   9.269 -0.4349  0.0357  0.2307
  252TMC3     C 3876   2.236   4.253   8.913 -0.5768 -0.6655  0.4119
  252TMC3     O 3877   2.150   4.186   8.853 -0.2489 -0.1993 -0.0081
  252TMC3     H 3878   2.424   4.359   9.082  1.3303  0.0259  1.5116
  252TMC3    H1 3879   2.181   4.012   9.008 -0.0211  0.3684 -1.5484
  252TMC3    H2 3880   2.435   4.037   9.350 -1.3523 -3.0917 -1.0661
  252TMC3    C7 3881   2.239   3.888   9.231  0.4095 -0.3489  0.2109
  252TMC3    C8 3882   2.532   4.281   9.295 -0.4600  0.1627 -0.0998
  252TMC3    O1 3883   2.177   3.822   9.148  0.1893 -0.4733  0.6752
  252TMC3    O2 3884   2.590   4.366   9.232 -0.0400  0.2938 -0.1937
  253MPD2     C 3885   3.502   2.943  15.119 -0.3189  0.0683 -0.3062
  253MPD2    C1 3886   3.360   2.936  15.118 -0.2247 -0.5280  0.3272
  253MPD2    C2 3887   3.287   2.924  15.233  0.3662 -0.2103  0.5702
  253MPD2    C3 3888   3.353   2.919  15.357  0.2523 -0.2358  0.2135
  253MPD2    C4 3889   3.492   2.924  15.358 -0.2945  0.8521 -0.3976
  253MPD2    C5 3890   3.569   2.939  15.245 -1.1758  0.1664 -0.3076
  253MPD2     H 3891   3.179   2.915  15.228  0.3518  0.1356  0.2349
  253MPD2    H1 3892   3.533   2.916  15.458  2.3701  3.3591 -1.3186
  253MPD2    H2 3893   3.561   2.949  15.028 -0.2716 -0.0219 -0.2811
  253MPD2    H3 3894   3.676   2.951  15.249 -1.1770  0.6275 -1.5898
  253MPD2     N 3895   3.286   2.888  15.482  0.3620  0.0233  0.1479
  253MPD2    H5 3896   3.349   2.871  15.560 -0.1892  0.7959  0.7623
  253MPD2    N1 3897   3.279   2.944  14.998  0.1018  0.0844 -0.4496
  253MPD2    H7 3898   3.181   2.923  15.013  0.3387 -2.0821 -1.9317
  254TMC3    C1 3899   3.111   2.834  15.628  0.8525  0.6000  0.8363
  254TMC3    C2 3900   2.981   2.863  15.671 -0.2788  0.3982  0.1919
  254TMC3    C3 3901   2.933   2.769  15.760 -0.1667  0.2355  0.4399
  254TMC3    C4 3902   3.193   2.734  15.675 -0.7837 -1.1109  0.7657
  254TMC3    C5 3903   3.145   2.654  15.775  0.2502  0.0541 -0.0857
  254TMC3    C6 3904   3.013   2.669  15.813 -0.9870 -0.7681  0.2171
  254TMC3     C 3905   3.151   2.895  15.500 -0.2926 -0.0876 -0.3244
  254TMC3     O 3906   3.066   2.954  15.441  0.0149  0.1244 -0.1771
  254TMC3     H 3907   2.911   2.930  15.623  1.0513  0.0679 -2.2221
  254TMC3    H1 3908   3.292   2.711  15.636 -0.5607 -0.7993  1.1497
  254TMC3    H2 3909   2.978   2.596  15.885  0.0420 -1.0303  0.4562
  254TMC3    C7 3910   3.229   2.613  15.885  0.0849 -0.2202 -0.1699
  254TMC3    C8 3911   2.825   2.801  15.855  0.0411 -0.7517  0.3894
  254TMC3    O1 3912   3.189   2.517  15.956  0.2801 -0.0000 -0.5438
  254TMC3    O2 3913   2.822   2.739  15.959  0.0139  0.0894 -0.1246
  255MPD2     C 3914   1.554   0.803   9.965  0.2079  0.1597 -0.3871
  255MPD2    C1 3915   1.670   0.779  10.036  0.2916  0.8730  0.1246
  255MPD2    C2 3916   1.744   0.663  10.011 -0.1603 -0.3285  0.8134
  255MPD2    C3 3917   1.695   0.568   9.929  0.6791  0.3034  0.7745
  255MPD2    C4 3918   1.584   0.595   9.854  0.5139 -0.3741 -0.1683
  255MPD2    C5 3919   1.516   0.710   9.868 -0.6504  0.7489  1.0112
  255MPD2     H 3920   1.843   0.656  10.054  0.8731  1.7061 -1.2446
  255MPD2    H1 3921   1.547   0.520   9.786 -1.8779  0.2680  0.4289
  255MPD2    H2 3922   1.493   0.892   9.973 -1.8053 -1.3226  0.7612
  255MPD2    H3 3923   1.423   0.721   9.814 -1.0826 -1.4240  1.3096
  255MPD2     N 3924   1.780   0.455   9.913 -0.3947 -0.5439 -0.3702
  255MPD2    H5 3925   1.861   0.436   9.972  0.5906  0.0382 -1.5186
  255MPD2    N1 3926   1.713   0.885  10.118 -0.3625  0.3108  0.2285
  255MPD2    H7 3927   1.653   0.967  10.121 -0.7100  0.1139 -1.7367
  256TMC3    C1 3928   1.892   1.039  10.191 -0.5215 -0.7042 -0.1752
  256TMC3    C2 3929   2.016   1.058  10.147  0.2841  0.2310  0.1131
  256TMC3    C3 3930   2.059   1.181  10.116  0.0701 -0.1522 -0.1069
  256TMC3    C4 3931   1.796   1.140  10.197  0.0703  0.0046 -0.0028
  256TMC3    C5 3932   1.837   1.260  10.143  0.5342  0.1196  0.0512
  256TMC3    C6 3933   1.967   1.284  10.117  0.0524  0.2123  0.3292
  256TMC3     C 3934   1.846   0.901  10.160 -0.1658  0.6366 -0.1284
  256TMC3     O 3935   1.935   0.817  10.158 -0.6135  0.2662  0.1889
  256TMC3     H 3936   2.095   0.984  10.140 -1.1971 -1.5486  2.0064
  256TMC3    H1 3937   1.705   1.124  10.254 -1.1605  0.2176 -1.9292
  256TMC3    H2 3938   1.989   1.382  10.077  2.1708  0.0680  1.1599
  256TMC3    C7 3939   1.757   1.298  10.029  0.6034  0.4048  0.2512
  256TMC3    C8 3940   2.163   1.190  10.015  0.8483  0.3635 -0.4040
  256TMC3    O1 3941   1.812   1.374   9.954  0.4452  0.2161 -0.8280
  256TMC3    O2 3942   2.192   1.083   9.960 -0.5303 -0.8179 -0.4689
  257MPD2     C 3943   0.368   3.025  13.449 -0.4822 -0.2662  0.0021
  257MPD2    C1 3944   0.436   2.967  13.343 -0.6897  0.1641  0.4184
  257MPD2    C2 3945   0.456   2.834  13.341  0.0747  0.8921  0.2464
  257MPD2    C3 3946   0.414   2.759  13.443  0.1983  0.3302 -0.2431
  257MPD2    C4 3947   0.333   2.807  13.533  0.5826  0.0167 -0.6308
  257MPD2    C5 3948   0.312   2.943  13.546 -0.7478 -0.5411 -0.1989
  257MPD2     H 3949   0.506   2.789  13.256 -2.1292 -0.2274 -0.4571
  257MPD2    H1 3950   0.280   2.747  13.606 -0.4779 -0.0282 -1.4461
  257MPD2    H2 3951   0.346   3.131  13.446  1.3754  0.0774 -1.2077
  257MPD2    H3 3952   0.250   2.991  13.622  0.1703  2.1156 -1.1348
  257MPD2     N 3953   0.471   2.633  13.441 -0.4764  0.8264 -0.8385
  257MPD2    H5 3954   0.534   2.604  13.367 -1.2897  0.2096 -1.2859
  257MPD2    N1 3955   0.497   3.045  13.239 -0.4202 -0.2035 -0.1293
  257MPD2    H7 3956   0.545   2.990  13.168 -0.8003 -0.2871 -0.3266
  258TMC3    C1 3957   0.502   2.407  13.509  0.3618 -0.4862 -0.3527
  258TMC3    C2 3958   0.569   2.373  13.391  0.3899  0.7070 -0.5468
  258TMC3    C3 3959   0.636   2.251  13.383 -0.1035 -0.5100 -0.5762
  258TMC3    C4 3960   0.499   2.320  13.612 -0.1059  0.1940 -0.2598
  258TMC3    C5 3961   0.559   2.200  13.598 -0.3065  0.2161  0.0726
  258TMC3    C6 3962   0.622   2.156  13.484  0.7003 -0.1109  0.0362
  258TMC3     C 3963   0.452   2.539  13.540  0.1179  0.3406  0.6482
  258TMC3     O 3964   0.386   2.556  13.641  0.2953  0.6076  0.0909
  258TMC3     H 3965   0.576   2.447  13.313 -1.0931 -1.8524 -3.0784
  258TMC3    H1 3966   0.449   2.347  13.705 -1.3605  1.6538 -1.3524
  258TMC3    H2 3967   0.639   2.051  13.470 -1.1075 -0.4354  0.2100
  258TMC3    C7 3968   0.551   2.112  13.714 -0.2042 -0.2882 -0.0382
  258TMC3    C8 3969   0.709   2.225  13.264  0.1452  0.8787  0.2483
  258TMC3    O1 3970   0.451   2.121  13.784 -0.2637 -0.0147 -0.0309
  258TMC3    O2 3971   0.718   2.321  13.190 -0.1881  0.8071 -0.6400
  259MPD2     C 3972   4.504   4.689   0.909 -0.1991  0.3621  0.1620
  259MPD2    C1 3973   4.543   4.563   0.887  0.3201 -0.3461  0.7235
  259MPD2    C2 3974   4.532   4.511   0.759 -0.3365  0.3233  0.3341
  259MPD2    C3 3975   4.490   4.587   0.652 -0.3727  0.2830 -0.1752
  259MPD2    C4 3976   4.459   4.722   0.675  0.4945 -0.0415 -0.0019
  259MPD2    C5 3977   4.470   0.042   0.804  0.4652 -0.0854 -0.1779
  259MPD2     H 3978   4.568   4.410   0.741  2.9177  2.1319 -3.2241
  259MPD2    H1 3979   4.428   0.052   0.595  0.4768  0.4347  0.3986
  259MPD2    H2 3980   4.515   4.726   1.011 -1.4527  0.1771  0.3560
  259MPD2    H3 3981   4.459   0.149   0.817  1.5323  0.1541 -1.2082
  259MPD2     N 3982   4.482   4.523   0.526 -0.1040 -0.5091 -1.0731
  259MPD2    H5 3983   4.531   4.434   0.516  1.3209  0.2321 -0.7195
  259MPD2    N1 3984   4.596   4.484   0.988  0.3391 -0.4447 -0.0464
  259MPD2    H7 3985   4.573   4.509   1.083  1.5542  0.5978 -0.0323
  260TMC3    C1 3986   4.445   4.484   0.294 -0.5501 -0.5553 -0.4261
  260TMC3    C2 3987   4.454   4.538   0.172  0.2539 -0.0376 -0.0215
  260TMC3    C3 3988   4.452   4.459   0.061 -0.5898  0.1055  0.0903
  260TMC3    C4 3989   4.431   4.345   0.311  0.3891 -0.0979 -0.4607
  260TMC3    C5 3990   4.428   4.268   0.194  0.4356  0.1304  0.5020
  260TMC3    C6 3991   4.435   4.325   0.075  0.0329  0.0649 -0.6133
  260TMC3     C 3992   4.435   4.572   0.405  0.1915  0.0144  0.0701
  260TMC3     O 3993   4.409   4.686   0.373 -0.6867 -0.0798  0.8966
  260TMC3     H 3994   4.474   4.644   0.164 -0.6645  0.2521  1.5626
  260TMC3    H1 3995   4.422   4.295   0.406  0.3662  3.3655  1.3720
  260TMC3    H2 3996   4.437   4.264  17.727  0.9014  1.8572 -1.8115
  260TMC3    C7 3997   4.450   4.126   0.199  0.2615 -0.2940 -0.0246
  260TMC3    C8 3998   4.547   4.506  17.706 -0.5915  0.2236  0.0872
  260TMC3    O1 3999   4.436   4.068   0.091  0.0221 -0.2179  0.3873
  260TMC3    O2 4000   4.565   4.628  17.707  0.0656  0.4010  0.3146
  261MPD2     C 4001   1.304   3.319  12.617 -0.4196  0.0494  0.2662
  261MPD2    C1 4002   1.331   3.188  12.586 -0.7391  0.1268  0.8278
  261MPD2    C2 4003   1.361   3.159  12.452  0.3181 -0.8912 -0.3921
  261MPD2    C3 4004   1.362   3.257  12.351  0.8414 -0.1305  0.9172
  261MPD2    C4 4005   1.331   3.384  12.393  0.6349  0.3920  0.2217
  261MPD2    C5 4006   1.289   3.413  12.524  0.0923 -0.1081 -0.4877
  261MPD2     H 4007   1.391   3.058  12.426  1.2732 -0.6191 -0.3429
  261MPD2    H1 4008   1.341   3.476  12.336  0.7633  0.0014 -0.3887
  261MPD2    H2 4009   1.291   3.344  12.721 -0.6574  3.4182 -0.5761
  261MPD2    H3 4010   1.280   3.515  12.560  2.4240  0.3048 -1.0553
  261MPD2     N 4011   1.415   3.229  12.226 -0.0079  0.9756  0.7262
  261MPD2    H5 4012   1.448   3.134  12.211  1.7107  1.5436  0.8695
  261MPD2    N1 4013   1.347   3.097  12.689  0.1585 -0.6068  0.4424
  261MPD2    H7 4014   1.326   3.130  12.782 -0.1500 -1.6137  0.7269
  262TMC3    C1 4015   1.472   3.259  12.011 -0.2994 -0.7978 -0.7942
  262TMC3    C2 4016   1.522   3.347  11.921  0.2955 -0.9363 -0.0116
  262TMC3    C3 4017   1.576   3.305  11.802 -0.3678  0.1353 -0.5510
  262TMC3    C4 4018   1.434   3.134  11.979  0.0806 -0.6378  0.5395
  262TMC3    C5 4019   1.498   3.089  11.864  0.0737 -0.3394 -0.6460
  262TMC3    C6 4020   1.562   3.173  11.771  0.7176  0.3455  0.0259
  262TMC3     C 4021   1.409   3.320  12.125  0.7726 -0.6523 -0.5242
  262TMC3     O 4022   1.388   3.442  12.125  0.1881 -0.2222  0.6346
  262TMC3     H 4023   1.546   3.448  11.953  0.1901 -1.1556  0.7597
  262TMC3    H1 4024   1.366   3.074  12.039  2.0683 -1.6379  1.8207
  262TMC3    H2 4025   1.584   3.128  11.675  1.4927  0.5156  0.1218
  262TMC3    C7 4026   1.489   2.954  11.830  0.0098 -0.3716 -0.2882
  262TMC3    C8 4027   1.623   3.401  11.701  0.3790 -0.5544  1.1855
  262TMC3    O1 4028   1.384   2.894  11.843 -0.4974 -0.1566  0.1317
  262TMC3    O2 4029   1.572   3.512  11.708 -0.2477 -0.4822  0.1443
  263MPD2     C 4030   2.153   1.745  11.335 -0.3506 -0.0771  0.6576
  263MPD2    C1 4031   2.204   1.850  11.411  0.1038  0.0424  0.1946
  263MPD2    C2 4032   2.300   1.930  11.357  0.1936  0.1017  1.1306
  263MPD2    C3 4033   2.349   1.910  11.227  0.1881  0.0380  0.7989
  263MPD2    C4 4034   2.289   1.813  11.145  1.1200  0.3065  0.3953
  263MPD2    C5 4035   2.191   1.735  11.203  0.3873 -0.2290  0.4064
  263MPD2     H 4036   2.359   2.008  11.403 -1.3412  2.7301 -1.3562
  263MPD2    H1 4037   2.312   1.779  11.045  1.7332  1.2825  0.1976
  263MPD2    H2 4038   2.065   1.687  11.363 -0.6629  0.4775  0.8239
  263MPD2    H3 4039   2.138   1.671  11.133  0.5320 -1.8053  1.7412
  263MPD2     N 4040   2.465   1.974  11.171 -0.2066  0.7611 -0.0367
  263MPD2    H5 4041   2.496   2.055  11.223 -1.0205  1.8281 -1.2120
  263MPD2    N1 4042   2.145   1.856  11.541  0.1264  0.3092  0.5360
  263MPD2    H7 4043   2.093   1.777  11.576 -4.2172  3.8374  2.1085
  264TMC3    C1 4044   2.612   2.070  11.014  0.6080 -0.1752  0.4328
  264TMC3    C2 4045   2.591   2.195  11.059 -0.5647  0.0265  0.0056
  264TMC3    C3 4046   2.681   2.288  11.027  0.5038 -0.8183  0.3050
  264TMC3    C4 4047   2.706   2.047  10.913 -0.1748 -0.6508  1.1213
  264TMC3    C5 4048   2.785   2.151  10.872 -0.4447 -0.2898 -0.1752
  264TMC3    C6 4049   2.775   2.271  10.933  0.4041 -0.1366  0.1416
  264TMC3     C 4050   2.520   1.959  11.047 -0.9129  0.0671  0.2650
  264TMC3     O 4051   2.515   1.868  10.970 -0.0473 -0.1831  0.6969
  264TMC3     H 4052   2.511   2.223  11.127  1.7910 -0.6488  3.1059
  264TMC3    H1 4053   2.719   1.953  10.860  1.6668 -0.0780  0.5906
  264TMC3    H2 4054   2.837   2.358  10.913 -1.0007  1.1145  1.2144
  264TMC3    C7 4055   2.900   2.124  10.788 -0.2791  0.1080 -0.5717
  264TMC3    C8 4056   2.685   2.421  11.094  0.2278 -0.2145  0.3882
  264TMC3    O1 4057   2.942   2.015  10.787  0.3202 -0.0659 -0.5765
  264TMC3    O2 4058   2.780   2.499  11.073  0.1944  0.7660 -0.0230
  265MPD2     C 4059   4.309   2.276  15.512 -0.5704  0.0065  0.2738
  265MPD2    C1 4060   4.400   2.384  15.496  0.2286  0.0724 -0.8355
  265MPD2    C2 4061   4.512   2.366  15.414  0.3175 -0.3482  0.4868
  265MPD2    C3 4062   4.537   2.241  15.356 -0.2423 -0.1845  0.0098
  265MPD2    C4 4063   4.458   2.131  15.390  0.5409  0.5968 -0.4657
  265MPD2    C5 4064   4.343   2.151  15.462  0.2115  0.2918  0.9628
  265MPD2     H 4065   4.565   2.458  15.396  1.2281 -0.5320  2.1873
  265MPD2    H1 4066   4.469   2.036  15.340 -0.8944 -0.5498  1.3909
  265MPD2    H2 4067   4.219   2.276  15.571 -1.4548 -0.5801 -1.0831
  265MPD2    H3 4068   4.268   2.073  15.456  0.9296 -0.2540 -0.9327
  265MPD2     N 4069   4.647   2.210  15.272 -0.2029 -0.5702 -0.4051
  265MPD2    H5 4070   4.665   2.111  15.258 -0.6319 -0.9465  1.6003
  265MPD2    N1 4071   4.384   2.511  15.554 -0.0510 -0.7248  0.2049
  265MPD2    H7 4072   4.460   2.578  15.550  0.9091 -1.8549 -0.5783
  266TMC3    C1 4073   4.274   2.689  15.645 -0.3526 -0.3359  0.4064
  266TMC3    C2 4074   4.365   2.723  15.746 -0.4260  0.2767  0.4390
  266TMC3    C3 4075   4.353   2.852  15.791 -0.6788  0.9283  0.2906
  266TMC3    C4 4076   4.174   2.769  15.606 -0.4084  0.4426 -0.0130
  266TMC3    C5 4077   4.172   2.892  15.653  0.4531  0.2769  0.0695
  266TMC3    C6 4078   4.259   2.940  15.749 -0.0003  0.3258 -0.2107
  266TMC3     C 4079   4.263   2.547  15.613 -0.8418 -0.2919 -0.4200
  266TMC3     O 4080   4.151   2.505  15.600 -0.2658  0.3205 -0.3362
  266TMC3     H 4081   4.438   2.651  15.781 -0.2898 -0.2492 -0.9294
  266TMC3    H1 4082   4.104   2.724  15.537  0.3426 -0.8343  0.0663
  266TMC3    H2 4083   4.246   3.040  15.789 -0.6182 -0.3977  1.3840
  266TMC3    C7 4084   4.099   2.980  15.567  0.6375 -0.5753  0.1489
  266TMC3    C8 4085   4.450   2.898  15.896  0.2676  0.8683 -0.0230
  266TMC3    O1 4086   3.989   2.945  15.530 -0.0677 -0.2269  0.8124
  266TMC3    O2 4087   4.536   2.815  15.918 -0.0306  0.5108 -0.7913
  267MPD2     C 4088   1.567   4.076   0.287  0.2043  0.4682 -0.1077
  267MPD2    C1 4089   1.656   4.177   0.251 -0.6654 -1.0114  0.5987
  267MPD2    C2 4090   1.626   4.247   0.135  0.8236 -1.5146 -0.2423
  267MPD2    C3 4091   1.520   4.215   0.050 -0.6555 -0.3554  0.3366
  267MPD2    C4 4092   1.439   4.106   0.081 -0.7917 -0.1600  0.3384
  267MPD2    C5 4093   1.467   4.035   0.199 -0.2521  0.0787  0.0074
  267MPD2     H 4094   1.694   4.327   0.107  2.5988 -2.1381  2.3767
  267MPD2    H1 4095   1.361   4.067   0.017 -3.0674  0.6691  2.6119
  267MPD2    H2 4096   1.587   4.020   0.378 -1.4627  0.7638  0.4392
  267MPD2    H3 4097   1.399   3.954   0.222 -3.0473  3.1848  2.7347
  267MPD2     N 4098   1.503   4.283  17.670 -0.2733  0.2801  0.4333
  267MPD2    H5 4099   1.440   4.234  17.606  1.4855  0.1298 -1.1860
  267MPD2    N1 4100   1.767   4.204   0.335  0.4180 -0.7263 -0.0492
  267MPD2    H7 4101   1.768   4.151   0.421 -1.0040  0.1563  0.5072
  268TMC3    C1 4102   1.977   4.291   0.411  0.9429  0.3004 -0.2035
  268TMC3    C2 4103   2.062   4.395   0.404 -0.1972  0.1781 -0.3562
  268TMC3    C3 4104   2.188   4.370   0.445 -0.2145  0.0805  0.7646
  268TMC3    C4 4105   2.017   4.171   0.461  0.0787 -0.3670  0.1474
  268TMC3    C5 4106   2.144   4.144   0.497  0.2483 -0.6025  0.9721
  268TMC3    C6 4107   2.232   4.247   0.493  0.0538 -1.1091  0.1826
  268TMC3     C 4108   1.870   4.290   0.310 -0.0935  0.1834  0.1076
  268TMC3     O 4109   1.881   4.363   0.213  0.2102 -0.3484 -0.4985
  268TMC3     H 4110   2.036   4.493   0.367 -0.3188 -0.1491 -1.1420
  268TMC3    H1 4111   1.949   4.086   0.462 -2.5396  1.6852 -1.2885
  268TMC3    H2 4112   2.335   4.227   0.518  0.4690 -1.6424 -1.9497
  268TMC3    C7 4113   2.176   4.042   0.594 -0.4424 -0.0894  0.1913
  268TMC3    C8 4114   2.281   4.434   0.355  0.0305 -0.5703 -0.6594
  268TMC3    O1 4115   2.289   4.019   0.626  0.0647 -0.3686 -0.0743
  268TMC3    O2 4116   2.395   4.432   0.383 -0.1380 -0.3852 -0.2373
  269MPD2     C 4117   2.428   3.545  15.188 -0.6943  0.4337  0.1121
  269MPD2    C1 4118   2.344   3.488  15.277 -0.3610 -0.1116  0.6197
  269MPD2    C2 4119   2.289   3.555  15.383  0.0141 -0.1338  0.1316
  269MPD2    C3 4120   2.306   3.689  15.395 -0.4121 -0.2813 -0.4408
  269MPD2    C4 4121   2.380   3.760  15.304  0.2870 -0.9956  0.0610
  269MPD2    C5 4122   2.449   3.681  15.206  0.6111 -1.0328 -0.0474
  269MPD2     H 4123   2.229   3.502  15.456 -2.4509  0.7988 -1.2191
  269MPD2    H1 4124   2.387   3.868  15.301  1.4526 -1.0949 -0.8235
  269MPD2    H2 4125   2.481   3.504  15.103  0.6906  0.0932  1.1506
  269MPD2    H3 4126   2.515   3.727  15.133 -0.7815 -0.9741 -1.2523
  269MPD2     N 4127   2.256   3.738  15.517 -0.0404 -0.0450  0.3637
  269MPD2    H5 4128   2.204   3.670  15.572  4.1472 -2.6115  1.1747
  269MPD2    N1 4129   2.332   3.348  15.271 -0.0742  0.4328  0.1787
  269MPD2    H7 4130   2.403   3.305  15.212 -0.2648 -1.2149  1.1559
  270TMC3    C1 4131   2.252   3.134  15.331 -0.6446  0.5185 -0.1885
  270TMC3    C2 4132   2.134   3.056  15.338 -1.0608 -0.4625 -0.6030
  270TMC3    C3 4133   2.157   2.919  15.340 -0.0741 -0.3847  0.1553
  270TMC3    C4 4134   2.378   3.075  15.333  0.0293  0.0939  0.5031
  270TMC3    C5 4135   2.389   2.933  15.336 -0.5102  0.7130  0.0265
  270TMC3    C6 4136   2.281   2.860  15.343  0.1594  0.3472 -0.2709
  270TMC3     C 4137   2.223   3.277  15.311 -0.7520 -0.1056  0.2276
  270TMC3     O 4138   2.111   3.321  15.345  0.0816 -0.0285  0.2701
  270TMC3     H 4139   2.034   3.097  15.346 -0.3298  0.9935  1.0763
  270TMC3    H1 4140   2.466   3.138  15.332 -0.1974  0.4053  0.3142
  270TMC3    H2 4141   2.287   2.752  15.343 -0.7107  0.3111  1.7008
  270TMC3    C7 4142   2.502   2.881  15.265 -0.6991 -0.4847  0.5955
  270TMC3    C8 4143   2.081   2.846  15.240  0.3969 -0.3613  0.1244
  270TMC3    O1 4144   2.579   2.961  15.209 -0.0696  0.3930 -0.5479
  270TMC3    O2 4145   2.134   2.749  15.185 -0.0371  0.5795 -0.9150
  271MPD2     C 4146   1.234   2.738  13.836 -0.1703 -0.3497 -0.1964
  271MPD2    C1 4147   1.278   2.836  13.922 -0.5853 -0.5847  0.1985
  271MPD2    C2 4148   1.211   2.957  13.925  0.1245 -0.4587 -0.2057
  271MPD2    C3 4149   1.102   2.986  13.849 -0.4692 -0.2439 -0.7524
  271MPD2    C4 4150   1.062   2.891  13.755 -0.1688  0.2274 -0.8536
  271MPD2    C5 4151   1.122   2.770  13.755  0.3169 -0.0276  0.2689
  271MPD2     H 4152   1.248   3.020  14.005 -1.0002 -2.6214  1.9962
  271MPD2    H1 4153   0.996   2.935  13.681 -1.1178 -0.2826 -0.3067
  271MPD2    H2 4154   1.268   2.636  13.840  0.7745 -0.0447 -0.4961
  271MPD2    H3 4155   1.084   2.685  13.699 -3.4604 -1.1432  4.5342
  271MPD2     N 4156   1.037   3.107  13.855  0.7400 -0.5285 -0.6972
  271MPD2    H5 4157   0.964   3.125  13.787 -0.5851  0.2831  0.9499
  271MPD2    N1 4158   1.383   2.807  14.022 -0.2556 -0.6833 -0.1433
  271MPD2    H7 4159   1.409   2.875  14.092 -1.0322 -0.7369  0.2022
  272TMC3    C1 4160   1.545   2.692  14.141  0.1822 -0.8148  0.7163
  272TMC3    C2 4161   1.655   2.610  14.121  0.0033 -0.5242 -0.1825
  272TMC3    C3 4162   1.746   2.622  14.231 -0.1047  0.3472  0.4198
  272TMC3    C4 4163   1.525   2.778  14.251  0.0529 -0.5491  0.5023
  272TMC3    C5 4164   1.618   2.784  14.346  0.1787 -0.3524  0.0711
  272TMC3    C6 4165   1.729   2.702  14.340 -0.3552  0.0304 -0.6575
  272TMC3     C 4166   1.448   2.686  14.028 -0.1767  0.4792  0.3673
  272TMC3     O 4167   1.447   2.586  13.962  0.2668 -0.4261  0.2264
  272TMC3     H 4168   1.675   2.557  14.028  1.5205 -2.7035  1.3792
  272TMC3    H1 4169   1.429   2.830  14.256  0.5616  0.2800  1.6617
  272TMC3    H2 4170   1.814   2.712  14.407 -2.3615  1.1671  1.7218
  272TMC3    C7 4171   1.602   2.865  14.464 -0.4650 -0.1657  0.5624
  272TMC3    C8 4172   1.870   2.558  14.213 -0.5293  0.4331 -0.1933
  272TMC3    O1 4173   1.684   2.842  14.551  0.4486 -0.4890 -0.3918
  272TMC3    O2 4174   1.921   2.537  14.103 -0.2739  0.1311  0.0002
  273MPD2     C 4175   2.774   0.422  11.848  0.2946 -0.2492 -0.1705
  273MPD2    C1 4176   2.841   0.530  11.803  0.0204  0.0749  0.8481
  273MPD2    C2 4177   2.776   0.627  11.737  0.1068  0.3794 -0.4314
  273MPD2    C3 4178   2.642   0.624  11.728  0.4243  0.0270 -0.0214
  273MPD2    C4 4179   2.575   0.515  11.773 -0.2326 -0.1843  0.5098
  273MPD2    C5 4180   2.637   0.412  11.829  0.0650  0.7293  0.6219
  273MPD2     H 4181   2.830   0.707  11.687 -0.4810  0.9486 -0.1464
  273MPD2    H1 4182   2.468   0.523  11.758 -0.6045  0.3287  3.3423
  273MPD2    H2 4183   2.826   0.343  11.902  0.2689 -2.1084 -2.8780
  273MPD2    H3 4184   2.580   0.327  11.865  2.5414 -0.4716  1.6490
  273MPD2     N 4185   2.559   0.715  11.667 -0.0931 -0.0212 -0.1171
  273MPD2    H5 4186   2.461   0.689  11.662 -0.3715  0.8154  1.1574
  273MPD2    N1 4187   2.981   0.537  11.837 -0.1228 -0.3537 -0.0895
  273MPD2    H7 4188   3.015   0.456  11.887 -0.8549 -0.1115  0.7895
  274TMC3    C1 4189   2.493   0.884  11.514 -0.0251 -0.3621 -0.2695
  274TMC3    C2 4190   2.508   0.912  11.381  1.0095 -0.1958  0.7653
  274TMC3    C3 4191   2.420   1.005  11.325  0.6145  0.1922 -0.8223
  274TMC3    C4 4192   2.423   0.971  11.601 -1.1209 -0.1077  0.0337
  274TMC3    C5 4193   2.341   1.063  11.542 -0.4598  0.6264  0.8312
  274TMC3    C6 4194   2.329   1.062  11.409 -0.2833  0.3954 -0.7352
  274TMC3     C 4195   2.602   0.809  11.575  0.5404  0.7512 -0.4419
  274TMC3     O 4196   2.709   0.813  11.516  0.0627 -0.3388  0.1285
  274TMC3     H 4197   2.573   0.855  11.315 -1.0524 -1.2603 -0.3314
  274TMC3    H1 4198   2.432   0.950  11.707  1.7410  2.7952  0.3745
  274TMC3    H2 4199   2.266   1.144  11.376  0.2919  0.4855 -1.5976
  274TMC3    C7 4200   2.262   1.158  11.622  0.3385  0.7190  0.5051
  274TMC3    C8 4201   2.377   0.992  11.184  0.1671 -0.5019  0.4756
  274TMC3    O1 4202   2.214   1.260  11.571  0.3197  0.2630 -0.1138
  274TMC3    O2 4203   2.256   1.009  11.174  0.0861 -0.5327 -0.4519
  275MPD2     C 4204   3.477   3.526  14.295  0.4357 -0.8623 -0.9247
  275MPD2    C1 4205   3.416   3.652  14.278  0.1977 -0.5168  0.5865
  275MPD2    C2 4206   3.284   3.663  14.249  0.4648 -0.0049 -0.2256
  275MPD2    C3 4207   3.204   3.552  14.243  0.1368 -0.0382  0.2471
  275MPD2    C4 4208   3.265   3.422  14.265 -0.2541 -0.4122 -0.1772
  275MPD2    C5 4209   3.396   3.417  14.294 -0.4996 -0.1530 -0.4226
  275MPD2     H 4210   3.240   3.761  14.246  1.0003  0.1607 -2.5790
  275MPD2    H1 4211   3.210   3.328  14.273  0.8429 -0.9217  1.5801
  275MPD2    H2 4212   3.582   3.513  14.320  0.0481 -1.2874  0.4826
  275MPD2    H3 4213   3.439   3.322  14.323  0.4763  0.4091 -0.0280
  275MPD2     N 4214   3.063   3.550  14.230 -0.1712 -0.1921 -0.4872
  275MPD2    H5 4215   3.002   3.470  14.237 -0.3133 -0.1591 -1.3865
  275MPD2    N1 4216   3.482   3.769  14.314  0.5550 -0.0623 -0.0218
  275MPD2    H7 4217   3.436   3.859  14.306 -1.1629 -1.0417 -1.0745
  276TMC3    C1 4218   3.573   3.902  14.479 -0.3459 -0.0564  0.0810
  276TMC3    C2 4219   3.450   3.959  14.465 -0.9887  0.1379  1.1038
  276TMC3    C3 4220   3.389   4.014  14.571  0.2303 -0.0753  0.3301
  276TMC3    C4 4221   3.633   3.902  14.599 -0.5406 -0.5617 -0.4820
  276TMC3    C5 4222   3.568   3.955  14.708 -0.4167 -0.0635 -0.2116
  276TMC3    C6 4223   3.451   4.022  14.694  0.0021 -0.0204 -0.9651
  276TMC3     C 4224   3.584   3.779  14.403  0.4052 -0.6010 -0.1756
  276TMC3     O 4225   3.675   3.699  14.426 -0.0266  0.3734  0.6196
  276TMC3     H 4226   3.398   3.989  14.375  1.9799  2.4363  0.1412
  276TMC3    H1 4227   3.722   3.842  14.615 -0.6955 -0.7681 -0.3856
  276TMC3    H2 4228   3.400   4.082  14.769  2.6078 -0.6396  1.2911
  276TMC3    C7 4229   3.611   3.924  14.854 -0.2962  0.1476 -0.3419
  276TMC3    C8 4230   3.250   3.989  14.585  0.3738  0.1050 -0.3303
  276TMC3    O1 4231   3.558   3.997  14.935  0.2137  0.2610  0.0967
  276TMC3    O2 4232   3.178   4.066  14.651 -0.5264 -0.6378  0.2948
  277MPD2     C 4233   0.142   2.556  13.347  0.4368  0.2578  0.4893
  277MPD2    C1 4234   0.040   2.636  13.390 -1.1374 -0.5395 -0.1130
  277MPD2    C2 4235   4.677   2.576  13.462 -0.2106  0.1521  0.2828
  277MPD2    C3 4236   4.674   2.439  13.478 -0.5063 -0.1680 -0.3126
  277MPD2    C4 4237   0.043   2.363  13.435  0.2003 -0.5333  0.0339
  277MPD2    C5 4238   0.146   2.424  13.375 -0.0001  0.1824  0.8874
  277MPD2     H 4239   4.587   2.622  13.502 -0.1894  0.0777  0.4146
  277MPD2    H1 4240   0.053   2.257  13.455  0.1288 -0.0160  2.7828
  277MPD2    H2 4241   0.222   2.601  13.289 -1.3629  1.2154 -1.2503
  277MPD2    H3 4242   0.236   2.372  13.343 -1.0424 -1.4834  0.6500
  277MPD2     N 4243   4.560   2.381  13.543  0.3542  0.5679 -0.1771
  277MPD2    H5 4244   4.485   2.444  13.569 -0.9792 -1.3806  0.6328
  277MPD2    N1 4245   0.055   2.772  13.361 -0.1326 -0.0975  0.0248
  277MPD2    H7 4246   0.130   2.804  13.300  0.7048 -1.1314  0.5187
  278TMC3    C1 4247   4.433   2.209  13.648  0.0403  0.3487 -0.6816
  278TMC3    C2 4248   4.399   2.075  13.646  0.0302 -0.7210 -0.2100
  278TMC3    C3 4249   4.275   2.044  13.694 -0.2383 -0.0056  0.0502
  278TMC3    C4 4250   4.347   2.303  13.696  0.1887  0.2259  0.2672
  278TMC3    C5 4251   4.236   2.266  13.758  0.1598  0.2785  0.4851
  278TMC3    C6 4252   4.198   2.134  13.763  0.3576 -1.1634  0.1761
  278TMC3     C 4253   4.553   2.249  13.572 -0.2052  0.3884  0.3231
  278TMC3     O 4254   4.605   2.156  13.514 -0.5566 -0.1497  0.0030
  278TMC3     H 4255   4.466   2.009  13.593 -1.7632 -0.4280 -2.8448
  278TMC3    H1 4256   4.376   2.406  13.710  1.2001  0.0411 -0.4652
  278TMC3    H2 4257   4.106   2.089  13.800  0.3730 -1.3523 -0.0155
  278TMC3    C7 4258   4.136   2.370  13.783 -0.8640  0.2786  0.2343
  278TMC3    C8 4259   4.217   1.917  13.652 -0.6791 -0.5350  0.2066
  278TMC3    O1 4260   4.178   2.472  13.837 -0.1768  0.2962 -0.2541
  278TMC3    O2 4261   4.128   1.870  13.723 -0.1492 -0.2703  0.2000
  279MPD2     C 4262   4.237   2.695   0.321  0.4632 -0.0911  0.4095
  279MPD2    C1 4263   4.115   2.679   0.263  0.2158  0.0189  0.4554
  279MPD2    C2 4264   4.090   2.670   0.128 -0.8184 -0.7400  0.5877
  279MPD2    C3 4265   4.197   2.677   0.042 -0.1576 -0.1415 -0.0995
  279MPD2    C4 4266   4.323   2.705   0.091  0.0611  0.3221  0.3399
  279MPD2    C5 4267   4.341   2.708   0.233  0.0597  0.0058 -0.3292
  279MPD2     H 4268   3.988   2.650   0.096  0.4042 -0.2617 -3.5292
  279MPD2    H1 4269   4.411   2.730   0.034 -0.0564  1.4951  0.6775
  279MPD2    H2 4270   4.254   2.704   0.427 -1.3080 -1.6827  0.8166
  279MPD2    H3 4271   4.441   2.729   0.268 -0.7819  0.3039  1.9010
  279MPD2     N 4272   4.176   2.693  17.638 -0.2915 -0.5604  0.1909
  279MPD2    H5 4273   4.253   2.724  17.581  1.4873 -1.8526  1.9004
  279MPD2    N1 4274   4.013   2.666   0.360  0.5098  0.7643  0.2179
  279MPD2    H7 4275   4.041   2.687   0.455 -1.7941 -0.3067  1.1239
  280TMC3    C1 4276   3.797   2.635   0.459  0.1503 -0.1037  0.0157
  280TMC3    C2 4277   3.679   2.573   0.446 -0.5493 -0.2441  0.3725
  280TMC3    C3 4278   3.572   2.621   0.518  0.0190 -0.3656  0.2620
  280TMC3    C4 4279   3.814   2.749   0.530 -0.4542 -1.2236 -0.8798
  280TMC3    C5 4280   3.705   2.795   0.595 -0.0116  0.2869  0.4273
  280TMC3    C6 4281   3.588   2.739   0.593 -0.4505  0.3936  0.7236
  280TMC3     C 4282   3.885   2.620   0.337 -0.5535  0.3310  0.3297
  280TMC3     O 4283   3.842   2.558   0.239 -0.1846  0.0428 -0.5706
  280TMC3     H 4284   3.671   2.476   0.399 -1.7872 -0.1514  0.3927
  280TMC3    H1 4285   3.898   2.817   0.533 -1.2286 -0.3157  0.5609
  280TMC3    H2 4286   3.506   2.781   0.651 -0.5121  0.4861  0.5714
  280TMC3    C7 4287   3.714   2.940   0.628 -0.3718  0.2919  0.8710
  280TMC3    C8 4288   3.434   2.566   0.506  0.0457 -0.2883 -0.1158
  280TMC3    O1 4289   3.818   2.986   0.669 -0.9393 -0.0851  0.6563
  280TMC3    O2 4290   3.357   2.567   0.599  0.4436  0.4831  0.2703
  281TMC3    C1 4291   2.291   3.003  13.663 -0.2051 -0.0657  0.3136
  281TMC3    C2 4292   2.360   3.118  13.625  0.2079  0.0063 -0.8929
  281TMC3    C3 4293   2.490   3.110  13.619  0.4526  0.6431  0.0614
  281TMC3    C4 4294   2.348   2.881  13.670  0.3856 -0.0257  0.1253
  281TMC3    C5 4295   2.487   2.886  13.660  0.2396 -0.5543 -0.7496
  281TMC3    C6 4296   2.562   2.998  13.637 -0.1953 -0.8331 -0.1641
  281TMC3     C 4297   2.145   3.004  13.623 -0.2510 -0.7021 -0.5150
  281TMC3     O 4298   2.109   2.899  13.571  0.4872 -0.7249 -0.3258
  281TMC3     H 4299   2.312   3.213  13.605 -0.2812  0.1786  1.1799
  281TMC3    H1 4300   2.301   2.795  13.717  0.8139 -0.2828  0.0807
  281TMC3    H2 4301   2.670   2.991  13.638 -0.2160 -0.7021  2.6817
  281TMC3    C7 4302   2.561   2.758  13.668 -0.1451  1.1369 -0.2496
  281TMC3    C8 4303   2.521   3.183  13.493  1.0587  0.2052 -0.6930
  281TMC3    O1 4304   2.678   2.764  13.693  0.0988 -0.1537 -0.3204
  281TMC3    O2 4305   2.501   3.125  13.386  0.9897 -0.5005 -0.2715
  282MPD2     C 4306   4.404   4.241  14.926 -0.6182 -0.2643 -0.6784
  282MPD2    C1 4307   4.282   4.294  14.968  0.6793  0.0621 -0.0686
  282MPD2    C2 4308   4.207   4.371  14.885  0.4057  0.0470  0.4534
  282MPD2    C3 4309   4.243   4.390  14.753  0.2874 -0.6336 -0.6037
  282MPD2    C4 4310   4.377   4.354  14.712 -0.4382 -0.3902  0.8059
  282MPD2    C5 4311   4.454   4.280  14.806 -0.1378  0.4228 -0.6846
  282MPD2     H 4312   4.113   4.396  14.932  1.7919  1.5865  2.3838
  282MPD2    H1 4313   4.414   4.360  14.611  0.1513 -2.8496  0.8882
  282MPD2    H2 4314   4.466   4.181  14.992  1.4322  2.6617  0.0404
  282MPD2    H3 4315   4.548   4.237  14.773  0.6585 -0.1162  2.2478
  282MPD2     N 4316   4.150   4.450  14.663  0.8401 -0.6527 -0.0510
  282MPD2    H5 4317   4.075   4.499  14.710 -0.2950 -3.1675  0.7706
  282MPD2    N1 4318   4.233   4.273  15.100  0.1453  0.1378 -0.3569
  282MPD2    H7 4319   4.157   4.333  15.130  1.3740  0.6338  1.7792
  283TMC3    C1 4320   4.219   4.188  15.333  0.1562  0.1977 -0.3786
  283TMC3    C2 4321   4.171   4.310  15.377  0.3451  0.8530 -0.0167
  283TMC3    C3 4322   4.110   4.317  15.497 -0.3921  0.3261 -0.1371
  283TMC3    C4 4323   4.208   4.070  15.409 -0.0673  0.1002  0.4473
  283TMC3    C5 4324   4.136   4.085  15.526 -0.1168 -0.7112  0.5004
  283TMC3    C6 4325   4.092   4.203  15.566  0.2434  1.2358 -0.2411
  283TMC3     C 4326   4.278   4.181  15.197  0.1886  0.0552  0.2824
  283TMC3     O 4327   4.361   4.095  15.180  0.0146 -0.4016 -0.1300
  283TMC3     H 4328   4.189   4.400  15.319  0.4100 -0.5864 -2.2278
  283TMC3    H1 4329   4.259   3.982  15.372  0.3860  1.5082 -2.2812
  283TMC3    H2 4330   4.042   4.216  15.661 -1.4892  0.4257 -1.0380
  283TMC3    C7 4331   4.128   3.973  15.617  0.5551 -0.0241 -0.2108
  283TMC3    C8 4332   4.171   4.405  15.594 -0.8286 -0.2827 -0.3192
  283TMC3    O1 4333   4.121   4.003  15.736 -0.0608  0.0693 -0.0814
  283TMC3    O2 4334   4.226   4.349  15.689 -0.6296  0.1972 -0.1703
  284MPD2     C 4335   2.524   3.783  12.113 -0.1350  0.0508  0.2976
  284MPD2    C1 4336   2.638   3.801  12.033 -0.4871  0.3759 -0.1009
  284MPD2    C2 4337   2.762   3.767  12.082 -0.5464 -0.9425 -0.4129
  284MPD2    C3 4338   2.780   3.727  12.212  0.1422 -0.4342 -0.1023
  284MPD2    C4 4339   2.664   3.699  12.289 -0.8841 -0.2866 -0.6616
  284MPD2    C5 4340   2.539   3.730  12.237  0.5233  0.2717  0.0228
  284MPD2     H 4341   2.846   3.778  12.015  0.6572  2.5655  1.6715
  284MPD2    H1 4342   2.670   3.652  12.386 -1.5098  1.3534  0.1545
  284MPD2    H2 4343   2.421   3.801  12.083 -0.5910 -2.1262  0.5757
  284MPD2    H3 4344   2.451   3.714  12.298 -0.0540  1.1585 -0.5744
  284MPD2     N 4345   2.906   3.693  12.266 -0.8924 -0.1093 -0.3945
  284MPD2    H5 4346   2.891   3.660  12.361 -0.6240  0.8189 -0.0282
  284MPD2    N1 4347   2.638   3.841  11.897 -0.4916 -0.1141  0.2302
  284MPD2    H7 4348   2.722   3.814  11.847  0.1613  0.2222  1.1457
  285TMC3    C1 4349   2.555   3.917  11.700  0.3348 -0.3488  0.2565
  285TMC3    C2 4350   2.616   3.820  11.627  0.5630  0.3810 -0.3676
  285TMC3    C3 4351   2.676   3.860  11.513  1.1247  0.3469 -0.1229
  285TMC3    C4 4352   2.557   4.050  11.670 -0.3629 -0.1606 -0.4143
  285TMC3    C5 4353   2.629   4.087  11.556 -0.5926 -0.3766 -0.2588
  285TMC3    C6 4354   2.680   3.993  11.480  0.6930  0.2405 -0.2877
  285TMC3     C 4355   2.526   3.888  11.836  0.6238  1.0945  0.0397
  285TMC3     O 4356   2.423   3.924  11.890 -0.2968 -0.5707 -0.0138
  285TMC3     H 4357   2.601   3.716  11.655  0.1820  0.4232 -0.4157
  285TMC3    H1 4358   2.532   4.124  11.745 -1.7094 -0.1054 -0.9221
  285TMC3    H2 4359   2.718   4.037  11.389  2.7690 -1.6887 -0.3423
  285TMC3    C7 4360   2.658   4.220  11.520 -0.0007  0.5155  0.1478
  285TMC3    C8 4361   2.713   3.755  11.427  0.3300  0.6717  0.0327
  285TMC3    O1 4362   2.745   4.229  11.434  0.0680  0.0548  0.4621
  285TMC3    O2 4363   2.733   3.652  11.483 -0.0951  0.1768  0.4997
  286MPD2     C 4364   3.489   2.712   1.808 -0.6100  0.2115  0.1090
  286MPD2    C1 4365   3.409   2.632   1.733  0.3916  0.1642  0.1264
  286MPD2    C2 4366   3.477   2.529   1.666 -1.0620 -0.4314  0.3482
  286MPD2    C3 4367   3.610   2.501   1.693  0.6845 -0.2739 -0.4801
  286MPD2    C4 4368   3.687   2.576   1.775  0.4142  0.4024 -0.3093
  286MPD2    C5 4369   3.622   2.685   1.832  0.0468 -0.1350  1.0493
  286MPD2     H 4370   3.419   2.458   1.610  0.8283 -2.8905  1.4845
  286MPD2    H1 4371   3.789   2.551   1.802  0.5507  1.2745 -0.0204
  286MPD2    H2 4372   3.450   2.794   1.867 -0.9324  0.9860 -1.1702
  286MPD2    H3 4373   3.675   2.747   1.903  1.4541  0.9815 -0.9728
  286MPD2     N 4374   3.681   2.392   1.632  0.3845  0.0147 -0.1004
  286MPD2    H5 4375   3.782   2.385   1.637  0.4384  1.9936  1.5224
  286MPD2    N1 4376   3.278   2.657   1.693 -0.1315 -0.1935 -0.3054
  286MPD2    H7 4377   3.233   2.605   1.618 -0.3878 -0.7356  0.2208
  287TMC3    C1 4378   3.706   2.214   1.480 -0.4414 -0.0624  0.2099
  287TMC3    C2 4379   3.652   2.138   1.379  0.3119  0.3345  0.6765
  287TMC3    C3 4380   3.730   2.070   1.299 -0.7623 -0.6655  0.6996
  287TMC3    C4 4381   3.845   2.216   1.500  0.2250  0.6806  0.1007
  287TMC3    C5 4382   3.924   2.136   1.421  0.8151  0.6585 -0.3601
  287TMC3    C6 4383   3.868   2.072   1.313 -0.3798  0.6789 -0.4497
  287TMC3     C 4384   3.617   2.307   1.549  0.0785  0.9345  0.1387
  287TMC3     O 4385   3.497   2.275   1.529  0.6233 -0.1050  0.0943
  287TMC3     H 4386   3.547   2.152   1.356  0.5375  1.2510  0.2307
  287TMC3    H1 4387   3.897   2.247   1.590 -0.6534  0.3368  0.7290
  287TMC3    H2 4388   3.925   1.995   1.261 -0.0085  0.1383  0.7689
  287TMC3    C7 4389   4.071   2.140   1.429  0.5937  0.2357  0.3811
  287TMC3    C8 4390   3.669   2.007   1.184 -0.1838  0.0056 -0.2151
  287TMC3    O1 4391   4.138   2.057   1.368 -0.1169 -0.2235 -0.7178
  287TMC3    O2 4392   3.548   1.982   1.190  0.0717  0.6997 -0.3605
  288TMC3    C1 4393   4.528   2.236  14.161 -0.3353 -0.0993  0.0510
  288TMC3    C2 4394   4.548   2.256  14.299  0.2459  0.0477  0.1705
  288TMC3    C3 4395   4.551   2.149  14.379 -0.4634  0.0579  0.1361
  288TMC3    C4 4396   4.522   2.111  14.104  0.1374  0.3588  0.2535
  288TMC3    C5 4397   4.527   2.009  14.186 -0.2807 -0.4613  0.5204
  288TMC3    C6 4398   4.544   2.019  14.323  0.0083 -0.0063  0.1470
  288TMC3     C 4399   4.524   2.344  14.067 -0.4574 -0.1902 -0.1120
  288TMC3     O 4400   4.516   2.320  13.945 -0.8754 -0.2960 -0.4744
  288TMC3     H 4401   4.545   2.356  14.342  0.2194  1.0267 -2.0899
  288TMC3    H1 4402   4.496   2.107  13.999 -0.3949 -0.0568  0.4060
  288TMC3    H2 4403   4.552   1.933  14.389 -1.8915 -0.9603 -0.8827
  288TMC3    C7 4404   4.516   1.873  14.129  0.5839  0.2240 -0.1634
  288TMC3    C8 4405   4.549   2.170  14.522  0.0664  0.0720 -0.5891
  288TMC3    O1 4406   4.485   1.778  14.202 -0.4827  0.4477 -0.3579
  288TMC3    O2 4407   4.541   2.286  14.566 -0.2206 -0.0098 -0.1088
  289MPD2     C 4408   0.121   1.539  14.467 -0.2998  0.1562  0.6334
  289MPD2    C1 4409   0.034   1.455  14.525  0.7847  0.0584 -0.3836
  289MPD2    C2 4410   4.646   1.427  14.465  0.1770 -0.4353  0.5394
  289MPD2    C3 4411   4.617   1.496  14.352 -0.7535  0.5126  0.3413
  289MPD2    C4 4412   4.704   1.592  14.303 -0.3047 -0.1714 -0.2206
  289MPD2    C5 4413   0.086   1.620  14.362  0.1655  0.1590  0.1482
  289MPD2     H 4414   4.570   1.364  14.509  1.8197 -2.3175  0.6865
  289MPD2    H1 4415   4.687   1.641  14.208  1.5699  1.2081  0.1562
  289MPD2    H2 4416   0.215   1.559  14.517  0.7439 -3.0547 -0.0667
  289MPD2    H3 4417   0.151   1.696  14.320  0.7765  0.0580  0.9212
  289MPD2     N 4418   4.494   1.481  14.287 -1.2202 -0.0599 -0.0129
  289MPD2    H5 4419   4.473   1.542  14.208  0.1904  1.7857  1.0332
  289MPD2    N1 4420   0.075   1.390  14.643  0.2581 -0.0805  0.0443
  289MPD2    H7 4421   0.151   1.436  14.692  0.4338  0.6894 -0.9224
  290TMC3    C1 4422   4.261   1.442  14.276 -0.1482 -0.3142 -0.1954
  290TMC3    C2 4423   4.221   1.577  14.282 -0.2517 -0.2482  0.4113
  290TMC3    C3 4424   4.091   1.603  14.243  0.5391  0.7575 -0.5746
  290TMC3    C4 4425   4.166   1.337  14.256  0.2506 -0.3064 -0.0414
  290TMC3    C5 4426   4.038   1.377  14.231 -0.1597  0.0336 -0.3163
  290TMC3    C6 4427   4.000   1.504  14.223  0.4379 -0.5171  0.6009
  290TMC3     C 4428   4.391   1.400  14.324  0.3980 -0.3071  0.0742
  290TMC3     O 4429   4.396   1.295  14.389 -0.3607 -0.3665  0.1823
  290TMC3     H 4430   4.288   1.662  14.286  0.5204 -0.9138  1.6061
  290TMC3    H1 4431   4.192   1.231  14.256  2.2599  0.1774  1.0615
  290TMC3    H2 4432   3.904   1.537  14.186  0.6156  0.1445  0.7230
  290TMC3    C7 4433   3.929   1.284  14.237  0.4036 -0.0876 -0.6060
  290TMC3    C8 4434   4.047   1.734  14.198  0.3468  0.0493  0.0203
  290TMC3    O1 4435   3.816   1.336  14.238 -0.1311 -0.2992  0.2405
  290TMC3    O2 4436   3.961   1.737  14.110 -0.1247  0.4310  0.0126
  291MPD2     C 4437   4.078   1.211   0.993  0.3887  0.2015  0.4525
  291MPD2    C1 4438   4.062   1.203   0.859 -0.6193 -0.7615 -0.6828
  291MPD2    C2 4439   4.140   1.281   0.776  0.6874 -0.5391 -0.1515
  291MPD2    C3 4440   4.245   1.362   0.828  0.4207 -1.0447 -0.0354
  291MPD2    C4 4441   4.261   1.361   0.963  0.9853  0.3232 -0.0208
  291MPD2    C5 4442   4.169   1.296   1.045 -0.0930  0.3912  0.9540
  291MPD2     H 4443   4.132   1.274   0.668  0.7675 -0.4671 -0.1619
  291MPD2    H1 4444   4.340   1.421   1.008  0.7101  2.9610 -3.0549
  291MPD2    H2 4445   4.019   1.150   1.060  0.4364 -0.9916 -0.5992
  291MPD2    H3 4446   4.175   1.321   1.150  2.6938  1.7934  0.4694
  291MPD2     N 4447   4.336   1.430   0.743 -0.2137 -0.2712 -0.0047
  291MPD2    H5 4448   4.424   1.465   0.780 -0.1189 -1.0466  0.5151
  291MPD2    N1 4449   3.960   1.118   0.805  0.2750  0.0541  0.4679
  291MPD2    H7 4450   3.896   1.068   0.866  0.6766  1.4505  2.0444
  292TMC3    C1 4451   3.877   0.956   0.661 -0.7360 -0.1325  0.1659
  292TMC3    C2 4452   3.750   0.975   0.715 -0.0908  0.0067  0.0746
  292TMC3    C3 4453   3.653   0.884   0.684  0.1652  0.4064  0.0890
  292TMC3    C4 4454   3.902   0.865   0.558  0.3124 -0.5140 -1.3002
  292TMC3    C5 4455   3.800   0.785   0.520  0.2937 -0.4547 -0.8932
  292TMC3    C6 4456   3.673   0.790   0.589  0.4987 -0.7851  0.1360
  292TMC3     C 4457   3.975   1.057   0.683 -0.5272 -0.3561 -0.1572
  292TMC3     O 4458   4.073   1.052   0.607  0.3220  0.1527 -0.3885
  292TMC3     H 4459   3.729   1.062   0.776  0.9555 -0.6898  1.4305
  292TMC3    H1 4460   3.998   0.861   0.507  1.0441  0.0592  0.0358
  292TMC3    H2 4461   3.593   0.721   0.568 -0.7650  0.1385  1.8709
  292TMC3    C7 4462   3.831   0.686   0.424 -0.6797  0.4030  0.0895
  292TMC3    C8 4463   3.532   0.885   0.755 -0.1529  0.0055 -0.9277
  292TMC3    O1 4464   3.945   0.649   0.394  0.6282 -0.0543  0.5097
  292TMC3    O2 4465   3.532   0.938   0.864  0.1729 -0.1007 -0.0039
  293MPD2     C 4466   0.838   3.084  12.511 -0.7208  0.3743  0.7374
  293MPD2    C1 4467   0.753   3.002  12.581 -0.8672 -0.1962 -0.1176
  293MPD2    C2 4468   0.773   2.988  12.720  0.9054  0.2266  0.4760
  293MPD2    C3 4469   0.890   3.044  12.786 -0.1146 -0.0355  0.3984
  293MPD2    C4 4470   0.966   3.129  12.708 -0.7327  0.4130  0.3477
  293MPD2    C5 4471   0.939   3.147  12.573 -0.3242  0.7947  0.1272
  293MPD2     H 4472   0.713   2.917  12.776 -0.0619  1.7277  1.3533
  293MPD2    H1 4473   1.052   3.181  12.748 -0.3415  0.5332 -0.6391
  293MPD2    H2 4474   0.833   3.100  12.404 -3.0282  2.5754  1.1505
  293MPD2    H3 4475   1.003   3.211  12.514  1.2432  1.2147  2.2693
  293MPD2     N 4476   0.910   3.020  12.918 -0.7559  0.6882  0.4741
  293MPD2    H5 4477   0.841   2.958  12.958 -1.1271  0.1784 -0.9639
  293MPD2    N1 4478   0.652   2.943  12.512  0.2021 -0.0139 -0.5319
  293MPD2    H7 4479   0.656   2.961  12.412 -1.1562  0.9306 -0.4173
  294TMC3    C1 4480   0.433   2.861  12.483  0.1154  0.4136 -0.3963
  294TMC3    C2 4481   0.353   2.755  12.509  0.3584 -0.3479 -0.2375
  294TMC3    C3 4482   0.284   2.702  12.409  0.1324  0.2881 -0.8336
  294TMC3    C4 4483   0.431   2.921  12.360  0.2758 -0.1975 -0.0184
  294TMC3    C5 4484   0.341   2.883  12.270 -0.0618  0.4612 -0.2079
  294TMC3    C6 4485   0.255   2.776  12.295 -0.0586  0.9860  0.7982
  294TMC3     C 4486   0.543   2.872  12.572 -0.3774 -0.1288 -0.1504
  294TMC3     O 4487   0.548   2.804  12.675 -0.0615  0.1708 -0.5989
  294TMC3     H 4488   0.356   2.697  12.601 -1.4948 -2.6302 -1.6269
  294TMC3    H1 4489   0.493   3.007  12.340  0.0708  0.2366  1.2533
  294TMC3    H2 4490   0.174   2.743  12.231 -0.9299  3.4491  0.6148
  294TMC3    C7 4491   0.333   2.962  12.150 -0.0841  0.2828 -0.2650
  294TMC3    C8 4492   0.247   2.555  12.411 -0.5121  0.0775 -0.0309
  294TMC3    O1 4493   0.222   2.961  12.099  0.2608 -0.3590  0.2948
  294TMC3    O2 4494   0.231   2.499  12.519  0.7030 -0.3961 -0.1006
  295MPD2     C 4495   2.341   1.257   0.944  0.0995 -0.8600  0.0757
  295MPD2    C1 4496   2.217   1.298   0.986  0.7645 -0.6922  0.3191
  295MPD2    C2 4497   2.158   1.232   1.086 -0.4781  0.0033  0.3367
  295MPD2    C3 4498   2.217   1.125   1.148 -0.0121  0.1314 -0.2733
  295MPD2    C4 4499   2.337   1.084   1.108  0.1699  0.3626  0.1965
  295MPD2    C5 4500   2.399   1.156   1.004 -0.0583 -0.6626  0.6027
  295MPD2     H 4501   2.059   1.266   1.113  0.0381  1.2725  0.6515
  295MPD2    H1 4502   2.386   1.000   1.156  0.9468  1.0941  0.6809
  295MPD2    H2 4503   2.398   1.299   0.862  0.9431  0.0677  1.1345
  295MPD2    H3 4504   2.495   1.120   0.969 -0.2433 -0.6131  0.0446
  295MPD2     N 4505   2.145   1.046   1.243  0.5097 -0.1377 -0.4698
  295MPD2    H5 4506   2.192   0.966   1.285  0.2783  1.5286  2.9708
  295MPD2    N1 4507   2.141   1.407   0.927  0.4374  0.5904  0.4020
  295MPD2    H7 4508   2.058   1.444   0.972  0.6781  1.6669 -0.0457
  296TMC3    C1 4509   1.959   0.948   1.349  0.1676  0.4531  0.3524
  296TMC3    C2 4510   1.825   0.905   1.323  0.1042 -1.1807 -0.3241
  296TMC3    C3 4511   1.765   0.823   1.418 -0.0987  0.4935  0.4090
  296TMC3    C4 4512   2.025   0.907   1.464 -0.7369  0.4315 -0.8474
  296TMC3    C5 4513   1.952   0.839   1.557  0.0655  0.2426 -0.2719
  296TMC3    C6 4514   1.826   0.790   1.541 -0.1076  0.1578  0.1708
  296TMC3     C 4515   2.013   1.051   1.261 -0.1155  0.0385  0.9752
  296TMC3     O 4516   1.923   1.116   1.215 -0.4562 -0.3885 -0.5832
  296TMC3     H 4517   1.780   0.940   1.230 -0.0358  1.1388  0.6013
  296TMC3    H1 4518   2.124   0.949   1.482  0.2611 -1.6242 -1.5698
  296TMC3    H2 4519   1.770   0.721   1.604  0.1770  0.6650  0.9716
  296TMC3    C7 4520   2.011   0.819   1.690 -0.1469  0.6081 -0.5190
  296TMC3    C8 4521   1.625   0.828   1.414  0.4894  0.8808  0.3079
  296TMC3    O1 4522   2.136   0.833   1.698 -0.2198 -0.3437  0.4178
  296TMC3    O2 4523   1.554   0.739   1.459 -0.0007  0.0993 -0.0087
  297MPD2     C 4524   3.576   2.829  16.531 -0.2915  0.6087  0.6975
  297MPD2    C1 4525   3.554   2.903  16.414 -0.0210  0.1720  0.0514
  297MPD2    C2 4526   3.655   2.983  16.366 -0.0232  0.0279 -0.5153
  297MPD2    C3 4527   3.783   2.981  16.427 -0.9316  0.0142 -1.0133
  297MPD2    C4 4528   3.799   2.914  16.541 -0.2070 -0.7689 -0.3948
  297MPD2    C5 4529   3.695   2.844  16.597  0.7892  0.5014 -0.7293
  297MPD2     H 4530   3.636   3.038  16.274 -1.7018 -1.6376 -1.1646
  297MPD2    H1 4531   3.895   2.906  16.590 -0.4355 -3.7164 -0.4607
  297MPD2    H2 4532   3.494   2.779  16.582 -1.3103  0.9378 -0.6210
  297MPD2    H3 4533   3.710   2.785  16.686 -1.4415  2.1880  0.7642
  297MPD2     N 4534   3.888   3.057  16.371  0.4758  0.1623  0.2580
  297MPD2    H5 4535   3.967   3.084  16.429  1.1516  1.8985 -1.4745
  297MPD2    N1 4536   3.430   2.907  16.357 -0.1923 -0.1933 -0.1310
  297MPD2    H7 4537   3.423   2.974  16.281  1.7521  0.4663  0.2457
  298TMC3    C1 4538   3.206   2.885  16.300 -0.2084  0.0885  0.1032
  298TMC3    C2 4539   3.249   2.916  16.174 -0.0433  0.2140  0.5897
  298TMC3    C3 4540   3.183   3.008  16.096 -0.2209 -0.2905 -0.6735
  298TMC3    C4 4541   3.103   2.958  16.355  0.2934 -0.5890  0.0827
  298TMC3    C5 4542   3.059   3.067  16.290 -0.5670 -0.4350  0.0232
  298TMC3    C6 4543   3.086   3.084  16.155 -0.4287 -0.3062 -0.3369
  298TMC3     C 4544   3.309   2.844  16.390 -0.4449 -0.5313  0.8684
  298TMC3     O 4545   3.280   2.778  16.489 -0.1969  0.3867  0.2065
  298TMC3     H 4546   3.335   2.861  16.136 -0.6057 -1.1015  1.2241
  298TMC3    H1 4547   3.075   2.938  16.458 -2.4426 -1.6318 -0.8809
  298TMC3    H2 4548   3.046   3.169  16.100  0.2911 -1.5120 -2.7032
  298TMC3    C7 4549   2.946   3.139  16.352  0.0920 -1.0194 -0.2273
  298TMC3    C8 4550   3.233   3.040  15.960 -0.6536  0.0050 -0.2343
  298TMC3    O1 4551   2.942   3.143  16.479  0.2111  0.4038 -0.5695
  298TMC3    O2 4552   3.340   2.988  15.930  0.1849  0.4517 -0.0640
  299MPD2     C 4553   4.090   2.879  10.870 -0.2904  0.2339 -0.6493
  299MPD2    C1 4554   4.132   2.842  10.747  0.3907  0.0516  0.2200
  299MPD2    C2 4555   4.062   2.739  10.678 -0.2447  0.1359  0.2910
  299MPD2    C3 4556   3.960   2.667  10.737 -0.0144  0.7431  0.0135
  299MPD2    C4 4557   3.929   2.703  10.870  0.5233 -1.0114  0.1613
  299MPD2    C5 4558   3.981   2.817  10.926 -0.0940  0.3523  0.4605
  299MPD2     H 4559   4.109   2.711  10.585 -1.1872 -3.0180  0.7732
  299MPD2    H1 4560   3.874   2.635  10.934 -2.3900 -0.7056 -1.9923
  299MPD2    H2 4561   4.133   2.963  10.924 -2.0041 -0.0227  1.0907
  299MPD2    H3 4562   3.959   2.849  11.027  0.3038  2.6703 -0.1849
  299MPD2     N 4563   3.893   2.555  10.685  0.3977 -0.1342 -0.6943
  299MPD2    H5 4564   3.830   2.516  10.754  0.7991 -0.4962 -0.5265
  299MPD2    N1 4565   4.228   2.920  10.679 -0.5138  0.3317  0.1786
  299MPD2    H7 4566   4.247   2.905  10.580  1.0319  1.2336  0.3411
  300TMC3    C1 4567   3.810   2.421  10.519 -0.3442  0.3310 -0.2014
  300TMC3    C2 4568   3.775   2.490  10.408  0.5846 -0.3916  0.3946
  300TMC3    C3 4569   3.661   2.560  10.415  0.2011 -0.5592 -0.0594
  300TMC3    C4 4570   3.724   2.399  10.625 -0.3619  0.0025 -0.4255
  300TMC3    C5 4571   3.605   2.461  10.613  1.0409  0.4104  0.1671
  300TMC3    C6 4572   3.571   2.548  10.515  0.4387  0.6975 -0.3001
  300TMC3     C 4573   3.929   2.494  10.571 -0.3195  0.2598  0.1506
  300TMC3     O 4574   4.013   2.527  10.491 -0.4053 -0.1720 -0.2258
  300TMC3     H 4575   3.844   2.517  10.328 -0.3779  3.2554  0.8060
  300TMC3    H1 4576   3.749   2.338  10.711  1.4238  1.5477  0.1450
  300TMC3    H2 4577   3.474   2.598  10.518  0.1862  0.2319 -0.6384
  300TMC3    C7 4578   3.516   2.441  10.722 -1.1980 -0.1213 -0.6570
  300TMC3    C8 4579   3.668   2.685  10.351 -0.3385  0.2613 -0.3663
  300TMC3    O1 4580   3.523   2.333  10.775  0.4571 -0.3044  0.5959
  300TMC3    O2 4581   3.565   2.740  10.317  0.3644  0.2840 -0.0239
  301MPD2     C 4582   1.547   4.116   1.485  0.1279 -0.3391  0.6653
  301MPD2    C1 4583   1.458   4.106   1.388  0.3354  0.5305  0.4390
  301MPD2    C2 4584   1.482   4.019   1.284  0.4596 -0.0441  0.4115
  301MPD2    C3 4585   1.591   3.938   1.286 -0.1662 -0.1162  0.1513
  301MPD2    C4 4586   1.685   3.951   1.392  1.1377  0.2752 -0.1970
  301MPD2    C5 4587   1.658   4.044   1.489 -0.4825 -0.4447  0.3446
  301MPD2     H 4588   1.411   4.020   1.202  2.5455  1.5089 -1.3501
  301MPD2    H1 4589   1.779   3.897   1.392 -1.3664 -4.0962 -0.1513
  301MPD2    H2 4590   1.544   4.189   1.565 -0.1062 -2.1936  2.3490
  301MPD2    H3 4591   1.725   4.055   1.574 -0.0686 -0.5621  0.0345
  301MPD2     N 4592   1.619   3.838   1.188  0.6663 -0.7198  0.7985
  301MPD2    H5 4593   1.696   3.776   1.213  0.7874 -0.4226  1.1600
  301MPD2    N1 4594   1.344   4.193   1.388 -0.2722  0.4463 -0.0787
  301MPD2    H7 4595   1.286   4.173   1.307  0.7696  1.0619 -0.9854
  302TMC3    C1 4596   1.579   3.687   1.005 -0.0026 -0.8220 -0.0612
  302TMC3    C2 4597   1.634   3.575   1.075 -0.2610 -0.7321  1.2168
  302TMC3    C3 4598   1.662   3.462   0.997  0.2386 -0.0707 -0.4914
  302TMC3    C4 4599   1.531   3.677   0.880  0.2924  0.4920  0.0981
  302TMC3    C5 4600   1.547   3.561   0.813  0.3537  0.2179  0.3613
  302TMC3    C6 4601   1.619   3.450   0.866  0.3098 -0.2944 -0.1856
  302TMC3     C 4602   1.542   3.810   1.079 -0.3601 -0.5807 -0.7182
  302TMC3     O 4603   1.448   3.875   1.030 -0.2790 -0.0016  0.1079
  302TMC3     H 4604   1.642   3.581   1.183  1.7868 -1.5707  1.1117
  302TMC3    H1 4605   1.494   3.763   0.826  1.5627  0.5681 -0.6575
  302TMC3    H2 4606   1.629   3.356   0.813 -0.8121  0.2012 -1.2692
  302TMC3    C7 4607   1.457   3.531   0.706 -1.0293 -0.5181  0.4808
  302TMC3    C8 4608   1.653   3.338   1.071 -0.0288  0.7830  0.0785
  302TMC3    O1 4609   1.489   3.431   0.640 -0.9897 -0.6678 -0.2444
  302TMC3    O2 4610   1.731   3.252   1.043 -0.4847 -0.6130 -0.0030
  303MPD2     C 4611   1.664   2.950   9.928 -0.0984  0.1398  0.0984
  303MPD2    C1 4612   1.668   2.849  10.024  0.2508 -0.8886  1.2125
  303MPD2    C2 4613   1.790   2.785  10.043 -0.0227 -0.0951 -0.4197
  303MPD2    C3 4614   1.906   2.830   9.977 -0.5740  0.4013 -0.0875
  303MPD2    C4 4615   1.899   2.934   9.889  0.5588  0.4026  0.0895
  303MPD2    C5 4616   1.775   2.993   9.859 -0.0646 -0.2859 -0.5646
  303MPD2     H 4617   1.799   2.706  10.117  0.8446  0.8870  0.5288
  303MPD2    H1 4618   1.982   2.960   9.824  1.4710 -1.2427  0.5924
  303MPD2    H2 4619   1.569   2.996   9.904  0.8697  1.5975 -0.9692
  303MPD2    H3 4620   1.772   3.058   9.772 -3.2102 -0.2226 -0.3923
  303MPD2     N 4621   2.023   2.757   9.975 -0.1813  0.2684 -0.6542
  303MPD2    H5 4622   2.096   2.784   9.909 -0.8397 -2.8716 -2.6559
  303MPD2    N1 4623   1.550   2.802  10.086  0.3962  0.7233  0.6638
  303MPD2    H7 4624   1.467   2.850  10.052  0.0855  0.7989  1.5208
  304TMC3    C1 4625   1.398   2.667  10.208 -0.0118  0.5426 -0.1291
  304TMC3    C2 4626   1.317   2.647  10.095  0.0200  0.3977  0.1745
  304TMC3    C3 4627   1.228   2.543  10.107 -0.5107 -0.1462  0.0857
  304TMC3    C4 4628   1.392   2.581  10.317 -0.5193  0.2193 -0.2697
  304TMC3    C5 4629   1.302   2.480  10.317 -0.8313 -0.1450  0.6666
  304TMC3    C6 4630   1.209   2.467  10.219 -0.5652 -0.1539  0.7971
  304TMC3     C 4631   1.538   2.713  10.190 -0.1787  0.0981  0.1966
  304TMC3     O 4632   1.620   2.647  10.252  0.5746  0.2631  0.1520
  304TMC3     H 4633   1.326   2.713  10.009 -1.4126  1.7849  1.0785
  304TMC3    H1 4634   1.463   2.589  10.398  1.3875 -2.5872 -1.6380
  304TMC3    H2 4635   1.127   2.398  10.237  2.0514 -2.7463  2.9152
  304TMC3    C7 4636   1.352   2.354  10.361  0.7880  0.1777 -0.1393
  304TMC3    C8 4637   1.213   2.456   9.996 -0.3009  0.2073 -0.1322
  304TMC3    O1 4638   1.419   2.359  10.464 -0.4566  0.3599  0.9584
  304TMC3    O2 4639   1.163   2.346  10.022 -0.1293  0.4852  0.1132
  305MPD2     C 4640   4.328   0.243  14.007  0.0215 -0.9045  0.5547
  305MPD2    C1 4641   4.412   0.142  14.016  0.2615 -0.1397  0.4177
  305MPD2    C2 4642   4.420   0.048  13.922 -0.6237  0.0261  0.4014
  305MPD2    C3 4643   4.343   0.069  13.808 -0.0353  0.5702 -1.0047
  305MPD2    C4 4644   4.254   0.175  13.801 -0.5916 -0.0076  0.6906
  305MPD2    C5 4645   4.242   0.255  13.909  0.3913  0.1246 -0.2327
  305MPD2     H 4646   4.492   4.703  13.931 -0.0784  0.8016  3.0282
  305MPD2    H1 4647   4.173   0.187  13.730 -0.5341 -0.7232  0.5110
  305MPD2    H2 4648   4.321   0.326  14.075  2.6763  1.2695 -1.8103
  305MPD2    H3 4649   4.164   0.330  13.913  0.3812  0.1781 -1.4789
  305MPD2     N 4650   4.359   4.726  13.689  0.2953 -0.0251  0.7432
  305MPD2    H5 4651   4.314   0.020  13.604 -0.9344  1.1499  1.8164
  305MPD2    N1 4652   4.501   0.149  14.130 -0.2697 -0.5099  0.1053
  305MPD2    H7 4653   4.470   0.208  14.206 -2.2999 -0.0512 -1.0859
  306TMC3    C1 4654   4.643   0.072  14.300 -0.2127 -0.5507 -0.2364
  306TMC3    C2 4655   0.028   0.016  14.335  0.1014  0.3287  0.1816
  306TMC3    C3 4656   0.052   4.703  14.458 -0.1074 -0.0743  0.0107
  306TMC3    C4 4657   4.548   0.086  14.396  0.4356 -0.5649 -0.2979
  306TMC3    C5 4658   4.580   0.043  14.524 -0.6544 -0.2607  0.0050
  306TMC3    C6 4659   4.704   4.719  14.564 -0.2707 -0.4456 -0.1627
  306TMC3     C 4660   4.615   0.076  14.153 -0.9543  0.5037  0.2208
  306TMC3     O 4661   4.688   0.012  14.074  0.0894  0.3614 -0.4047
  306TMC3     H 4662   0.092   4.731  14.250 -0.8347 -1.6172 -0.0466
  306TMC3    H1 4663   4.450   0.126  14.373 -0.9711 -2.4765  2.3789
  306TMC3    H2 4664   4.729   4.686  14.664 -0.2150  0.5434  0.1511
  306TMC3    C7 4665   4.474   0.050  14.623  0.1245 -1.0249 -0.5433
  306TMC3    C8 4666   0.163   4.612  14.464 -0.1571 -0.0892  0.6025
  306TMC3    O1 4667   4.358   0.025  14.592 -0.5684  0.1710 -0.3608
  306TMC3    O2 4668   0.242   4.608  14.370  0.0115 -0.1042  0.3378
  307MPD2     C 4669   2.650   2.657   0.228  0.3625 -0.1541 -0.2174
  307MPD2    C1 4670   2.606   2.780   0.270  0.5258 -0.1755 -0.5092
  307MPD2    C2 4671   2.547   2.791   0.391 -0.3095  0.2512 -0.6553
  307MPD2    C3 4672   2.527   2.677   0.466 -0.3083 -0.0152  0.0565
  307MPD2    C4 4673   2.564   2.548   0.422  0.1411 -0.4786 -0.1799
  307MPD2    C5 4674   2.627   2.543   0.301  0.8429  0.1156  0.0067
  307MPD2     H 4675   2.516   2.891   0.416 -0.0736  0.0704  0.3531
  307MPD2    H1 4676   2.557   2.454   0.476 -1.1637  0.1109  0.6856
  307MPD2    H2 4677   2.715   2.643   0.142  1.1705 -0.0629  0.3764
  307MPD2    H3 4678   2.654   2.446   0.260  3.1461  1.3278 -1.3338
  307MPD2     N 4679   2.463   2.697   0.589 -0.2783  0.0403  0.1244
  307MPD2    H5 4680   2.441   2.794   0.608 -2.1435 -0.4047  0.2228
  307MPD2    N1 4681   2.610   2.895   0.189 -0.3356 -0.1015  0.2637
  307MPD2    H7 4682   2.556   2.976   0.216  1.4852  1.0456  0.4560
  308TMC3    C1 4683   2.145   2.700   0.859 -0.5676 -0.5107 -0.1737
  308TMC3    C2 4684   2.185   2.828   0.886 -0.6785 -0.0090 -0.4491
  308TMC3    C3 4685   2.326   2.856   0.895  0.5326  0.1266  0.2914
  308TMC3    C4 4686   2.242   2.608   0.818 -0.4182  0.1228 -0.1662
  308TMC3    C5 4687   2.373   2.646   0.802  0.2971 -0.1859 -0.3956
  308TMC3    C6 4688   2.416   2.769   0.839  0.0060  0.1647 -0.1334
  308TMC3     C 4689   2.010   2.664   0.875  0.1989  0.7029  0.5815
  308TMC3     O 4690   1.996   2.549   0.915  0.5878 -0.2800 -0.4762
  308TMC3     H 4691   2.109   2.894   0.926  0.7069  1.6139 -0.4613
  308TMC3    H1 4692   2.212   2.508   0.791 -1.7660  0.5140 -0.1272
  308TMC3    H2 4693   2.523   2.789   0.835  0.2073 -0.7770  0.6876
  308TMC3    C7 4694   2.424   2.591   0.680  0.8120  0.3318 -0.0067
  308TMC3    C8 4695   2.375   2.989   0.907 -0.0313  0.3609  0.1926
  308TMC3    O1 4696   2.399   2.475   0.658 -0.2049 -0.8397  0.6082
  308TMC3    O2 4697   2.495   2.999   0.932 -0.0201  0.3600 -0.2866
  309MPD2     C 4698   1.513   3.104  17.064 -0.3591 -0.2474 -0.1051
  309MPD2    C1 4699   1.409   3.144  16.979 -0.6386  0.2507 -0.6780
  309MPD2    C2 4700   1.285   3.160  17.036 -0.2398 -0.7969  0.3576
  309MPD2    C3 4701   1.269   3.141  17.172  0.4551 -0.3814  0.5478
  309MPD2    C4 4702   1.369   3.115  17.256  0.1415 -0.3220 -0.2789
  309MPD2    C5 4703   1.491   3.094  17.199 -0.1295  0.0557 -0.1640
  309MPD2     H 4704   1.202   3.189  16.972  1.1310  0.6973 -0.7497
  309MPD2    H1 4705   1.370   3.098  17.363  0.4251  3.1125  0.2642
  309MPD2    H2 4706   1.614   3.088  17.029 -0.7630 -0.1519 -1.3072
  309MPD2    H3 4707   1.570   3.053  17.261  0.3424  1.5067  0.1872
  309MPD2     N 4708   1.138   3.157  17.224 -0.3842  0.0331  0.2027
  309MPD2    H5 4709   1.074   3.182  17.149 -0.7276 -2.5978 -0.3916
  309MPD2    N1 4710   1.428   3.153  16.835 -0.1905 -0.2613  0.3471
  309MPD2    H7 4711   1.349   3.186  16.781  0.6982  1.2771 -0.0417
  310TMC3    C1 4712   1.538   3.136  16.630 -0.4788  0.1711 -0.4520
  310TMC3    C2 4713   1.480   3.238  16.564 -0.0724  0.0482 -0.0086
  310TMC3    C3 4714   1.524   3.282  16.445  1.5846  0.6588  0.1002
  310TMC3    C4 4715   1.638   3.067  16.565  0.5309  0.2708  0.9913
  310TMC3    C5 4716   1.670   3.111  16.439  0.3799  0.0010  0.1293
  310TMC3    C6 4717   1.608   3.207  16.367  0.7162 -0.0215  0.3555
  310TMC3     C 4718   1.546   3.129  16.775  0.4432  0.3853 -0.0650
  310TMC3     O 4719   1.655   3.093  16.816  0.1445  0.7368  0.4162
  310TMC3     H 4720   1.399   3.299  16.602  1.5193  1.8135  0.5728
  310TMC3    H1 4721   1.682   2.977  16.607 -0.3951  0.6022  2.6519
  310TMC3    H2 4722   1.636   3.245  16.270  1.7297  0.6995  0.9289
  310TMC3    C7 4723   1.780   3.039  16.372 -0.0975  0.4154  0.2109
  310TMC3    C8 4724   1.457   3.393  16.382 -0.3936 -0.4280 -0.0127
  310TMC3    O1 4725   1.773   3.034  16.246 -0.4870 -0.3991 -0.6931
  310TMC3    O2 4726   1.344   3.419  16.413 -0.8344  0.0651  0.0884
  311MPD2     C 4727   3.422   4.218  12.690 -0.2895 -0.5604 -0.0911
  311MPD2    C1 4728   3.407   4.349  12.715 -0.2942  0.2489  0.4340
  311MPD2    C2 4729   3.306   4.397  12.785 -0.2808  0.6285 -0.7124
  311MPD2    C3 4730   3.194   4.314  12.829 -1.1094 -0.1040 -0.1502
  311MPD2    C4 4731   3.213   4.174  12.809 -0.6473 -0.3022  0.5927
  311MPD2    C5 4732   3.328   4.132  12.743  0.1995  0.0278 -0.0454
  311MPD2     H 4733   3.296   4.504  12.798 -0.4759  0.7319 -1.7254
  311MPD2    H1 4734   3.133   4.104  12.830 -0.7124 -0.3994  0.0112
  311MPD2    H2 4735   3.498   4.175  12.626 -0.2611  0.3834 -0.6818
  311MPD2    H3 4736   3.333   4.027  12.715  2.3041 -0.1572  1.0414
  311MPD2     N 4737   3.081   4.370  12.888  0.0858 -0.0659 -0.3062
  311MPD2    H5 4738   3.094   4.464  12.923 -2.6998  1.3197 -2.9538
  311MPD2    N1 4739   3.505   4.443  12.665 -0.0941 -0.4912 -0.1679
  311MPD2    H7 4740   3.490   4.537  12.699 -0.9422 -0.9396  0.6941
  312TMC3    C1 4741   2.854   4.395  12.957  0.7847 -0.1047 -0.2504
  312TMC3    C2 4742   2.722   4.359  12.922  0.1467  1.0657 -0.3915
  312TMC3    C3 4743   2.631   4.464  12.929  0.3448  0.4798 -0.8331
  312TMC3    C4 4744   2.888   4.514  13.011  0.0262  0.3221 -0.4910
  312TMC3    C5 4745   2.789   4.611  13.019  0.0576 -0.7677  0.1059
  312TMC3    C6 4746   2.659   4.586  12.986  0.2067  0.7058 -0.9373
  312TMC3     C 4747   2.953   4.311  12.895  0.1408  0.0805 -0.6141
  312TMC3     O 4748   2.922   4.204  12.846 -0.2195  0.4991  0.7862
  312TMC3     H 4749   2.704   4.262  12.878 -3.2542  1.2245  0.5974
  312TMC3    H1 4750   2.992   4.524  13.042 -0.8427 -0.7558  2.8356
  312TMC3    H2 4751   2.584   4.655  13.023  1.2398  1.3865 -0.1218
  312TMC3    C7 4752   2.804   4.731  13.106 -0.4222  0.0961  0.3327
  312TMC3    C8 4753   2.499   4.427  12.883 -0.3220  0.3651 -0.2689
  312TMC3    O1 4754   2.749   0.097  13.074 -0.0694 -0.1498  0.1326
  312TMC3    O2 4755   2.494   4.324  12.812 -0.2017  0.1043 -0.6046
  313MPD2     C 4756   2.261   4.025  11.529  0.1463  0.2315 -0.2792
  313MPD2    C1 4757   2.333   4.018  11.416 -0.2688  0.1205  0.0821
  313MPD2    C2 4758   2.369   3.893  11.361 -0.1368 -0.3358 -0.0474
  313MPD2    C3 4759   2.324   3.777  11.422  0.5590 -0.2442  0.4713
  313MPD2    C4 4760   2.257   3.789  11.541 -0.3951 -0.3181 -0.2718
  313MPD2    C5 4761   2.227   3.914  11.598  0.2098 -0.6856 -0.1484
  313MPD2     H 4762   2.430   3.886  11.271  0.5647  0.1082  0.3901
  313MPD2    H1 4763   2.228   3.706  11.605 -0.3662  0.0833  0.2595
  313MPD2    H2 4764   2.229   4.121  11.569 -0.8480 -0.2975  0.1884
  313MPD2    H3 4765   2.176   3.912  11.694 -0.4030  1.3739 -0.4440
  313MPD2     N 4766   2.372   3.656  11.367  0.4918  1.3684  0.3746
  313MPD2    H5 4767   2.422   3.666  11.279 -2.3700 -0.7415 -1.5158
  313MPD2    N1 4768   2.369   4.128  11.339 -0.2082 -0.2784 -0.6073
  313MPD2    H7 4769   2.420   4.109  11.253  2.3584  2.1963  0.3742
  314TMC3    C1 4770   2.369   4.341  11.240 -0.2739  0.2879  0.0247
  314TMC3    C2 4771   2.507   4.347  11.219  0.0379  0.3498  0.6111
  314TMC3    C3 4772   2.558   4.452  11.144 -0.7720 -0.0662 -0.3834
  314TMC3    C4 4773   2.280   4.435  11.184 -0.3563  0.3033  0.3047
  314TMC3    C5 4774   2.333   4.523  11.087  0.1930 -0.1766 -0.0163
  314TMC3    C6 4775   2.471   4.536  11.076  0.2941  0.6990  0.3751
  314TMC3     C 4776   2.307   4.251  11.337 -0.4831  0.1504  0.4131
  314TMC3     O 4777   2.225   4.296  11.413  0.0790 -0.5537  0.2197
  314TMC3     H 4778   2.566   4.273  11.272 -1.1706 -0.4139  0.8830
  314TMC3    H1 4779   2.172   4.426  11.187 -0.2579 -0.7019  0.6798
  314TMC3    H2 4780   2.519   4.608  11.011 -1.0521  2.1864  1.0466
  314TMC3    C7 4781   2.268   4.506  10.955 -0.5146 -0.2854  0.1466
  314TMC3    C8 4782   2.706   4.455  11.111  0.2655 -0.1810  0.0919
  314TMC3    O1 4783   2.149   4.471  10.950  0.0080 -0.2818  0.2619
  314TMC3    O2 4784   2.740   4.536  11.027  0.3524 -0.2137 -0.5630
  315MPD2     C 4785   2.710   3.120   0.510 -0.0832  1.6245 -0.0805
  315MPD2    C1 4786   2.828   3.066   0.474 -0.1895 -0.8167 -0.5314
  315MPD2    C2 4787   2.912   3.140   0.387 -0.5150 -0.0969 -0.0911
  315MPD2    C3 4788   2.867   3.250   0.325 -0.9536  0.0371  0.0392
  315MPD2    C4 4789   2.738   3.294   0.345 -0.2378  0.5094 -0.5181
  315MPD2    C5 4790   2.666   3.233   0.445  0.6457  0.5228 -1.0517
  315MPD2     H 4791   3.011   3.103   0.366 -0.4657  0.3270 -0.5979
  315MPD2    H1 4792   2.692   3.375   0.289 -2.9394 -0.6163  0.0288
  315MPD2    H2 4793   2.631   3.064   0.558  1.0435  1.6449  1.7824
  315MPD2    H3 4794   2.558   3.244   0.443  0.6107  0.4405  0.6256
  315MPD2     N 4795   2.956   3.300   0.234  0.7562 -0.2452  0.4011
  315MPD2    H5 4796   3.041   3.248   0.217  1.0792 -0.1154  1.6053
  315MPD2    N1 4797   2.878   2.938   0.516 -0.0749  0.4983  0.6683
  315MPD2    H7 4798   2.959   2.901   0.468  0.4452  0.3085  1.6766
  316TMC3    C1 4799   3.063   3.455   0.111  0.7083  1.0113  0.0106
  316TMC3    C2 4800   3.170   3.452   0.201 -0.0135 -0.5860  0.2873
  316TMC3    C3 4801   3.287   3.496   0.155 -0.0017 -0.7674 -0.6443
  316TMC3    C4 4802   3.070   3.505  17.729 -0.1571  0.4414 -0.7291
  316TMC3    C5 4803   3.191   3.532  17.681  0.1973  0.2794  0.5370
  316TMC3    C6 4804   3.299   3.534   0.024  0.3606  0.1245  0.3676
  316TMC3     C 4805   2.941   3.420   0.168 -0.9857  0.5590 -0.2084
  316TMC3     O 4806   2.838   3.475   0.134 -0.1963 -0.5181  0.1417
  316TMC3     H 4807   3.152   3.428   0.305  1.8515  2.8484  1.4169
  316TMC3    H1 4808   2.978   3.507  17.671  0.4430 -2.7906 -1.7880
  316TMC3    H2 4809   3.399   3.556  17.729  0.2141  1.2471  0.6315
  316TMC3    C7 4810   3.217   3.556  17.541 -0.4717 -0.3383 -0.3324
  316TMC3    C8 4811   3.409   3.481   0.238 -0.6746 -0.3873 -0.4120
  316TMC3    O1 4812   3.332   3.577  17.505 -0.1461  0.4680 -0.3200
  316TMC3    O2 4813   3.506   3.548   0.209  0.0823  0.4459  0.4088
  317MPD2     C 4814   4.580   1.500  13.007  0.6498 -0.4464 -0.6739
  317MPD2    C1 4815   4.663   1.392  12.976 -0.4713 -0.0077 -0.2346
  317MPD2    C2 4816   0.005   1.338  13.073  0.7285 -0.1530 -0.0136
  317MPD2    C3 4817   4.729   1.374  13.204  0.1658 -0.3236  0.4067
  317MPD2    C4 4818   4.657   1.484  13.237  0.1074  0.0027 -0.0462
  317MPD2    C5 4819   4.577   1.545  13.138  0.5237  0.5070  0.7802
  317MPD2     H 4820   0.064   1.251  13.048 -0.8200 -1.0131 -0.6939
  317MPD2    H1 4821   4.655   1.512  13.342  1.7880  3.2077 -0.8857
  317MPD2    H2 4822   4.511   1.534  12.931  1.3083  1.1060 -0.5836
  317MPD2    H3 4823   4.512   1.628  13.164 -0.6300  0.1666 -1.0526
  317MPD2     N 4824   0.059   1.290  13.302 -0.3111  0.0605 -0.2261
  317MPD2    H5 4825   0.099   1.206  13.263 -0.9382 -0.2952 -0.1070
  317MPD2    N1 4826   4.665   1.327  12.852 -0.2965 -0.0760 -0.1977
  317MPD2    H7 4827   4.710   1.237  12.843  2.2522  1.2265 -0.7487
  318TMC3    C1 4828   0.164   1.225  13.500  0.6360 -0.0140 -0.1141
  318TMC3    C2 4829   0.120   1.097  13.484 -0.1469 -0.4927  0.1071
  318TMC3    C3 4830   0.138   1.003  13.587 -0.1992 -0.2437  0.0825
  318TMC3    C4 4831   0.230   1.265  13.614 -0.1584 -0.2258  0.8870
  318TMC3    C5 4832   0.258   1.171  13.704  0.4698  0.0996  0.2915
  318TMC3    C6 4833   0.219   1.035  13.697 -0.0638 -0.3822 -0.3171
  318TMC3     C 4834   0.095   1.332  13.425  0.1289  0.3283 -0.3867
  318TMC3     O 4835   0.092   1.440  13.484  0.2090  0.2435  0.0354
  318TMC3     H 4836   0.092   1.068  13.383  0.3988  0.9562 -0.4574
  318TMC3    H1 4837   0.266   1.366  13.630 -0.0198  0.2593 -2.4896
  318TMC3    H2 4838   0.254   0.953  13.758  1.0274  0.7830  0.6142
  318TMC3    C7 4839   0.359   1.210  13.804  0.5189  0.8682 -0.2686
  318TMC3    C8 4840   0.095   0.866  13.577 -0.1538 -0.5083  0.3697
  318TMC3    O1 4841   0.357   1.331  13.828  0.6597  0.1794  0.4736
  318TMC3    O2 4842   0.114   0.790  13.673 -0.0338 -0.0500 -0.4683
  319MPD2     C 4843   0.778   2.697  16.640  0.4221  0.3258 -0.8214
  319MPD2    C1 4844   0.779   2.560  16.660  1.0085 -0.3972 -0.2834
  319MPD2    C2 4845   0.671   2.475  16.626 -0.6328 -0.2350 -0.0991
  319MPD2    C3 4846   0.559   2.529  16.562 -0.2935  0.7622 -0.5754
  319MPD2    C4 4847   0.561   2.665  16.543 -0.5670 -0.4568 -0.5014
  319MPD2    C5 4848   0.664   2.747  16.584 -0.2218 -0.3688 -0.1182
  319MPD2     H 4849   0.671   2.369  16.650  0.0115  0.4404  2.9844
  319MPD2    H1 4850   0.470   2.710  16.504 -0.5979 -1.1234 -1.1937
  319MPD2    H2 4851   0.854   2.769  16.670  1.4909 -0.2332 -2.1729
  319MPD2    H3 4852   0.659   2.856  16.579 -1.8498 -0.4604 -0.4701
  319MPD2     N 4853   0.451   2.447  16.529  0.1691 -0.6596  0.1292
  319MPD2    H5 4854   0.369   2.494  16.494 -1.0206 -3.3510 -0.7126
  319MPD2    N1 4855   0.895   2.493  16.713  0.4251 -0.6407  0.3178
  319MPD2    H7 4856   0.887   2.392  16.707  0.1443 -0.7118  1.6677
  320TMC3    C1 4857   0.316   2.262  16.497  0.4871 -0.4078  0.0236
  320TMC3    C2 4858   0.237   2.335  16.416 -0.2305 -0.3691 -0.1048
  320TMC3    C3 4859   0.136   2.273  16.339 -0.8175  0.4241  0.7573
  320TMC3    C4 4860   0.298   2.130  16.509  0.1906 -0.1593  0.0037
  320TMC3    C5 4861   0.194   2.062  16.435 -0.4824 -0.0433  0.0874
  320TMC3    C6 4862   0.125   2.135  16.338 -0.1381  0.5546 -0.0768
  320TMC3     C 4863   0.452   2.310  16.532 -0.2438  0.6804  0.4346
  320TMC3     O 4864   0.540   2.231  16.555 -0.2082  0.5164 -0.2571
  320TMC3     H 4865   0.253   2.442  16.402  2.2469 -1.0388 -2.4585
  320TMC3    H1 4866   0.352   2.071  16.582 -1.3386 -0.8255  0.6177
  320TMC3    H2 4867   0.058   2.079  16.273  1.2102 -1.4267  0.2439
  320TMC3    C7 4868   0.235   1.937  16.389 -0.9051 -0.0586 -0.0062
  320TMC3    C8 4869   0.090   2.353  16.225 -0.4769  0.3658 -0.1543
  320TMC3    O1 4870   0.205   1.910  16.273 -0.6084 -0.8104 -0.3946
  320TMC3    O2 4871   0.116   2.471  16.234  0.0665  0.5670  0.3710
  321TMC3    C1 4872   1.106   2.461  16.812  0.1399  0.5298 -0.3343
  321TMC3    C2 4873   1.085   2.326  16.809 -0.8341  0.4064  0.7757
  321TMC3    C3 4874   1.194   2.245  16.820 -0.6900  0.3930 -0.4028
  321TMC3    C4 4875   1.231   2.508  16.805 -0.5733  0.1121  0.1855
  321TMC3    C5 4876   1.339   2.426  16.815 -0.2843  0.0803 -0.3683
  321TMC3    C6 4877   1.317   2.295  16.810  0.2503 -0.2828  0.6603
  321TMC3     C 4878   1.001   2.555  16.775 -0.1985  0.2425 -0.1033
  321TMC3     O 4879   1.026   2.677  16.780  0.3311 -0.4038  0.2550
  321TMC3     H 4880   0.987   2.280  16.812 -0.3160 -0.5945  3.2969
  321TMC3    H1 4881   1.242   2.614  16.823 -1.8332  0.1802  0.5522
  321TMC3    H2 4882   1.400   2.226  16.811  0.1490 -0.3954  1.2596
  321TMC3    C7 4883   1.429   2.451  16.919 -0.4202 -0.0955  0.0491
  321TMC3    C8 4884   1.175   2.163  16.935 -0.8050  0.0084 -0.3101
  321TMC3    O1 4885   1.477   2.362  16.988 -0.1552  0.1824  0.5916
  321TMC3    O2 4886   1.069   2.106  16.954 -0.1959  0.0074 -0.0375
  322MPD2     C 4887   4.309   4.230  13.737 -0.1545  1.2292 -0.9651
  322MPD2    C1 4888   4.429   4.188  13.786 -0.5606 -0.3586  0.5261
  322MPD2    C2 4889   4.509   4.109  13.709 -0.4784 -0.2002 -0.4652
  322MPD2    C3 4890   4.484   4.085  13.578  0.2229  0.1569  0.1512
  322MPD2    C4 4891   4.365   4.133  13.526  0.3533 -0.2344  0.0649
  322MPD2    C5 4892   4.278   4.206  13.601  0.0984  0.2550 -0.2399
  322MPD2     H 4893   4.601   4.076  13.756  0.0385  0.6354 -0.9075
  322MPD2    H1 4894   4.338   4.116  13.422 -2.2588 -1.0139  0.8801
  322MPD2    H2 4895   4.248   4.296  13.797  0.0333  0.8185 -0.3240
  322MPD2    H3 4896   4.182   4.235  13.560  2.0296  4.4161 -1.7224
  322MPD2     N 4897   4.581   4.014  13.510 -0.0869  0.1481 -1.2343
  322MPD2    H5 4898   4.654   3.971  13.565  1.6225  0.9686 -2.8613
  322MPD2    N1 4899   4.482   4.230  13.916 -0.1363 -0.3154  0.3787
  322MPD2    H7 4900   4.572   4.186  13.929 -0.6743 -0.6727  2.7921
  323TMC3    C1 4901   4.487   4.365  14.113  0.7377  0.3649  0.0968
  323TMC3    C2 4902   4.604   4.412  14.058  0.3214  0.6664  0.2213
  323TMC3    C3 4903   4.712   4.425  14.138 -0.2804  0.4190  0.1089
  323TMC3    C4 4904   4.476   4.321  14.241  0.0853 -0.1882 -0.1692
  323TMC3    C5 4905   4.588   4.322  14.310  0.9403 -0.0976  0.0739
  323TMC3    C6 4906   4.707   4.382  14.268 -0.3150 -0.3273 -0.1338
  323TMC3     C 4907   4.410   4.295  14.017 -0.1676 -0.1973  0.2909
  323TMC3     O 4908   4.290   4.302  14.029 -0.5926 -0.3622  0.6353
  323TMC3     H 4909   4.591   4.456  13.959 -2.5928 -0.4359  0.1215
  323TMC3    H1 4910   4.392   4.261  14.273  2.0562 -1.1339  3.3115
  323TMC3    H2 4911   0.062   4.394  14.327 -0.2063 -0.7017 -0.2220
  323TMC3    C7 4912   4.592   4.208  14.403  0.5615  0.1740  0.1182
  323TMC3    C8 4913   0.109   4.453  14.081 -0.4298 -0.2198 -0.1160
  323TMC3    O1 4914   4.498   4.132  14.404 -0.2929  0.3615 -0.4453
  323TMC3    O2 4915   0.204   4.400  14.137 -0.3179  0.0628  0.4130
  324MPD2     C 4916   1.761   0.503  14.464 -0.1585 -0.5783  0.6058
  324MPD2    C1 4917   1.672   0.588  14.532 -0.5589 -0.0646  0.0299
  324MPD2    C2 4918   1.541   0.608  14.481 -0.3564  0.0439  0.8427
  324MPD2    C3 4919   1.506   0.546  14.359 -0.4472  0.2614 -0.3283
  324MPD2    C4 4920   1.585   0.453  14.300 -0.0333  0.0555  0.0347
  324MPD2    C5 4921   1.712   0.442  14.348  0.1967 -0.5849  0.2404
  324MPD2     H 4922   1.475   0.678  14.530 -2.6849 -0.9251 -0.8927
  324MPD2    H1 4923   1.549   0.405  14.210  2.2541 -0.6064 -0.5167
  324MPD2    H2 4924   1.866   0.500  14.489  0.2976  1.2260 -1.0726
  324MPD2    H3 4925   1.784   0.382  14.293  0.6758 -0.0444  0.2742
  324MPD2     N 4926   1.375   0.538  14.308  0.1232  0.2854  0.4053
  324MPD2    H5 4927   1.361   0.482  14.224  1.9073  0.9459 -0.3330
  324MPD2    N1 4928   1.700   0.665  14.649  0.4867 -0.6495 -0.0448
  324MPD2    H7 4929   1.640   0.744  14.665 -0.8751 -1.7797  0.4281
  325TMC3    C1 4930   1.137   0.590  14.282  0.3755  0.1257 -0.0613
  325TMC3    C2 4931   1.134   0.497  14.182 -0.2385 -0.0067 -0.4352
  325TMC3    C3 4932   1.029   0.495  14.098 -0.9753  0.6795 -0.0117
  325TMC3    C4 4933   1.047   0.691  14.288 -0.9583 -0.7019  0.2929
  325TMC3    C5 4934   0.937   0.680  14.211 -0.1714  0.0488 -0.9070
  325TMC3    C6 4935   0.923   0.585  14.110  0.0952 -0.1906  0.2785
  325TMC3     C 4936   1.266   0.610  14.354  0.1584 -0.4831 -0.1418
  325TMC3     O 4937   1.271   0.672  14.461 -0.3532 -0.1055 -0.5156
  325TMC3     H 4938   1.199   0.410  14.179 -0.9369 -0.5140 -0.7489
  325TMC3    H1 4939   1.063   0.767  14.363  0.8540 -0.0913 -0.7066
  325TMC3    H2 4940   0.839   0.571  14.043  0.4451 -0.3585 -0.1250
  325TMC3    C7 4941   0.817   0.741  14.256  0.1266 -0.0948 -0.0222
  325TMC3    C8 4942   1.016   0.379  14.019  0.4820 -0.0538  0.0569
  325TMC3    O1 4943   0.819   0.773  14.373 -0.4384 -0.4057 -0.2155
  325TMC3    O2 4944   1.116   0.354  13.953  0.0017 -0.1117 -0.1275
  326MPD2     C 4945   1.990   1.340  11.149 -1.0215  0.2287 -0.6786
  326MPD2    C1 4946   2.056   1.310  11.025  0.1522 -0.6035  0.4176
  326MPD2    C2 4947   2.193   1.326  11.022  0.4286  0.4236  0.4403
  326MPD2    C3 4948   2.263   1.376  11.133 -0.6889  0.1027 -0.0701
  326MPD2    C4 4949   2.199   1.395  11.253 -0.0487 -0.1781  0.5246
  326MPD2    C5 4950   2.064   1.376  11.255  0.3553 -0.0288  0.4773
  326MPD2     H 4951   2.247   1.306  10.930  1.7154  2.2185  0.7956
  326MPD2    H1 4952   2.249   1.445  11.336 -0.7203 -1.2081  1.5488
  326MPD2    H2 4953   1.882   1.331  11.158 -0.8423  0.4298  1.6340
  326MPD2    H3 4954   2.007   1.393  11.346 -0.3894 -0.7802  0.1474
  326MPD2     N 4955   2.401   1.396  11.136  0.3266  0.2165  0.2184
  326MPD2    H5 4956   2.434   1.444  11.219  1.6089 -1.4922  0.6866
  326MPD2    N1 4957   1.987   1.246  10.920 -0.0604  0.3820  0.6069
  326MPD2    H7 4958   2.036   1.239  10.831 -0.4597 -0.3152  0.4459
  327TMC3    C1 4959   1.830   1.167  10.776  0.6196  0.4757  0.1216
  327TMC3    C2 4960   1.810   1.257  10.676  0.2811 -0.1665  0.3064
  327TMC3    C3 4961   1.859   1.238  10.546 -0.5765  0.3783  0.0946
  327TMC3    C4 4962   1.917   1.065  10.748 -0.1565 -0.1296 -0.5175
  327TMC3    C5 4963   1.964   1.047  10.624  0.4897 -0.4396 -0.1781
  327TMC3    C6 4964   1.937   1.128  10.522 -0.4020 -0.1422  0.0903
  327TMC3     C 4965   1.850   1.228  10.907 -0.7089  0.0595 -0.0573
  327TMC3     O 4966   1.758   1.228  10.987 -0.3669 -0.0302  0.5438
  327TMC3     H 4967   1.785   1.355  10.715 -1.6839 -0.5976  0.1427
  327TMC3    H1 4968   1.929   0.995  10.829 -0.7404  0.4185  0.0421
  327TMC3    H2 4969   1.972   1.115  10.420  0.2095 -4.9302  0.9147
  327TMC3    C7 4970   2.099   1.010  10.605 -0.4829  0.1138 -0.2635
  327TMC3    C8 4971   1.915   1.349  10.470  0.2243  0.2822 -0.0528
  327TMC3    O1 4972   2.150   1.042  10.495 -0.0060  0.0219  0.3365
  327TMC3    O2 4973   2.030   1.345  10.436 -0.3557  0.0669 -0.5518
  328MPD2     C 4974   0.201   1.321  17.226  0.4008  0.7418 -0.2559
  328MPD2    C1 4975   0.116   1.223  17.182  0.1121 -0.2928 -0.5468
  328MPD2    C2 4976   0.016   1.254  17.092 -0.0691 -0.0441 -0.3281
  328MPD2    C3 4977   4.730   1.383  17.048  0.7522  0.3743 -0.4964
  328MPD2    C4 4978   0.075   1.484  17.097 -0.0828  0.6846 -0.4321
  328MPD2    C5 4979   0.175   1.450  17.184  0.1308 -0.4095 -0.1367
  328MPD2     H 4980   4.671   1.183  17.074  0.7620 -1.3914  1.2411
  328MPD2    H1 4981   0.067   1.586  17.059  1.6467  1.0142  0.0859
  328MPD2    H2 4982   0.283   1.305  17.295  0.0548 -1.0445 -0.2657
  328MPD2    H3 4983   0.244   1.526  17.219  0.1623  0.5697 -2.3173
  328MPD2     N 4984   4.619   1.413  16.959 -0.3424 -0.7268  0.1071
  328MPD2    H5 4985   4.605   1.511  16.939  0.0490 -0.7457 -0.2720
  328MPD2    N1 4986   0.126   1.088  17.229 -0.2554  0.0392 -0.3335
  328MPD2    H7 4987   0.064   1.019  17.187  1.6643 -1.0641 -1.3402
  329TMC3    C1 4988   0.142   0.926  17.392  0.4951 -0.0109  0.3655
  329TMC3    C2 4989   0.125   0.905  17.526 -0.2343 -0.3668  0.1612
  329TMC3    C3 4990   0.093   0.778  17.563  0.5258  0.4532  0.8534
  329TMC3    C4 4991   0.152   0.819  17.304 -0.4573 -0.3977 -0.7178
  329TMC3    C5 4992   0.128   0.693  17.352  1.3771 -0.2660 -0.3974
  329TMC3    C6 4993   0.103   0.672  17.485  0.2919 -0.1005 -1.1056
  329TMC3     C 4994   0.189   1.049  17.347  0.1748 -1.2028  0.2693
  329TMC3     O 4995   0.256   1.103  17.438 -0.0358  0.1420 -0.6046
  329TMC3     H 4996   0.113   0.992  17.589  0.9537  1.9483 -2.8147
  329TMC3    H1 4997   0.190   0.838  17.204  1.2875 -2.1330 -0.3734
  329TMC3    H2 4998   0.104   0.570  17.522  3.0701 -0.2062 -1.4544
  329TMC3    C7 4999   0.165   0.576  17.269 -0.2987  0.6555  0.1826
  329TMC3    C8 5000   4.725   0.756  17.663 -0.9948 -0.1485  0.0556
  329TMC3    O1 5001   0.224   0.485  17.328 -0.0408  0.3659  0.0648
  329TMC3    O2 5002   4.647   0.666  17.651 -0.3451  0.7716  0.3725
  330TMC3    C1 5003   3.386   0.672   9.807  0.8207  0.0531  0.0623
  330TMC3    C2 5004   3.372   0.608   9.682  0.4284  0.5633 -0.7520
  330TMC3    C3 5005   3.327   0.482   9.685  0.5255  0.0216  0.0860
  330TMC3    C4 5006   3.372   0.600   9.925  0.2284 -0.5322 -0.2886
  330TMC3    C5 5007   3.349   0.463   9.927  0.4545  0.1663  0.2796
  330TMC3    C6 5008   3.310   0.411   9.800 -0.0996  0.4088  0.1211
  330TMC3     C 5009   3.413   0.814   9.817  0.4125 -0.0560  0.2286
  330TMC3     O 5010   3.428   0.857   9.929  0.2643  0.7175 -0.3313
  330TMC3     H 5011   3.366   0.656   9.584  2.2954  0.7719 -0.7770
  330TMC3    H1 5012   3.397   0.650  10.018  0.5226  0.6260 -0.9924
  330TMC3    H2 5013   3.286   0.305   9.797 -1.4908  0.7381 -0.6761
  330TMC3    C7 5014   3.324   0.390  10.049 -0.5481 -0.5079 -0.8285
  330TMC3    C8 5015   3.283   0.422   9.561 -0.0565  0.3417 -0.0104
  330TMC3    O1 5016   3.272   0.279  10.040  0.3251  0.3914  0.1456
  330TMC3    O2 5017   3.347   0.454   9.466  0.5413  0.2312 -0.1696
  331MPD2     C 5018   0.949   4.449  12.124 -0.1734 -0.5902  0.5662
  331MPD2    C1 5019   0.950   4.486  11.992  0.2688  0.9669 -0.1247
  331MPD2    C2 5020   1.037   4.414  11.908  0.2402  0.4386 -0.5729
  331MPD2    C3 5021   1.109   4.307  11.951 -0.0128 -0.5548 -0.2070
  331MPD2    C4 5022   1.094   4.274  12.085  0.1298 -0.3889 -0.7005
  331MPD2    C5 5023   1.009   4.339  12.173  0.3932 -0.2732  0.4659
  331MPD2     H 5024   1.049   4.441  11.803  1.4083 -2.7908 -1.2707
  331MPD2    H1 5025   1.154   4.192  12.123  1.4308  0.5573 -0.7327
  331MPD2    H2 5026   0.899   4.507  12.201  1.0522  0.1351  0.8048
  331MPD2    H3 5027   1.007   4.302  12.275  1.2006  2.9018  1.6257
  331MPD2     N 5028   1.189   4.237  11.856  0.1906 -0.2316 -0.0478
  331MPD2    H5 5029   1.196   4.280  11.765  0.2666 -1.9938 -0.8774
  331MPD2    N1 5030   0.864   4.586  11.942 -0.7878  0.1324 -0.2453
  331MPD2    H7 5031   0.834   4.661  12.003  3.2361 -0.3422  2.2409
  332TMC3    C1 5032   1.327   4.080  11.757  0.3954  0.8696  0.1166
  332TMC3    C2 5033   1.325   4.151  11.637 -0.0154 -0.1097  0.4755
  332TMC3    C3 5034   1.415   4.115  11.544 -0.3108 -0.0813  0.1429
  332TMC3    C4 5035   1.422   3.975  11.777  0.3702 -0.5816  0.1610
  332TMC3    C5 5036   1.509   3.946  11.678  0.1046  0.5529 -0.3562
  332TMC3    C6 5037   1.504   4.009  11.560  0.4843 -0.3617  0.1463
  332TMC3     C 5038   1.256   4.121  11.876  0.0932  0.4034  0.1375
  332TMC3     O 5039   1.277   4.065  11.978 -0.8904  0.0859 -0.0173
  332TMC3     H 5040   1.253   4.229  11.616 -2.0419 -1.2504  3.1823
  332TMC3    H1 5041   1.419   3.914  11.867 -0.0732  0.0516  0.5828
  332TMC3    H2 5042   1.580   3.976  11.490 -2.1395 -1.1176 -2.3461
  332TMC3    C7 5043   1.630   3.879  11.713  0.5875 -0.3808 -0.0757
  332TMC3    C8 5044   1.434   4.206  11.427 -0.1285 -0.1275 -0.0082
  332TMC3    O1 5045   1.700   3.829  11.626  0.2209  0.5409 -0.4779
  332TMC3    O2 5046   1.411   4.327  11.450  0.6264  0.0371  0.4985
  333MPD2     C 5047   1.040   0.101  10.919  0.0590 -0.5028 -0.4083
  333MPD2    C1 5048   1.115   0.006  10.844 -0.0791  0.0364 -0.0342
  333MPD2    C2 5049   1.140   4.614  10.906 -0.3635  0.1287  0.4341
  333MPD2    C3 5050   1.100   4.582  11.027 -0.3259 -0.3757  0.6222
  333MPD2    C4 5051   1.042   4.681  11.109 -0.0693  0.1147 -0.4725
  333MPD2    C5 5052   1.007   0.064  11.045  0.1870  0.3925 -0.7205
  333MPD2     H 5053   1.194   4.540  10.847 -0.0951  1.8028 -1.4319
  333MPD2    H1 5054   0.998   4.654  11.204 -0.3439 -0.7706 -0.8527
  333MPD2    H2 5055   1.006   0.198  10.885 -2.0603 -1.6930 -1.6584
  333MPD2    H3 5056   0.944   0.130  11.105  0.2989  0.7365 -0.9797
  333MPD2     N 5057   1.115   4.449  11.063 -0.3944 -0.3959 -0.4647
  333MPD2    H5 5058   1.133   4.391  10.982 -2.2447  1.5780 -2.3063
  333MPD2    N1 5059   1.154   0.039  10.711  0.8263 -0.0331  0.0452
  333MPD2    H7 5060   1.176   0.136  10.691  2.9610  0.0136  2.5577
  334TMC3    C1 5061   1.234   0.017  10.500  0.4373 -0.4271 -0.2227
  334TMC3    C2 5062   1.342   4.695  10.437 -0.9086  0.3092 -0.3846
  334TMC3    C3 5063   1.386   0.032  10.330  0.7066 -0.9085 -0.0281
  334TMC3    C4 5064   1.171   0.135  10.467 -0.5240  0.2149 -0.1330
  334TMC3    C5 5065   1.225   0.197  10.361 -0.4135 -0.1581  0.3328
  334TMC3    C6 5066   1.328   0.148  10.285  0.4642  0.2165  0.1459
  334TMC3     C 5067   1.191   4.683  10.614 -0.0526 -0.0206  0.7959
  334TMC3     O 5068   1.174   4.563  10.598  0.1235 -0.5505 -0.4578
  334TMC3     H 5069   1.381   4.597  10.463 -1.2732  0.7270  1.7166
  334TMC3    H1 5070   1.079   0.162  10.518  0.5304  1.1283  1.2712
  334TMC3    H2 5071   1.367   0.208  10.204  2.2192 -0.6707  0.3212
  334TMC3    C7 5072   1.167   0.321  10.328  0.0910  0.1494  0.2743
  334TMC3    C8 5073   1.479   4.698  10.249 -0.3963  0.3410  0.2780
  334TMC3    O1 5074   1.244   0.399  10.273  0.5503  0.4910 -0.3123
  334TMC3    O2 5075   1.476   4.577  10.248  0.2001  0.1495 -0.4084
  335TMC3    C1 5076   0.974   1.621   0.109  0.2173  1.1967 -0.4032
  335TMC3    C2 5077   0.893   1.597   0.007 -0.0858 -0.2111  0.4412
  335TMC3    C3 5078   0.939   1.638  17.628 -0.5643 -0.0708  0.4763
  335TMC3    C4 5079   1.103   1.661   0.098  0.5297  0.3818  0.2152
  335TMC3    C5 5080   1.144   1.695  17.718 -0.6285 -0.6870  0.0696
  335TMC3    C6 5081   1.063   1.698  17.607 -0.1864  0.4023  0.7896
  335TMC3     C 5082   0.936   1.589   0.246  0.2237 -0.4605  0.4655
  335TMC3     O 5083   0.997   1.644   0.333 -0.0078  0.4707 -0.3640
  335TMC3     H 5084   0.789   1.577   0.032 -0.5257 -0.4447 -1.5380
  335TMC3    H1 5085   1.168   1.669   0.184  1.1894 -1.5614 -0.1125
  335TMC3    H2 5086   1.098   1.713  17.506  0.4222 -1.0650  0.7953
  335TMC3    C7 5087   1.277   1.648  17.684  0.1563 -0.1024 -0.0303
  335TMC3    C8 5088   0.865   1.588  17.507  0.6758 -0.1354 -0.3417
  335TMC3    O1 5089   1.332   1.706  17.590 -0.0611  0.1841 -0.4289
  335TMC3    O2 5090   0.906   1.631  17.401  0.3750  0.8324 -0.0729
  336MPD2     C 5091   0.494   3.793  16.065 -0.6925  0.4496 -0.0557
  336MPD2    C1 5092   0.481   3.748  15.932 -0.3058 -0.2687  0.1999
  336MPD2    C2 5093   0.544   3.627  15.897  0.7946 -0.2207  0.3157
  336MPD2    C3 5094   0.632   3.571  15.990  0.3000 -0.4303  0.5574
  336MPD2    C4 5095   0.651   3.621  16.112  0.2845 -0.6802  0.3263
  336MPD2    C5 5096   0.588   3.737  16.147  0.4875 -0.5887 -0.4656
  336MPD2     H 5097   0.533   3.593  15.795  0.1219 -0.8574  0.5997
  336MPD2    H1 5098   0.723   3.569  16.174 -1.3652 -2.0571  1.0950
  336MPD2    H2 5099   0.437   3.878  16.100 -0.0738  1.1241 -0.6828
  336MPD2    H3 5100   0.596   3.779  16.247  0.2789 -0.9459 -0.3000
  336MPD2     N 5101   0.697   3.444  15.974  0.0307  0.6719 -0.3505
  336MPD2    H5 5102   0.736   3.404  16.058 -2.3352 -1.6578 -0.3473
  336MPD2    N1 5103   0.398   3.807  15.841  0.0601 -0.0025 -0.6352
  336MPD2    H7 5104   0.405   3.778  15.744  0.5700 -1.1404 -0.2569
  337TMC3    C1 5105   0.239   3.949  15.749 -0.5029 -0.0483  0.1078
  337TMC3    C2 5106   0.184   3.852  15.676  0.2601 -0.5569  0.2142
  337TMC3    C3 5107   0.094   3.894  15.579 -0.0735 -0.1865  0.1699
  337TMC3    C4 5108   0.219   4.082  15.722  0.9320  0.3543  0.7646
  337TMC3    C5 5109   0.141   4.112  15.615 -0.1565  0.7112  0.6843
  337TMC3    C6 5110   0.072   4.018  15.541  0.4529  0.2399  0.5616
  337TMC3     C 5111   0.319   3.918  15.862 -0.0904  1.0337 -0.9429
  337TMC3     O 5112   0.324   3.987  15.962  0.0514  0.3306  0.0335
  337TMC3     H 5113   0.205   3.748  15.701 -2.7959 -1.7772 -2.2821
  337TMC3    H1 5114   0.266   4.156  15.785 -0.2259  1.6494  0.0918
  337TMC3    H2 5115   0.011   4.047  15.456  0.3306 -0.2685  0.4773
  337TMC3    C7 5116   0.198   4.232  15.545  0.1730  0.7099 -0.0574
  337TMC3    C8 5117   0.024   3.784  15.520 -0.5285 -0.1423  0.4381
  337TMC3    O1 5118   0.308   4.270  15.578  0.1219  0.0483  1.4352
  337TMC3    O2 5119   0.096   3.687  15.492  0.2991 -0.3023  0.1437
  338MPD2     C 5120   0.941   3.541   1.034 -0.5007  0.1721 -0.5780
  338MPD2    C1 5121   0.910   3.426   0.964  0.5090 -0.1327  0.3037
  338MPD2    C2 5122   0.774   3.395   0.931 -0.5518  0.3656  0.2591
  338MPD2    C3 5123   0.667   3.466   0.976  0.4206 -0.1721  0.3015
  338MPD2    C4 5124   0.698   3.574   1.054 -0.2192  0.6056 -0.1244
  338MPD2    C5 5125   0.834   3.607   1.088  0.0199  0.2893 -0.4321
  338MPD2     H 5126   0.754   3.309   0.867 -0.8622  0.0083  0.8425
  338MPD2    H1 5127   0.626   3.624   1.117 -1.1625  0.6180 -1.2127
  338MPD2    H2 5128   1.044   3.568   1.054 -0.4345 -1.5179  1.3552
  338MPD2    H3 5129   0.853   3.687   1.159  1.0738 -1.3417  1.1372
  338MPD2     N 5130   0.540   3.425   0.940  0.1755  0.1226  0.0277
  338MPD2    H5 5131   0.530   3.367   0.858  1.5559  2.8080 -2.0587
  338MPD2    N1 5132   1.002   3.341   0.903  0.1788  0.1034  0.5166
  338MPD2    H7 5133   0.973   3.272   0.835  1.7123 -1.3927  1.3533
  339TMC3    C1 5134   0.299   3.428   0.932  0.4879  0.1021 -0.1584
  339TMC3    C2 5135   0.200   3.396   1.012 -0.3074 -0.7939 -0.1675
  339TMC3    C3 5136   0.098   3.316   0.961  0.2174  0.0622  0.8635
  339TMC3    C4 5137   0.304   3.402   0.800  0.0344  0.3696  0.2562
  339TMC3    C5 5138   0.187   3.349   0.748  0.5226  0.5522 -0.1738
  339TMC3    C6 5139   0.085   3.292   0.830  0.7905  1.1392  0.2358
  339TMC3     C 5140   0.421   3.482   0.991  0.3584  0.2374 -0.3161
  339TMC3     O 5141   0.402   3.534   1.103 -0.0445 -0.0910 -0.2230
  339TMC3     H 5142   0.211   3.422   1.116  3.0459  0.2334 -0.7979
  339TMC3    H1 5143   0.391   3.438   0.747  0.0070  0.6646  0.4122
  339TMC3    H2 5144   0.001   3.240   0.784  0.4583  1.1104  0.8813
  339TMC3    C7 5145   0.187   3.304   0.605  0.0479 -0.5483 -0.4036
  339TMC3    C8 5146   4.735   3.270   1.051 -0.1767 -0.3444 -0.1722
  339TMC3    O1 5147   0.142   3.192   0.581 -0.2326 -0.1731  0.0672
  339TMC3    O2 5148   4.627   3.233   1.005  0.1952 -0.0389 -0.9440
  340MPD2     C 5149   1.360   1.258   9.715 -0.0877 -0.3814  0.0619
  340MPD2    C1 5150   1.343   1.159   9.804  0.4824  1.0858  0.1803
  340MPD2    C2 5151   1.436   1.160   9.904 -0.2181 -0.2816  0.0224
  340MPD2    C3 5152   1.541   1.251   9.911 -0.1727  0.1721  0.3360
  340MPD2    C4 5153   1.559   1.345   9.813 -0.7060 -0.0213  0.4382
  340MPD2    C5 5154   1.462   1.351   9.714  0.0585 -0.0524  0.3707
  340MPD2     H 5155   1.428   1.093   9.988 -1.2827  1.3167  1.1914
  340MPD2    H1 5156   1.640   1.417   9.809 -0.6154 -0.1399  0.0815
  340MPD2    H2 5157   1.302   1.279   9.626 -0.4478 -2.3843 -0.1765
  340MPD2    H3 5158   1.462   1.426   9.636  4.7470 -0.0154  0.4102
  340MPD2     N 5159   1.630   1.241  10.019  0.7035  0.6869  0.4305
  340MPD2    H5 5160   1.601   1.172  10.088  0.1661  0.3266 -0.1486
  340MPD2    N1 5161   1.247   1.057   9.780  0.2088 -0.1126 -0.2024
  340MPD2    H7 5162   1.188   1.063   9.698 -1.6284  0.2826  1.1403
  341TMC3    C1 5163   1.110   0.872   9.818 -0.8569  0.3134 -0.4748
  341TMC3    C2 5164   1.045   0.791   9.908  0.3206  0.0201  0.0930
  341TMC3    C3 5165   0.937   0.729   9.857  1.3058 -0.1109 -0.5330
  341TMC3    C4 5166   1.086   0.874   9.680  0.6051  0.0597 -0.0981
  341TMC3    C5 5167   0.982   0.798   9.640 -0.3516 -0.3285  0.0942
  341TMC3    C6 5168   0.894   0.736   9.728  0.0906 -0.0181 -0.2668
  341TMC3     C 5169   1.216   0.954   9.864  0.1153 -0.1504  0.6403
  341TMC3     O 5170   1.260   0.934   9.973 -0.2504  0.2786  0.0860
  341TMC3     H 5171   1.084   0.763  10.005 -2.6645 -2.8279  0.4799
  341TMC3    H1 5172   1.165   0.901   9.610 -1.1335  0.0945 -2.0498
  341TMC3    H2 5173   0.810   0.671   9.706  0.5140 -1.0005  1.0201
  341TMC3    C7 5174   0.999   0.743   9.506  0.1344  0.0254 -0.0885
  341TMC3    C8 5175   0.855   0.634   9.933 -0.1948  0.1886 -0.0114
  341TMC3    O1 5176   1.101   0.762   9.442  0.4388  0.1317  0.2181
  341TMC3    O2 5177   0.730   0.643   9.921 -0.2147 -0.0656 -0.7239
  342MPD2     C 5178   3.743   3.980  17.552  0.1996 -0.0711  0.0478
  342MPD2    C1 5179   3.875   3.997  17.522  0.1316  0.2149 -0.3504
  342MPD2    C2 5180   3.919   4.129  17.516 -0.1176 -0.0490 -0.5532
  342MPD2    C3 5181   3.838   4.234  17.560 -0.5421  0.4391 -0.1545
  342MPD2    C4 5182   3.708   4.210  17.604 -0.2545 -0.5445 -0.0887
  342MPD2    C5 5183   3.659   4.085  17.596 -0.0256 -0.7526  0.1709
  342MPD2     H 5184   4.024   4.145  17.493  0.0130 -2.2637 -1.4767
  342MPD2    H1 5185   3.651   4.289  17.652 -0.2682 -0.4344 -0.2843
  342MPD2    H2 5186   3.695   3.883  17.555  1.7819 -0.8603 -0.1634
  342MPD2    H3 5187   3.560   4.067  17.635  0.0287 -0.0502  0.6309
  342MPD2     N 5188   3.907   4.362  17.585  0.0436 -0.4265  0.8981
  342MPD2    H5 5189   4.009   4.366  17.579  0.2146 -2.4935  2.5048
  342MPD2    N1 5190   3.963   3.895  17.478  0.4257  0.5600 -0.2603
  342MPD2    H7 5191   4.045   3.926  17.426  2.9966 -1.1411  2.8141
  343TMC3    C1 5192   4.016   3.671  17.434  0.2200  0.4748 -0.1938
  343TMC3    C2 5193   4.074   3.710  17.315  0.0375 -0.5299 -0.3682
  343TMC3    C3 5194   4.098   3.608  17.223 -0.1269  0.3217  0.2265
  343TMC3    C4 5195   3.987   3.543  17.469  0.1345  0.4908  0.3174
  343TMC3    C5 5196   3.998   3.453  17.371  0.9494 -0.0922  0.0940
  343TMC3    C6 5197   4.057   3.479  17.250  0.2055 -0.0478 -0.6458
  343TMC3     C 5198   3.935   3.767  17.506 -0.8360  0.3085 -0.3703
  343TMC3     O 5199   3.844   3.718  17.568 -0.2353  0.0756 -0.3540
  343TMC3     H 5200   4.084   3.815  17.291  1.4374 -0.9190 -1.5447
  343TMC3    H1 5201   3.932   3.519  17.559 -0.4782  1.7175  0.2735
  343TMC3    H2 5202   4.070   3.400  17.177 -0.4584  0.8771 -1.7704
  343TMC3    C7 5203   3.947   3.323  17.394 -0.1023  0.2354 -0.4557
  343TMC3    C8 5204   4.198   3.643  17.127  0.1725 -0.9787  0.2279
  343TMC3    O1 5205   3.912   3.264  17.293  0.5982 -0.0781  0.3988
  343TMC3    O2 5206   4.252   3.749  17.150  1.1601 -0.7461 -0.2699
  344MPD2     C 5207   4.438   3.482  10.131  0.5457 -0.1206 -0.2744
  344MPD2    C1 5208   4.457   3.529  10.258  0.2072 -0.0857  0.2038
  344MPD2    C2 5209   4.477   3.664  10.279  0.2265 -0.4456  0.5993
  344MPD2    C3 5210   4.482   3.752  10.172 -0.3103  0.4606 -0.1576
  344MPD2    C4 5211   4.465   3.700  10.040  0.1762  0.2032 -0.1687
  344MPD2    C5 5212   4.452   3.565  10.021 -0.3500 -0.0893 -0.6499
  344MPD2     H 5213   4.472   3.707  10.378 -1.9994  0.9231 -0.1216
  344MPD2    H1 5214   4.486   3.759   9.951 -0.3139  0.9374  0.1933
  344MPD2    H2 5215   4.423   3.378  10.105  2.0102 -0.7609  1.4549
  344MPD2    H3 5216   4.447   3.524   9.921 -2.2384  0.2409 -0.7080
  344MPD2     N 5217   4.487   3.894  10.179  0.0844  0.4394  0.4194
  344MPD2    H5 5218   4.482   3.943  10.090 -0.4630 -1.1310 -0.4210
  344MPD2    N1 5219   4.450   3.440  10.368  0.0649  0.3712 -0.0995
  344MPD2    H7 5220   4.463   3.484  10.459  1.5726  2.3186 -1.2659
  345TMC3    C1 5221   4.503   4.111  10.270 -0.0223 -0.5441  0.2268
  345TMC3    C2 5222   4.539   4.180  10.383 -0.1481  0.7333  0.0071
  345TMC3    C3 5223   4.573   4.308  10.365  0.3512  0.0977 -0.9428
  345TMC3    C4 5224   4.505   4.160  10.144 -0.1845  0.7092 -0.0158
  345TMC3    C5 5225   4.560   4.288  10.131  0.6283  0.2611 -0.0013
  345TMC3    C6 5226   4.587   4.364  10.241 -0.1093 -0.1696  0.3336
  345TMC3     C 5227   4.482   3.963  10.298 -0.0021  0.9338 -0.2719
  345TMC3     O 5228   4.453   3.927  10.410 -0.2314  0.3600  0.3876
  345TMC3     H 5229   4.522   4.143  10.483 -2.6483  0.5480 -0.4956
  345TMC3    H1 5230   4.448   4.111  10.066 -0.0991 -0.9838  0.9790
  345TMC3    H2 5231   4.643   4.455  10.229 -0.9611  0.4651  1.1942
  345TMC3    C7 5232   4.564   4.355  10.003 -0.6689 -0.5141 -0.3122
  345TMC3    C8 5233   4.622   4.383  10.477 -0.1270 -0.5162 -0.6203
  345TMC3    O1 5234   4.633   4.458  10.004 -0.2764 -0.1164 -0.5426
  345TMC3    O2 5235   4.674   4.327  10.569 -0.0393  0.0515 -0.5837
  346MPD2     C 5236   4.338   0.714  14.402  0.1171 -0.1369 -0.5316
  346MPD2    C1 5237   4.464   0.698  14.352 -0.4770 -0.1706  0.3619
  346MPD2    C2 5238   4.576   0.738  14.427  0.2330 -0.2785  0.4266
  346MPD2    C3 5239   4.566   0.790  14.553 -0.0710 -0.3553  0.4780
  346MPD2    C4 5240   4.438   0.792  14.609 -0.2920  0.2918 -0.2153
  346MPD2    C5 5241   4.334   0.749  14.533  0.0347  1.1069  0.2175
  346MPD2     H 5242   4.674   0.721  14.383 -0.1462  2.9612 -1.6421
  346MPD2    H1 5243   4.414   0.823  14.711 -0.1943 -1.0349  0.2035
  346MPD2    H2 5244   4.249   0.689  14.346 -0.1827  0.6891 -0.4269
  346MPD2    H3 5245   4.244   0.729  14.590 -0.0046  4.6552  1.4215
  346MPD2     N 5246   4.686   0.817  14.623  0.4074  0.6818 -0.1855
  346MPD2    H5 5247   0.036   0.783  14.581  0.9991  0.6529  1.0472
  346MPD2    N1 5248   4.485   0.660  14.215 -0.0336  0.0255  0.4528
  346MPD2    H7 5249   4.578   0.680  14.181  0.7818 -2.4318  1.2732
  347TMC3    C1 5250   0.097   0.881  14.787  0.1710 -0.5975 -0.6358
  347TMC3    C2 5251   0.184   0.885  14.683  0.2366 -0.2113  0.0419
  347TMC3    C3 5252   0.303   0.819  14.694  0.6397  0.7406 -0.7347
  347TMC3    C4 5253   0.129   0.809  14.896 -0.3140  0.0554 -0.0961
  347TMC3    C5 5254   0.252   0.745  14.906 -0.1795  0.4135 -0.9027
  347TMC3    C6 5255   0.338   0.744  14.802  0.4307 -0.4868  0.2162
  347TMC3     C 5256   4.696   0.872  14.747 -0.9447  0.8234  0.2279
  347TMC3     O 5257   4.608   0.924  14.809  0.1930  0.2788 -0.0723
  347TMC3     H 5258   0.164   0.951  14.600  1.2025 -0.1279 -0.1230
  347TMC3    H1 5259   0.048   0.790  14.965  0.0875  0.4411  0.4829
  347TMC3    H2 5260   0.430   0.687  14.793  0.4464 -0.2456 -1.1833
  347TMC3    C7 5261   0.250   0.633  14.996  0.0350  0.1425  0.6218
  347TMC3    C8 5262   0.393   0.809  14.577  0.8564  0.3967  0.2611
  347TMC3    O1 5263   0.148   0.609  15.059 -0.3378 -0.4491 -0.5776
  347TMC3    O2 5264   0.501   0.754  14.594 -0.6040 -0.3092 -0.0147
  348MPD2     C 5265   2.917   0.011  11.912  0.2539  0.2981 -0.2164
  348MPD2    C1 5266   3.048   0.053  11.894  0.1332  0.1849 -0.0193
  348MPD2    C2 5267   3.077   0.145  11.792  0.0069  0.1450  0.4830
  348MPD2    C3 5268   2.987   0.183  11.691  0.0554  0.6748  0.2947
  348MPD2    C4 5269   2.859   0.134  11.707  0.6815  0.1021  0.3630
  348MPD2    C5 5270   2.824   0.054  11.815 -0.2051 -0.3903 -0.9525
  348MPD2     H 5271   3.180   0.177  11.778  0.2077 -0.6105  0.2075
  348MPD2    H1 5272   2.777   0.159  11.640  0.3704 -0.4859  0.5171
  348MPD2    H2 5273   2.880   4.691  11.997 -1.0979  0.8527 -0.4303
  348MPD2    H3 5274   2.717   0.039  11.826 -0.0247 -1.1833 -0.3006
  348MPD2     N 5275   3.028   0.271  11.591  0.4703  0.5395 -0.4590
  348MPD2    H5 5276   3.125   0.301  11.593  0.2490  1.2211 -0.1686
  348MPD2    N1 5277   3.153   0.023  11.980 -0.0554  0.0811 -0.6181
  348MPD2    H7 5278   3.242   0.057  11.945 -0.4413 -0.2140 -1.8769
  349TMC3    C1 5279   3.287   4.634  12.124 -0.7831 -0.1591 -0.2418
  349TMC3    C2 5280   3.300   4.505  12.167 -0.8326 -0.0420  0.1242
  349TMC3    C3 5281   3.409   4.429  12.134 -0.1677  0.2113  0.3128
  349TMC3    C4 5282   3.389   4.703  12.074  0.2650 -0.4482 -0.6154
  349TMC3    C5 5283   3.506   4.623  12.042 -0.2825 -0.0513 -1.0753
  349TMC3    C6 5284   3.512   4.491  12.070 -0.0552  0.2831 -0.4236
  349TMC3     C 5285   3.152   4.681  12.091 -0.6063  0.4361 -0.2769
  349TMC3     O 5286   3.058   4.653  12.164 -0.3777  0.3844 -0.2280
  349TMC3     H 5287   3.217   4.459  12.219 -0.8163  1.3134  1.3774
  349TMC3    H1 5288   3.382   0.072  12.045  2.2107  0.5102  2.2422
  349TMC3    H2 5289   3.584   4.429  12.019 -0.8726 -0.4462 -0.6922
  349TMC3    C7 5290   3.547   4.653  11.902 -0.1724  0.8360 -0.1287
  349TMC3    C8 5291   3.439   4.303  12.205  0.5668  0.1015 -0.2379
  349TMC3    O1 5292   3.541   4.564  11.813  0.0229  0.1822  0.2798
  349TMC3    O2 5293   3.560   4.284  12.213  0.3570 -0.4559 -0.2540
  350MPD2     C 5294   2.678   3.277  10.521  0.2524  0.4941  0.1116
  350MPD2    C1 5295   2.655   3.159  10.591 -0.1720  0.1044 -0.4710
  350MPD2    C2 5296   2.620   3.170  10.721  0.0704  0.0023  0.8005
  350MPD2    C3 5297   2.606   3.293  10.783  0.7536  0.0519  0.2861
  350MPD2    C4 5298   2.623   3.411  10.711 -0.4138  0.4373  0.2406
  350MPD2    C5 5299   2.666   3.396  10.583 -0.2826 -0.2007 -0.0457
  350MPD2     H 5300   2.600   3.084  10.783  1.0576  1.6628  3.3827
  350MPD2    H1 5301   2.618   3.511  10.752  2.0310  0.9832 -0.7585
  350MPD2    H2 5302   2.701   3.279  10.416 -0.3993  0.7168 -0.0288
  350MPD2    H3 5303   2.693   3.483  10.524 -0.3676 -0.9616 -1.2213
  350MPD2     N 5304   2.561   3.286  10.916  0.4055  0.2009  0.1207
  350MPD2    H5 5305   2.570   3.192  10.954  0.3250 -0.0401 -0.4579
  350MPD2    N1 5306   2.650   3.029  10.529 -0.2390 -0.4321 -0.3905
  350MPD2    H7 5307   2.598   2.954  10.573  0.5425  1.0114  3.0377
  351TMC3    C1 5308   2.680   2.868  10.364  0.7026 -0.2262  0.0246
  351TMC3    C2 5309   2.762   2.809  10.272  0.1882  1.2276  0.2468
  351TMC3    C3 5310   2.723   2.688  10.217 -0.9631 -0.0193 -0.1202
  351TMC3    C4 5311   2.553   2.814  10.395 -0.4939 -0.0177  0.0184
  351TMC3    C5 5312   2.521   2.695  10.341 -0.3434  0.0992 -0.5767
  351TMC3    C6 5313   2.604   2.637  10.254  0.0899  0.6434 -0.6498
  351TMC3     C 5314   2.712   3.000  10.410  0.1097  0.5302 -0.8766
  351TMC3     O 5315   2.796   3.068  10.357  0.9977  0.0492 -0.0471
  351TMC3     H 5316   2.860   2.847  10.246  0.4004  0.7016  0.2769
  351TMC3    H1 5317   2.484   2.865  10.461 -1.4768 -2.2048  0.7112
  351TMC3    H2 5318   2.580   2.546  10.201  1.3225  2.4681 -4.3442
  351TMC3    C7 5319   2.399   2.619  10.362 -0.1738  0.3545  0.5054
  351TMC3    C8 5320   2.822   2.605  10.153 -0.5374  0.0204  0.5653
  351TMC3    O1 5321   2.373   2.541  10.272  0.5656 -0.2735 -0.9504
  351TMC3    O2 5322   2.909   2.659  10.085 -0.2223  0.3109 -0.4516
  352MPD2     C 5323   0.982   0.371   1.672  0.2877 -0.5078  0.1447
  352MPD2    C1 5324   0.921   0.339   1.549  0.0683  0.1369 -0.0203
  352MPD2    C2 5325   0.939   0.211   1.500  0.2294  0.3834 -0.1475
  352MPD2    C3 5326   1.032   0.128   1.546 -0.1841 -0.0276  0.6207
  352MPD2    C4 5327   1.100   0.164   1.662  0.5045 -0.6179  0.3455
  352MPD2    C5 5328   1.070   0.284   1.722 -0.4412  0.2716  0.1696
  352MPD2     H 5329   0.884   0.189   1.409  0.4766 -0.4814 -0.0878
  352MPD2    H1 5330   1.181   0.112   1.710  0.0782 -0.6392  1.0400
  352MPD2    H2 5331   0.974   0.468   1.718  1.4726 -0.8567  1.0842
  352MPD2    H3 5332   1.113   0.301   1.821  0.1104 -2.6528  0.4382
  352MPD2     N 5333   1.059   4.733   1.503 -0.2751 -0.0329 -0.3308
  352MPD2    H5 5334   1.141   4.695   1.550  0.2511  1.0309 -0.3863
  352MPD2    N1 5335   0.825   0.440   1.499  0.1543 -0.5112 -0.6305
  352MPD2    H7 5336   0.822   0.527   1.550 -2.8960 -0.3099 -1.2015
  353TMC3    C1 5337   1.062   4.538   1.369  0.3680  0.0943  0.6167
  353TMC3    C2 5338   1.167   4.491   1.449 -0.0537  0.2599  0.2485
  353TMC3    C3 5339   1.183   4.352   1.450 -0.6278 -0.7833  0.5266
  353TMC3    C4 5340   0.981   4.453   1.308  0.3638  0.7258  0.7133
  353TMC3    C5 5341   0.994   4.317   1.319 -0.9109 -0.3553 -1.2755
  353TMC3    C6 5342   1.100   4.263   1.387 -0.1678  0.5053 -0.6192
  353TMC3     C 5343   1.003   4.666   1.394  1.2900  0.4786 -0.5330
  353TMC3     O 5344   0.908   4.693   1.328  0.0014  0.7618  0.3657
  353TMC3     H 5345   1.245   4.551   1.495  0.0100  1.1226 -0.9797
  353TMC3    H1 5346   0.902   4.488   1.242 -0.0927  0.9261  1.3720
  353TMC3    H2 5347   1.112   4.156   1.377  1.0422  0.9073 -3.6379
  353TMC3    C7 5348   0.907   4.241   1.244 -0.2568 -0.2200  0.3729
  353TMC3    C8 5349   1.313   4.295   1.479  0.5517 -0.1566  0.0574
  353TMC3    O1 5350   0.871   4.289   1.134  0.4814 -0.1937 -0.0899
  353TMC3    O2 5351   1.388   4.344   1.562 -0.5497  0.2894 -0.0475
  354TMC3    C1 5352   2.043   1.517  13.632  0.0358  0.2179  0.1760
  354TMC3    C2 5353   1.987   1.622  13.567  0.1491 -0.2635  1.0300
  354TMC3    C3 5354   1.988   1.623  13.431 -0.1382 -0.3258  0.7278
  354TMC3    C4 5355   2.102   1.414  13.568 -0.7300  0.1628  0.0691
  354TMC3    C5 5356   2.107   1.421  13.432  0.5182 -0.2311 -0.9064
  354TMC3    C6 5357   2.053   1.522  13.357 -0.4306  0.1993  0.0257
  354TMC3     C 5358   2.051   1.521  13.782 -0.9130 -0.0898  0.0940
  354TMC3     O 5359   2.108   1.427  13.835  0.2819 -0.3612  0.2825
  354TMC3     H 5360   1.948   1.711  13.615 -0.0492  0.2977 -0.1719
  354TMC3    H1 5361   2.147   1.331  13.621 -1.2760  0.0640  0.3853
  354TMC3    H2 5362   2.047   1.515  13.250  0.4225 -0.0942 -0.0063
  354TMC3    C7 5363   2.196   1.324  13.370 -0.2949  0.3954 -0.5997
  354TMC3    C8 5364   2.002   1.748  13.357 -0.6965  0.7516 -0.5598
  354TMC3    O1 5365   2.229   1.218  13.423  0.2265  0.4292 -0.4795
  354TMC3    O2 5366   2.051   1.756  13.245  0.1557  0.8292  0.0827
  355MPD2     C 5367   2.763   2.016  12.049  0.7674 -0.0049 -0.8170
  355MPD2    C1 5368   2.847   2.129  12.043 -0.1089 -0.1094 -0.0835
  355MPD2    C2 5369   2.930   2.149  12.151  0.7514 -0.5867  0.4411
  355MPD2    C3 5370   2.923   2.080  12.263 -0.1567  0.2374  0.1634
  355MPD2    C4 5371   2.840   1.970  12.270 -0.6749 -0.1705 -0.1898
  355MPD2    C5 5372   2.764   1.940  12.161  0.4628 -0.0870  0.3247
  355MPD2     H 5373   2.995   2.236  12.141  0.3671 -0.7508 -3.5367
  355MPD2    H1 5374   2.848   1.903  12.355  0.3342 -0.9228 -0.8647
  355MPD2    H2 5375   2.695   1.989  11.970  1.0765 -1.3386 -0.6274
  355MPD2    H3 5376   2.694   1.858  12.167  1.2013 -0.8443 -1.2483
  355MPD2     N 5377   3.010   2.134  12.369 -0.1682 -0.0562  0.2111
  355MPD2    H5 5378   3.071   2.210  12.343 -0.2584  0.2820  0.9969
  355MPD2    N1 5379   2.863   2.210  11.928  0.5965  0.1507  0.1113
  355MPD2    H7 5380   2.940   2.277  11.926  0.8067 -0.0454  1.4992
  356TMC3    C1 5381   3.103   2.169  12.575 -0.0156 -0.0393  0.3301
  356TMC3    C2 5382   3.200   2.216  12.492  0.5114  0.3077 -0.2098
  356TMC3    C3 5383   3.237   2.350  12.490  0.1279 -0.3063  0.7720
  356TMC3    C4 5384   3.049   2.251  12.682 -0.1372 -0.0878  0.2495
  356TMC3    C5 5385   3.094   2.383  12.672  0.0909 -0.5034  0.9001
  356TMC3    C6 5386   3.182   2.435  12.581 -0.2110 -0.4217 -0.3106
  356TMC3     C 5387   3.012   2.091  12.500 -0.0617 -0.1738  0.7051
  356TMC3     O 5388   2.940   2.007  12.548 -0.1665 -0.5469  0.2318
  356TMC3     H 5389   3.247   2.152  12.417 -0.5854 -0.5746 -0.1319
  356TMC3    H1 5390   2.988   2.206  12.759  0.3147  0.5141  0.9587
  356TMC3    H2 5391   3.207   2.541  12.582 -0.4944 -0.3918  1.8406
  356TMC3    C7 5392   3.024   2.475  12.762  0.2248 -0.8666 -0.0786
  356TMC3    C8 5393   3.252   2.402  12.352  0.6409 -0.0770  0.5173
  356TMC3    O1 5394   2.909   2.445  12.788  0.1257 -0.1204 -0.2257
  356TMC3    O2 5395   3.199   2.326  12.270 -0.1407 -0.4196 -0.5885
  357MPD2     C 5396   2.117   1.850   0.836  0.2895  0.4557  0.7408
  357MPD2    C1 5397   2.171   1.866   0.965  0.2101 -0.1172  0.9107
  357MPD2    C2 5398   2.086   1.850   1.071  0.1340  0.6489 -0.1498
  357MPD2    C3 5399   1.952   1.828   1.057  0.6417  0.3338  0.1863
  357MPD2    C4 5400   1.899   1.829   0.930  0.9144 -0.6034 -0.1708
  357MPD2    C5 5401   1.981   1.841   0.823  0.2153 -0.3600 -0.5125
  357MPD2     H 5402   2.119   1.858   1.174  0.7532  1.5613 -0.4262
  357MPD2    H1 5403   1.794   1.808   0.914 -0.1806  3.1820  2.1545
  357MPD2    H2 5404   2.188   1.846   0.754  2.4522  1.3738  2.5497
  357MPD2    H3 5405   1.938   1.842   0.724  1.5779 -2.4808 -1.1167
  357MPD2     N 5406   1.858   1.816   1.160 -0.1368 -0.3690  0.1271
  357MPD2    H5 5407   1.764   1.792   1.132 -0.0951 -0.1129 -0.2353
  357MPD2    N1 5408   2.304   1.906   0.977 -0.6236  0.3816 -0.1066
  357MPD2    H7 5409   2.351   1.931   0.891  1.5833 -1.7291  0.4781
  358TMC3    C1 5410   2.500   2.005   1.060  0.3469  0.5129  0.1383
  358TMC3    C2 5411   2.566   1.978   0.939 -0.3924 -0.1354 -0.0184
  358TMC3    C3 5412   2.702   2.014   0.926  0.1690  0.0888  0.1171
  358TMC3    C4 5413   2.575   2.051   1.162 -0.3075 -0.0398 -0.4383
  358TMC3    C5 5414   2.707   2.081   1.141  0.4049 -0.1084  0.7217
  358TMC3    C6 5415   2.778   2.056   1.028  0.4077 -0.2759  0.3382
  358TMC3     C 5416   2.370   1.948   1.087 -0.1715  0.1662 -0.0292
  358TMC3     O 5417   2.341   1.941   1.207 -0.5631  0.1771  0.0755
  358TMC3     H 5418   2.510   1.926   0.862  1.8817 -3.5309  0.6354
  358TMC3    H1 5419   2.537   2.077   1.261  1.3177 -0.7495  0.3660
  358TMC3    H2 5420   2.877   2.099   1.015  1.3070 -2.4894 -0.2017
  358TMC3    C7 5421   2.779   2.130   1.256 -0.0922  0.0057  0.0801
  358TMC3    C8 5422   2.768   1.967   0.803 -0.1705 -0.2819 -0.1286
  358TMC3    O1 5423   2.709   2.204   1.319  0.6661  0.0604 -0.0146
  358TMC3    O2 5424   2.695   1.941   0.712  0.2022 -0.4968 -0.2917
  359MPD2     C 5425   3.415   0.257  12.311  0.3323 -0.7075 -0.2562
  359MPD2    C1 5426   3.411   0.394  12.296  0.8564  0.5594  0.2999
  359MPD2    C2 5427   3.383   0.467  12.412 -0.4500 -0.1093 -0.1703
  359MPD2    C3 5428   3.356   0.409  12.535  0.7738  0.1378 -0.1497
  359MPD2    C4 5429   3.353   0.269  12.544 -0.3426  0.0502  0.1060
  359MPD2    C5 5430   3.396   0.200  12.432 -0.8353  0.0678  0.2046
  359MPD2     H 5431   3.368   0.573  12.395  0.2859  0.4325  2.5998
  359MPD2    H1 5432   3.327   0.204  12.627 -2.5206 -1.4755 -1.8050
  359MPD2    H2 5433   3.433   0.183  12.233  0.8016 -0.7542 -0.1027
  359MPD2    H3 5434   3.396   0.092  12.435  0.0524  0.1392  2.5259
  359MPD2     N 5435   3.328   0.483  12.646 -0.3509 -0.3136  0.2848
  359MPD2    H5 5436   3.310   0.419  12.723  0.9674 -1.1753 -0.1244
  359MPD2    N1 5437   3.420   0.457  12.167 -0.3383 -0.6502 -0.0774
  359MPD2    H7 5438   3.421   0.558  12.163  2.0908 -0.5351  3.4585
  360TMC3    C1 5439   3.375   0.494  11.953  0.0481 -0.3930  0.0761
  360TMC3    C2 5440   3.457   0.601  11.961 -0.1794 -0.6538 -0.6277
  360TMC3    C3 5441   3.416   0.717  11.895  0.0017  0.4841  0.1411
  360TMC3    C4 5442   3.250   0.498  11.900 -0.1288 -0.0624  0.3518
  360TMC3    C5 5443   3.206   0.619  11.855  0.3795  0.0339 -0.4319
  360TMC3    C6 5444   3.289   0.729  11.845 -0.3210  0.1511 -0.1882
  360TMC3     C 5445   3.384   0.389  12.052  0.1894 -0.2232 -0.0671
  360TMC3     O 5446   3.326   0.284  12.033 -0.4892  0.7239 -0.3448
  360TMC3     H 5447   3.561   0.596  11.991 -0.4439 -1.9300  0.0603
  360TMC3    H1 5448   3.190   0.408  11.904 -0.7350  0.3848  1.5022
  360TMC3    H2 5449   3.260   0.825  11.805  0.7799  0.8898  0.8026
  360TMC3    C7 5450   3.070   0.642  11.812  0.8726  0.2054  0.4896
  360TMC3    C8 5451   3.511   0.768  11.800  0.7048 -0.4607  0.9358
  360TMC3    O1 5452   3.044   0.752  11.769 -0.4400 -0.5266  0.2385
  360TMC3    O2 5453   3.587   0.679  11.752 -0.0516  0.2496  0.1594
  361MPD2     C 5454   0.201   4.716  16.765 -0.1127  0.5622 -0.6588
  361MPD2    C1 5455   0.129   4.629  16.847  0.3024 -0.2186 -0.3754
  361MPD2    C2 5456   0.193   4.551  16.938  0.4057 -0.1214  0.6935
  361MPD2    C3 5457   0.330   4.565  16.955  0.3214 -0.1503  0.5610
  361MPD2    C4 5458   0.405   4.648  16.877 -0.1456  0.5575  0.4722
  361MPD2    C5 5459   0.337   4.723  16.787 -0.5253 -0.1873 -0.2896
  361MPD2     H 5460   0.134   4.477  16.991  1.9012 -3.7691 -2.7281
  361MPD2    H1 5461   0.513   4.645  16.880 -0.1322  0.8313  0.2055
  361MPD2    H2 5462   0.150   0.041  16.691  2.1491  0.4322 -2.3087
  361MPD2    H3 5463   0.382   0.053  16.713 -0.9408  0.7204  0.2693
  361MPD2     N 5464   0.392   4.475  17.050  0.0383  0.0544  0.0142
  361MPD2    H5 5465   0.332   4.402  17.086  1.7075 -0.0126  2.6239
  361MPD2    N1 5466   4.728   4.626  16.828  0.1994  0.0483 -1.0101
  361MPD2    H7 5467   4.692   4.703  16.772  1.8391  0.9861 -0.7750
  362TMC3    C1 5468   4.507   4.591  16.890  0.0680 -0.5249  0.1334
  362TMC3    C2 5469   4.422   4.568  16.995 -0.4998  0.8468  0.5877
  362TMC3    C3 5470   4.303   4.633  16.998 -0.6341  0.4639 -0.0828
  362TMC3    C4 5471   4.464   4.663  16.788 -0.4655  0.1760  0.3636
  362TMC3    C5 5472   4.339   4.726  16.790 -1.0930 -0.0132  0.1074
  362TMC3    C6 5473   4.254   4.717  16.898  0.2761  0.1820  0.2772
  362TMC3     C 5474   4.642   4.542  16.895 -0.3742  0.0562  0.3625
  362TMC3     O 5475   4.664   4.445  16.967 -0.2117  1.0081 -0.7848
  362TMC3     H 5476   4.464   4.509  17.075  1.3054  0.8845 -0.3430
  362TMC3    H1 5477   4.527   4.672  16.701 -1.0466  0.6467 -0.0150
  362TMC3    H2 5478   4.157   0.028  16.908  0.8038  1.4151 -0.4611
  362TMC3    C7 5479   4.287   0.042  16.668  0.4472 -0.9722 -0.7810
  362TMC3    C8 5480   4.210   4.609  17.108  0.1782 -0.3423  0.3962
  362TMC3    O1 5481   4.193   0.115  16.681  0.5741 -0.1925  0.5491
  362TMC3    O2 5482   4.204   4.487  17.127 -0.7501 -0.0008  0.0465
  363TMC3    C1 5483   3.559   3.091   9.874  0.0018 -0.7438  0.7018
  363TMC3    C2 5484   3.551   2.959   9.911  0.0531 -0.9559  0.2990
  363TMC3    C3 5485   3.434   2.889   9.894 -0.1838  0.5201 -0.2792
  363TMC3    C4 5486   3.457   3.158   9.812 -0.1101  0.1654  0.0856
  363TMC3    C5 5487   3.340   3.092   9.816 -0.5321  0.1685  0.3021
  363TMC3    C6 5488   3.323   2.965   9.859  0.3174 -0.2100 -0.3567
  363TMC3     C 5489   3.690   3.138   9.844  0.6703  0.8135  0.4998
  363TMC3     O 5490   3.781   3.052   9.842  0.0361  0.1468 -1.1218
  363TMC3     H 5491   3.636   2.906   9.953 -0.2001 -1.6033 -0.0001
  363TMC3    H1 5492   3.469   3.261   9.782 -4.3742  0.8095  0.5185
  363TMC3    H2 5493   3.223   2.924   9.870  0.8331 -1.2185  0.5230
  363TMC3    C7 5494   3.229   3.165   9.749  0.3998  0.1327  0.3723
  363TMC3    C8 5495   3.402   2.764   9.955 -0.4100 -0.2211  0.2130
  363TMC3    O1 5496   3.238   3.287   9.748 -0.2388  0.2859 -0.2676
  363TMC3    O2 5497   3.284   2.755   9.978 -0.1560  0.0681  0.0545
  364MPD2     C 5498   1.919   1.874  10.463 -0.5962  0.1434 -0.1432
  364MPD2    C1 5499   2.021   1.778  10.451 -0.4720  0.1212 -0.1806
  364MPD2    C2 5500   1.992   1.643  10.442  0.0746  0.0394 -0.5457
  364MPD2    C3 5501   1.865   1.593  10.472 -0.2799 -0.4791  0.5125
  364MPD2    C4 5502   1.773   1.689  10.503 -0.5963  0.0346  0.0695
  364MPD2    C5 5503   1.791   1.821  10.482  0.3072  0.3596  0.3120
  364MPD2     H 5504   2.071   1.570  10.431 -0.0464 -0.2912  0.8120
  364MPD2    H1 5505   1.674   1.655  10.533 -0.6278  0.6721  0.6831
  364MPD2    H2 5506   1.942   1.980  10.456  3.6019 -0.7673 -0.4535
  364MPD2    H3 5507   1.714   1.896  10.496  0.6647  0.7973 -0.0577
  364MPD2     N 5508   1.830   1.456  10.489 -0.3172 -0.0697  0.6198
  364MPD2    H5 5509   1.733   1.434  10.507 -0.0845 -1.3511  0.2932
  364MPD2    N1 5510   2.151   1.839  10.438  0.4670 -0.6093 -0.0159
  364MPD2    H7 5511   2.164   1.939  10.439  1.4975 -0.7373 -1.0625
  365TMC3    C1 5512   2.388   1.846  10.417 -0.3258 -0.3474 -1.2646
  365TMC3    C2 5513   2.498   1.785  10.363  0.4311  0.4907 -0.1719
  365TMC3    C3 5514   2.618   1.852  10.390 -0.3790 -0.3962  0.1159
  365TMC3    C4 5515   2.395   1.957  10.499 -0.0542  0.4632  0.7159
  365TMC3    C5 5516   2.514   2.012  10.527  0.5905  0.2478 -0.1348
  365TMC3    C6 5517   2.630   1.967  10.463  0.3365 -0.2574 -0.6896
  365TMC3     C 5518   2.268   1.766  10.420  0.6322  1.2333  0.0003
  365TMC3     O 5519   2.279   1.644  10.406 -0.0527  0.9400 -0.3420
  365TMC3     H 5520   2.497   1.703  10.293 -0.9135 -0.3464  0.8366
  365TMC3    H1 5521   2.304   1.981  10.554  0.1610  0.8154  0.9204
  365TMC3    H2 5522   2.728   2.007  10.487  0.0289  0.0845 -0.0121
  365TMC3    C7 5523   2.511   2.129  10.591 -0.2801 -0.5807 -0.2825
  365TMC3    C8 5524   2.728   1.834  10.295 -0.3737  0.5266  0.0592
  365TMC3    O1 5525   2.589   2.218  10.558 -0.1363  0.2149  0.0992
  365TMC3    O2 5526   2.819   1.917  10.295 -0.8076  0.0926 -0.1171
  366MPD2     C 5527   0.154   2.874  15.276  0.4839  0.1158 -0.3785
  366MPD2    C1 5528   0.221   2.953  15.182 -0.7922 -0.0785 -0.0066
  366MPD2    C2 5529   0.311   2.898  15.101 -0.6274  0.3984  0.5081
  366MPD2    C3 5530   0.357   2.764  15.122 -0.0058 -0.9696  0.0638
  366MPD2    C4 5531   0.302   2.684  15.221  0.2343  0.0653 -0.1950
  366MPD2    C5 5532   0.199   2.746  15.291  1.3486  0.2597 -0.3376
  366MPD2     H 5533   0.357   2.956  15.021 -4.0379 -0.2102 -1.9045
  366MPD2    H1 5534   0.336   2.585  15.249  2.2972  0.9568  0.4639
  366MPD2    H2 5535   0.083   2.914  15.348 -0.1542  0.2195 -1.0640
  366MPD2    H3 5536   0.145   2.683  15.361  1.1837  0.7868  0.0086
  366MPD2     N 5537   0.453   2.724  15.032 -0.3915 -0.2972  0.2721
  366MPD2    H5 5538   0.482   2.804  14.977  1.2419 -2.6397 -2.2947
  366MPD2    N1 5539   0.191   3.086  15.164  0.2038  0.1839  0.0373
  366MPD2    H7 5540   0.239   3.134  15.088  1.0011  0.6221  0.8187
  367TMC3    C1 5541   0.122   3.301  15.212  0.2442 -0.3467 -0.0864
  367TMC3    C2 5542   0.188   3.385  15.291 -0.1388  0.5806  0.2541
  367TMC3    C3 5543   0.218   3.514  15.258  0.3619  0.1601  0.8860
  367TMC3    C4 5544   0.078   3.341  15.084 -0.1901  0.1425  0.1115
  367TMC3    C5 5545   0.103   3.475  15.059  0.2627 -0.7742  0.1455
  367TMC3    C6 5546   0.174   3.567  15.138 -0.4995  0.1439  0.7285
  367TMC3     C 5547   0.122   3.161  15.250 -0.4380  0.8893  0.4492
  367TMC3     O 5548   0.068   3.139  15.354  0.2962 -0.2333  0.3656
  367TMC3     H 5549   0.224   3.341  15.384 -1.5314 -0.2040  0.4289
  367TMC3    H1 5550   0.016   3.277  15.022 -1.1604  0.0190  1.1998
  367TMC3    H2 5551   0.196   3.670  15.114  1.0429  0.1661  2.2505
  367TMC3    C7 5552   0.032   3.538  14.944  0.5213  0.1907  0.4097
  367TMC3    C8 5553   0.339   3.559  15.313 -0.0697  0.1150  0.0999
  367TMC3    O1 5554   0.041   3.659  14.936  0.1798 -0.7301 -0.5893
  367TMC3    O2 5555   0.404   3.469  15.366  0.2071  0.0420  0.0451
  368MPD2     C 5556   1.896   4.584  12.481 -0.2756  0.2098  0.0530
  368MPD2    C1 5557   1.860   4.709  12.451  0.1310 -0.7623  0.0694
  368MPD2    C2 5558   1.936   0.077  12.484  0.1495  0.1588 -0.6451
  368MPD2    C3 5559   2.065   0.055  12.546  0.0598  0.2768  0.1723
  368MPD2    C4 5560   2.104   4.663  12.557  0.0814  0.2616  0.3673
  368MPD2    C5 5561   2.016   4.560  12.532 -0.0578  0.3026 -0.0857
  368MPD2     H 5562   1.891   0.175  12.485  1.4965  0.7574  0.5487
  368MPD2    H1 5563   2.205   4.636  12.584  0.3082 -0.4449 -1.1941
  368MPD2    H2 5564   1.829   4.502  12.456  1.7768 -1.4063 -0.1318
  368MPD2    H3 5565   2.048   4.458  12.552  1.8847  0.7986 -0.5943
  368MPD2     N 5566   2.151   0.164  12.589 -0.0707  0.4771  0.5767
  368MPD2    H5 5567   2.230   0.141  12.648  0.5202  2.0814  0.4100
  368MPD2    N1 5568   1.743   4.730  12.376 -0.3441 -0.4734  0.1415
  368MPD2    H7 5569   1.676   4.655  12.359 -0.6435  0.1841 -1.5409
  369TMC3    C1 5570   1.563   0.113  12.274  0.0389  0.6284  0.0306
  369TMC3    C2 5571   1.526   0.226  12.199  0.5785 -0.0580  0.0463
  369TMC3    C3 5572   1.402   0.272  12.198  0.0961 -1.0125 -0.4840
  369TMC3    C4 5573   1.467   0.043  12.338  0.2024  0.3269  0.4412
  369TMC3    C5 5574   1.344   0.099  12.345  0.2722  0.2113  0.0544
  369TMC3    C6 5575   1.313   0.213  12.277  0.2010 -0.7666  0.4343
  369TMC3     C 5576   1.700   0.110  12.321  0.1899  0.4703 -0.5208
  369TMC3     O 5577   1.766   0.212  12.307  0.2864 -0.9510  0.3029
  369TMC3     H 5578   1.604   0.275  12.143  1.3787 -0.2763  0.9704
  369TMC3    H1 5579   1.494   4.690  12.395  2.8137  0.7474 -0.1495
  369TMC3    H2 5580   1.215   0.258  12.272 -0.0831 -1.1582  2.6522
  369TMC3    C7 5581   1.273   0.068  12.466  0.6419  0.2169 -0.2224
  369TMC3    C8 5582   1.369   0.413  12.164  0.0466  0.5318 -0.7328
  369TMC3    O1 5583   1.330   0.029  12.568 -0.3973  0.3395 -0.0330
  369TMC3    O2 5584   1.316   0.473  12.251 -0.2169 -0.1361 -0.0781
  370TMC3    C1 5585   1.159   1.051  16.518  0.3469  0.3374  0.1557
  370TMC3    C2 5586   1.067   0.982  16.602 -0.0896  0.1175 -0.5992
  370TMC3    C3 5587   1.004   0.870  16.550  0.2321  0.6935 -0.2965
  370TMC3    C4 5588   1.187   1.006  16.394  0.1399 -0.6722 -0.4085
  370TMC3    C5 5589   1.133   0.885  16.350 -0.4007 -0.5266  0.6501
  370TMC3    C6 5590   1.042   0.820  16.427  0.2110 -0.3182  0.1673
  370TMC3     C 5591   1.232   1.162  16.568 -0.4983  0.4466 -0.6105
  370TMC3     O 5592   1.258   1.166  16.686  0.4956  0.0718 -0.2103
  370TMC3     H 5593   1.041   1.016  16.702  2.1781  0.1262 -0.0113
  370TMC3    H1 5594   1.265   1.044  16.328 -0.0618 -0.1235 -0.3245
  370TMC3    H2 5595   0.997   0.734  16.379 -0.4438  0.6673 -0.9786
  370TMC3    C7 5596   1.175   0.833  16.217  0.1799  0.6884  0.3020
  370TMC3    C8 5597   0.941   0.775  16.639 -0.1180 -0.1386 -0.5993
  370TMC3    O1 5598   1.182   0.924  16.133  0.1638  0.4258  0.0887
  370TMC3    O2 5599   0.928   0.652  16.605 -0.3501  0.2869 -0.0995
  371TMC3    C1 5600   2.228   3.890  15.688 -0.4345  0.0108  0.0907
  371TMC3    C2 5601   2.100   3.855  15.713 -0.1248 -0.4189  0.4784
  371TMC3    C3 5602   2.030   3.920  15.810 -0.0708  0.0629  0.6001
  371TMC3    C4 5603   2.299   3.974  15.770  0.4291 -0.3122  0.3933
  371TMC3    C5 5604   2.230   4.024  15.879 -0.0657  0.6023  0.2191
  371TMC3    C6 5605   2.095   3.995  15.904  0.3859 -0.2053  0.0037
  371TMC3     C 5606   2.288   3.858  15.560  0.2789 -0.5298  1.3295
  371TMC3     O 5607   2.364   3.944  15.512 -0.0992 -0.7997  0.4561
  371TMC3     H 5608   2.045   3.794  15.643 -1.3709  1.7177 -0.4054
  371TMC3    H1 5609   2.404   3.995  15.755  0.6572 -2.3331 -0.8716
  371TMC3    H2 5610   2.049   4.034  15.995 -1.2656 -0.0815 -0.8745
  371TMC3    C7 5611   2.283   4.143  15.937 -0.2197 -0.2456 -0.4614
  371TMC3    C8 5612   1.890   3.921  15.803 -0.3561  0.1089  0.6494
  371TMC3    O1 5613   2.362   4.212  15.873 -0.3347 -0.4328 -0.0540
  371TMC3    O2 5614   1.835   3.832  15.741  0.5838 -0.7307  0.6578
  372MPD2     C 5615   1.778   0.120  14.099  0.3010  0.4725  0.7973
  372MPD2    C1 5616   1.856   0.017  14.048  0.2788  0.0220  0.3171
  372MPD2    C2 5617   1.811   4.622  14.071 -0.2871  1.0607  0.2580
  372MPD2    C3 5618   1.692   4.594  14.148  0.4364  0.4856 -0.3700
  372MPD2    C4 5619   1.616   4.700  14.193  0.0869  0.0922 -0.8490
  372MPD2    C5 5620   1.667   0.090  14.176 -0.4060 -0.2905  0.2974
  372MPD2     H 5621   1.873   4.539  14.039 -0.6940  1.2711 -1.0964
  372MPD2    H1 5622   1.534   4.676  14.261  0.8057  0.5070  0.1697
  372MPD2    H2 5623   1.808   0.223  14.082 -2.3161  0.6175 -2.7804
  372MPD2    H3 5624   1.611   0.178  14.204  0.8272  0.4976  0.2926
  372MPD2     N 5625   1.648   4.460  14.159 -0.3954 -0.0745  0.0354
  372MPD2    H5 5626   1.713   4.388  14.129  0.1051  0.4597 -0.1627
  372MPD2    N1 5627   1.971   0.031  13.972  0.3265 -0.2420  0.8228
  372MPD2    H7 5628   2.013   4.681  13.939 -1.9283 -1.0678  0.0840
  373TMC3    C1 5629   1.492   4.275  14.172  0.2039  0.2748 -0.3884
  373TMC3    C2 5630   1.586   4.180  14.206  0.1611  0.9406 -0.0169
  373TMC3    C3 5631   1.546   4.047  14.199  0.1633 -0.2615 -0.4061
  373TMC3    C4 5632   1.379   4.241  14.099 -0.3721 -0.2702 -0.0037
  373TMC3    C5 5633   1.341   4.111  14.100  0.2135  0.3291 -0.4652
  373TMC3    C6 5634   1.423   4.011  14.148 -0.0752  0.5445  0.1388
  373TMC3     C 5635   1.521   4.421  14.175 -0.1463  0.5397  0.0634
  373TMC3     O 5636   1.421   4.491  14.186 -0.3406 -0.4750  0.6230
  373TMC3     H 5637   1.668   4.201  14.274  2.6703  2.2356 -3.4322
  373TMC3    H1 5638   1.319   4.325  14.064  0.6436  1.3917  2.2765
  373TMC3    H2 5639   1.400   3.905  14.151 -0.6918  0.6928  0.5545
  373TMC3    C7 5640   1.295   4.076  13.973 -0.4300  0.0388 -0.5258
  373TMC3    C8 5641   1.636   3.938  14.233 -1.0920  0.0128  0.5101
  373TMC3    O1 5642   1.326   4.154  13.884 -0.3576  0.2142 -0.2487
  373TMC3    O2 5643   1.587   3.824  14.231  0.2330 -0.3481 -0.6507
  374TMC3    C1 5644   2.558   0.288   9.345 -0.1760  0.0887  0.1395
  374TMC3    C2 5645   2.654   0.386   9.359  0.1368 -0.9600  0.0871
  374TMC3    C3 5646   2.761   0.395   9.272 -0.9338  0.6874  0.4833
  374TMC3    C4 5647   2.566   0.195   9.238  0.0308  0.4542  0.0736
  374TMC3    C5 5648   2.664   0.221   9.143  0.3007 -0.3403  0.3015
  374TMC3    C6 5649   2.766   0.314   9.156 -0.2929 -0.1337 -0.1938
  374TMC3     C 5650   2.432   0.304   9.422  0.1253 -0.5375 -0.6135
  374TMC3     O 5651   2.415   0.404   9.488  0.0267 -0.7517  0.0064
  374TMC3     H 5652   2.636   0.455   9.441  0.3185 -0.0499 -0.6395
  374TMC3    H1 5653   2.492   0.116   9.229  2.7220 -1.6710 -3.5400
  374TMC3    H2 5654   2.835   0.340   9.075 -2.3167  2.5434 -1.0465
  374TMC3    C7 5655   2.650   0.145   9.022 -0.3040 -0.1051 -0.0488
  374TMC3    C8 5656   2.858   0.497   9.302 -0.6114  0.0643 -0.5094
  374TMC3    O1 5657   2.549   0.077   9.012  0.1335  0.2134 -0.1386
  374TMC3    O2 5658   2.915   0.546   9.204 -0.0418 -1.2124 -0.0656
  375MPD2     C 5659   2.542   1.238  17.259 -0.5481  0.3967  0.0106
  375MPD2    C1 5660   2.437   1.201  17.176  0.6017  0.3430  0.5476
  375MPD2    C2 5661   2.474   1.119  17.073 -0.0224  0.1052  0.4510
  375MPD2    C3 5662   2.605   1.083  17.048  0.0713  0.6464 -0.5043
  375MPD2    C4 5663   2.705   1.128  17.133 -0.0354 -0.4049  0.5471
  375MPD2    C5 5664   2.668   1.198  17.240  0.1118 -0.1234  0.7998
  375MPD2     H 5665   2.391   1.085  17.011 -0.6560  3.1273 -0.3530
  375MPD2    H1 5666   2.810   1.102  17.119 -0.2099 -0.7278 -0.2034
  375MPD2    H2 5667   2.525   1.301  17.346  3.2187  0.1292  0.9231
  375MPD2    H3 5668   2.745   1.223  17.312  1.4976 -1.4475 -0.2185
  375MPD2     N 5669   2.643   1.014  16.932 -0.1878 -0.2370  0.5504
  375MPD2    H5 5670   2.741   1.022  16.908 -0.7151 -1.5805 -2.0259
  375MPD2    N1 5671   2.301   1.253  17.194  0.1717  0.1332 -0.4328
  375MPD2    H7 5672   2.242   1.233  17.114  1.6286 -0.9672 -1.2315
  376TMC3    C1 5673   2.639   0.895  16.725 -0.1791  0.2050  0.3361
  376TMC3    C2 5674   2.771   0.868  16.735 -0.0345 -1.0781 -0.1383
  376TMC3    C3 5675   2.823   0.805  16.626  0.2015  0.2134  0.1712
  376TMC3    C4 5676   2.560   0.855  16.620 -0.6657  0.1906 -0.4114
  376TMC3    C5 5677   2.620   0.787  16.517 -0.7591  0.7144 -0.1876
  376TMC3    C6 5678   2.761   0.769  16.518  0.6938 -0.7956  0.6806
  376TMC3     C 5679   2.564   0.945  16.842  0.5645 -0.9206  0.5540
  376TMC3     O 5680   2.448   0.906  16.858  0.4957  0.5287  0.0219
  376TMC3     H 5681   2.832   0.885  16.823 -1.0685  0.4801  0.2745
  376TMC3    H1 5682   2.452   0.850  16.631 -1.1360  2.5520 -3.8561
  376TMC3    H2 5683   2.815   0.722  16.437 -0.9722  1.5406 -1.8084
  376TMC3    C7 5684   2.576   0.821  16.384 -0.0449 -0.5751  0.7225
  376TMC3    C8 5685   2.967   0.812  16.605 -0.8718 -0.0804 -0.5122
  376TMC3    O1 5686   2.508   0.924  16.388  0.8668 -0.2335  0.6743
  376TMC3    O2 5687   3.008   0.816  16.489 -0.2185  0.0458  0.6317
  377MPD2     C 5688   1.037   0.382  12.849 -0.1300  0.3389 -0.1453
  377MPD2    C1 5689   0.929   0.436  12.783 -0.1199 -0.6051 -0.0812
  377MPD2    C2 5690   0.812   0.464  12.854 -0.1041 -0.3725 -0.2874
  377MPD2    C3 5691   0.791   0.423  12.985 -0.3723 -1.4554  0.0841
  377MPD2    C4 5692   0.895   0.350  13.044 -0.3760  0.3548  0.2766
  377MPD2    C5 5693   1.012   0.349  12.982  0.1485  1.0414  0.7726
  377MPD2     H 5694   0.723   0.508  12.809  0.1960  0.0194 -0.4973
  377MPD2    H1 5695   0.889   0.324  13.149  1.3837  0.4063  0.3848
  377MPD2    H2 5696   1.130   0.368  12.796 -0.6818 -3.6542 -0.0640
  377MPD2    H3 5697   1.098   0.307  13.033 -0.5786  1.2823  2.2013
  377MPD2     N 5698   0.673   0.445  13.056  0.0050  0.6807 -0.0922
  377MPD2    H5 5699   0.656   0.399  13.145  3.1677  2.8101  1.5868
  377MPD2    N1 5700   0.946   0.465  12.642 -0.2788  0.3415  0.1396
  377MPD2    H7 5701   1.026   0.422  12.596  1.7970 -0.0771  4.1274
  378TMC3    C1 5702   0.816   0.662  12.223  0.5308  0.6118 -0.2539
  378TMC3    C2 5703   0.825   0.665  12.360  0.2205 -1.1017  0.0346
  378TMC3    C3 5704   0.886   0.559  12.424 -0.3507 -0.4716  0.0473
  378TMC3    C4 5705   0.880   0.559  12.154 -1.0920 -0.1273  0.7405
  378TMC3    C5 5706   0.934   0.452  12.227 -0.7436 -0.3946  0.5539
  378TMC3    C6 5707   0.945   0.454  12.365 -0.6627  0.1941  0.4099
  378TMC3     C 5708   0.805   0.790  12.165  0.1701  0.3172 -0.4262
  378TMC3     O 5709   0.746   0.880  12.223 -1.0830 -0.4112 -0.3664
  378TMC3     H 5710   0.775   0.749  12.408  1.2650 -0.4564 -0.0070
  378TMC3    H1 5711   0.858   0.546  12.049 -0.2918  0.2215  0.5369
  378TMC3    H2 5712   0.980   0.367  12.420  1.2969  1.5686  1.3413
  378TMC3    C7 5713   0.977   0.323  12.161 -0.2125 -0.0293  0.7680
  378TMC3    C8 5714   0.865   0.554  12.569  0.0774 -0.1280  0.5144
  378TMC3    O1 5715   0.982   0.222  12.234  0.0417  0.1506  0.2236
  378TMC3    O2 5716   0.769   0.614  12.615 -0.4711 -0.1875  0.6257
  379MPD2     C 5717   1.435   3.741  16.016  0.2557 -0.4813  0.2927
  379MPD2    C1 5718   1.350   3.643  16.050  0.6987 -0.0183  0.0504
  379MPD2    C2 5719   1.379   3.559  16.159 -0.0833  0.4814  0.0407
  379MPD2    C3 5720   1.508   3.561  16.220 -0.4213 -0.0676 -1.2696
  379MPD2    C4 5721   1.596   3.648  16.155 -0.3795  0.0342  0.2491
  379MPD2    C5 5722   1.564   3.738  16.055  0.4810 -0.7354 -0.7068
  379MPD2     H 5723   1.314   3.474  16.178  3.3260 -1.5050  2.7306
  379MPD2    H1 5724   1.695   3.664  16.196 -0.4713  0.1214  0.4381
  379MPD2    H2 5725   1.411   3.805  15.932  2.1980  2.1157  1.7348
  379MPD2    H3 5726   1.630   3.806  16.004  0.7899 -0.1778  0.4406
  379MPD2     N 5727   1.546   3.461  16.305  0.3803 -0.4353  0.3856
  379MPD2    H5 5728   1.645   3.445  16.323  0.0743 -0.8618  1.6686
  379MPD2    N1 5729   1.234   3.624  15.976 -0.8205 -0.0020  0.0566
  379MPD2    H7 5730   1.215   3.699  15.910  0.4855 -0.1974 -0.5443
  380TMC3    C1 5731   1.065   3.519  15.859  0.9255 -0.1631 -0.4526
  380TMC3    C2 5732   1.092   3.434  15.756 -0.4639  0.1482  0.1333
  380TMC3    C3 5733   1.036   3.465  15.640 -0.1675  0.4603  0.0672
  380TMC3    C4 5734   0.978   3.625  15.848 -0.0770 -0.8393 -0.5456
  380TMC3    C5 5735   0.906   3.631  15.730  0.1494 -1.3619  0.2428
  380TMC3    C6 5736   0.940   3.565  15.621  0.2437  0.9736  0.7088
  380TMC3     C 5737   1.158   3.513  15.970 -0.0209  0.5855 -0.4139
  380TMC3     O 5738   1.176   3.400  16.013 -0.2502  0.7125  0.5562
  380TMC3     H 5739   1.181   3.372  15.756 -1.6120 -1.4879 -0.7983
  380TMC3    H1 5740   0.948   3.675  15.939 -1.0464 -2.3241 -0.0502
  380TMC3    H2 5741   0.919   3.602  15.522  0.2889  0.3887  0.4855
  380TMC3    C7 5742   0.809   3.736  15.707  0.1903  0.2906  0.2597
  380TMC3    C8 5743   1.102   3.434  15.509 -0.0759  0.2709  0.3414
  380TMC3    O1 5744   0.820   3.836  15.776  0.4160 -0.0330  0.3313
  380TMC3    O2 5745   1.056   3.475  15.401 -0.3684  0.4365  0.7415
  381TMC3    C1 5746   0.778   0.201  16.371 -0.8658 -0.1679 -0.4559
  381TMC3    C2 5747   0.880   0.290  16.367 -0.9281 -0.3033  0.0532
  381TMC3    C3 5748   0.929   0.354  16.482 -0.4073 -0.4245 -0.3576
  381TMC3    C4 5749   0.729   0.166  16.496  0.5200 -0.1070 -0.4595
  381TMC3    C5 5750   0.775   0.230  16.609 -0.2443  0.1588  0.2662
  381TMC3    C6 5751   0.883   0.321  16.608  1.2201  0.3001  0.5981
  381TMC3     C 5752   0.780   0.096  16.272 -0.2689 -0.6581  0.2809
  381TMC3     O 5753   0.801   0.132  16.155  0.1894  0.1340  0.5320
  381TMC3     H 5754   0.922   0.310  16.269  1.0919 -0.1075  0.9578
  381TMC3    H1 5755   0.643   0.100  16.497 -1.4182  2.3820 -2.1002
  381TMC3    H2 5756   0.913   0.377  16.695  0.7750  0.3050  0.7496
  381TMC3    C7 5757   0.720   0.187  16.737 -0.1641 -0.0127 -0.4967
  381TMC3    C8 5758   1.050   0.432  16.467  0.0263 -0.0918  0.1707
  381TMC3    O1 5759   0.690   0.071  16.742 -0.6361 -0.2170 -0.7566
  381TMC3    O2 5760   1.074   0.475  16.355  0.1043  0.0122 -0.3220
  382MPD2     C 5761   0.154   2.356  16.775 -0.2487  0.5356  0.7211
  382MPD2    C1 5762   0.235   2.382  16.885  0.5943 -0.8410 -0.0109
  382MPD2    C2 5763   0.228   2.300  17.000 -0.3141 -0.7033  0.0823
  382MPD2    C3 5764   0.163   2.183  16.987 -0.2609  0.6231 -0.3240
  382MPD2    C4 5765   0.095   2.149  16.869 -0.5851 -0.3219  0.1860
  382MPD2    C5 5766   0.087   2.237  16.765  0.1632  0.0180  0.5342
  382MPD2     H 5767   0.278   2.331  17.091  0.3006  1.5897 -1.0339
  382MPD2    H1 5768   0.055   2.049  16.859  1.1908 -1.1095  0.9713
  382MPD2    H2 5769   0.165   2.419  16.687 -1.0822 -1.5507 -0.8750
  382MPD2    H3 5770   0.032   2.215  16.674 -1.0498 -0.3279  1.3468
  382MPD2     N 5771   0.157   2.084  17.081 -0.4458 -0.0198 -0.0404
  382MPD2    H5 5772   0.094   2.006  17.062  0.7565 -0.9151 -0.3688
  382MPD2    N1 5773   0.327   2.490  16.899  0.2067 -0.2651 -0.2203
  382MPD2    H7 5774   0.387   2.498  16.981  3.1528  0.4713 -2.4252
  383TMC3    C1 5775   0.187   1.964  17.293  0.0767  0.0431  0.5470
  383TMC3    C2 5776   0.087   1.879  17.266  0.3595 -0.3497 -0.0132
  383TMC3    C3 5777   0.036   1.795  17.364 -0.1122 -0.2693 -0.0878
  383TMC3    C4 5778   0.253   1.950  17.415 -0.1480 -0.4882  0.0304
  383TMC3    C5 5779   0.206   1.870  17.516  0.1459  1.2207 -0.1500
  383TMC3    C6 5780   0.090   1.793  17.488  0.7656  0.2283 -0.3411
  383TMC3     C 5781   0.221   2.081  17.201 -0.0038  0.1710  0.2369
  383TMC3     O 5782   0.309   2.154  17.247  0.4231 -0.6228 -0.4632
  383TMC3     H 5783   0.030   1.871  17.174  0.8432  2.0689 -0.5114
  383TMC3    H1 5784   0.339   2.013  17.434 -4.0985  4.9079  0.0504
  383TMC3    H2 5785   0.034   1.750  17.569 -0.3778 -0.6522 -1.5967
  383TMC3    C7 5786   0.261   1.911  17.650  0.3750  0.6154  0.0290
  383TMC3    C8 5787   4.641   1.731  17.342  0.6827 -0.2816  0.4868
  383TMC3    O1 5788   0.316   2.018  17.654 -0.1438 -0.1796  0.3435
  383TMC3    O2 5789   4.558   1.772  17.263 -0.1729 -0.3026  0.5267
  384MPD2     C 5790   1.808   3.394  12.231  0.2424 -0.5366  0.1029
  384MPD2    C1 5791   1.822   3.305  12.333 -0.2377 -0.2089  0.3086
  384MPD2    C2 5792   1.863   3.178  12.301 -0.1003  0.4077 -0.3493
  384MPD2    C3 5793   1.893   3.139  12.175  0.0992  0.7231 -0.1690
  384MPD2    C4 5794   1.875   3.229  12.073 -0.8658 -0.7426 -0.2472
  384MPD2    C5 5795   1.834   3.355  12.104 -0.3102 -0.1516 -0.4814
  384MPD2     H 5796   1.885   3.106  12.380  0.3617 -0.1260 -0.9648
  384MPD2    H1 5797   1.902   3.205  11.971 -0.6117 -0.0633 -0.3374
  384MPD2    H2 5798   1.790   3.499  12.247 -0.8991 -0.6303 -0.6131
  384MPD2    H3 5799   1.818   3.428  12.026 -2.4785  0.0248  0.1286
  384MPD2     N 5800   1.929   2.999  12.155  0.2611 -0.5499  0.0092
  384MPD2    H5 5801   1.942   2.948  12.242 -1.8241  0.3433  0.8418
  384MPD2    N1 5802   1.793   3.343  12.459 -0.4202 -0.2903 -0.2677
  384MPD2    H7 5803   1.817   3.275  12.531  1.6271  0.5867 -0.1329
  385TMC3    C1 5804   1.975   2.800  12.065 -0.3539  0.1439  0.1328
  385TMC3    C2 5805   1.877   2.710  12.024 -0.7386  0.2872 -0.2486
  385TMC3    C3 5806   1.818   2.619  12.112  0.0445 -0.4098 -0.4151
  385TMC3    C4 5807   2.036   2.779  12.189 -0.2741  0.3254 -0.3634
  385TMC3    C5 5808   1.968   2.692  12.277 -0.3338  0.3437  0.1094
  385TMC3    C6 5809   1.863   2.613  12.243  0.2818  0.6414 -0.0934
  385TMC3     C 5810   1.936   2.934  12.033  0.0419  0.2496  0.0378
  385TMC3     O 5811   1.890   2.964  11.924 -0.0712  0.2187  0.1728
  385TMC3     H 5812   1.837   2.720  11.923  0.0914 -1.2957 -0.7252
  385TMC3    H1 5813   2.108   2.852  12.223  1.2417 -0.5210 -1.7419
  385TMC3    H2 5814   1.806   2.559  12.317 -0.4624 -0.5356 -1.5148
  385TMC3    C7 5815   1.963   2.751  12.404  0.2453  0.6861  0.0431
  385TMC3    C8 5816   1.721   2.522  12.060 -0.1237 -0.8964  0.4176
  385TMC3    O1 5817   1.995   2.866  12.415  0.5258  0.6318  0.2593
  385TMC3    O2 5818   1.639   2.477  12.141 -0.6806 -0.6308 -0.3737
  386TMC3    C1 5819   1.642   0.879  11.293  0.3153 -0.0844  0.7381
  386TMC3    C2 5820   1.643   0.919  11.161  0.1313 -0.4598 -0.4726
  386TMC3    C3 5821   1.546   1.005  11.116 -1.0491  0.0705 -0.0309
  386TMC3    C4 5822   1.546   0.915  11.385 -0.5281  0.6130  0.0407
  386TMC3    C5 5823   1.451   1.003  11.333  0.4264  0.5374 -1.0011
  386TMC3    C6 5824   1.451   1.043  11.205  0.0737  0.0914 -0.4007
  386TMC3     C 5825   1.742   0.782  11.336  0.5293  0.7193  0.2876
  386TMC3     O 5826   1.690   0.709  11.422  0.1355 -0.0971 -0.2260
  386TMC3     H 5827   1.708   0.871  11.088 -0.7097 -2.0112 -0.2085
  386TMC3    H1 5828   1.545   0.882  11.488 -1.2439  0.2425 -0.0809
  386TMC3    H2 5829   1.368   1.103  11.170 -2.1206 -2.3271  0.6627
  386TMC3    C7 5830   1.363   1.066  11.427 -0.4335 -0.5572  0.1480
  386TMC3    C8 5831   1.518   1.027  10.977  1.1577  0.2336  0.9998
  386TMC3    O1 5832   1.370   1.032  11.540  0.3693  0.3386 -0.5214
  386TMC3    O2 5833   1.432   1.110  10.958 -0.0823 -0.1049 -0.7364
  387MPD2     C 5834   4.249   1.082   9.882  0.1486 -0.0264 -0.4527
  387MPD2    C1 5835   4.240   1.039  10.012 -0.4130 -0.1650  0.0158
  387MPD2    C2 5836   4.205   0.909  10.040  0.0587 -0.3538 -0.3982
  387MPD2    C3 5837   4.192   0.814   9.934 -1.1122  0.1376 -0.4468
  387MPD2    C4 5838   4.192   0.863   9.806  0.1904 -0.0319  0.2780
  387MPD2    C5 5839   4.211   0.996   9.779  0.2356  0.6133 -0.0163
  387MPD2     H 5840   4.192   0.870  10.141  0.5530 -0.3411 -0.3313
  387MPD2    H1 5841   4.171   0.807   9.716 -0.6583  0.7391 -0.0020
  387MPD2    H2 5842   4.281   1.181   9.853  2.1051 -0.2306  1.0281
  387MPD2    H3 5843   4.228   1.025   9.675 -0.0099 -2.3090 -0.8664
  387MPD2     N 5844   4.164   0.676   9.963  0.6989 -0.2396 -0.6728
  387MPD2    H5 5845   4.159   0.658  10.062 -1.5394  0.4490 -0.6753
  387MPD2    N1 5846   4.289   1.126  10.112  0.6242 -0.5291 -0.3855
  387MPD2    H7 5847   4.288   1.094  10.209  0.2868  0.3021 -0.1202
  388TMC3    C1 5848   4.462   1.257  10.200  0.3495  0.0854  0.6480
  388TMC3    C2 5849   4.534   1.379  10.210  0.2402 -0.3245 -0.1327
  388TMC3    C3 5850   4.660   1.382  10.253 -0.3949 -0.0350  0.4449
  388TMC3    C4 5851   4.531   1.148  10.245 -0.5473  0.2067 -0.0813
  388TMC3    C5 5852   4.670   1.156  10.273 -0.0437  0.6979  0.3637
  388TMC3    C6 5853   4.733   1.272  10.288  0.3674  0.2791 -0.2286
  388TMC3     C 5854   4.365   1.238  10.094 -0.6190 -0.1696 -0.4992
  388TMC3     O 5855   4.379   1.306   9.998 -0.0849  0.5863  0.4116
  388TMC3     H 5856   4.491   1.473  10.178 -0.7050 -0.4038  0.8849
  388TMC3    H1 5857   4.483   1.053  10.227  0.7798 -0.2439 -1.2959
  388TMC3    H2 5858   0.105   1.284  10.297  0.0318  1.4710  2.0564
  388TMC3    C7 5859   0.001   1.039  10.303 -0.5813 -0.3516  0.4895
  388TMC3    C8 5860   4.714   1.519  10.267  0.6235 -0.5708 -0.5590
  388TMC3    O1 5861   0.101   1.035  10.374  0.1170  0.3063  0.7818
  388TMC3    O2 5862   4.673   1.608  10.202  0.0054 -0.3410 -0.0324
  389MPD2     C 5863   3.203   3.517  10.662  0.0389  0.0926 -0.0137
  389MPD2    C1 5864   3.329   3.460  10.656 -0.3181  0.4753 -0.3074
  389MPD2    C2 5865   3.384   3.414  10.774 -0.1240  0.1741 -0.1950
  389MPD2    C3 5866   3.316   3.407  10.893  0.0825  0.0042 -0.0758
  389MPD2    C4 5867   3.189   3.455  10.895 -0.6878 -0.0599  0.4504
  389MPD2    C5 5868   3.141   3.510  10.781  0.1105  0.9529  0.1761
  389MPD2     H 5869   3.479   3.363  10.771  1.1553  2.5250  0.5190
  389MPD2    H1 5870   3.126   3.455  10.983 -3.2403 -0.0289 -1.3864
  389MPD2    H2 5871   3.148   3.577  10.591 -1.8761 -0.5995  0.8947
  389MPD2    H3 5872   3.046   3.562  10.785  0.2733  1.0723  2.1342
  389MPD2     N 5873   3.374   3.365  11.020  0.2288 -0.4278 -0.4407
  389MPD2    H5 5874   3.313   3.377  11.101 -0.2413  1.1835 -1.0298
  389MPD2    N1 5875   3.395   3.441  10.532  0.7122 -0.3127  0.3097
  389MPD2    H7 5876   3.487   3.398  10.537 -0.5096 -2.9689 -0.0259
  390TMC3    C1 5877   3.532   3.279  11.178  0.0588  0.6596 -0.2239
  390TMC3    C2 5878   3.470   3.173  11.237 -0.1958  0.6381  0.3133
  390TMC3    C3 5879   3.469   3.161  11.377 -0.2119 -0.0945  0.4538
  390TMC3    C4 5880   3.581   3.376  11.254 -0.4318  1.0241 -0.2227
  390TMC3    C5 5881   3.574   3.364  11.390 -0.5085  0.0289  0.5548
  390TMC3    C6 5882   3.513   3.263  11.454 -0.0306 -0.3389  0.4318
  390TMC3     C 5883   3.499   3.307  11.040  0.1310 -0.4557 -0.7731
  390TMC3     O 5884   3.595   3.302  10.964 -0.2917 -0.0220 -0.0230
  390TMC3     H 5885   3.414   3.099  11.181 -1.6836  0.9481  1.3965
  390TMC3    H1 5886   3.609   3.470  11.209 -1.0099  1.5288  0.4790
  390TMC3    H2 5887   3.526   3.223  11.554 -0.5053 -1.6089 -0.0080
  390TMC3    C7 5888   3.634   3.469  11.477 -0.5577  0.5115  0.0422
  390TMC3    C8 5889   3.379   3.054  11.426  0.2172 -0.2553 -0.3598
  390TMC3    O1 5890   3.731   3.538  11.437  0.4440 -0.4466 -0.0754
  390TMC3    O2 5891   3.365   2.950  11.364 -0.0950  0.3792 -0.4028
  391MPD2     C 5892   2.740   0.365  10.838  0.0161 -0.0946 -0.2874
  391MPD2    C1 5893   2.869   0.392  10.849 -0.0007  0.7223 -0.3409
  391MPD2    C2 5894   2.954   0.403  10.737 -1.0224 -0.4297 -0.2278
  391MPD2    C3 5895   2.896   0.412  10.607  0.3801 -0.4419  0.6594
  391MPD2    C4 5896   2.764   0.381  10.596  0.3875  0.0250 -0.3294
  391MPD2    C5 5897   2.691   0.345  10.711  0.0657 -0.1437  0.2118
  391MPD2     H 5898   3.061   0.408  10.747 -1.0017  1.0110 -1.1094
  391MPD2    H1 5899   2.709   0.366  10.504 -0.0113 -1.6834  0.1785
  391MPD2    H2 5900   2.670   0.359  10.920 -2.2480 -2.1206 -2.4084
  391MPD2    H3 5901   2.583   0.336  10.711 -0.0032  0.6461 -1.8131
  391MPD2     N 5902   2.978   0.444  10.492 -0.1605  0.1950 -0.2533
  391MPD2    H5 5903   3.079   0.450  10.501 -0.0074 -3.4287  0.6756
  391MPD2    N1 5904   2.909   0.394  10.984 -0.3604 -0.4413 -0.7097
  391MPD2    H7 5905   2.839   0.388  11.057  1.3869 -1.6307  0.8617
  392TMC3    C1 5906   3.015   0.523  10.272 -0.4318 -0.1417  0.2958
  392TMC3    C2 5907   2.969   0.537  10.145 -0.1129  0.1992 -0.0123
  392TMC3    C3 5908   3.003   0.639  10.063  0.8562 -0.7662  0.0299
  392TMC3    C4 5909   3.100   0.622  10.321 -0.0458 -0.2668 -0.2976
  392TMC3    C5 5910   3.139   0.726  10.238 -0.6624 -0.2347  0.3874
  392TMC3    C6 5911   3.093   0.732  10.108  0.4827  0.3151 -0.6343
  392TMC3     C 5912   2.921   0.461  10.364 -0.6927 -0.6172 -0.4708
  392TMC3     O 5913   2.806   0.474  10.336 -0.2002 -0.3974 -0.3655
  392TMC3     H 5914   2.885   0.479  10.109 -0.9227  1.1654  0.3035
  392TMC3    H1 5915   3.143   0.621  10.420 -1.6474 -0.5249  0.3742
  392TMC3    H2 5916   3.139   0.803  10.040  1.1369  0.8614  0.3861
  392TMC3    C7 5917   3.243   0.824  10.298  0.0532 -0.0690 -0.6525
  392TMC3    C8 5918   2.985   0.616   9.920  0.5258 -0.1312 -0.4992
  392TMC3    O1 5919   3.271   0.820  10.418  0.4652 -0.3073 -0.8522
  392TMC3    O2 5920   2.959   0.502   9.894 -0.5073  0.2726  0.3894
  393TMC3    C1 5921   1.896   3.180  10.302  0.0412 -0.3261 -0.2681
  393TMC3    C2 5922   1.767   3.130  10.289 -0.1805  0.3386 -0.2454
  393TMC3    C3 5923   1.719   3.084  10.411  0.1851 -0.2824 -0.0215
  393TMC3    C4 5924   1.971   3.173  10.410 -0.0813  0.5066 -0.1212
  393TMC3    C5 5925   1.910   3.111  10.527 -0.0413  1.0026 -0.1346
  393TMC3    C6 5926   1.786   3.066  10.527  0.6362 -0.6446  0.0618
  393TMC3     C 5927   1.936   3.276  10.200  0.4791  0.1241  0.6910
  393TMC3     O 5928   1.902   3.246  10.088 -0.6349 -0.0915 -0.5719
  393TMC3     H 5929   1.715   3.131  10.194  1.5835 -1.6546 -1.2216
  393TMC3    H1 5930   2.076   3.201  10.415  0.6643 -2.1207 -0.9425
  393TMC3    H2 5931   1.737   3.047  10.622 -0.4730 -0.1487 -0.4126
  393TMC3    C7 5932   2.000   3.088  10.645 -0.2154  0.0472  0.2349
  393TMC3    C8 5933   1.575   3.040  10.411  0.1248 -0.7934  0.3705
  393TMC3    O1 5934   2.095   3.164  10.645 -0.1162  0.1901  0.4935
  393TMC3    O2 5935   1.505   3.111  10.338 -0.3076 -0.3265 -0.0268
  394TMC3    C1 5936   3.468   3.507  10.315 -0.4586  0.1459  0.8129
  394TMC3    C2 5937   3.529   3.384  10.283  0.2061  0.7754  0.1450
  394TMC3    C3 5938   3.608   3.395  10.171  0.0981  0.3936 -0.4101
  394TMC3    C4 5939   3.472   3.614  10.227  0.3401 -0.2502  0.0369
  394TMC3    C5 5940   3.557   3.611  10.117 -0.3953 -0.3483 -0.0931
  394TMC3    C6 5941   3.621   3.498  10.084 -0.0076 -0.3075 -0.5224
  394TMC3     C 5942   3.368   3.519  10.427 -0.1167 -0.3792  0.6100
  394TMC3     O 5943   3.295   3.616  10.409 -0.2298 -0.5107 -0.4032
  394TMC3     H 5944   3.536   3.300  10.351 -2.2254  2.2933  2.2814
  394TMC3    H1 5945   3.424   3.708  10.251 -0.4095 -0.6930  0.2569
  394TMC3    H2 5946   3.679   3.499   9.992  1.9797  0.6529  0.7346
  394TMC3    C7 5947   3.645   3.723  10.105  0.0190 -1.1402  0.0389
  394TMC3    C8 5948   3.731   3.322  10.170 -0.5396  0.0195  0.7803
  394TMC3    O1 5949   3.590   3.834  10.092  0.7448  0.5332  0.0694
  394TMC3    O2 5950   3.832   3.389  10.163  0.1989  0.2329  0.7351
  395TMC3    C1 5951   3.253   0.771  15.136  0.2471 -0.6414  0.3195
  395TMC3    C2 5952   3.169   0.787  15.029 -0.0323 -0.8664 -0.3687
  395TMC3    C3 5953   3.226   0.827  14.916 -0.1989 -0.0400  0.1269
  395TMC3    C4 5954   3.382   0.811  15.135 -0.0401 -0.2988 -0.4213
  395TMC3    C5 5955   3.438   0.848  15.018  0.6094  0.1744  0.5266
  395TMC3    C6 5956   3.359   0.852  14.903  0.3877 -0.1296 -0.1207
  395TMC3     C 5957   3.200   0.793  15.265 -0.2183 -0.7960  0.1340
  395TMC3     O 5958   3.083   0.826  15.275 -0.0673  0.5838  0.0292
  395TMC3     H 5959   3.065   0.758  15.042  0.0093 -0.2029  1.4653
  395TMC3    H1 5960   3.441   0.826  15.225 -2.4495  1.0955  0.9208
  395TMC3    H2 5961   3.392   0.888  14.806 -0.1913  0.8907  0.0633
  395TMC3    C7 5962   3.565   0.930  15.016 -0.2154 -0.0363 -0.3488
  395TMC3    C8 5963   3.136   0.864  14.808  0.5435 -0.2512  0.5714
  395TMC3    O1 5964   3.593   0.987  15.120 -0.1400  0.2992 -0.0251
  395TMC3    O2 5965   3.160   0.970  14.747 -1.1044  0.9675 -0.0042
  396MPD2     C 5966   3.180   1.654  16.939  0.4228 -0.0994 -0.3754
  396MPD2    C1 5967   3.255   1.742  17.009  0.2000  0.3483  0.2096
  396MPD2    C2 5968   3.305   1.859  16.950 -0.8275  0.7020 -1.1237
  396MPD2    C3 5969   3.294   1.881  16.819 -0.3612  0.4625  0.1723
  396MPD2    C4 5970   3.222   1.790  16.749  0.3427  0.1516 -0.1605
  396MPD2    C5 5971   3.168   1.678  16.806 -0.0571  0.0493 -0.9470
  396MPD2     H 5972   3.357   1.931  17.011 -0.6789  1.2367 -1.8828
  396MPD2    H1 5973   3.192   1.791  16.645 -2.8324  1.1842  0.7660
  396MPD2    H2 5974   3.129   1.570  16.984  0.8218  1.1810  2.4283
  396MPD2    H3 5975   3.118   1.609  16.739  1.8904 -1.4870 -0.8122
  396MPD2     N 5976   3.341   1.997  16.759  0.0710  0.0325 -0.2487
  396MPD2    H5 5977   3.392   2.059  16.821 -1.0796  1.6870 -0.9683
  396MPD2    N1 5978   3.251   1.734  17.150  0.3252 -0.1301 -0.0871
  396MPD2    H7 5979   3.223   1.647  17.195  1.7207 -1.5622 -1.9820
  397TMC3    C1 5980   3.292   1.779  17.367  0.7345 -0.3746  0.7483
  397TMC3    C2 5981   3.420   1.788  17.429 -0.7971  0.3206 -0.2652
  397TMC3    C3 5982   3.465   1.674  17.500 -0.2256  0.0378  0.1350
  397TMC3    C4 5983   3.214   1.667  17.380 -0.5192 -0.3391 -0.2969
  397TMC3    C5 5984   3.254   1.567  17.471 -0.5695  0.7690  0.4226
  397TMC3    C6 5985   3.382   1.567  17.519 -0.1985  0.1720  1.0266
  397TMC3     C 5986   3.300   1.824  17.234 -0.7851  0.6009  0.2712
  397TMC3     O 5987   3.356   1.932  17.223  0.4070  0.6202  0.3802
  397TMC3     H 5988   3.493   1.856  17.388 -0.6862  0.3822  0.0416
  397TMC3    H1 5989   3.109   1.677  17.357 -0.4234 -1.7037 -1.3120
  397TMC3    H2 5990   3.419   1.487  17.582  1.7093 -1.2242 -1.8896
  397TMC3    C7 5991   3.148   1.511  17.539  0.2001 -0.8111 -0.5927
  397TMC3    C8 5992   3.600   1.637  17.459 -1.0070  0.0431 -0.1278
  397TMC3    O1 5993   3.053   1.484  17.468  0.3062 -0.7631  0.7154
  397TMC3    O2 5994   3.691   1.697  17.519  0.2532  0.2892  0.2329
  398MPD2     C 5995   1.428   3.381   0.057 -0.0729 -0.5807  0.0313
  398MPD2    C1 5996   1.552   3.331   0.080 -0.4356  0.1642 -0.2997
  398MPD2    C2 5997   1.626   3.395   0.177  0.1630 -0.3906 -0.1328
  398MPD2    C3 5998   1.586   3.514   0.234  0.0387 -0.4420  0.2917
  398MPD2    C4 5999   1.463   3.567   0.203  0.8453 -0.2596  0.3397
  398MPD2    C5 6000   1.386   3.496   0.118  0.5730 -0.3936 -0.3900
  398MPD2     H 6001   1.716   3.342   0.203 -0.1496 -0.0804  1.5964
  398MPD2    H1 6002   1.419   3.654   0.251 -0.1744 -0.1990 -0.7238
  398MPD2    H2 6003   1.357   3.338  17.730 -1.3519 -0.8266  1.5038
  398MPD2    H3 6004   1.286   3.529   0.093  0.0306  0.2805  2.7042
  398MPD2     N 6005   1.667   3.559   0.341  0.4372  0.3725 -0.1494
  398MPD2    H5 6006   1.754   3.509   0.354  0.2743 -0.4138 -2.0991
  398MPD2    N1 6007   1.594   3.202   0.037 -0.6969 -0.0876  0.3815
  398MPD2    H7 6008   1.675   3.166   0.086 -0.4178  2.6157  1.9624
  399TMC3    C1 6009   1.574   2.990  17.679  0.3493  0.1676  0.0324
  399TMC3    C2 6010   1.619   2.935   0.056  0.4163  0.0997 -0.1604
  399TMC3    C3 6011   1.631   2.796   0.058  0.1129  0.2093  0.5052
  399TMC3    C4 6012   1.511   2.917  17.580  0.0538  0.0513 -0.3411
  399TMC3    C5 6013   1.513   2.784  17.598 -0.1914  0.1533  0.0575
  399TMC3    C6 6014   1.579   2.726  17.697  0.0007 -0.5076  0.2554
  399TMC3     C 6015   1.531   3.126  17.686  0.8015  1.2834 -0.1583
  399TMC3     O 6016   1.439   3.163  17.610 -0.7297 -0.4703 -0.1030
  399TMC3     H 6017   1.674   2.998   0.126  0.7881  0.0944 -0.4463
  399TMC3    H1 6018   1.456   2.961  17.498  1.0758  1.0563 -0.4877
  399TMC3    H2 6019   1.595   2.620  17.689 -0.2935 -0.5712  0.5335
  399TMC3    C7 6020   1.423   2.703  17.515 -0.3557  0.8510 -0.2746
  399TMC3    C8 6021   1.743   2.738   0.119  0.1176 -1.3527 -0.8581
  399TMC3    O1 6022   1.395   2.586  17.541 -0.4000 -0.3828  0.2973
  399TMC3    O2 6023   1.832   2.814   0.154  0.1290 -0.1947 -0.1233
  400TMC3    C1 6024   4.433   1.389  16.808 -0.3094  0.0641 -0.1310
  400TMC3    C2 6025   4.334   1.310  16.766  0.3110  0.6334 -0.2509
  400TMC3    C3 6026   4.258   1.361  16.665 -0.0642 -0.0975  0.2787
  400TMC3    C4 6027   4.455   1.525  16.774  0.9731 -0.2124 -0.2978
  400TMC3    C5 6028   4.373   1.572  16.670 -0.1033 -0.3936  0.4675
  400TMC3    C6 6029   4.280   1.488  16.612  0.3224  0.0178  0.4915
  400TMC3     C 6030   4.534   1.329  16.895  0.3437 -0.2863 -0.0075
  400TMC3     O 6031   4.525   1.203  16.898  0.3048  0.0045  0.3121
  400TMC3     H 6032   4.316   1.211  16.807 -0.1696  1.2804  1.1257
  400TMC3    H1 6033   4.542   1.582  16.805  0.4577  1.0046 -1.1180
  400TMC3    H2 6034   4.231   1.518  16.520  0.0041 -0.1914  0.5904
  400TMC3    C7 6035   4.388   1.709  16.619 -0.6574  0.8999  0.2307
  400TMC3    C8 6036   4.175   1.266  16.584 -0.3525  0.1891  0.1058
  400TMC3    O1 6037   4.349   1.734  16.502 -0.0537 -0.5593  0.4822
  400TMC3    O2 6038   4.140   1.289  16.467 -0.3509 -0.1810  0.3762
  401MPD2     C 6039   2.633   4.710   0.593  0.7480 -0.5477  0.4597
  401MPD2    C1 6040   2.763   0.025   0.587 -0.4455 -0.2565 -0.0258
  401MPD2    C2 6041   2.869   4.676   0.621 -0.0828  0.1712 -0.1987
  401MPD2    C3 6042   2.855   4.546   0.663 -0.2853 -0.4020  0.1984
  401MPD2    C4 6043   2.721   4.501   0.669 -0.0813  0.0901  0.5326
  401MPD2    C5 6044   2.614   4.580   0.637  0.3309  0.1126  0.4843
  401MPD2     H 6045   2.961   4.734   0.626 -0.1961  0.4299 -0.9792
  401MPD2    H1 6046   2.693   4.401   0.697  2.9448 -0.6470  0.9132
  401MPD2    H2 6047   2.542   0.030   0.576  0.2817 -1.5694 -0.3881
  401MPD2    H3 6048   2.514   4.541   0.652  0.3413  0.5635  1.7517
  401MPD2     N 6049   2.962   4.464   0.697  0.2556  0.2754 -0.5661
  401MPD2    H5 6050   3.044   4.520   0.675  1.6109 -0.4059  2.6750
  401MPD2    N1 6051   2.798   0.157   0.544 -0.3310 -0.0223 -0.2256
  401MPD2    H7 6052   2.895   0.187   0.539  0.0306 -1.2367 -0.2790
  402TMC3    C1 6053   3.090   4.281   0.773 -0.0275 -0.1632 -0.0312
  402TMC3    C2 6054   3.114   4.194   0.870  0.2841 -0.4006 -0.0358
  402TMC3    C3 6055   3.241   4.137   0.883  0.4775 -0.4757  0.1496
  402TMC3    C4 6056   3.185   4.315   0.682 -0.6069  0.5568 -0.1587
  402TMC3    C5 6057   3.311   4.257   0.697  0.6097  0.0272 -0.5331
  402TMC3    C6 6058   3.339   4.162   0.791 -0.1322 -0.5956 -0.4540
  402TMC3     C 6059   2.958   4.343   0.762 -0.3372 -0.5943 -0.1361
  402TMC3     O 6060   2.858   4.290   0.814 -0.6443  0.2228  0.6402
  402TMC3     H 6061   3.045   4.165   0.949 -0.4121 -2.3370 -1.3731
  402TMC3    H1 6062   3.173   4.382   0.597  0.6872  0.9343 -0.0548
  402TMC3    H2 6063   3.441   4.131   0.807 -0.2894  0.5166  2.7201
  402TMC3    C7 6064   3.410   4.288   0.600  0.0298  0.1898  0.1647
  402TMC3    C8 6065   3.292   4.100   1.014 -0.3304  0.0631 -0.5761
  402TMC3    O1 6066   3.419   4.399   0.555  0.0012  0.0237 -0.5974
  402TMC3    O2 6067   3.404   4.052   1.014 -0.0891 -0.6013  0.2037
  403MPD2     C 6068   1.323   2.748  13.377 -0.4092 -0.2068  0.9444
  403MPD2    C1 6069   1.303   2.866  13.437  0.2874  0.2819 -0.0116
  403MPD2    C2 6070   1.378   2.898  13.548 -0.4896 -0.7024  0.4660
  403MPD2    C3 6071   1.481   2.813  13.592  0.2762 -0.9337  0.3886
  403MPD2    C4 6072   1.506   2.697  13.523 -0.2842 -0.1032 -0.0439
  403MPD2    C5 6073   1.419   2.666  13.419 -0.6555 -0.2904 -0.2339
  403MPD2     H 6074   1.371   2.992  13.602  0.6310 -0.7014  0.6176
  403MPD2    H1 6075   1.588   2.626  13.535 -0.4997 -0.3052  0.2183
  403MPD2    H2 6076   1.263   2.719  13.292  1.2733 -2.7679  0.6278
  403MPD2    H3 6077   1.429   2.577  13.357 -0.1428 -0.6336  0.3378
  403MPD2     N 6078   1.560   2.859  13.705  0.1840  0.0256  0.8313
  403MPD2    H5 6079   1.542   2.947  13.751  0.7967  1.4767 -1.7093
  403MPD2    N1 6080   1.212   2.954  13.376 -0.1805  0.6122 -0.6036
  403MPD2    H7 6081   1.170   2.932  13.287 -0.7370 -0.9167  0.0411
  404TMC3    C1 6082   1.048   3.104  13.350 -0.1317 -0.7174 -1.2209
  404TMC3    C2 6083   0.937   3.040  13.407  0.8708  0.3286  0.0833
  404TMC3    C3 6084   0.852   2.973  13.323  0.0320 -0.5197  0.7552
  404TMC3    C4 6085   1.081   3.105  13.218 -0.3010  0.4825  0.3699
  404TMC3    C5 6086   0.994   3.036  13.136  0.2694 -0.1265  0.4984
  404TMC3    C6 6087   0.881   2.978  13.187 -0.0026 -0.1764 -0.3847
  404TMC3     C 6088   1.160   3.072  13.426 -0.6695 -0.0234 -0.0329
  404TMC3     O 6089   1.175   3.115  13.543 -0.6030 -0.0792  0.2104
  404TMC3     H 6090   0.921   3.043  13.514  0.8944  1.5444  0.0519
  404TMC3    H1 6091   1.170   3.155  13.183 -1.9901  3.3505  0.2140
  404TMC3    H2 6092   0.825   2.911  13.123 -0.6659 -0.9599  1.0013
  404TMC3    C7 6093   1.013   3.052  12.997 -0.0729 -0.1728  0.0911
  404TMC3    C8 6094   0.797   2.846  13.369 -0.0844 -0.4765 -0.2619
  404TMC3    O1 6095   1.116   3.100  12.959 -0.2175 -0.0284  0.1065
  404TMC3    O2 6096   0.780   2.771  13.277  0.7028  0.8677 -0.3927
  405MPD2     C 6097   1.935   4.627  15.269 -0.1937  0.0287 -0.2002
  405MPD2    C1 6098   1.961   4.533  15.170 -0.2552 -0.2124  0.3811
  405MPD2    C2 6099   1.885   4.542  15.059  0.0940 -0.0422  0.5476
  405MPD2    C3 6100   1.789   4.642  15.042 -0.2949  0.4404 -0.0767
  405MPD2    C4 6101   1.761   4.731  15.144 -1.0715  0.0770 -0.5363
  405MPD2    C5 6102   1.830   4.721  15.255  0.1365 -0.5767  0.3585
  405MPD2     H 6103   1.894   4.468  14.980 -1.0314  0.4972 -0.0824
  405MPD2    H1 6104   1.688   0.075  15.137 -1.9116 -0.6919 -0.4635
  405MPD2    H2 6105   1.980   4.624  15.368  1.7871 -1.4615 -1.1268
  405MPD2    H3 6106   1.801   0.048  15.338 -1.6704 -2.6221  1.2630
  405MPD2     N 6107   1.725   4.639  14.918  0.5931 -0.4542 -0.1244
  405MPD2    H5 6108   1.768   4.585  14.844  0.5836  0.8185 -1.0504
  405MPD2    N1 6109   2.062   4.436  15.178  0.4616  0.1310  0.1893
  405MPD2    H7 6110   2.084   4.377  15.099 -1.9896  0.7561 -0.9599
  406TMC3    C1 6111   1.449   4.651  14.561 -0.0882  0.6643  0.2138
  406TMC3    C2 6112   1.471   4.519  14.539 -0.5190  0.3070 -0.0859
  406TMC3    C3 6113   1.530   4.450  14.642  0.9145 -0.1025 -0.2172
  406TMC3    C4 6114   1.482   4.713  14.682  0.2908  0.8367  0.0312
  406TMC3    C5 6115   1.546   4.639  14.778 -0.6879  0.1034 -0.1232
  406TMC3    C6 6116   1.566   4.505  14.764 -0.2467  0.2827  0.1348
  406TMC3     C 6117   1.347   4.710  14.478  0.1119 -0.1564 -0.6703
  406TMC3     O 6118   1.369   0.089  14.449  0.8209  0.4456  0.2828
  406TMC3     H 6119   1.438   4.477  14.445 -1.4811  0.2399  0.2787
  406TMC3    H1 6120   1.483   0.085  14.698 -2.5535  0.8759 -0.0409
  406TMC3    H2 6121   1.609   4.453  14.849  2.5941  0.6756 -1.0674
  406TMC3    C7 6122   1.613   4.711  14.882 -0.1865  0.2811  0.0519
  406TMC3    C8 6123   1.587   4.318  14.611 -0.0705 -0.2120  0.5837
  406TMC3    O1 6124   1.562   0.075  14.934  0.0956 -0.1221  0.6123
  406TMC3    O2 6125   1.538   4.258  14.517  0.1461  0.0370 -0.0911
  407MPD2     C 6126   3.771   0.372   9.729  0.6539 -0.6695 -0.1682
  407MPD2    C1 6127   3.857   0.479   9.702 -0.2478 -0.1110 -0.4948
  407MPD2    C2 6128   3.861   0.589   9.779 -0.4318  0.2710 -0.0167
  407MPD2    C3 6129   3.775   0.606   9.888 -0.3198 -0.8848 -0.0454
  407MPD2    C4 6130   3.693   0.500   9.921  0.6194 -0.3302 -0.7764
  407MPD2    C5 6131   3.683   0.383   9.843 -0.1024  1.0190 -0.9452
  407MPD2     H 6132   3.928   0.672   9.764 -0.7604  0.4048 -0.7869
  407MPD2    H1 6133   3.628   0.489  10.007  0.5653  1.1820 -0.6328
  407MPD2    H2 6134   3.787   0.282   9.671  1.1425  0.9065 -2.4797
  407MPD2    H3 6135   3.623   0.297   9.872  0.4445  1.2457  0.8813
  407MPD2     N 6136   3.782   0.726   9.962 -0.4589 -0.2406  0.0982
  407MPD2    H5 6137   3.848   0.799   9.936 -1.0769  0.9009  1.7023
  407MPD2    N1 6138   3.965   0.467   9.611  0.0374  0.0953  0.0510
  407MPD2    H7 6139   4.043   0.529   9.631 -1.1477  1.1124  1.5074
  408TMC3    C1 6140   4.126   0.360   9.469 -0.2617 -0.1382  0.2066
  408TMC3    C2 6141   4.168   0.252   9.407 -0.0616  0.2878  0.0626
  408TMC3    C3 6142   4.294   0.254   9.363 -0.4362  0.2960 -0.2734
  408TMC3    C4 6143   4.195   0.480   9.470  0.5491 -0.4811  0.1327
  408TMC3    C5 6144   4.313   0.480   9.397 -0.5017 -0.3937 -0.2505
  408TMC3    C6 6145   4.367   0.369   9.347 -0.4825  0.0218  0.8389
  408TMC3     C 6146   3.992   0.355   9.530 -0.8859 -0.1306 -0.1119
  408TMC3     O 6147   3.921   0.262   9.503  0.0418  0.1902  0.1765
  408TMC3     H 6148   4.118   0.158   9.390 -0.4515  0.5213 -0.1013
  408TMC3    H1 6149   4.143   0.572   9.497  1.3263 -0.1162  0.3791
  408TMC3    H2 6150   4.461   0.366   9.292 -1.4000  2.8679 -0.8530
  408TMC3    C7 6151   4.415   0.547   9.460 -0.6373 -0.4054 -0.5163
  408TMC3    C8 6152   4.377   0.140   9.399  0.4828  0.6587  0.6633
  408TMC3    O1 6153   4.518   0.486   9.481  0.0527  0.1060  0.0658
  408TMC3    O2 6154   4.346   0.028   9.351 -0.2416  0.0700  0.2125
  409MPD2     C 6155   3.450   0.891  17.143  0.5347 -0.0539 -0.4618
  409MPD2    C1 6156   3.576   0.900  17.204  0.0011  0.2137  0.4024
  409MPD2    C2 6157   3.656   1.008  17.169  0.1299  0.2220  0.7888
  409MPD2    C3 6158   3.619   1.100  17.069 -0.1415 -0.0470 -0.1042
  409MPD2    C4 6159   3.498   1.086  17.008  0.3276 -0.4258  0.0973
  409MPD2    C5 6160   3.418   0.982  17.040 -0.4675  0.0150 -0.4911
  409MPD2     H 6161   3.749   1.025  17.222  2.0260 -0.3578 -2.3395
  409MPD2    H1 6162   3.472   1.158  16.932 -3.1179  0.3245  1.9785
  409MPD2    H2 6163   3.380   0.809  17.157  0.7531 -0.3366 -1.0385
  409MPD2    H3 6164   3.327   0.975  16.981 -0.5664  0.6750 -0.4152
  409MPD2     N 6165   3.695   1.224  17.039 -0.2546 -0.0133  0.2715
  409MPD2    H5 6166   3.660   1.278  16.960  1.2380 -0.1363 -0.4780
  409MPD2    N1 6167   3.614   0.797  17.300 -0.2841  0.3723 -0.5449
  409MPD2    H7 6168   3.710   0.812  17.332 -0.5927  2.3285 -0.4847
  410TMC3    C1 6169   3.880   1.372  17.039  0.3719 -0.1190 -0.5334
  410TMC3    C2 6170   4.001   1.406  17.101  0.5471 -0.1792  0.1116
  410TMC3    C3 6171   4.090   1.480  17.034  0.5834 -0.7764  0.2364
  410TMC3    C4 6172   3.856   1.402  16.910 -0.0701  0.6943  0.6536
  410TMC3    C5 6173   3.950   1.482  16.844  0.0550 -0.7062  0.0762
  410TMC3    C6 6174   4.070   1.519  16.903 -0.0585  0.0988 -0.1549
  410TMC3     C 6175   3.810   1.265  17.098 -0.1231  0.0289  0.2280
  410TMC3     O 6176   3.855   1.217  17.202  0.0189  0.1023 -0.0650
  410TMC3     H 6177   4.016   1.371  17.203 -0.0626 -3.3959 -0.8974
  410TMC3    H1 6178   3.763   1.377  16.861 -2.3139  5.1419  2.6509
  410TMC3    H2 6179   4.150   1.559  16.841  1.5031  0.2284  1.9712
  410TMC3    C7 6180   3.925   1.505  16.700 -0.3693 -0.4203  0.4168
  410TMC3    C8 6181   4.224   1.496  17.091 -0.6758 -0.3518 -0.5192
  410TMC3    O1 6182   3.841   1.434  16.644  0.1580  0.1876  0.1716
  410TMC3    O2 6183   4.284   1.599  17.054  0.4842 -0.0067  0.0140
  411MPD2     C 6184   4.143   1.815  14.606 -0.1821 -1.5988 -0.2167
  411MPD2    C1 6185   4.009   1.855  14.602  0.3515  0.6431  0.1295
  411MPD2    C2 6186   3.905   1.759  14.595 -0.7078 -0.1919  1.0743
  411MPD2    C3 6187   3.939   1.624  14.592  0.0813  0.4752  0.0958
  411MPD2    C4 6188   4.075   1.593  14.584 -0.0211 -0.7861 -0.5591
  411MPD2    C5 6189   4.178   1.681  14.595  0.7930 -0.5733 -0.3723
  411MPD2     H 6190   3.800   1.788  14.596 -0.7600 -0.3852  1.2761
  411MPD2    H1 6191   4.115   1.493  14.576  1.1062 -0.4407  0.6243
  411MPD2    H2 6192   4.227   1.882  14.595  0.2149 -2.0983 -0.2630
  411MPD2    H3 6193   4.280   1.644  14.584  0.6283 -0.8949 -0.8230
  411MPD2     N 6194   3.847   1.521  14.606  0.0459 -0.2234 -0.4864
  411MPD2    H5 6195   3.887   1.428  14.615 -0.7813 -0.3957  1.2419
  411MPD2    N1 6196   3.988   1.997  14.578  0.1904 -0.1369  0.3696
  411MPD2    H7 6197   4.061   2.061  14.606  1.3413 -1.9315  1.4090
  412TMC3    C1 6198   3.636   1.414  14.630  0.0555  0.1183 -0.4129
  412TMC3    C2 6199   3.520   1.409  14.710  0.1242  0.2113 -0.7262
  412TMC3    C3 6200   3.424   1.325  14.670 -0.0004 -0.2117  0.3715
  412TMC3    C4 6201   3.637   1.376  14.502  0.9188  0.6751 -0.0193
  412TMC3    C5 6202   3.526   1.312  14.455 -0.0817  0.0321  0.4245
  412TMC3    C6 6203   3.428   1.272  14.541  0.0322  0.0345  0.7127
  412TMC3     C 6204   3.714   1.540  14.641  0.1028  0.1740  0.0073
  412TMC3     O 6205   3.672   1.631  14.708 -0.0900 -0.0239 -0.0724
  412TMC3     H 6206   3.516   1.460  14.806 -4.0908  1.0803 -1.3886
  412TMC3    H1 6207   3.709   1.417  14.432  0.6783  0.9575 -0.1006
  412TMC3    H2 6208   3.354   1.200  14.506  1.4722 -0.1113 -2.0937
  412TMC3    C7 6209   3.474   1.366  14.333 -0.1975 -0.5026  0.1960
  412TMC3    C8 6210   3.284   1.349  14.709  0.5138 -0.0898  0.2974
  412TMC3    O1 6211   3.351   1.373  14.331 -0.3146 -0.5010 -0.6148
  412TMC3    O2 6212   3.255   1.379  14.824  0.1740  0.2733  0.1514
  413MPD2     C 6213   0.613   4.726  15.754 -0.3947  0.2301 -0.1330
  413MPD2    C1 6214   0.571   4.733  15.624  0.1865 -0.2131  0.2115
  413MPD2    C2 6215   0.664   0.004  15.520 -0.0391  0.1179 -0.3214
  413MPD2    C3 6216   0.798   4.732  15.544 -0.0197  1.1028  0.8075
  413MPD2    C4 6217   0.846   4.710  15.677  0.6770  0.1811  0.4578
  413MPD2    C5 6218   0.748   4.708  15.775 -0.0989 -0.9035 -0.0028
  413MPD2     H 6219   0.636   0.024  15.417 -2.9348 -1.2307  0.1974
  413MPD2    H1 6220   0.946   4.685  15.711 -0.9069 -4.7882  1.4749
  413MPD2    H2 6221   0.550   4.732  15.842 -0.0890 -1.1123  0.1838
  413MPD2    H3 6222   0.788   4.680  15.872  1.3991  1.0748 -0.0437
  413MPD2     N 6223   0.881   4.733  15.432  0.4235 -0.0384 -0.5051
  413MPD2    H5 6224   0.843   0.013  15.340  0.8400  2.9845 -0.1582
  413MPD2    N1 6225   0.432   4.735  15.605 -0.3876 -0.1067  0.0895
  413MPD2    H7 6226   0.388   4.735  15.696 -0.6819  0.4137 -0.0579
  414TMC3    C1 6227   1.077   4.692  15.309  0.3185  0.0051  0.4868
  414TMC3    C2 6228   1.170   4.598  15.288 -0.3002 -0.8711  0.2143
  414TMC3    C3 6229   1.215   4.588  15.155 -0.1075 -0.4484 -0.0439
  414TMC3    C4 6230   1.033   0.045  15.219  0.2846 -0.2752 -0.2407
  414TMC3    C5 6231   1.091   0.035  15.096 -0.5418 -0.3724 -0.1654
  414TMC3    C6 6232   1.182   4.674  15.055 -0.8358  0.0236  0.8998
  414TMC3     C 6233   1.013   4.688  15.439  0.0002  0.4303 -0.3682
  414TMC3     O 6234   1.064   4.617  15.526  0.9659 -0.8458 -0.3569
  414TMC3     H 6235   1.199   4.518  15.355  0.7722 -1.9461 -1.5274
  414TMC3    H1 6236   0.961   0.125  15.226  1.3799  0.4958  2.2481
  414TMC3    H2 6237   1.200   4.653  14.950 -1.4819  1.1708  0.5610
  414TMC3    C7 6238   1.142   0.153  15.049  1.0690 -0.2473  0.4690
  414TMC3    C8 6239   1.296   4.481  15.113 -0.3561  0.2983 -0.5168
  414TMC3    O1 6240   1.184   0.230  15.133  0.0238  0.2022  0.3048
  414TMC3    O2 6241   1.265   4.443  15.001 -0.2580  0.0769  0.1473
  415TMC3    C1 6242   2.188   2.590  10.019  0.0518  1.0225 -0.7700
  415TMC3    C2 6243   2.279   2.681   9.972  0.0192  0.1032 -0.0669
  415TMC3    C3 6244   2.388   2.623   9.906  0.4310 -0.1571  0.1287
  415TMC3    C4 6245   2.196   2.457   9.994  0.0689 -0.2986 -0.3708
  415TMC3    C5 6246   2.306   2.407   9.926 -0.4860  0.0032 -0.2287
  415TMC3    C6 6247   2.409   2.488   9.887  0.8875  0.4798  0.3043
  415TMC3     C 6248   2.046   2.640  10.048 -0.0910  0.0816  0.2310
  415TMC3     O 6249   1.963   2.564  10.100  0.5584 -0.1074 -0.0205
  415TMC3     H 6250   2.277   2.785  10.003  2.9640 -0.5071  2.2261
  415TMC3    H1 6251   2.117   2.391  10.027 -0.1567  0.9633  1.6218
  415TMC3    H2 6252   2.492   2.455   9.824 -1.1099  0.3041 -2.2309
  415TMC3    C7 6253   2.309   2.271   9.872 -0.6056  0.5053 -0.0038
  415TMC3    C8 6254   2.507   2.706   9.890  0.1635 -0.0630 -0.0372
  415TMC3    O1 6255   2.415   2.225   9.842 -0.2573  0.2569 -0.6119
  415TMC3    O2 6256   2.606   2.657   9.836 -0.1327 -0.0025  0.5667
  416MPD2     C 6257   2.179   1.307  12.101  0.2016 -0.3702  0.0959
  416MPD2    C1 6258   2.153   1.373  11.985 -0.2852  0.0501 -0.6631
  416MPD2    C2 6259   2.176   1.305  11.867  0.3303 -0.1785  0.0371
  416MPD2    C3 6260   2.215   1.172  11.864 -0.4857  0.4859 -0.0423
  416MPD2    C4 6261   2.226   1.103  11.984  0.4127  0.1568  0.2681
  416MPD2    C5 6262   2.224   1.177  12.099  0.1554 -0.6128 -0.3332
  416MPD2     H 6263   2.167   1.349  11.768  0.0746  1.6273  0.8570
  416MPD2    H1 6264   2.257   0.999  11.983  0.4526  0.1731 -0.2905
  416MPD2    H2 6265   2.167   1.357  12.197 -0.3632 -1.7638  0.7623
  416MPD2    H3 6266   2.237   1.132  12.197 -2.9086 -0.4677  0.1448
  416MPD2     N 6267   2.242   1.102  11.745 -0.3421  0.0757 -0.1706
  416MPD2    H5 6268   2.270   1.005  11.754 -1.2891  0.0395  2.6405
  416MPD2    N1 6269   2.131   1.508  11.991 -0.1530  0.1484 -0.4011
  416MPD2    H7 6270   2.120   1.546  12.084  0.6045 -1.0122  0.1640
  417TMC3    C1 6271   2.111   1.736  11.899 -0.2831  0.2450  0.3056
  417TMC3    C2 6272   2.206   1.777  11.990  0.9159 -0.7494 -0.2702
  417TMC3    C3 6273   2.255   1.902  11.966 -0.2671  0.9676 -0.5624
  417TMC3    C4 6274   2.086   1.806  11.785 -0.5066 -0.1358  0.1603
  417TMC3    C5 6275   2.151   1.930  11.765 -0.1310 -0.0364  0.2419
  417TMC3    C6 6276   2.247   1.978  11.852 -0.0118  0.5472  0.4777
  417TMC3     C 6277   2.116   1.589  11.883  0.3880 -0.1612  1.0122
  417TMC3     O 6278   2.116   1.563  11.763 -0.2094  0.0355 -0.3385
  417TMC3     H 6279   2.205   1.728  12.086 -0.2125  0.8815  0.5527
  417TMC3    H1 6280   2.009   1.768  11.718  0.4299 -1.3279 -0.2454
  417TMC3    H2 6281   2.305   2.067  11.831 -0.7477  1.0529  0.6064
  417TMC3    C7 6282   2.170   1.964  11.629 -0.6577  0.7173 -0.3516
  417TMC3    C8 6283   2.304   1.965  12.087 -0.1879  0.3991  0.1966
  417TMC3    O1 6284   2.226   2.072  11.599 -0.1448  0.0436 -0.2023
  417TMC3    O2 6285   2.274   2.085  12.101  0.5629 -0.0663  0.3688
  418TMC3    C1 6286   1.994   3.787   0.428 -0.3546 -0.0591  0.3735
  418TMC3    C2 6287   1.859   3.795   0.411 -0.2255 -0.0098 -0.7235
  418TMC3    C3 6288   1.774   3.714   0.477 -0.7323 -0.0313  0.7151
  418TMC3    C4 6289   2.050   3.686   0.501  0.2830  0.5313  0.8156
  418TMC3    C5 6290   1.968   3.602   0.570  0.0023  0.2203 -1.0619
  418TMC3    C6 6291   1.830   3.614   0.548 -0.3992 -0.0140 -0.0499
  418TMC3     C 6292   2.074   3.820   0.317 -0.6187  0.4626  0.0672
  418TMC3     O 6293   2.066   3.939   0.281 -1.0558 -0.0428  0.3295
  418TMC3     H 6294   1.813   3.857   0.334  0.0606 -0.8219 -1.5500
  418TMC3    H1 6295   2.157   3.689   0.514  0.4156  0.6896 -0.2809
  418TMC3    H2 6296   1.770   3.528   0.574  1.0285 -1.3798 -1.2594
  418TMC3    C7 6297   2.018   3.479   0.622 -0.8969  0.4372 -0.0563
  418TMC3    C8 6298   1.656   3.681   0.400  0.1012  0.3272  0.0790
  418TMC3    O1 6299   1.944   3.389   0.662  0.0968 -0.1921  0.2440
  418TMC3    O2 6300   1.566   3.763   0.385 -0.7208 -0.1772  0.0505
  419MPD2     C 6301   0.494   1.472  12.213 -0.0387 -1.3097  0.0885
  419MPD2    C1 6302   0.414   1.581  12.212  0.4886 -0.2160 -0.8762
  419MPD2    C2 6303   0.342   1.614  12.324  1.1396  0.1167  0.0903
  419MPD2    C3 6304   0.345   1.542  12.438  0.1226 -0.5964 -0.6706
  419MPD2    C4 6305   0.431   1.432  12.440  0.6179 -0.4212 -0.6621
  419MPD2    C5 6306   0.510   1.404  12.329  0.3705 -0.3179  0.5754
  419MPD2     H 6307   0.278   1.700  12.310  0.3383 -0.2119  1.7193
  419MPD2    H1 6308   0.430   1.368  12.529 -1.6467  0.6148  0.0686
  419MPD2    H2 6309   0.555   1.436  12.132  0.3044  1.5066 -0.8838
  419MPD2    H3 6310   0.567   1.312  12.327  1.2996  0.2533  0.6811
  419MPD2     N 6311   0.261   1.587  12.540  0.4857  0.8231  0.2617
  419MPD2    H5 6312   0.215   1.677  12.524 -0.7530  0.0749 -0.3692
  419MPD2    N1 6313   0.400   1.665  12.098 -0.2468 -0.4495  0.5644
  419MPD2    H7 6314   0.335   1.743  12.106  1.1114  0.4958  2.3712
  420TMC3    C1 6315   0.183   1.620  12.748  0.6752  0.6442 -0.5592
  420TMC3    C2 6316   0.063   1.671  12.701 -0.6003 -0.1784 -0.2496
  420TMC3    C3 6317   4.716   1.742  12.788  0.5605 -0.0094 -0.1072
  420TMC3    C4 6318   0.218   1.640  12.885  0.9047 -0.1663  0.1482
  420TMC3    C5 6319   0.136   1.715  12.965 -0.1221  0.3639  0.1561
  420TMC3    C6 6320   0.010   1.766  12.921  0.1290 -0.4353 -1.0742
  420TMC3     C 6321   0.271   1.538  12.664  0.1831 -0.0236  0.2852
  420TMC3     O 6322   0.343   1.456  12.717  0.0842  0.2809  0.5903
  420TMC3     H 6323   0.034   1.652  12.599  0.8088  0.6562 -0.8169
  420TMC3    H1 6324   0.311   1.595  12.916  0.2991 -0.3081  1.7236
  420TMC3    H2 6325   4.688   1.820  12.995  3.5927  2.1580 -0.2796
  420TMC3    C7 6326   0.157   1.718  13.107  0.0696  0.6715 -0.5970
  420TMC3    C8 6327   4.598   1.811  12.739  0.4351  0.3091  0.2270
  420TMC3    O1 6328   0.238   1.635  13.146 -0.5360  0.2835  0.2354
  420TMC3    O2 6329   4.559   1.909  12.802 -0.4359  0.1536 -0.4517
  421TMC3    C1 6330   1.745   2.865  13.844 -0.8621  0.0864 -0.5575
  421TMC3    C2 6331   1.730   3.001  13.847  0.3622  0.1818 -0.1907
  421TMC3    C3 6332   1.811   3.077  13.935  0.2286  0.2866  0.2316
  421TMC3    C4 6333   1.842   2.789  13.911 -0.2869 -0.5180 -0.1931
  421TMC3    C5 6334   1.927   2.874  13.989  0.1501  0.9616 -0.4836
  421TMC3    C6 6335   1.919   3.011  13.991  0.4280  0.1754 -0.0538
  421TMC3     C 6336   1.671   2.791  13.746 -1.4187  0.5600 -0.3179
  421TMC3     O 6337   1.720   2.686  13.708 -0.6558  0.2047  0.6714
  421TMC3     H 6338   1.658   3.056  13.789  0.6736 -1.1087 -1.7978
  421TMC3    H1 6339   1.856   2.683  13.894  0.9690 -0.3868  0.0771
  421TMC3    H2 6340   1.992   3.074  14.040  0.2024  0.7357 -0.4392
  421TMC3    C7 6341   2.071   2.837  13.994 -0.5446  0.0833 -0.1878
  421TMC3    C8 6342   1.829   3.219  13.918 -0.0759 -0.4917  0.0236
  421TMC3    O1 6343   2.159   2.918  14.028  0.3735 -0.3602  0.1920
  421TMC3    O2 6344   1.941   3.259  13.937 -0.3918 -0.3533 -0.1578
  422TMC3    C1 6345   3.826   4.632  12.375  0.1738 -0.5047 -0.0417
  422TMC3    C2 6346   3.845   4.735  12.451 -0.6465  0.7002 -0.1952
  422TMC3    C3 6347   3.802   4.725  12.576 -0.7405  0.6450 -0.3578
  422TMC3    C4 6348   3.743   4.527  12.407  0.0795 -0.2213 -0.0434
  422TMC3    C5 6349   3.682   4.533  12.528 -0.1413 -0.0197 -0.1089
  422TMC3    C6 6350   3.711   4.635  12.614 -0.1994 -0.7157 -0.0194
  422TMC3     C 6351   3.859   4.643  12.235  0.8861 -0.3966  0.1758
  422TMC3     O 6352   3.888   0.019  12.196  0.4454  0.3365  0.0834
  422TMC3     H 6353   3.925   0.067  12.424  1.1071 -1.2869 -0.0244
  422TMC3    H1 6354   3.706   4.459  12.332 -2.3442 -1.0219  1.8844
  422TMC3    H2 6355   3.659   4.646  12.709  0.8263  0.8894  0.3643
  422TMC3    C7 6356   3.614   4.415  12.579  0.4222  0.0779  0.0078
  422TMC3    C8 6357   3.861   0.083  12.669 -0.2741  0.7514 -0.0839
  422TMC3    O1 6358   3.659   4.313  12.533  0.5035 -0.1337  0.0047
  422TMC3    O2 6359   3.920   0.184  12.627 -0.1652  0.2910  0.1293
  423MPD2     C 6360   0.708   0.891   0.805 -0.1460 -0.2659 -0.8008
  423MPD2    C1 6361   0.701   0.758   0.840  0.5571 -0.5805  0.0601
  423MPD2    C2 6362   0.726   0.658   0.748  0.1433 -0.5596 -0.3147
  423MPD2    C3 6363   0.776   0.691   0.618 -0.0304  0.3620 -0.1930
  423MPD2    C4 6364   0.785   0.826   0.587  0.4730  0.7073 -0.1759
  423MPD2    C5 6365   0.749   0.921   0.677  0.0034 -0.2253  0.0700
  423MPD2     H 6366   0.725   0.556   0.783  1.3098 -0.4571  0.0108
  423MPD2    H1 6367   0.815   0.862   0.489 -0.6253  0.7550 -0.4946
  423MPD2    H2 6368   0.686   0.975   0.870  0.8044 -1.3796  0.9351
  423MPD2    H3 6369   0.763   1.025   0.648 -0.4547  0.7961  3.4081
  423MPD2     N 6370   0.800   0.599   0.509 -0.1517  0.0438 -0.4673
  423MPD2    H5 6371   0.827   0.641   0.420 -0.1591  1.2421  0.1022
  423MPD2    N1 6372   0.676   0.711   0.970  0.1633 -0.1895 -0.2952
  423MPD2    H7 6373   0.675   0.611   0.990 -1.1560 -0.3479 -1.2472
  424TMC3    C1 6374   0.604   0.722   1.191  0.8742 -0.8659  0.1986
  424TMC3    C2 6375   0.679   0.609   1.219  0.2445  1.1900  0.7853
  424TMC3    C3 6376   0.685   0.558   1.348  0.2143  0.3562  0.0860
  424TMC3    C4 6377   0.541   0.792   1.288  0.1802  0.0319  0.0031
  424TMC3    C5 6378   0.576   0.754   1.417 -0.7305  0.1316 -0.1738
  424TMC3    C6 6379   0.641   0.637   1.449  0.2031  0.1534 -0.2113
  424TMC3     C 6380   0.632   0.793   1.072 -0.0427 -0.3317  0.8123
  424TMC3     O 6381   0.608   0.913   1.075  0.2657  0.2726  0.0489
  424TMC3     H 6382   0.743   0.557   1.149  1.2766  3.1265  0.3063
  424TMC3    H1 6383   0.506   0.893   1.272 -0.3595 -0.5321 -2.3356
  424TMC3    H2 6384   0.649   0.610   1.554 -0.1532  1.4381  0.1516
  424TMC3    C7 6385   0.500   0.813   1.527  0.5026 -0.1469 -0.2238
  424TMC3    C8 6386   0.764   0.438   1.374  0.4476 -0.8751 -0.4820
  424TMC3    O1 6387   0.561   0.857   1.626 -0.2471  0.2560  0.3454
  424TMC3    O2 6388   0.798   0.369   1.280  0.2736 -0.4100 -0.1398
  425MPD2     C 6389   4.651   4.644  17.274 -0.2055  0.1817 -0.1058
  425MPD2    C1 6390   4.589   4.520  17.306 -0.7775  0.6534 -0.5059
  425MPD2    C2 6391   4.474   4.523  17.384 -0.0182 -0.3575  0.3516
  425MPD2    C3 6392   4.410   4.644  17.419  0.7616  0.2098  1.1617
  425MPD2    C4 6393   4.469   0.024  17.378  0.1355  0.1746  0.2219
  425MPD2    C5 6394   4.587   0.022  17.310  0.3162 -0.4242 -0.2055
  425MPD2     H 6395   4.429   4.434  17.426  0.5277 -0.6289  0.3539
  425MPD2    H1 6396   4.425   0.121  17.396  1.0411  0.6062  0.1232
  425MPD2    H2 6397   0.008   4.656  17.217  0.1210 -1.9933 -0.0246
  425MPD2    H3 6398   4.626   0.120  17.288  1.5310 -0.5448  1.4299
  425MPD2     N 6399   4.289   4.648  17.488  0.0277 -0.4186  0.0379
  425MPD2    H5 6400   4.261   4.555  17.520  0.1489 -0.3279  0.4142
  425MPD2    N1 6401   4.655   4.403  17.264 -0.1650  0.2917 -0.5029
  425MPD2    H7 6402   4.732   4.420  17.200  0.0777  1.9111  0.1975
  426TMC3    C1 6403   4.698   4.169  17.237 -0.4328  0.4823  0.0431
  426TMC3    C2 6404   4.690   4.153  17.105  0.4797  0.4403  0.2531
  426TMC3    C3 6405   0.005   4.038  17.049  0.2475 -0.2035 -0.5041
  426TMC3    C4 6406   4.730   4.063  17.319  0.2848  0.2206  0.8019
  426TMC3    C5 6407   0.043   3.945  17.261 -0.6389 -0.1443 -0.0030
  426TMC3    C6 6408   0.049   3.930  17.122 -1.0644 -0.5204  0.0441
  426TMC3     C 6409   4.619   4.274  17.297  0.0720 -0.8582  0.5272
  426TMC3     O 6410   4.536   4.231  17.379  0.3626 -0.2231 -0.2404
  426TMC3     H 6411   4.639   4.233  17.052  0.3549 -1.2014 -2.0784
  426TMC3    H1 6412   4.733   4.078  17.427  0.5329 -0.5663  0.9043
  426TMC3    H2 6413   0.066   3.831  17.082  0.1027 -0.7114  0.9892
  426TMC3    C7 6414   4.728   3.821  17.326  0.6785  0.2966  0.7175
  426TMC3    C8 6415   0.031   4.032  16.906  0.0333  0.0334  0.5583
  426TMC3    O1 6416   0.036   3.713  17.294 -0.2998  0.0612  0.6000
  426TMC3    O2 6417   0.074   3.928  16.858  0.2790 -0.6792 -0.0330
  427MPD2     C 6418   2.996   2.095  14.890  0.0908 -0.3544  0.3743
  427MPD2    C1 6419   2.938   2.005  14.978 -0.6179 -0.3001 -0.5158
  427MPD2    C2 6420   2.802   2.032  15.009 -0.7768 -0.1740  0.0895
  427MPD2    C3 6421   2.728   2.137  14.942  0.4547  0.0824  0.1864
  427MPD2    C4 6422   2.798   2.219  14.860 -0.5245 -0.1061  0.1926
  427MPD2    C5 6423   2.926   2.196  14.834 -0.2932 -0.7585 -0.2212
  427MPD2     H 6424   2.748   1.954  15.061 -0.7522  1.0825  2.0169
  427MPD2    H1 6425   2.742   2.299  14.815 -2.2062 -0.8627  0.9306
  427MPD2    H2 6426   3.101   2.099  14.864 -0.5317  0.2625 -1.9941
  427MPD2    H3 6427   2.978   2.271  14.776  1.1185  0.2648  2.3759
  427MPD2     N 6428   2.587   2.148  14.943  0.0488  0.2593  0.1914
  427MPD2    H5 6429   2.542   2.202  14.870  2.4100  0.7258 -0.9433
  427MPD2    N1 6430   3.008   1.902  15.039  0.1837  0.2391 -0.1759
  427MPD2    H7 6431   2.966   1.844  15.111  1.4640  0.7319  0.9662
  428TMC3    C1 6432   3.199   1.764  15.089 -0.7054 -1.0276 -0.1414
  428TMC3    C2 6433   3.129   1.676  15.156  0.0639 -0.3455 -0.1076
  428TMC3    C3 6434   3.194   1.592  15.251  0.5958  0.0296  0.4153
  428TMC3    C4 6435   3.328   1.786  15.124  0.0243 -0.6766 -0.0167
  428TMC3    C5 6436   3.385   1.711  15.221 -0.0630  0.2317  0.1670
  428TMC3    C6 6437   3.323   1.611  15.289  0.9891 -0.1688 -0.1767
  428TMC3     C 6438   3.140   1.875  15.014  0.4030  1.4414  0.6068
  428TMC3     O 6439   3.219   1.942  14.954  0.3533  0.3779 -0.2259
  428TMC3     H 6440   3.028   1.653  15.124  0.4335 -0.2866 -1.2947
  428TMC3    H1 6441   3.379   1.872  15.081  1.0468 -1.5404 -0.5108
  428TMC3    H2 6442   3.364   1.546  15.365  0.0425 -0.7086 -0.1214
  428TMC3    C7 6443   3.529   1.721  15.235 -0.0922 -0.1723  0.4377
  428TMC3    C8 6444   3.116   1.490  15.322  0.8546 -0.5652 -0.3527
  428TMC3    O1 6445   3.578   1.692  15.342  0.7349  0.0096 -0.3170
  428TMC3    O2 6446   3.173   1.430  15.413  0.1250 -0.2330 -0.2009
  429MPD2     C 6447   4.019   1.880   0.142 -0.8776 -0.0011  0.6745
  429MPD2    C1 6448   4.130   1.833   0.074 -0.0032 -0.6470  0.0431
  429MPD2    C2 6449   4.197   1.901  17.714 -0.6064 -0.1779  0.3403
  429MPD2    C3 6450   4.146   2.031  17.690  0.2257  0.1417  0.7302
  429MPD2    C4 6451   4.033   2.075   0.012 -0.4929  0.2506 -0.2070
  429MPD2    C5 6452   3.967   2.003   0.108 -0.8551 -0.1759 -0.1160
  429MPD2     H 6453   4.291   1.864  17.674 -0.1863 -0.9557  2.0695
  429MPD2    H1 6454   3.996   2.175  17.731  0.3321  0.5422 -0.2876
  429MPD2    H2 6455   3.977   1.821   0.223  0.6901 -0.9580  0.7787
  429MPD2    H3 6456   3.877   2.035   0.160  0.2455  2.4293  0.1353
  429MPD2     N 6457   4.221   2.124  17.610  0.1532 -0.2205 -0.0379
  429MPD2    H5 6458   4.207   2.222  17.632 -2.1117 -0.8104  1.0531
  429MPD2    N1 6459   4.184   1.707   0.110  0.6462  0.9013  0.1770
  429MPD2    H7 6460   4.260   1.678   0.049  0.0021  1.0110 -0.6733
  430TMC3    C1 6461   4.357   2.187  17.422 -0.1078 -0.0502 -0.1077
  430TMC3    C2 6462   4.279   2.296  17.388 -0.1268  1.0042 -0.7649
  430TMC3    C3 6463   4.324   2.367  17.278  0.3095  0.3479  0.6428
  430TMC3    C4 6464   4.462   2.151  17.339  0.3843 -0.3748 -0.1882
  430TMC3    C5 6465   4.501   2.218  17.226  0.6533 -0.8822  0.0850
  430TMC3    C6 6466   4.428   2.325  17.199 -0.7046 -0.4991 -0.5422
  430TMC3     C 6467   4.305   2.082  17.506 -0.2355  0.4940 -0.7328
  430TMC3     O 6468   4.321   1.966  17.455  0.0023  0.1257 -0.1119
  430TMC3     H 6469   4.194   2.337  17.442 -1.4697 -1.6230 -0.9254
  430TMC3    H1 6470   4.526   2.066  17.362  0.4139 -0.4666 -0.6107
  430TMC3    H2 6471   4.461   2.389  17.119  0.9767  0.5643  0.9915
  430TMC3    C7 6472   4.537   2.131  17.104 -0.0368  0.7305 -0.2650
  430TMC3    C8 6473   4.229   2.449  17.211  0.1630  0.2708 -0.9586
  430TMC3    O1 6474   4.558   2.010  17.123 -0.0743 -0.0480  0.3577
  430TMC3    O2 6475   4.171   2.531  17.280 -0.1731  0.4519  0.1215
  431MPD2     C 6476   0.095   2.318  12.338  0.3160 -0.2065  0.2647
  431MPD2    C1 6477   0.188   2.374  12.253  1.5795 -0.5361  0.6240
  431MPD2    C2 6478   0.219   2.310  12.133  0.2652  0.3914 -0.4597
  431MPD2    C3 6479   0.159   2.191  12.097  0.0326 -0.1442 -0.2435
  431MPD2    C4 6480   0.063   2.143  12.183 -0.2392  0.0844 -0.6660
  431MPD2    C5 6481   0.029   2.204  12.303 -0.5671  0.0974 -0.0745
  431MPD2     H 6482   0.290   2.341  12.057 -0.1259 -0.6068 -1.2264
  431MPD2    H1 6483   0.011   2.050  12.169 -1.2539  0.4854  0.3914
  431MPD2    H2 6484   0.060   2.360  12.431  1.6712 -0.0800  0.7147
  431MPD2    H3 6485   4.686   2.167  12.368  1.8895 -1.2464  2.1213
  431MPD2     N 6486   0.201   2.101  11.996 -0.0801 -0.3175 -0.0249
  431MPD2    H5 6487   0.162   2.008  12.009 -1.8319  0.3188 -0.6962
  431MPD2    N1 6488   0.252   2.500  12.285 -0.5079  0.1331  0.2747
  431MPD2    H7 6489   0.307   2.543  12.212  0.2754 -1.0575  0.1637
  432TMC3    C1 6490   0.353   1.991  11.846  0.2650  0.1329 -0.0890
  432TMC3    C2 6491   0.431   2.006  11.732 -0.4350 -0.3809  0.2536
  432TMC3    C3 6492   0.521   1.912  11.702  0.4230 -0.2095 -0.0760
  432TMC3    C4 6493   0.365   1.881  11.930  0.2864 -0.2786  0.2320
  432TMC3    C5 6494   0.458   1.785  11.896  0.1950 -0.2642 -0.4868
  432TMC3    C6 6495   0.541   1.801  11.787  0.7484 -0.4641 -0.4741
  432TMC3     C 6496   0.307   2.114  11.904  0.1741 -0.1521 -0.1748
  432TMC3     O 6497   0.355   2.217  11.858 -0.0395  0.0761 -0.3613
  432TMC3     H 6498   0.440   2.098  11.676 -0.3804 -0.5463 -0.0087
  432TMC3    H1 6499   0.308   1.875  12.022  0.7394  0.0652  0.5379
  432TMC3    H2 6500   0.607   1.719  11.763  0.2229 -1.0329 -0.0024
  432TMC3    C7 6501   0.478   1.669  11.984  0.3825  0.1824 -0.3473
  432TMC3    C8 6502   0.620   1.935  11.600 -0.1202 -0.4794 -0.0866
  432TMC3    O1 6503   0.560   1.587  11.958  0.3124 -0.0642 -0.2901
  432TMC3    O2 6504   0.585   1.976  11.496 -0.1372  0.5082 -0.5827
  433MPD2     C 6505   3.706   0.552  10.488 -0.1757  0.8060 -0.6629
  433MPD2    C1 6506   3.796   0.472  10.557  0.4905 -0.0300  0.0665
  433MPD2    C2 6507   3.845   0.518  10.678  0.6963  0.4289  0.2749
  433MPD2    C3 6508   3.800   0.634  10.737  0.1359  0.6980  0.6654
  433MPD2    C4 6509   3.722   0.713  10.661  1.2792  0.5831 -0.2110
  433MPD2    C5 6510   3.663   0.676  10.544  0.8302  0.5365  0.5609
  433MPD2     H 6511   3.912   0.461  10.741  3.2286  2.3258 -0.6810
  433MPD2    H1 6512   3.691   0.812  10.693  0.9352  1.2352 -2.5701
  433MPD2    H2 6513   3.667   0.514  10.394  1.2764 -2.6140  0.1258
  433MPD2    H3 6514   3.594   0.747  10.499 -0.0953  0.6328  2.1355
  433MPD2     N 6515   3.859   0.679  10.856 -0.5971  0.0366  0.7804
  433MPD2    H5 6516   3.931   0.616  10.889 -1.1692 -0.7394  0.5530
  433MPD2    N1 6517   3.829   0.343  10.506  0.2904  0.2204  0.5406
  433MPD2    H7 6518   3.807   0.323  10.409 -0.4814  0.3112  0.7032
  434TMC3    C1 6519   3.960   0.141  10.489  0.4324 -0.0748  0.1247
  434TMC3    C2 6520   4.089   0.098  10.531  0.2019 -0.0838  0.3679
  434TMC3    C3 6521   4.131   4.712  10.486 -0.4546  0.1962  0.2191
  434TMC3    C4 6522   3.879   0.058  10.415 -0.6072  1.1941 -0.4874
  434TMC3    C5 6523   3.926   4.675  10.377 -0.7927 -0.2794 -0.2501
  434TMC3    C6 6524   4.050   4.623  10.418 -0.8661 -0.0955  0.0529
  434TMC3     C 6525   3.908   0.247  10.568 -0.2790  0.9970 -0.7030
  434TMC3     O 6526   3.949   0.239  10.685  0.2048  0.3276 -0.1733
  434TMC3     H 6527   4.146   0.176  10.582 -1.3860 -0.3352  2.5352
  434TMC3    H1 6528   3.784   0.097  10.382 -1.8167 -1.1553  0.2646
  434TMC3    H2 6529   4.082   4.524  10.385  0.5508  0.0622  0.9681
  434TMC3    C7 6530   3.834   4.589  10.306 -0.1227 -0.0863  0.2952
  434TMC3    C8 6531   4.240   4.656  10.570  0.2848 -0.4701 -0.1436
  434TMC3    O1 6532   3.750   4.647  10.241  0.3195 -0.0953  0.2921
  434TMC3    O2 6533   4.306   0.007  10.628 -0.1171  0.0500  0.4926
  435MPD2     C 6534   1.359   0.990  15.678  0.1840  0.1308 -0.2918
  435MPD2    C1 6535   1.344   0.995  15.817  0.9420  0.5271  0.3190
  435MPD2    C2 6536   1.440   0.943  15.903  0.4746  0.5026  0.2307
  435MPD2    C3 6537   1.550   0.876  15.856  0.3672 -0.1408  0.3769
  435MPD2    C4 6538   1.565   0.867  15.722 -0.1937  0.2465  0.1522
  435MPD2    C5 6539   1.467   0.924  15.638 -0.5562 -0.3576  0.0821
  435MPD2     H 6540   1.415   0.941  16.008 -0.8738  0.4344 -0.0984
  435MPD2    H1 6541   1.649   0.812  15.680  1.0614  2.2858 -0.0418
  435MPD2    H2 6542   1.287   1.027  15.606 -2.0604 -1.8429  0.9386
  435MPD2    H3 6543   1.492   0.922  15.532 -0.3922  1.5909  0.0775
  435MPD2     N 6544   1.631   0.799  15.947  0.1970  0.9739  0.2403
  435MPD2    H5 6545   1.586   0.783  16.036 -1.7380 -1.1422 -1.1073
  435MPD2    N1 6546   1.223   1.043  15.873  0.5507  0.4173  0.1517
  435MPD2    H7 6547   1.226   1.038  15.974  2.0044  0.4292  0.1031
  436TMC3    C1 6548   0.931   1.178  16.109 -0.4608 -0.3510  0.0394
  436TMC3    C2 6549   1.037   1.165  16.025  0.4236  0.7362 -0.2563
  436TMC3    C3 6550   1.011   1.131  15.894  0.2297 -0.1526  0.2641
  436TMC3    C4 6551   0.799   1.164  16.069 -0.3359 -0.2261 -0.0439
  436TMC3    C5 6552   0.784   1.140  15.933 -0.0465 -0.7989 -0.4133
  436TMC3    C6 6553   0.886   1.135  15.839 -0.1806  0.0071  0.4395
  436TMC3     C 6554   0.957   1.216  16.244  0.3270  0.6135  0.4945
  436TMC3     O 6555   1.071   1.257  16.270 -0.4358 -0.7438 -0.4260
  436TMC3     H 6556   1.135   1.168  16.072 -0.2849 -1.8160  1.3588
  436TMC3    H1 6557   0.719   1.202  16.131 -1.4840 -1.8921 -0.5005
  436TMC3    H2 6558   0.865   1.099  15.739  1.1253 -0.8004  0.4589
  436TMC3    C7 6559   0.652   1.161  15.873  0.5019 -0.4857  0.2070
  436TMC3    C8 6560   1.114   1.092  15.807  0.1726  0.0370 -0.3805
  436TMC3    O1 6561   0.636   1.121  15.758  0.0145  0.2603  0.0663
  436TMC3    O2 6562   1.081   1.086  15.688 -0.0869 -0.3965 -0.3084
  437TMC3    C1 6563   4.673   3.143  12.182 -0.2937 -0.7590 -0.0695
  437TMC3    C2 6564   4.618   3.215  12.082 -0.3800 -0.5032  0.5549
  437TMC3    C3 6565   4.678   3.331  12.030  0.1377  0.2994 -0.3189
  437TMC3    C4 6566   0.064   3.177  12.223 -0.5978  0.4594  0.9932
  437TMC3    C5 6567   0.124   3.286  12.167  0.0180 -0.3664 -0.1341
  437TMC3    C6 6568   0.062   3.365  12.063 -0.0951 -0.2735 -0.5399
  437TMC3     C 6569   4.611   3.014  12.218  0.0894  0.1265 -0.4780
  437TMC3     O 6570   4.546   2.961  12.130  0.1789 -0.4810  0.0784
  437TMC3     H 6571   4.522   3.185  12.045 -0.3476 -1.9908  1.6758
  437TMC3    H1 6572   0.121   3.108  12.285 -0.6385  2.0347  2.8158
  437TMC3    H2 6573   0.109   3.456  12.027 -0.3865  0.0818 -0.0210
  437TMC3    C7 6574   0.258   3.315  12.196 -0.4528  0.0427 -0.4401
  437TMC3    C8 6575   4.597   3.416  11.942  0.2632  0.7895  0.4254
  437TMC3    O1 6576   0.326   3.355  12.101 -0.4307  0.2351 -0.3809
  437TMC3    O2 6577   4.504   3.359  11.889 -0.3613  0.3287 -0.3680
  438MPD2     C 6578   2.207   3.363  16.840  0.4269 -0.5585  0.2838
  438MPD2    C1 6579   2.312   3.300  16.909  0.4826  0.9723 -0.3490
  438MPD2    C2 6580   2.326   3.321  17.047  0.4755  0.7714 -0.0228
  438MPD2    C3 6581   2.237   3.406  17.110 -0.1012  0.4755 -0.7861
  438MPD2    C4 6582   2.137   3.468  17.037 -0.1641 -0.0424  0.7754
  438MPD2    C5 6583   2.121   3.450  16.902 -0.0868 -0.1201  0.0691
  438MPD2     H 6584   2.402   3.265  17.102  0.3258  1.1611  0.5787
  438MPD2    H1 6585   2.066   3.538  17.078 -0.7618 -0.6132  0.7306
  438MPD2    H2 6586   2.181   3.361  16.735 -0.6979  0.3671  0.5344
  438MPD2    H3 6587   2.037   3.498  16.855 -1.1947 -1.3127  0.8307
  438MPD2     N 6588   2.234   3.419  17.257 -0.0364  0.0144 -0.2334
  438MPD2    H5 6589   2.160   3.473  17.300  0.3905  0.4576 -0.0566
  438MPD2    N1 6590   2.404   3.217  16.836 -0.2293  0.3672 -0.3765
  438MPD2    H7 6591   2.483   3.178  16.886  0.4116  2.1789  0.0298
  439TMC3    C1 6592   2.508   3.112  16.650 -0.0776  0.2421 -0.0967
  439TMC3    C2 6593   2.496   3.061  16.523  1.0181  0.0074  0.2440
  439TMC3    C3 6594   2.588   2.973  16.481 -0.0871 -0.0367 -0.1046
  439TMC3    C4 6595   2.605   3.071  16.736 -0.3736 -0.5304 -0.0432
  439TMC3    C5 6596   2.698   2.980  16.689 -0.1657 -0.4037 -0.6686
  439TMC3    C6 6597   2.691   2.929  16.561 -0.3430  0.1138  0.5002
  439TMC3     C 6598   2.397   3.201  16.698 -0.1746  0.4703 -0.0007
  439TMC3     O 6599   2.302   3.229  16.622  0.4545 -0.0291 -0.8067
  439TMC3     H 6600   2.419   3.105  16.460  1.4814  1.4648  0.6911
  439TMC3    H1 6601   2.612   3.093  16.842 -1.2662 -1.2992  0.1715
  439TMC3    H2 6602   2.772   2.870  16.519  1.3872  1.1321  2.3994
  439TMC3    C7 6603   2.791   2.920  16.775 -0.7023  0.2954  0.3074
  439TMC3    C8 6604   2.599   2.944  16.338 -0.3373  0.0789  0.2994
  439TMC3    O1 6605   2.834   3.000  16.855  0.1914 -0.5060 -0.4826
  439TMC3    O2 6606   2.693   2.871  16.310 -0.0854 -0.1536 -0.1310
  440MPD2     C 6607   1.068   4.259  14.491  0.0204  0.5545 -0.6655
  440MPD2    C1 6608   1.011   4.187  14.595  0.4902 -0.3031  0.1697
  440MPD2    C2 6609   1.070   4.076  14.645 -0.4456  0.6427 -0.1102
  440MPD2    C3 6610   1.185   4.028  14.576  0.0186 -0.6995 -0.2653
  440MPD2    C4 6611   1.234   4.093  14.462 -0.0956  0.2753 -0.4399
  440MPD2    C5 6612   1.180   4.210  14.422  0.2655  1.0210 -0.1827
  440MPD2     H 6613   1.032   4.027  14.733 -2.2570 -0.6855 -1.6272
  440MPD2    H1 6614   1.327   4.063  14.414  0.2638 -1.9433  1.5812
  440MPD2    H2 6615   1.023   4.351  14.457  0.5043  0.5542 -1.2952
  440MPD2    H3 6616   1.221   4.259  14.335 -2.1530  3.2598 -0.0506
  440MPD2     N 6617   1.259   3.917  14.618  0.0316 -0.7214  0.1869
  440MPD2    H5 6618   1.347   3.895  14.572  0.8994 -0.1579  1.5881
  440MPD2    N1 6619   0.900   4.237  14.664  0.0406 -0.8878 -0.1014
  440MPD2    H7 6620   0.872   4.184  14.746 -2.2556 -0.7891 -0.8191
  441TMC3    C1 6621   1.339   3.774  14.781  0.4061 -0.4505  0.4945
  441TMC3    C2 6622   1.456   3.844  14.795 -0.5232  0.2832 -0.4142
  441TMC3    C3 6623   1.537   3.811  14.901  0.1968 -0.2132 -0.9940
  441TMC3    C4 6624   1.318   3.663  14.855  0.1262 -0.7219  0.2522
  441TMC3    C5 6625   1.406   3.631  14.954  0.3175  0.3161 -0.2318
  441TMC3    C6 6626   1.511   3.705  14.983  0.2431 -0.0132 -0.2516
  441TMC3     C 6627   1.225   3.834  14.720  0.0016  0.2052 -0.1086
  441TMC3     O 6628   1.120   3.818  14.773  0.5275  0.4828  0.4762
  441TMC3     H 6629   1.462   3.943  14.752 -1.0723  0.3034 -0.4474
  441TMC3    H1 6630   1.220   3.617  14.847 -0.6499  0.5566  2.2654
  441TMC3    H2 6631   1.576   3.675  15.064  2.1211 -0.9809 -2.1111
  441TMC3    C7 6632   1.350   3.540  15.053 -0.5312  0.4313 -0.2547
  441TMC3    C8 6633   1.590   3.919  14.990  0.4920 -0.3465  0.3208
  441TMC3    O1 6634   1.235   3.512  15.053  0.4914  0.4876 -0.2813
  441TMC3    O2 6635   1.659   3.883  15.083 -0.4699  0.4678  0.0589
  442MPD2     C 6636   4.173   4.031  16.436  0.0135  0.0026  0.3031
  442MPD2    C1 6637   4.060   3.965  16.466  0.1524 -0.7017  0.4374
  442MPD2    C2 6638   4.045   3.834  16.427 -0.0283 -0.3263  0.5862
  442MPD2    C3 6639   4.143   3.774  16.355 -0.1768  0.1289  0.0006
  442MPD2    C4 6640   4.253   3.845  16.319  0.2968 -0.3360  0.3315
  442MPD2    C5 6641   4.262   3.973  16.353  0.0990  0.0814 -0.6061
  442MPD2     H 6642   3.955   3.784  16.461 -1.1993  1.6366  0.4207
  442MPD2    H1 6643   4.326   3.796  16.255  0.0501 -1.1561  0.6867
  442MPD2    H2 6644   4.200   4.123  16.488  1.5284 -1.0228  1.3517
  442MPD2    H3 6645   4.354   4.024  16.323  0.3118  1.4469  2.3317
  442MPD2     N 6646   4.138   3.637  16.313 -0.8217  0.4787  0.8920
  442MPD2    H5 6647   4.211   3.603  16.251 -0.6067  0.8578  0.9328
  442MPD2    N1 6648   3.966   4.023  16.554 -0.1845 -0.4075 -0.1271
  442MPD2    H7 6649   3.903   3.960  16.602 -1.2074  1.3411  0.8403
  443TMC3    C1 6650   3.840   4.180  16.663 -1.1958  0.1005  0.4429
  443TMC3    C2 6651   3.774   4.298  16.639 -0.2801  0.3775  0.2778
  443TMC3    C3 6652   3.661   4.314  16.711  0.6540 -0.2718 -0.1962
  443TMC3    C4 6653   3.796   4.084  16.749 -0.1052  0.4738 -0.3046
  443TMC3    C5 6654   3.674   4.105  16.812  0.2358  0.5838  0.1864
  443TMC3    C6 6655   3.612   4.226  16.804  0.0512  0.2989 -0.1323
  443TMC3     C 6656   3.958   4.155  16.583  0.0147 -0.2624  0.0923
  443TMC3     O 6657   4.017   4.250  16.536  0.0415  0.4528  0.2069
  443TMC3     H 6658   3.821   4.377  16.582 -1.7488  0.2934 -1.0468
  443TMC3    H1 6659   3.851   3.993  16.772 -0.6646  0.0346 -0.7108
  443TMC3    H2 6660   3.517   4.253  16.849  0.1380  0.9713 -0.3464
  443TMC3    C7 6661   3.649   4.015  16.922 -0.6114 -0.7121  0.0055
  443TMC3    C8 6662   3.567   4.416  16.676  0.2978 -0.4153 -0.1938
  443TMC3    O1 6663   3.686   3.899  16.916 -0.0612 -0.1529 -0.4178
  443TMC3    O2 6664   3.528   4.486  16.769 -0.2613  0.0232 -0.1282
  444MPD2     C 6665   4.460   3.638  16.992  0.1247 -0.2963  0.4320
  444MPD2    C1 6666   4.359   3.552  16.966  0.3205  0.0771  0.1296
  444MPD2    C2 6667   4.378   3.466  16.860 -0.4174  0.3548 -0.1777
  444MPD2    C3 6668   4.496   3.470  16.788  0.2960 -0.3628  0.4076
  444MPD2    C4 6669   4.578   3.583  16.801  0.2113  0.0474  0.1251
  444MPD2    C5 6670   4.563   3.667  16.908 -0.2986 -0.8364 -0.3980
  444MPD2     H 6671   4.298   3.395  16.844  0.3095  0.2796 -3.4598
  444MPD2    H1 6672   4.655   3.614  16.731 -0.6108  1.3512 -0.1950
  444MPD2    H2 6673   4.463   3.706  17.076  0.2095 -2.5722  2.2730
  444MPD2    H3 6674   4.632   3.751  16.913  1.2169 -2.0073 -1.5983
  444MPD2     N 6675   4.522   3.360  16.702 -0.0602  0.1770 -0.1867
  444MPD2    H5 6676   4.463   3.278  16.709  1.5339 -0.9298  0.4349
  444MPD2    N1 6677   4.245   3.547  17.043  1.1647  0.7993  0.2628
  444MPD2    H7 6678   4.180   3.470  17.028  1.5837  0.2150  1.4359
  445TMC3    C1 6679   4.655   3.217  16.565 -0.1298 -0.5626  0.5734
  445TMC3    C2 6680   4.548   3.156  16.511  0.0872 -0.2574 -0.0794
  445TMC3    C3 6681   4.576   3.030  16.457  0.8903  0.2746  0.0291
  445TMC3    C4 6682   0.046   3.179  16.542  0.2485 -0.1847  0.1367
  445TMC3    C5 6683   0.070   3.055  16.483 -0.4342  0.3092 -0.7054
  445TMC3    C6 6684   4.705   2.972  16.439 -1.2401 -0.0855  1.1978
  445TMC3     C 6685   4.639   3.347  16.630  0.6442  0.0815  0.0349
  445TMC3     O 6686   4.733   3.425  16.623  0.3530  0.4552 -0.1331
  445TMC3     H 6687   4.449   3.197  16.526 -0.4161 -1.3952 -0.2834
  445TMC3    H1 6688   0.133   3.233  16.577  1.7118 -2.8126  0.5117
  445TMC3    H2 6689   4.714   2.874  16.393 -2.4394 -0.7806  2.4396
  445TMC3    C7 6690   0.205   3.035  16.433  0.4095  0.2654  0.1556
  445TMC3    C8 6691   4.456   2.978  16.393 -0.4383  0.7586 -0.1443
  445TMC3    O1 6692   0.285   3.130  16.432 -0.3070  0.0917 -0.3718
  445TMC3    O2 6693   4.353   3.027  16.428  0.2669  0.6609  0.3711
  446MPD2     C 6694   3.829   4.451  10.931  0.1271 -0.1500  0.3010
  446MPD2    C1 6695   3.801   4.567  10.861 -0.5588 -0.0701  0.0485
  446MPD2    C2 6696   3.897   4.664  10.846 -0.2170 -0.2208  0.2580
  446MPD2    C3 6697   4.027   4.637  10.897 -0.4744  0.2737  0.2421
  446MPD2    C4 6698   4.053   4.515  10.964  0.2657 -0.0692  0.2488
  446MPD2    C5 6699   3.954   4.430  10.983  0.6569 -0.2358  0.1940
  446MPD2     H 6700   3.873   0.020  10.792  0.6782  0.2189  0.5972
  446MPD2    H1 6701   4.151   4.493  11.004  0.6662 -0.5778 -1.0130
  446MPD2    H2 6702   3.758   4.369  10.929  1.3783 -1.2369  0.1109
  446MPD2    H3 6703   3.974   4.332  11.025 -1.2415 -0.4214  0.6706
  446MPD2     N 6704   4.124   0.010  10.898  0.0529  0.2577 -0.1119
  446MPD2    H5 6705   4.099   0.091  10.842 -3.8085  0.6945  2.1907
  446MPD2    N1 6706   3.675   4.573  10.805  0.0073 -0.0657  0.3683
  446MPD2    H7 6707   3.610   4.499  10.830  0.8462 -0.3520  1.7133
  447TMC3    C1 6708   4.314   0.138  10.947  0.3489  0.4255  0.1552
  447TMC3    C2 6709   4.263   0.244  10.879 -0.0873 -0.0384  0.3337
  447TMC3    C3 6710   4.338   0.355  10.846 -0.0380 -0.4537 -0.3199
  447TMC3    C4 6711   4.449   0.134  10.983 -0.7552 -0.5199 -0.3140
  447TMC3    C5 6712   4.526   0.237  10.940  0.4093  0.2651  0.2520
  447TMC3    C6 6713   4.469   0.353  10.884 -0.4476  0.0258  0.3381
  447TMC3     C 6714   4.243   0.017  10.970 -0.6036  0.5352  0.4649
  447TMC3     O 6715   4.297   4.669  11.035  0.4710  0.3944 -0.6238
  447TMC3     H 6716   4.155   0.249  10.870  0.0087 -0.6651 -1.1287
  447TMC3    H1 6717   4.489   0.044  11.028 -0.2646  0.2730  0.8347
  447TMC3    H2 6718   4.525   0.442  10.856  1.3687 -0.3874  2.7041
  447TMC3    C7 6719   4.667   0.226  10.963 -0.6921  0.0755 -0.1688
  447TMC3    C8 6720   4.268   0.458  10.765  0.2605  0.6000  0.1207
  447TMC3    O1 6721   4.705   0.120  11.006  0.2060  0.3231 -0.3980
  447TMC3    O2 6722   4.201   0.419  10.673 -0.7553  0.2462 -0.1354
  448TMC3    C1 6723   2.013   4.626  17.088  0.3511 -0.2025  0.5502
  448TMC3    C2 6724   1.997   4.493  17.069  0.0876  0.1023 -0.2842
  448TMC3    C3 6725   2.064   4.409  17.162 -0.5221  0.0536 -0.0451
  448TMC3    C4 6726   2.082   4.676  17.193  0.3675 -0.2935 -0.6700
  448TMC3    C5 6727   2.129   4.590  17.287  0.1179  0.0420  0.3692
  448TMC3    C6 6728   2.133   4.454  17.268 -0.5626  0.3941  0.8331
  448TMC3     C 6729   1.960   4.722  16.996 -0.3183  0.7525 -0.6545
  448TMC3     O 6730   1.968   0.104  17.024  0.2916 -0.4252  0.2580
  448TMC3     H 6731   1.928   4.466  16.990 -0.8771  1.1917  0.1995
  448TMC3    H1 6732   2.079   0.048  17.201 -2.4435 -0.4789  0.7316
  448TMC3    H2 6733   2.172   4.385  17.342 -0.4438 -0.0372  0.3711
  448TMC3    C7 6734   2.210   4.636  17.393  0.1427 -0.6050  0.0770
  448TMC3    C8 6735   2.079   4.267  17.134 -0.6371 -0.1782 -0.3386
  448TMC3    O1 6736   2.257   0.015  17.384 -0.1558 -0.6447 -0.5595
  448TMC3    O2 6737   2.170   4.200  17.188  0.3650 -0.0310 -0.8816
  449MPD2     C 6738   3.500   3.120  13.322 -0.1346 -0.0274 -1.2216
  449MPD2    C1 6739   3.477   3.238  13.384  0.0275  0.3401  0.2384
  449MPD2    C2 6740   3.350   3.298  13.364  0.3209 -0.3279  0.4930
  449MPD2    C3 6741   3.248   3.238  13.298  0.4969 -0.2802 -0.6281
  449MPD2    C4 6742   3.276   3.127  13.225 -0.3232 -0.2156  0.3052
  449MPD2    C5 6743   3.398   3.066  13.247  0.5221 -0.0899 -0.0729
  449MPD2     H 6744   3.328   3.397  13.401  0.4163  0.7319 -2.2810
  449MPD2    H1 6745   3.198   3.078  13.168  0.3438  0.5117 -1.2251
  449MPD2    H2 6746   3.600   3.079  13.322 -0.2835 -0.4064  0.8199
  449MPD2    H3 6747   3.422   2.973  13.196  0.9346  0.5545 -1.0643
  449MPD2     N 6748   3.135   3.302  13.300 -0.1914  0.0708 -0.2811
  449MPD2    H5 6749   3.120   3.376  13.368  0.1614  0.8706 -1.0536
  449MPD2    N1 6750   3.572   3.309  13.460  0.5003 -0.1688 -0.0416
  449MPD2    H7 6751   3.543   3.400  13.493  1.3896 -0.5573  1.7690
  450TMC3    C1 6752   3.775   3.374  13.549 -0.0895  0.6494  0.0495
  450TMC3    C2 6753   3.866   3.429  13.465 -0.2367  0.3921  0.4514
  450TMC3    C3 6754   3.880   3.565  13.464  0.5420 -0.8581 -0.3450
  450TMC3    C4 6755   3.697   3.452  13.634 -0.5113  0.0541  0.1920
  450TMC3    C5 6756   3.699   3.591  13.608 -0.9008  0.1436 -0.0620
  450TMC3    C6 6757   3.801   3.650  13.535  0.7297  0.3429  0.7375
  450TMC3     C 6758   3.698   3.274  13.477 -0.2040  0.3856  0.1166
  450TMC3     O 6759   3.765   3.181  13.434 -0.3410 -0.2569  1.0519
  450TMC3     H 6760   3.918   3.364  13.396 -0.1570  1.6101 -0.6276
  450TMC3    H1 6761   3.623   3.405  13.698  0.2883 -0.6263  0.6175
  450TMC3    H2 6762   3.821   3.756  13.533 -0.1339  0.4580 -1.2316
  450TMC3    C7 6763   3.566   3.633  13.574  0.1297 -0.2524  0.3203
  450TMC3    C8 6764   3.985   3.629  13.389  0.3711 -0.9193  0.0836
  450TMC3    O1 6765   3.483   3.545  13.554 -0.0813 -0.0312 -0.0235
  450TMC3    O2 6766   3.977   3.743  13.351 -0.8763  0.4831  0.0520
  451MPD2     C 6767   0.917   2.132   0.816 -0.5630  0.1602  0.0760
  451MPD2    C1 6768   0.787   2.114   0.850  0.8350 -0.2074  0.4398
  451MPD2    C2 6769   0.717   2.011   0.789 -0.1598 -0.5039 -1.4190
  451MPD2    C3 6770   0.776   1.921   0.702 -0.3714  0.9503 -0.1507
  451MPD2    C4 6771   0.909   1.941   0.669  0.9957 -0.2720  0.1931
  451MPD2    C5 6772   0.974   2.048   0.721  0.2266 -0.0061 -0.9227
  451MPD2     H 6773   0.617   1.989   0.826 -0.1176 -1.1017 -1.6590
  451MPD2    H1 6774   0.958   1.871   0.602 -1.0601 -0.9377 -0.6401
  451MPD2    H2 6775   0.982   2.208   0.857  0.2633 -0.4832 -0.0280
  451MPD2    H3 6776   1.078   2.051   0.691  0.6407  0.9158  0.6259
  451MPD2     N 6777   0.714   1.808   0.648  0.6463 -0.7568  0.4915
  451MPD2    H5 6778   0.763   1.754   0.577  1.7684 -1.1138  1.5492
  451MPD2    N1 6779   0.720   2.211   0.924 -0.2800  0.5558 -0.0288
  451MPD2    H7 6780   0.779   2.287   0.957  1.5057 -1.6948  1.9736
  452TMC3    C1 6781   0.539   1.694   0.564  0.1534 -0.0127 -0.4333
  452TMC3    C2 6782   0.451   1.590   0.589 -1.1761  0.3241  0.3560
  452TMC3    C3 6783   0.413   1.520   0.482 -0.1249  0.8545  0.7104
  452TMC3    C4 6784   0.564   1.739   0.432 -0.3415  0.0397 -0.1363
  452TMC3    C5 6785   0.511   1.663   0.332  0.1342  0.1027 -0.0777
  452TMC3    C6 6786   0.446   1.544   0.354 -0.3621  0.2244  0.1682
  452TMC3     C 6787   0.585   1.770   0.672  0.5450  0.5378  0.1284
  452TMC3     O 6788   0.521   1.781   0.777 -0.0219  0.1283 -0.0529
  452TMC3     H 6789   0.406   1.568   0.685 -1.9422  0.9020  0.1304
  452TMC3    H1 6790   0.606   1.838   0.418  0.1743  0.0114  1.2496
  452TMC3    H2 6791   0.400   1.489   0.273 -0.5808  0.9285 -0.1784
  452TMC3    C7 6792   0.556   1.704   0.199 -0.8292 -0.4296 -1.1372
  452TMC3    C8 6793   0.364   1.382   0.500  0.1765 -0.4268 -0.0313
  452TMC3    O1 6794   0.639   1.793   0.187 -0.1961  0.1838  0.3800
  452TMC3    O2 6795   0.343   1.313   0.401  0.0400 -1.0275 -0.0549
  453TMC3    C1 6796   1.881   4.150  11.486 -0.6808 -0.0959 -0.0318
  453TMC3    C2 6797   1.885   4.014  11.467  0.5274  0.0317 -0.1101
  453TMC3    C3 6798   1.874   3.970  11.338 -0.0535 -0.0440  0.4221
  453TMC3    C4 6799   1.859   4.238  11.380 -0.7934 -0.2028  0.2415
  453TMC3    C5 6800   1.848   4.189  11.252 -0.2642  0.1849 -0.6968
  453TMC3    C6 6801   1.854   4.050  11.233  0.2936 -0.1177  0.2171
  453TMC3     C 6802   1.933   4.203  11.614  0.0897  0.4075 -0.5881
  453TMC3     O 6803   1.943   4.324  11.628 -0.0371  0.6298  0.2604
  453TMC3     H 6804   1.903   3.937  11.541 -0.4833  0.4593  0.5754
  453TMC3    H1 6805   1.863   4.345  11.393  0.1655  0.1766 -2.9894
  453TMC3    H2 6806   1.870   4.015  11.132 -1.6513 -0.2587 -0.0339
  453TMC3    C7 6807   1.842   4.274  11.137 -0.1492 -0.1455  0.7588
  453TMC3    C8 6808   1.895   3.824  11.309 -0.7626 -0.0743  0.0698
  453TMC3    O1 6809   1.870   4.393  11.159  0.0161 -0.0531 -0.4787
  453TMC3    O2 6810   1.942   3.802  11.200  0.1492 -0.0508  0.2831
  454MPD2     C 6811   0.359   3.214  16.044 -0.5340  0.2494 -0.5458
  454MPD2    C1 6812   0.295   3.265  15.935  0.3153 -0.6506  0.1997
  454MPD2    C2 6813   0.254   3.398  15.937 -0.0902  0.0678  0.4640
  454MPD2    C3 6814   0.263   3.478  16.049 -0.0669 -0.2978 -0.6674
  454MPD2    C4 6815   0.328   3.425  16.164  0.2601 -0.1849  0.2077
  454MPD2    C5 6816   0.381   3.296  16.158 -0.5289  0.2739  0.8400
  454MPD2     H 6817   0.195   3.420  15.849 -1.4928 -1.9479  0.9045
  454MPD2    H1 6818   0.339   3.473  16.260 -0.1440 -0.1164  0.2214
  454MPD2    H2 6819   0.385   3.109  16.046  1.1888  0.6511 -1.8154
  454MPD2    H3 6820   0.414   3.244  16.247 -0.0665 -1.1687 -0.1835
  454MPD2     N 6821   0.203   3.607  16.070 -1.0004 -0.1666  0.8184
  454MPD2    H5 6822   0.187   3.645  16.163  1.6231 -2.5941  2.2499
  454MPD2    N1 6823   0.243   3.188  15.826 -0.0006  0.0923 -0.6242
  454MPD2    H7 6824   0.184   3.244  15.765 -1.4721 -0.9645 -0.1919
  455TMC3    C1 6825   0.000   3.725  16.040  0.0955 -0.1338  0.4657
  455TMC3    C2 6826   0.026   3.787  16.161 -0.6751 -0.1838 -0.6744
  455TMC3    C3 6827   4.688   3.780  16.278 -0.5513  0.6626  0.2650
  455TMC3    C4 6828   4.628   3.643  16.035 -0.9483 -0.3607  0.0705
  455TMC3    C5 6829   4.554   3.632  16.156 -0.4305 -0.2774 -0.3619
  455TMC3    C6 6830   4.584   3.690  16.277  0.0575  0.1786 -0.3311
  455TMC3     C 6831   0.112   3.653  15.973 -0.4417 -0.3061  0.4721
  455TMC3     O 6832   0.095   3.618  15.858 -0.1779  0.6620 -0.0754
  455TMC3     H 6833   0.118   3.845  16.164  0.0467 -1.3995  0.4688
  455TMC3    H1 6834   4.613   3.570  15.956  2.6879 -1.6402  0.5789
  455TMC3    H2 6835   4.542   3.647  16.367  0.5919  1.3838  0.4969
  455TMC3    C7 6836   4.503   3.495  16.166  0.0828 -0.5250  0.1361
  455TMC3    C8 6837   4.716   3.852  16.400  0.0940  0.6923  0.7013
  455TMC3    O1 6838   4.384   3.482  16.181  0.8823 -0.4928 -0.3168
  455TMC3    O2 6839   4.650   3.822  16.501 -0.4570 -0.3399  0.2299
  456MPD2     C 6840   2.672   3.334  16.209  0.3749  0.7189  0.8769
  456MPD2    C1 6841   2.756   3.283  16.303 -0.6802  0.3783 -0.3922
  456MPD2    C2 6842   2.747   3.333  16.431 -0.1950 -0.1595  0.1370
  456MPD2    C3 6843   2.647   3.422  16.465  0.4071 -0.6504 -0.2279
  456MPD2    C4 6844   2.551   3.459  16.371  0.7100  0.0216 -0.4551
  456MPD2    C5 6845   2.569   3.413  16.242 -0.4010 -0.0841 -0.0200
  456MPD2     H 6846   2.822   3.309  16.505 -1.1472  1.4660  1.6306
  456MPD2    H1 6847   2.459   3.510  16.396 -0.5067 -0.8873 -3.0753
  456MPD2    H2 6848   2.664   3.303  16.105 -0.1009  3.9915 -0.0489
  456MPD2    H3 6849   2.493   3.427  16.166 -0.8017 -1.6673  0.1049
  456MPD2     N 6850   2.654   3.479  16.593 -0.1398 -0.2294 -0.1341
  456MPD2    H5 6851   2.722   3.434  16.654 -0.1860 -0.1286 -0.0104
  456MPD2    N1 6852   2.858   3.195  16.264  0.7158 -0.2659 -0.4601
  456MPD2    H7 6853   2.866   3.177  16.164  2.3703 -3.2452  0.2156
  457TMC3    C1 6854   2.542   3.596  16.774 -0.3379  0.0222 -0.9474
  457TMC3    C2 6855   2.434   3.673  16.801  0.2062  0.2284 -0.1931
  457TMC3    C3 6856   2.419   3.707  16.935 -0.1828  0.4058 -0.5231
  457TMC3    C4 6857   2.635   3.560  16.864  0.0318 -0.2075 -0.3955
  457TMC3    C5 6858   2.619   3.612  16.994  0.1465  0.0030  0.4490
  457TMC3    C6 6859   2.509   3.679  17.033 -0.0620 -0.1706  0.2303
  457TMC3     C 6860   2.567   3.578  16.626  0.7194  0.3150 -0.5069
  457TMC3     O 6861   2.509   3.658  16.555  0.3016  0.7627 -0.2645
  457TMC3     H 6862   2.369   3.709  16.722 -1.1906  0.6015  1.1246
  457TMC3    H1 6863   2.729   3.528  16.819  1.3091  1.6233  0.9744
  457TMC3    H2 6864   2.504   3.722  17.132 -3.0119  1.3296 -0.5773
  457TMC3    C7 6865   2.715   3.573  17.097  0.8940 -0.4764  0.1511
  457TMC3    C8 6866   2.308   3.805  16.978 -0.0134 -0.7520  0.0311
  457TMC3    O1 6867   2.684   3.530  17.208 -0.1497  0.0084  0.1538
  457TMC3    O2 6868   2.324   3.855  17.088 -0.3598  0.1987  0.3462
  458MPD2     C 6869   0.676   3.407  12.471  0.0943  0.4690 -0.3132
  458MPD2    C1 6870   0.579   3.350  12.557  0.1364  0.0094  0.4094
  458MPD2    C2 6871   0.454   3.310  12.511 -0.2595 -0.3882  0.1542
  458MPD2    C3 6872   0.425   3.333  12.378  0.4100  0.8006  0.2001
  458MPD2    C4 6873   0.524   3.381  12.298  0.1625  0.0015 -0.0324
  458MPD2    C5 6874   0.646   3.418  12.341  0.2256  0.2409 -0.1902
  458MPD2     H 6875   0.377   3.265  12.574 -0.8485 -0.5121 -0.6554
  458MPD2    H1 6876   0.511   3.422  12.198 -0.9112  0.2775  0.2126
  458MPD2    H2 6877   0.769   3.445  12.510 -0.0287  0.1346  0.3124
  458MPD2    H3 6878   0.712   3.479  12.281  0.2954 -0.5474 -0.9074
  458MPD2     N 6879   0.294   3.294  12.326 -0.7630  0.1979  0.0574
  458MPD2    H5 6880   0.238   3.240  12.391 -1.3158  0.9358  0.1868
  458MPD2    N1 6881   0.620   3.347  12.695  0.6255 -0.5994  0.1052
  458MPD2    H7 6882   0.703   3.401  12.716  0.1250  0.5076 -0.8005
  459TMC3    C1 6883   0.632   3.289  12.924  0.2973  0.4850 -0.1884
  459TMC3    C2 6884   0.735   3.379  12.950  1.2955 -0.4112  0.4867
  459TMC3    C3 6885   0.789   3.376  13.074  0.8343 -0.6211  0.5682
  459TMC3    C4 6886   0.583   3.202  13.017  0.0578 -0.1757 -0.0983
  459TMC3    C5 6887   0.636   3.224  13.143 -0.5260 -0.3759 -0.4568
  459TMC3    C6 6888   0.736   3.313  13.182 -0.4070 -0.0971  0.6245
  459TMC3     C 6889   0.573   3.263  12.793 -0.5064  0.5991  0.5333
  459TMC3     O 6890   0.495   3.169  12.786 -0.1343  0.0803  0.4266
  459TMC3     H 6891   0.787   3.422  12.864  0.4881 -1.0510 -0.3194
  459TMC3    H1 6892   0.494   3.140  13.008 -0.4043  0.0174  3.1796
  459TMC3    H2 6893   0.782   3.306  13.279 -0.2719 -0.4646  0.5364
  459TMC3    C7 6894   0.551   3.175  13.255  1.0744  0.1196 -0.5567
  459TMC3    C8 6895   0.922   3.432  13.087 -0.0205  0.3706  0.2752
  459TMC3    O1 6896   0.542   3.251  13.350  0.3791 -0.0316  0.4452
  459TMC3    O2 6897   0.994   3.399  13.180  0.1532  0.3294 -0.1662
  460MPD2     C 6898   4.280   0.817  10.822  0.1295 -0.1312 -0.3577
  460MPD2    C1 6899   4.243   0.705  10.752  0.2132  0.6297 -0.1718
  460MPD2    C2 6900   4.142   0.709  10.656 -0.4363  0.3353  0.3791
  460MPD2    C3 6901   4.095   0.835  10.616  0.2542 -0.1738 -0.3360
  460MPD2    C4 6902   4.132   0.951  10.691  0.5758 -0.1289  0.5585
  460MPD2    C5 6903   4.220   0.939  10.792 -0.0615 -0.2945 -0.4997
  460MPD2     H 6904   4.105   0.622  10.603 -0.1231  0.9190 -0.7899
  460MPD2    H1 6905   4.098   1.053  10.675 -3.3939 -1.1428  2.5897
  460MPD2    H2 6906   4.361   0.816  10.894 -0.3691  3.6621  0.2650
  460MPD2    H3 6907   4.256   1.031  10.835  1.2949 -0.2294 -1.7829
  460MPD2     N 6908   4.006   0.842  10.502  0.1511 -0.1999 -0.1932
  460MPD2    H5 6909   3.976   0.757  10.457  0.8087  0.6931 -2.3347
  460MPD2    N1 6910   4.310   0.586  10.795 -0.6242  0.1500 -0.4046
  460MPD2    H7 6911   4.380   0.594  10.868 -0.4754 -1.1593 -0.4131
  461TMC3    C1 6912   3.888   0.954  10.325  0.2988 -0.2652  0.3908
  461TMC3    C2 6913   3.821   0.849  10.277 -0.4625 -0.6141  0.0893
  461TMC3    C3 6914   3.769   0.859  10.151 -0.3668 -0.4281 -0.4419
  461TMC3    C4 6915   3.896   1.069  10.252  0.0257 -0.6915 -0.9399
  461TMC3    C5 6916   3.850   1.074  10.121  0.0020 -0.6240 -0.7588
  461TMC3    C6 6917   3.781   0.965  10.066 -0.1151  0.1010 -0.5659
  461TMC3     C 6918   3.953   0.958  10.452  1.2697  0.8945 -0.0872
  461TMC3     O 6919   3.968   1.074  10.492 -0.5184 -0.0724  0.5582
  461TMC3     H 6920   3.813   0.758  10.335  1.3365 -0.3695  0.7078
  461TMC3    H1 6921   3.948   1.155  10.293 -1.0323 -0.9959  1.0540
  461TMC3    H2 6922   3.730   0.964   9.970  2.1672  2.6135 -1.8171
  461TMC3    C7 6923   3.861   1.203  10.060 -0.6634 -0.7482  0.3847
  461TMC3    C8 6924   3.723   0.740  10.088  0.6881  0.3538  0.0666
  461TMC3    O1 6925   3.858   1.291  10.144  0.1952  0.3108 -0.9480
  461TMC3    O2 6926   3.655   0.659  10.154  0.0356  0.4356  0.5379
  462TMC3    C1 6927   4.665   1.540   0.575 -0.7315  0.7553  0.2490
  462TMC3    C2 6928   4.711   1.432   0.507 -0.4218  0.1547 -1.0488
  462TMC3    C3 6929   4.620   1.342   0.462  0.1844 -0.2614 -0.5965
  462TMC3    C4 6930   4.532   1.562   0.604 -0.0070 -0.7392 -0.3434
  462TMC3    C5 6931   4.441   1.479   0.538 -0.0603 -0.4191 -0.0570
  462TMC3    C6 6932   4.484   1.370   0.464 -0.0033 -0.3379  0.6621
  462TMC3     C 6933   0.030   1.616   0.649 -0.2153 -0.3105  0.7010
  462TMC3     O 6934   0.144   1.572   0.671 -0.4265 -0.0855 -0.4561
  462TMC3     H 6935   0.080   1.407   0.515 -0.4333  0.2771 -0.5146
  462TMC3    H1 6936   4.498   1.635   0.676  2.4699  1.8788 -1.8416
  462TMC3    H2 6937   4.408   1.294   0.445  0.3117  0.3780 -3.4025
  462TMC3    C7 6938   4.321   1.451   0.608 -0.4165  0.0483 -0.7284
  462TMC3    C8 6939   4.662   1.234   0.373 -0.2074  0.3346  0.8211
  462TMC3    O1 6940   4.223   1.431   0.534 -0.7896 -0.3249 -0.0300
  462TMC3    O2 6941   0.030   1.245   0.309 -0.4965 -0.5549  0.7691
  463MPD2     C 6942   1.382   4.708   1.902 -0.5190 -0.6146  0.1169
  463MPD2    C1 6943   1.270   0.013   1.968 -0.1603  0.4090  0.5960
  463MPD2    C2 6944   1.277   0.119   2.052  0.4488 -0.3460  0.6857
  463MPD2    C3 6945   1.404   0.174   2.086  0.3378  0.1531  0.3773
  463MPD2    C4 6946   1.515   0.120   2.021 -0.3995 -0.0712 -0.0492
  463MPD2    C5 6947   1.505   0.024   1.926  0.5334  0.1473  0.2689
  463MPD2     H 6948   1.192   0.153   2.109  0.8716 -1.3735  1.9349
  463MPD2    H1 6949   1.609   0.174   2.024  0.9308 -2.2716 -2.0429
  463MPD2    H2 6950   1.381   4.627   1.829 -2.2581  0.4195 -1.0143
  463MPD2    H3 6951   1.594   4.735   1.869  0.6377 -1.2855  1.0612
  463MPD2     N 6952   1.430   0.279   2.181 -0.1348 -0.6796  0.4860
  463MPD2    H5 6953   1.530   0.290   2.194 -0.3110  0.9033  0.4362
  463MPD2    N1 6954   1.141   4.713   1.930 -0.2742  0.5294  0.3431
  463MPD2    H7 6955   1.064   0.021   1.980  0.2644 -0.5382  2.0841
  464TMC3    C1 6956   0.980   4.593   1.817 -0.2522  0.1497  0.7029
  464TMC3    C2 6957   0.898   4.703   1.811  0.3447 -0.5363  0.1862
  464TMC3    C3 6958   0.767   4.678   1.781 -1.0139  0.5757  1.0463
  464TMC3    C4 6959   0.942   4.467   1.778 -0.2913 -0.1802 -0.0741
  464TMC3    C5 6960   0.812   4.454   1.738  0.4818  0.1269 -0.3770
  464TMC3    C6 6961   0.719   4.558   1.745 -0.4327  0.0855 -0.4272
  464TMC3     C 6962   1.119   4.605   1.854 -0.2130 -0.6444  0.0739
  464TMC3     O 6963   1.192   4.524   1.798 -0.3083 -0.1928 -0.2446
  464TMC3     H 6964   0.942   0.067   1.814  1.9846 -1.2618  0.1742
  464TMC3    H1 6965   1.012   4.384   1.782  0.7924  0.8233  1.7616
  464TMC3    H2 6966   0.619   4.540   1.708 -1.4438  2.4021  1.2164
  464TMC3    C7 6967   0.761   4.326   1.724 -0.3260 -0.2515  0.1414
  464TMC3    C8 6968   0.676   0.052   1.764 -0.0600  0.1852 -0.6438
  464TMC3    O1 6969   0.816   4.240   1.792 -0.5029  0.2836  0.2283
  464TMC3    O2 6970   0.580   0.032   1.694  0.2155  0.2734 -0.1265
  465MPD2     C 6971   1.758   3.686  16.590 -0.1065  0.2631  0.3011
  465MPD2    C1 6972   1.632   3.653  16.625 -0.4892  0.2505  0.3744
  465MPD2    C2 6973   1.536   3.722  16.556  0.0952  0.1401 -0.0132
  465MPD2    C3 6974   1.565   3.813  16.454  0.0709  0.2304 -0.2731
  465MPD2    C4 6975   1.696   3.855  16.433  0.2450  0.0464  0.4962
  465MPD2    C5 6976   1.792   3.785  16.500  0.5912  0.0102  0.3533
  465MPD2     H 6977   1.433   3.708  16.587 -0.1622  0.9443 -0.4955
  465MPD2    H1 6978   1.724   3.928  16.358 -1.8726  1.2090  0.8365
  465MPD2    H2 6979   1.837   3.633  16.643  0.8315  1.0290 -0.3216
  465MPD2    H3 6980   1.896   3.807  16.478  1.0100 -0.8948  1.4334
  465MPD2     N 6981   1.458   3.871  16.386  0.3283 -0.2802  0.1691
  465MPD2    H5 6982   1.365   3.832  16.405  0.0264  0.5532  0.3942
  465MPD2    N1 6983   1.596   3.574  16.735 -0.0924 -0.2974 -0.0802
  465MPD2    H7 6984   1.497   3.568  16.756 -0.3755  0.2359 -1.2564
  466TMC3    C1 6985   1.116   3.980  16.201  0.3666 -0.3926  0.3541
  466TMC3    C2 6986   1.104   4.114  16.164  0.1051 -0.4111 -0.0718
  466TMC3    C3 6987   1.213   4.194  16.171  0.3466  0.0386 -0.7789
  466TMC3    C4 6988   1.240   3.927  16.243  0.6492 -0.1947  0.2694
  466TMC3    C5 6989   1.339   4.018  16.254  0.1037 -0.2268 -0.2293
  466TMC3    C6 6990   1.332   4.150  16.221  0.8506 -0.0226  0.1253
  466TMC3     C 6991   0.995   3.917  16.254 -0.9498 -0.0522 -0.8913
  466TMC3     O 6992   1.005   3.811  16.315  0.2553 -0.3169 -0.3077
  466TMC3     H 6993   1.007   4.163  16.154  0.0115 -0.4126  0.7936
  466TMC3    H1 6994   1.257   3.823  16.269  1.0012  0.5745  3.0268
  466TMC3    H2 6995   1.411   4.222  16.242  0.0476  0.4267  1.5878
  466TMC3    C7 6996   1.467   3.984  16.305  0.8112 -0.2830 -0.9724
  466TMC3    C8 6997   1.188   4.334  16.182  0.0089 -0.1079 -0.5753
  466TMC3    O1 6998   1.561   4.051  16.266  0.0041 -0.0708  0.6150
  466TMC3    O2 6999   1.114   4.384  16.101  0.0072  0.4138  0.1765
  467TMC3    C1 7000   2.337   1.887  13.529  0.1651 -0.3577  0.5823
  467TMC3    C2 7001   2.325   1.991  13.441 -0.5886 -0.4842 -0.3963
  467TMC3    C3 7002   2.234   2.094  13.462  0.4014  0.0196  0.0713
  467TMC3    C4 7003   2.244   1.875  13.629  0.0520 -0.2443 -0.3021
  467TMC3    C5 7004   2.158   1.977  13.650  0.0627  0.1420 -0.1523
  467TMC3    C6 7005   2.152   2.091  13.570 -0.1932  0.0286  0.4223
  467TMC3     C 7006   2.474   1.869  13.565 -0.2795  0.3044 -0.0756
  467TMC3     O 7007   2.559   1.871  13.478 -0.5737 -0.0151 -0.0136
  467TMC3     H 7008   2.371   1.990  13.343  1.2555 -1.0780  0.4734
  467TMC3    H1 7009   2.267   1.798  13.703 -1.7278  0.1973  0.7113
  467TMC3    H2 7010   2.089   2.177  13.590  0.1936  0.5677 -0.6925
  467TMC3    C7 7011   2.145   2.008  13.782 -0.1771 -0.2462 -0.3789
  467TMC3    C8 7012   2.287   2.225  13.434 -0.3934 -0.3368 -0.6095
  467TMC3    O1 7013   2.234   1.969  13.857 -0.0381 -0.1895 -0.2242
  467TMC3    O2 7014   2.213   2.317  13.412 -0.2505  0.2904  0.0125
  468MPD2     C 7015   0.811   0.674  10.277 -0.1597  0.4223  0.8715
  468MPD2    C1 7016   0.948   0.685  10.288  0.4918 -0.2531  0.9489
  468MPD2    C2 7017   1.030   0.576  10.321  0.2068  0.0311  0.3959
  468MPD2    C3 7018   0.971   0.452  10.331 -0.0735 -0.3391  0.4828
  468MPD2    C4 7019   0.832   0.447  10.329  0.4148  0.3702 -0.4815
  468MPD2    C5 7020   0.755   0.555  10.306 -0.0125 -1.4152 -0.1454
  468MPD2     H 7021   1.138   0.588  10.327  0.1978  1.6110 -2.6126
  468MPD2    H1 7022   0.779   0.352  10.336  0.6961  0.2853  0.5479
  468MPD2    H2 7023   0.747   0.754  10.241 -0.1513 -0.1433 -0.3978
  468MPD2    H3 7024   0.649   0.545  10.287 -0.2146 -0.1235  0.2809
  468MPD2     N 7025   1.036   0.333  10.362  0.1637  0.5141  0.5834
  468MPD2    H5 7026   0.976   0.253  10.374 -1.5684  1.8726  0.9873
  468MPD2    N1 7027   1.015   0.805  10.275 -0.5049 -0.4803 -0.3488
  468MPD2    H7 7028   1.115   0.803  10.292 -0.2361  0.3733 -1.7707
  469TMC3    C1 7029   1.049   1.035  10.228 -0.2834  0.2634 -0.2543
  469TMC3    C2 7030   1.159   1.042  10.312  0.0620  0.0267 -0.3310
  469TMC3    C3 7031   1.256   1.135  10.278  0.5711  0.3918  0.2047
  469TMC3    C4 7032   1.032   1.122  10.126  0.2282  0.9060 -0.1938
  469TMC3    C5 7033   1.128   1.211  10.102  0.5226  0.1608  0.6224
  469TMC3    C6 7034   1.247   1.217  10.171  0.2861  0.1569  0.2093
  469TMC3     C 7035   0.955   0.926  10.244  0.0238  0.7049  0.1542
  469TMC3     O 7036   0.844   0.958  10.209  0.3821 -0.2698 -0.2079
  469TMC3     H 7037   1.172   0.965  10.387 -2.0161 -0.8448 -0.8509
  469TMC3    H1 7038   0.942   1.116  10.065 -0.5718  2.5911  0.7934
  469TMC3    H2 7039   1.334   1.260  10.125  1.4850 -0.3228  2.0453
  469TMC3    C7 7040   1.077   1.329  10.036  0.1503 -0.2465 -0.0037
  469TMC3    C8 7041   1.382   1.086  10.309 -0.0682  0.2977  0.4363
  469TMC3    O1 7042   1.000   1.300   9.943 -0.1160 -0.6122  0.1263
  469TMC3    O2 7043   1.473   1.070  10.221 -0.0932  0.1987 -0.3680
  470TMC3    C1 7044   3.754   1.447   0.916 -0.3748 -0.8538  0.4771
  470TMC3    C2 7045   3.874   1.512   0.943 -0.5894  0.2912  0.4759
  470TMC3    C3 7046   3.881   1.569   1.066 -0.9301 -0.3256 -0.0901
  470TMC3    C4 7047   3.654   1.427   1.014 -0.1567  0.7710  0.0322
  470TMC3    C5 7048   3.665   1.493   1.134  0.4510  0.4247 -0.1826
  470TMC3    C6 7049   3.779   1.563   1.162  0.0768 -0.8052  0.0829
  470TMC3     C 7050   3.738   1.377   0.784  0.2590  0.4393  0.9350
  470TMC3     O 7051   3.825   1.409   0.703  0.3827 -0.3350 -0.3910
  470TMC3     H 7052   3.950   1.521   0.866 -1.0692  2.7111  0.2803
  470TMC3    H1 7053   3.557   1.386   0.989  0.5409 -0.8637  0.0330
  470TMC3    H2 7054   3.798   1.622   1.251 -0.4847  1.9234 -1.6055
  470TMC3    C7 7055   3.539   1.541   1.197  0.1922  0.1625 -0.6484
  470TMC3    C8 7056   3.991   1.662   1.097  0.3862 -0.8880 -0.8282
  470TMC3    O1 7057   3.431   1.515   1.149  0.4655 -0.1565  0.5041
  470TMC3    O2 7058   3.992   1.735   1.197  0.2708 -0.5160  0.4124
  471MPD2     C 7059   4.070   2.652  16.771 -0.2099  0.3177  0.1700
  471MPD2    C1 7060   4.114   2.522  16.747 -0.3085 -0.4754 -0.0054
  471MPD2    C2 7061   4.166   2.455  16.852 -0.2560  0.5431  0.0610
  471MPD2    C3 7062   4.166   2.503  16.975  0.6296 -0.1459  0.6595
  471MPD2    C4 7063   4.118   2.622  17.006  0.1670 -0.2719  0.2939
  471MPD2    C5 7064   4.078   2.702  16.900  0.0801  0.1079 -0.0323
  471MPD2     H 7065   4.210   2.359  16.829 -1.5746 -0.6126  2.3572
  471MPD2    H1 7066   4.120   2.665  17.106 -1.2379 -0.6819  0.4944
  471MPD2    H2 7067   4.033   2.714  16.690 -0.1591  0.6899  0.4339
  471MPD2    H3 7068   4.039   2.803  16.907 -0.0825  0.1177 -1.1972
  471MPD2     N 7069   4.227   2.422  17.079 -0.5606 -0.5020 -0.3294
  471MPD2    H5 7070   4.289   2.346  17.054  0.7520 -0.3577  2.5365
  471MPD2    N1 7071   4.119   2.460  16.622  0.3241  0.6052  0.1991
  471MPD2    H7 7072   4.155   2.365  16.617  0.3107  0.6661 -1.3006
  472TMC3    C1 7073   4.111   2.422  16.387 -0.4115  0.1787 -0.3272
  472TMC3    C2 7074   4.036   2.442  16.276 -0.4010  0.2498 -0.6407
  472TMC3    C3 7075   4.021   2.342  16.187  0.4020 -0.3925  0.5957
  472TMC3    C4 7076   4.161   2.299  16.410 -0.1874  0.1349  0.6458
  472TMC3    C5 7077   4.148   2.190  16.323  0.1596 -0.7007  0.1631
  472TMC3    C6 7078   4.076   2.213  16.213 -0.2721 -0.4772  0.2956
  472TMC3     C 7079   4.072   2.506  16.501 -0.2145  0.7826  0.1935
  472TMC3     O 7080   4.006   2.607  16.478 -0.0755 -0.2991 -0.1300
  472TMC3     H 7081   3.984   2.534  16.254 -2.1161 -0.7529 -0.7904
  472TMC3    H1 7082   4.236   2.288  16.488  0.9978  1.3091 -0.3319
  472TMC3    H2 7083   4.059   2.137  16.138 -1.2073  0.3546 -0.3418
  472TMC3    C7 7084   4.105   2.073  16.410 -0.2211 -0.2760  0.9673
  472TMC3    C8 7085   3.881   2.326  16.140 -0.1710 -0.7907  0.3268
  472TMC3    O1 7086   4.119   2.068  16.531 -0.0053  0.1492 -0.2930
  472TMC3    O2 7087   3.851   2.388  16.037  0.5190 -0.4518  0.0156
  473MPD2     C 7088   4.010   4.513  13.825  0.6524  1.1241  0.3400
  473MPD2    C1 7089   3.902   4.596  13.852 -0.2711  0.6618  0.0357
  473MPD2    C2 7090   3.912   4.698  13.947  0.4723  1.0071  0.2405
  473MPD2    C3 7091   4.020   4.710  14.027 -0.0421  0.2992 -0.1313
  473MPD2    C4 7092   4.123   4.626  14.000 -0.3422  0.0652  0.3762
  473MPD2    C5 7093   4.124   4.533  13.900 -0.2703  0.0195 -0.0892
  473MPD2     H 7094   3.832   0.034  13.961  0.0470  0.3989  0.9769
  473MPD2    H1 7095   4.218   4.619  14.052  0.2840 -0.3252 -0.8182
  473MPD2    H2 7096   4.020   4.438  13.748  1.7526  1.9859 -0.3613
  473MPD2    H3 7097   4.212   4.472  13.888 -0.0102  0.6183 -1.1792
  473MPD2     N 7098   4.035   0.071  14.129 -0.9166 -0.3199 -0.4147
  473MPD2    H5 7099   4.122   0.074  14.181 -1.2884 -3.7882  0.3753
  473MPD2    N1 7100   3.787   4.578  13.779 -0.1270 -0.3712 -0.2182
  473MPD2    H7 7101   3.720   4.653  13.786  0.5446  0.2092 -0.0126
  474TMC3    C1 7102   3.997   0.274  14.242 -0.3189  0.7737 -0.5152
  474TMC3    C2 7103   3.906   0.361  14.293 -0.3511  0.1541  0.2045
  474TMC3    C3 7104   3.957   0.461  14.371  0.7413  0.0810  0.1234
  474TMC3    C4 7105   4.130   0.267  14.285  0.7425  0.1206  0.2332
  474TMC3    C5 7106   4.173   0.360  14.378  0.0188 -0.4197  0.3158
  474TMC3    C6 7107   4.085   0.458  14.418  0.2071  0.0459 -0.0627
  474TMC3     C 7108   3.952   0.183  14.140 -0.0232 -0.4133 -0.5405
  474TMC3     O 7109   3.850   0.212  14.079 -0.6310  0.3648  0.3923
  474TMC3     H 7110   3.805   0.346  14.257 -0.0884 -0.5423 -0.2322
  474TMC3    H1 7111   4.200   0.205  14.230  2.3861  2.5384 -0.4487
  474TMC3    H2 7112   4.113   0.538  14.486 -1.7678  0.3685  0.3755
  474TMC3    C7 7113   4.311   0.377  14.415 -0.0606 -0.6735  0.4576
  474TMC3    C8 7114   3.869   0.574  14.380 -0.3727 -0.0928  0.3390
  474TMC3    O1 7115   4.396   0.344  14.337 -0.1044 -0.3704 -0.2807
  474TMC3    O2 7116   3.754   0.543  14.348  0.1291 -0.3987 -0.1709
  475MPD2     C 7117   2.087   2.905  11.115  0.6530  0.0764 -0.0941
  475MPD2    C1 7118   2.110   3.029  11.065 -0.4313 -0.0559  0.2739
  475MPD2    C2 7119   2.065   3.063  10.937 -0.3660  0.7619 -0.0851
  475MPD2    C3 7120   1.992   2.966  10.862 -0.0110 -0.6550  0.5026
  475MPD2    C4 7121   1.983   2.840  10.918 -0.0869  0.4779 -0.5087
  475MPD2    C5 7122   2.030   2.810  11.040  0.4537 -0.4609 -0.0136
  475MPD2     H 7123   2.079   3.163  10.899 -0.2633  1.1007  0.8596
  475MPD2    H1 7124   1.922   2.765  10.869  2.3911  0.3842 -3.4579
  475MPD2    H2 7125   2.119   2.884  11.217  0.4558 -0.9871 -0.2465
  475MPD2    H3 7126   2.021   2.712  11.086  1.8641 -0.9690 -0.8124
  475MPD2     N 7127   1.951   2.988  10.731 -0.3359  0.1889 -0.2748
  475MPD2    H5 7128   1.883   2.923  10.691 -1.1470  1.0821 -0.3385
  475MPD2    N1 7129   2.192   3.121  11.131  0.2793 -0.3911 -0.2769
  475MPD2    H7 7130   2.209   3.211  11.086  0.9260 -1.2577 -1.7553
  476TMC3    C1 7131   2.360   3.206  11.256  0.8243 -0.0653  0.1408
  476TMC3    C2 7132   2.414   3.237  11.135 -0.1302  0.1443 -0.1354
  476TMC3    C3 7133   2.463   3.362  11.117 -0.2678  0.5518 -0.1137
  476TMC3    C4 7134   2.339   3.296  11.348 -0.2832 -0.2969 -0.0976
  476TMC3    C5 7135   2.386   3.424  11.321  0.6679  0.5565 -0.1837
  476TMC3    C6 7136   2.448   3.460  11.205  0.6745  0.0577  0.6740
  476TMC3     C 7137   2.255   3.108  11.252  0.4842 -0.0603  0.5307
  476TMC3     O 7138   2.224   3.041  11.352  0.5981  0.3133 -0.3552
  476TMC3     H 7139   2.433   3.160  11.062 -0.2870 -0.0720  0.0506
  476TMC3    H1 7140   2.277   3.269  11.432 -0.1911 -1.7056 -0.4928
  476TMC3    H2 7141   2.485   3.558  11.174 -0.1787 -0.3338 -1.6011
  476TMC3    C7 7142   2.336   3.528  11.406  0.0249  0.3697 -0.8358
  476TMC3    C8 7143   2.505   3.391  10.987 -0.2332 -0.1111 -0.1361
  476TMC3    O1 7144   2.272   3.496  11.502  0.1814 -0.0967 -0.2257
  476TMC3    O2 7145   2.480   3.506  10.949 -0.0988  0.1639  0.0607
  477MPD2     C 7146   0.217   0.098  11.570 -0.2584 -0.0439  0.3191
  477MPD2    C1 7147   0.177   4.699  11.584  0.5379 -0.6464 -0.3211
  477MPD2    C2 7148   0.245   4.610  11.672  0.1238 -0.0813 -0.3565
  477MPD2    C3 7149   0.347   4.668  11.745  0.5658 -0.7008  0.1796
  477MPD2    C4 7150   0.387   0.060  11.728 -0.7239 -0.4648  0.0887
  477MPD2    C5 7151   0.322   0.144  11.640 -0.3106 -0.2544 -0.5954
  477MPD2     H 7152   0.230   4.503  11.682  2.3097 -0.4720 -1.1671
  477MPD2    H1 7153   0.463   0.097  11.795  0.0735 -0.6119 -0.7318
  477MPD2    H2 7154   0.172   0.164  11.496 -0.5706  0.8935  1.3376
  477MPD2    H3 7155   0.354   0.247  11.632  0.3194 -0.4597 -0.7026
  477MPD2     N 7156   0.394   4.577  11.842  0.3015 -0.1392  0.1940
  477MPD2    H5 7157   0.368   4.480  11.830 -0.7025  0.3343 -1.4125
  477MPD2    N1 7158   0.075   4.663  11.496  0.1571 -0.0746 -0.6356
  477MPD2    H7 7159   0.030   0.000  11.441 -0.7900 -0.2648 -0.1204
  478TMC3    C1 7160   4.645   4.532  11.399  0.8160  0.0537 -0.2373
  478TMC3    C2 7161   4.552   4.620  11.443  0.3733  0.3440 -0.2871
  478TMC3    C3 7162   4.423   4.608  11.387  0.3729 -0.3620 -1.0336
  478TMC3    C4 7163   4.628   4.441  11.303  0.6016 -0.9195  0.4083
  478TMC3    C5 7164   4.512   4.450  11.234  0.0129 -0.7793  0.4775
  478TMC3    C6 7165   4.408   4.532  11.274 -0.5101 -0.3714 -0.1269
  478TMC3     C 7166   0.033   4.535  11.474 -0.1256  0.0550  0.1248
  478TMC3     O 7167   0.085   4.427  11.501 -0.6112  0.3014  0.1105
  478TMC3     H 7168   4.572   4.688  11.525  0.2789  0.4858 -0.3810
  478TMC3    H1 7169   4.712   4.381  11.269  1.5580  0.6487  0.0320
  478TMC3    H2 7170   4.316   4.523  11.217 -1.4627  1.4544  1.1388
  478TMC3    C7 7171   4.503   4.371  11.116 -0.4975  0.0887  0.7837
  478TMC3    C8 7172   4.349   4.735  11.397  0.3274  0.2170  0.2165
  478TMC3    O1 7173   4.568   4.268  11.115 -0.5405  0.4632 -0.0947
  478TMC3    O2 7174   4.405   0.096  11.445  0.0575  0.5924  0.3939
  479MPD2     C 7175   3.781   1.848  14.983  0.6197 -0.1873 -0.7937
  479MPD2    C1 7176   3.731   1.821  15.109  0.5362  0.1925 -0.2578
  479MPD2    C2 7177   3.822   1.818  15.221  0.3075  0.2733  0.2008
  479MPD2    C3 7178   3.938   1.888  15.213 -0.0189  0.2630  0.3263
  479MPD2    C4 7179   3.981   1.928  15.087 -1.0040 -0.4263  0.0301
  479MPD2    C5 7180   3.905   1.899  14.972 -0.3927  0.1616 -0.7390
  479MPD2     H 7181   3.793   1.769  15.313 -1.4905 -1.6969 -1.4179
  479MPD2    H1 7182   4.077   1.974  15.064 -0.7024 -1.4758 -0.7839
  479MPD2    H2 7183   3.718   1.843  14.895 -0.7851 -1.4280  0.2887
  479MPD2    H3 7184   3.947   1.928  14.877 -0.3655  1.0637 -0.4562
  479MPD2     N 7185   4.028   1.912  15.321 -0.4063  0.3844  0.2920
  479MPD2    H5 7186   4.122   1.940  15.293 -1.5220  1.1151 -2.6959
  479MPD2    N1 7187   3.593   1.775  15.123  0.2799 -0.1991  0.6844
  479MPD2    H7 7188   3.546   1.783  15.034 -0.8519 -1.4981  1.1609
  480TMC3    C1 7189   3.713   1.844  15.686  0.0350 -0.1121 -0.2126
  480TMC3    C2 7190   3.618   1.923  15.631 -0.0606  0.3916 -0.2751
  480TMC3    C3 7191   3.649   1.997  15.521  0.0460  0.4051 -0.3394
  480TMC3    C4 7192   3.836   1.823  15.627 -0.3746  0.0790  0.6912
  480TMC3    C5 7193   3.862   1.891  15.514  0.1507 -0.7858 -0.3379
  480TMC3    C6 7194   3.772   1.984  15.466 -0.1790 -0.9713  0.0501
  480TMC3     C 7195   3.704   1.783  15.819  0.3399  0.3297 -0.1130
  480TMC3     O 7196   3.802   1.742  15.881  0.4300 -0.3124  0.4525
  480TMC3     H 7197   3.520   1.923  15.679  1.1511 -4.1967  2.1378
  480TMC3    H1 7198   3.909   1.758  15.673  0.7877 -0.3718 -1.7850
  480TMC3    H2 7199   3.785   2.024  15.367  2.3311 -0.5918  0.5400
  480TMC3    C7 7200   4.000   1.893  15.463 -0.1768  0.3738  0.3805
  480TMC3    C8 7201   3.545   2.046  15.436  0.3255 -0.1336  0.4979
  480TMC3    O1 7202   4.081   1.888  15.549 -0.7028 -0.4668 -0.1582
  480TMC3    O2 7203   3.435   1.985  15.435 -0.4734 -0.1348  0.1782
  481MPD2     C 7204   0.592   1.645  14.210  0.6586 -0.6977 -0.8963
  481MPD2    C1 7205   0.490   1.557  14.239 -0.5984 -0.6251 -0.8533
  481MPD2    C2 7206   0.499   1.485  14.359  0.0090  0.3309 -0.0855
  481MPD2    C3 7207   0.611   1.493  14.445 -0.3359  0.3296  0.1544
  481MPD2    C4 7208   0.721   1.563  14.404 -0.5193  0.2004  0.4622
  481MPD2    C5 7209   0.706   1.650  14.294 -0.6631  0.9392  0.7393
  481MPD2     H 7210   0.415   1.418  14.375  0.5396 -0.6037 -1.2549
  481MPD2    H1 7211   0.809   1.569  14.467  1.4686  1.0572 -2.3805
  481MPD2    H2 7212   0.585   1.727  14.139 -1.9301  0.5126  0.7732
  481MPD2    H3 7213   0.768   1.736  14.273  1.9795 -1.3876 -0.8722
  481MPD2     N 7214   0.623   1.417  14.568  0.6043  0.5788  0.0175
  481MPD2    H5 7215   0.717   1.424  14.605  0.5089  1.3981  0.1122
  481MPD2    N1 7216   0.378   1.564  14.151  0.7288 -0.0928 -0.5018
  481MPD2    H7 7217   0.378   1.631  14.075  0.6208  0.3606 -0.1025
  482TMC3    C1 7218   0.181   1.506  14.043 -0.3870 -0.3103  0.2675
  482TMC3    C2 7219   0.082   1.414  14.026  0.7174  0.1582 -0.3388
  482TMC3    C3 7220   0.015   1.423  13.899 -0.5940 -0.2085  0.1931
  482TMC3    C4 7221   0.208   1.611  13.968 -0.1538  0.1440  0.2361
  482TMC3    C5 7222   0.142   1.621  13.848  0.6153  0.2582 -0.5546
  482TMC3    C6 7223   0.054   1.524  13.812  0.7140 -0.2702  0.2472
  482TMC3     C 7224   0.268   1.476  14.151 -0.0237  0.7166  0.2473
  482TMC3     O 7225   0.257   1.368  14.206 -0.2513 -0.7197  0.3152
  482TMC3     H 7226   0.070   1.331  14.095  2.2252 -0.5165 -0.8940
  482TMC3    H1 7227   0.285   1.687  13.978 -0.5936  0.7962 -1.3758
  482TMC3    H2 7228   4.734   1.528  13.718  1.2296  1.4502  0.0191
  482TMC3    C7 7229   0.146   1.745  13.776  0.0525  0.1589  0.0054
  482TMC3    C8 7230   4.681   1.308  13.862  0.1161  0.8005  0.6745
  482TMC3    O1 7231   0.184   1.844  13.840 -0.2063  0.1805  0.0020
  482TMC3    O2 7232   4.664   1.228  13.957  0.0203 -0.2343  0.3072
  483TMC3    C1 7233   2.767   0.368   0.438  0.0057  0.1567 -0.1257
  483TMC3    C2 7234   2.855   0.446   0.511 -0.6962  0.4475  0.2974
  483TMC3    C3 7235   2.891   0.559   0.442  0.4852 -0.4266 -0.2738
  483TMC3    C4 7236   2.707   0.416   0.328  0.6781  0.2026  0.6800
  483TMC3    C5 7237   2.760   0.521   0.260 -0.1442  0.0970 -0.0030
  483TMC3    C6 7238   2.851   0.602   0.319  0.4736 -0.0226  0.5131
  483TMC3     C 7239   2.702   0.247   0.504 -0.0547  0.1611  0.4765
  483TMC3     O 7240   2.581   0.237   0.500 -0.3866 -0.1034  0.2376
  483TMC3     H 7241   2.895   0.418   0.608  1.1283 -2.6341 -1.3692
  483TMC3    H1 7242   2.624   0.360   0.287 -1.5681  1.4980  3.4508
  483TMC3    H2 7243   2.883   0.695   0.274  1.5762 -0.9837 -0.7031
  483TMC3    C7 7244   2.796   0.487   0.122 -0.0363  0.3733  0.9356
  483TMC3    C8 7245   2.994   0.645   0.498  0.3057  0.5295 -0.1533
  483TMC3    O1 7246   2.882   0.560   0.077 -0.4791  0.1551  0.1631
  483TMC3    O2 7247   3.082   0.686   0.423 -0.0638 -0.2395 -0.5262
  484MPD2     C 7248   1.044   3.734  12.939 -0.0349  0.7003  0.1750
  484MPD2    C1 7249   1.054   3.601  12.971 -0.8270 -0.1830 -0.1986
  484MPD2    C2 7250   1.176   3.531  12.960 -0.6931  1.1601 -0.4718
  484MPD2    C3 7251   1.286   3.602  12.920  0.2645  1.0263 -0.1902
  484MPD2    C4 7252   1.279   3.741  12.909 -0.1220 -0.1056  0.2076
  484MPD2    C5 7253   1.156   3.805  12.905 -0.5330  0.0286 -0.0554
  484MPD2     H 7254   1.175   3.423  12.962  1.7217  1.1484  0.3410
  484MPD2    H1 7255   1.364   3.798  12.874 -0.4217 -0.4306 -1.0439
  484MPD2    H2 7256   0.949   3.787  12.938 -0.4930 -0.1436 -2.2587
  484MPD2    H3 7257   1.137   3.903  12.863 -0.6840  0.1371  0.2603
  484MPD2     N 7258   1.408   3.548  12.884  0.3979 -0.3729 -0.2799
  484MPD2    H5 7259   1.483   3.612  12.859 -0.2828 -0.0963 -1.6074
  484MPD2    N1 7260   0.933   3.537  13.003 -0.2547 -0.1664  0.2027
  484MPD2    H7 7261   0.848   3.569  12.957 -0.3953  1.4560  1.6116
  485TMC3    C1 7262   1.568   3.383  12.811 -1.2176 -0.7292 -0.4187
  485TMC3    C2 7263   1.648   3.278  12.844 -0.2092  0.0422 -0.7015
  485TMC3    C3 7264   1.774   3.258  12.797 -0.2995  0.2157 -0.3444
  485TMC3    C4 7265   1.609   3.465  12.707  0.3749  0.1378  0.5442
  485TMC3    C5 7266   1.733   3.442  12.653 -0.2840 -0.1096 -0.7554
  485TMC3    C6 7267   1.822   3.350  12.706 -0.3466 -0.2213  0.5221
  485TMC3     C 7268   1.444   3.413  12.895  0.3192 -0.4060 -0.3377
  485TMC3     O 7269   1.387   3.321  12.946 -0.7542  0.1788  0.2314
  485TMC3     H 7270   1.614   3.226  12.933  0.9268  1.6611  0.6796
  485TMC3    H1 7271   1.548   3.544  12.665 -1.5414 -1.5505  0.1485
  485TMC3    H2 7272   1.924   3.349  12.669 -0.4675 -1.4246  0.2122
  485TMC3    C7 7273   1.743   3.461  12.509  0.2188 -0.8105  0.0709
  485TMC3    C8 7274   1.802   3.123  12.746 -0.2693 -0.0021 -0.0907
  485TMC3    O1 7275   1.690   3.551  12.453  0.9179  0.2377 -0.0212
  485TMC3    O2 7276   1.862   3.130  12.640 -0.1044 -0.1035  0.4527
  486MPD2     C 7277   2.555   2.270  13.124 -0.2635  0.7206  0.2000
  486MPD2    C1 7278   2.604   2.222  13.003 -0.2512  0.5166 -0.3544
  486MPD2    C2 7279   2.618   2.310  12.897 -0.0661 -0.0238  0.4837
  486MPD2    C3 7280   2.572   2.436  12.906 -0.2800  0.6507  0.2384
  486MPD2    C4 7281   2.511   2.480  13.022 -0.8038 -0.0880  1.0547
  486MPD2    C5 7282   2.503   2.394  13.130 -0.2698 -0.2664 -0.2084
  486MPD2     H 7283   2.667   2.290  12.803 -0.9164  2.4317 -0.4707
  486MPD2    H1 7284   2.459   2.575  13.027 -2.0412 -0.7226  0.1052
  486MPD2    H2 7285   2.549   2.211  13.215 -1.0971  0.3336 -0.1026
  486MPD2    H3 7286   2.444   2.425  13.216 -0.1539  0.5795 -0.4346
  486MPD2     N 7287   2.599   2.519  12.794 -0.2291 -0.6414 -0.3930
  486MPD2    H5 7288   2.632   2.477  12.708  0.6576 -1.9512  0.5796
  486MPD2    N1 7289   2.639   2.081  12.996 -0.6456 -0.1099  0.1839
  486MPD2    H7 7290   2.643   2.029  13.083 -2.3151  1.4288  1.1916
  487TMC3    C1 7291   2.748   1.895  12.918 -0.1406  0.5016  0.4566
  487TMC3    C2 7292   2.690   1.787  12.846 -0.3437  0.4295  0.2160
  487TMC3    C3 7293   2.717   1.661  12.886 -0.5366  1.0443 -0.2060
  487TMC3    C4 7294   2.814   1.878  13.034  0.0628  0.6802  0.4415
  487TMC3    C5 7295   2.851   1.745  13.066  0.2211 -0.3627 -0.8043
  487TMC3    C6 7296   2.803   1.638  12.991 -0.6593 -0.6059 -0.1784
  487TMC3     C 7297   2.683   2.022  12.884 -0.4885 -0.1812 -0.1445
  487TMC3     O 7298   2.655   2.049  12.768 -0.1022  0.2788  0.3072
  487TMC3     H 7299   2.625   1.813  12.763 -2.2593 -2.0616  0.9250
  487TMC3    H1 7300   2.824   1.961  13.103 -2.0498  0.7145  0.7217
  487TMC3    H2 7301   2.861   1.546  13.003 -0.2453  0.0149  2.5705
  487TMC3    C7 7302   2.849   1.714  13.205 -0.0966 -0.7044  0.0203
  487TMC3    C8 7303   2.604   1.574  12.910  0.2361  0.1289  0.2589
  487TMC3    O1 7304   2.909   1.794  13.280 -0.4629 -0.2869  0.0550
  487TMC3    O2 7305   2.494   1.625  12.889 -0.8096 -0.0023 -0.9291
  488MPD2     C 7306   3.475   3.257  16.511  0.0372  0.0518  0.4513
  488MPD2    C1 7307   3.527   3.375  16.556 -1.0595 -0.3485  0.0486
  488MPD2    C2 7308   3.530   3.400  16.691  0.3739  0.2368  0.1564
  488MPD2    C3 7309   3.478   3.314  16.792  1.0164 -0.3773  0.0958
  488MPD2    C4 7310   3.413   3.198  16.744  0.5022 -0.4075 -0.1331
  488MPD2    C5 7311   3.411   3.175  16.602  1.2935 -0.7852 -0.2504
  488MPD2     H 7312   3.578   3.489  16.729 -2.2361 -0.0976  4.2004
  488MPD2    H1 7313   3.362   3.136  16.817  0.3463 -1.4315 -1.1112
  488MPD2    H2 7314   3.458   3.241  16.405  0.8547 -0.4714  0.4074
  488MPD2    H3 7315   3.351   3.091  16.569  2.1954 -0.9052 -1.5997
  488MPD2     N 7316   3.510   3.331  16.930 -0.0425 -0.1353 -0.9489
  488MPD2    H5 7317   3.555   3.420  16.948 -1.4900  0.2061  1.0046
  488MPD2    N1 7318   3.579   3.475  16.467 -0.4898  0.0833  0.3873
  488MPD2    H7 7319   3.597   3.564  16.514  1.0131 -1.2961  2.4476
  489TMC3    C1 7320   3.517   3.317  17.164 -0.2337 -0.5010  0.4940
  489TMC3    C2 7321   3.607   3.417  17.173  0.1655  0.3205  0.4346
  489TMC3    C3 7322   3.633   3.478  17.294  0.1858  0.2664  0.1797
  489TMC3    C4 7323   3.458   3.277  17.282  0.3237  0.1602  0.4391
  489TMC3    C5 7324   3.485   3.338  17.399  0.3917  0.0033  0.1957
  489TMC3    C6 7325   3.575   3.440  17.412 -0.1334 -0.0919 -0.5115
  489TMC3     C 7326   3.473   3.255  17.036  0.3012  0.1935  0.2942
  489TMC3     O 7327   3.399   3.157  17.038 -0.2474  0.0463  0.7166
  489TMC3     H 7328   3.655   3.465  17.089  0.3675 -0.6071  0.0199
  489TMC3    H1 7329   3.405   3.182  17.277 -2.0639  1.3582  2.8791
  489TMC3    H2 7330   3.593   3.498  17.502 -2.0606 -1.4388  0.7300
  489TMC3    C7 7331   3.432   3.285  17.523  0.3460  0.2982 -0.0978
  489TMC3    C8 7332   3.666   3.612  17.277 -0.1702 -1.2539  0.7607
  489TMC3    O1 7333   3.494   3.315  17.622  0.8145 -0.1541 -0.4199
  489TMC3    O2 7334   3.743   3.651  17.194  0.3389  0.3771 -0.2855
  490MPD2     C 7335   4.360   3.191  17.171  0.4559  0.3200  0.3899
  490MPD2    C1 7336   4.341   3.149  17.302 -0.2507  0.1286 -0.0389
  490MPD2    C2 7337   4.427   3.196  17.400  0.5507  0.3800  0.3872
  490MPD2    C3 7338   4.541   3.265  17.357  0.3719  0.6711 -0.1771
  490MPD2    C4 7339   4.568   3.281  17.224 -0.3337  0.9575  0.9014
  490MPD2    C5 7340   4.476   3.252  17.125 -0.1864  0.4388  0.2514
  490MPD2     H 7341   4.414   3.163  17.502 -2.1251  0.1809 -0.0153
  490MPD2    H1 7342   4.657   3.338  17.198  0.0484 -0.0373  0.0287
  490MPD2    H2 7343   4.286   3.174  17.094  1.9482  0.3115 -1.0567
  490MPD2    H3 7344   4.493   3.276  17.021 -0.4398  1.5089  0.4486
  490MPD2     N 7345   4.639   3.306  17.453  0.7456  0.5147  0.1982
  490MPD2    H5 7346   4.703   3.375  17.416  0.3994  0.5887 -0.2587
  490MPD2    N1 7347   4.230   3.069  17.338  0.0541 -0.0742 -0.3516
  490MPD2    H7 7348   4.220   3.046  17.436 -0.0465  1.7998  0.0772
  491TMC3    C1 7349   4.056   2.911  17.304  0.0938  0.1384 -0.0712
  491TMC3    C2 7350   4.099   2.833  17.410 -0.2654 -0.3338 -0.0595
  491TMC3    C3 7351   4.031   2.719  17.446  0.7925  0.5639 -0.7240
  491TMC3    C4 7352   3.947   2.876  17.234 -0.2863  0.3432  0.4623
  491TMC3    C5 7353   3.898   2.756  17.269  0.0432 -0.5425  0.0468
  491TMC3    C6 7354   3.924   2.679  17.377 -0.0858  0.5779 -0.1781
  491TMC3     C 7355   4.123   3.035  17.256  0.2366  0.2624  0.0091
  491TMC3     O 7356   4.110   3.063  17.140  0.3494 -0.0159 -0.1224
  491TMC3     H 7357   4.186   2.865  17.466 -0.0968  2.5522 -1.9788
  491TMC3    H1 7358   3.939   2.926  17.138 -0.4823 -1.0659 -0.2535
  491TMC3    H2 7359   3.872   2.588  17.402 -2.0593  1.7712  0.0850
  491TMC3    C7 7360   3.801   2.710  17.172 -0.2596  0.4421 -0.8101
  491TMC3    C8 7361   4.059   2.663  17.574  0.2791 -0.2261 -0.0428
  491TMC3    O1 7362   3.785   2.590  17.174 -0.2640 -0.3198 -0.0253
  491TMC3    O2 7363   3.964   2.600  17.622 -0.4648 -0.2033 -0.4012
  492MPD2     C 7364   4.645   3.313  11.101 -0.0358  0.3906  0.7490
  492MPD2    C1 7365   4.534   3.259  11.040  0.0239 -0.0126  0.0293
  492MPD2    C2 7366   4.437   3.197  11.119  0.1108  0.4167  0.2703
  492MPD2    C3 7367   4.445   3.200  11.260 -0.0514  0.1164  0.4910
  492MPD2    C4 7368   4.547   3.272  11.317 -0.4474 -0.7787  0.1774
  492MPD2    C5 7369   4.648   3.322  11.238  0.0191 -0.0884 -0.1701
  492MPD2     H 7370   4.355   3.147  11.069 -0.0324  1.7962 -0.8710
  492MPD2    H1 7371   4.556   3.286  11.424 -1.1776 -2.7463  0.4985
  492MPD2    H2 7372   4.727   3.342  11.037  0.0300 -0.4644  0.4471
  492MPD2    H3 7373   0.004   3.361  11.281 -0.1383  1.2227 -1.0171
  492MPD2     N 7374   4.352   3.135  11.345 -0.0064 -0.3560 -0.8111
  492MPD2    H5 7375   4.366   3.125  11.445  1.6363 -0.9205 -1.1059
  492MPD2    N1 7376   4.523   3.244  10.902  0.4659  0.3103 -0.1780
  492MPD2    H7 7377   4.455   3.178  10.868  1.4942  0.2180 -2.0346
  493TMC3    C1 7378   4.590   3.213  10.681 -0.8120 -0.2040  0.2269
  493TMC3    C2 7379   4.544   3.289  10.576 -0.4923 -0.1676 -0.3059
  493TMC3    C3 7380   4.436   3.244  10.499 -0.1515  0.6843  0.0474
  493TMC3    C4 7381   4.523   3.097  10.705  0.9095  0.1666  0.3136
  493TMC3    C5 7382   4.410   3.063  10.638 -0.3702  0.1698  0.0176
  493TMC3    C6 7383   4.362   3.135  10.532  0.0939 -0.0344  0.6438
  493TMC3     C 7384   4.612   3.285  10.801 -0.1683  0.9902  0.1932
  493TMC3     O 7385   4.671   3.392  10.792 -0.0712 -0.6108 -0.0853
  493TMC3     H 7386   4.593   3.382  10.550  0.6494 -0.8953 -0.7952
  493TMC3    H1 7387   4.548   3.036  10.791  0.3282  1.4660  1.4015
  493TMC3    H2 7388   4.274   3.101  10.478  0.8444 -0.1286 -0.5170
  493TMC3    C7 7389   4.313   3.010  10.736 -0.1166  0.2962  0.4971
  493TMC3    C8 7390   4.418   3.307  10.370 -0.0004  0.5141  0.1157
  493TMC3    O1 7391   4.335   3.035  10.856 -0.0822  0.2106  0.3838
  493TMC3    O2 7392   4.369   3.242  10.276 -0.2203 -0.2182 -0.3541
  494TMC3    C1 7393   0.140   0.096   0.743 -0.7382 -0.1970 -0.5787
  494TMC3    C2 7394   0.103   4.702   0.695 -0.2138 -0.3604  0.6303
  494TMC3    C3 7395   0.147   4.663   0.567  0.2752 -0.4465  0.8116
  494TMC3    C4 7396   0.197   0.189   0.655 -0.5097  0.2400 -0.1455
  494TMC3    C5 7397   0.221   0.151   0.526 -0.5665 -0.1249 -0.1681
  494TMC3    C6 7398   0.210   0.021   0.486  0.6801  0.7842  0.6316
  494TMC3     C 7399   0.111   0.138   0.881  0.5369  0.0091  0.5807
  494TMC3     O 7400   0.090   0.260   0.898 -0.2182 -0.0643 -0.2236
  494TMC3     H 7401   0.062   4.637   0.771 -3.2742  1.2760  0.3801
  494TMC3    H1 7402   0.198   0.291   0.691 -2.5894 -0.4424  1.8346
  494TMC3    H2 7403   0.247   4.728   0.388 -0.1113  1.1053  0.2430
  494TMC3    C7 7404   0.296   0.242   0.435 -0.4070 -0.1708 -0.0585
  494TMC3    C8 7405   0.168   4.523   0.537  0.5520 -0.1231  0.2676
  494TMC3    O1 7406   0.330   0.203   0.320 -0.2708 -0.5904  0.0518
  494TMC3    O2 7407   0.149   4.450   0.631 -0.1269 -0.8119  0.2285
  495TMC3    C1 7408   3.850   2.183  14.537  0.0992 -0.1720  0.0416
  495TMC3    C2 7409   3.748   2.211  14.452 -0.0118 -0.1744 -0.4835
  495TMC3    C3 7410   3.634   2.269  14.499  0.6015  0.0303  0.1282
  495TMC3    C4 7411   3.856   2.231  14.666  0.2164 -0.5113  0.4238
  495TMC3    C5 7412   3.745   2.301  14.706  0.5549  1.0857  0.2877
  495TMC3    C6 7413   3.633   2.322  14.623  0.4707 -0.1355 -0.1018
  495TMC3     C 7414   3.871   2.045  14.520 -0.2978 -0.2959 -0.4626
  495TMC3     O 7415   3.788   1.988  14.454  0.1519 -0.3264  0.3111
  495TMC3     H 7416   3.741   2.176  14.350  1.0355  1.9399 -1.2802
  495TMC3    H1 7417   3.920   2.192  14.744 -0.2192 -1.7688  0.1491
  495TMC3    H2 7418   3.549   2.385  14.648 -0.3758 -1.8062  1.2552
  495TMC3    C7 7419   3.724   2.301  14.853 -0.4741  0.3632  0.6674
  495TMC3    C8 7420   3.513   2.195  14.467 -0.2878  0.7021  0.3232
  495TMC3    O1 7421   3.813   2.296  14.937 -0.2751 -0.7263  0.6352
  495TMC3    O2 7422   3.413   2.240  14.525  0.1178 -0.5782 -0.1237
  496MPD2     C 7423   0.954   2.550  15.693  0.4840 -0.5608 -0.1524
  496MPD2    C1 7424   0.905   2.506  15.573  0.7176 -0.1260  0.1773
  496MPD2    C2 7425   0.767   2.500  15.561 -0.1054 -0.0252  0.1421
  496MPD2    C3 7426   0.687   2.545  15.663 -0.1188  0.1737 -0.0801
  496MPD2    C4 7427   0.743   2.606  15.773  0.4009 -0.5602 -0.3333
  496MPD2    C5 7428   0.874   2.615  15.785 -0.1171  0.3780 -0.1982
  496MPD2     H 7429   0.713   2.456  15.478 -1.3443 -0.1669  1.0222
  496MPD2    H1 7430   0.681   2.655  15.847  1.1019 -2.7990  1.7321
  496MPD2    H2 7431   1.060   2.572  15.698  0.6132 -0.5804 -2.6223
  496MPD2    H3 7432   0.916   2.677  15.863  0.2090 -0.5950  0.4016
  496MPD2     N 7433   0.547   2.519  15.652 -0.0386  0.8186 -0.6997
  496MPD2    H5 7434   0.519   2.476  15.565  0.7002 -0.0686 -0.4996
  496MPD2    N1 7435   0.991   2.437  15.483 -0.1335 -0.1915  0.0061
  496MPD2    H7 7436   1.089   2.437  15.509  0.1124  0.3074 -0.9396
  497TMC3    C1 7437   0.343   2.469  15.736  0.4296  1.0024 -0.2562
  497TMC3    C2 7438   0.321   2.391  15.621 -0.1004 -0.7153 -0.1870
  497TMC3    C3 7439   0.271   2.268  15.655  0.3261 -0.3761 -0.1954
  497TMC3    C4 7440   0.318   2.436  15.865  0.3499  0.1710 -0.3340
  497TMC3    C5 7441   0.284   2.307  15.881 -0.3566  0.4334  0.3205
  497TMC3    C6 7442   0.263   2.219  15.779  0.2386  0.4098  0.1135
  497TMC3     C 7443   0.452   2.564  15.739  0.0883  0.0983 -0.0272
  497TMC3     O 7444   0.470   2.615  15.848 -0.2040  0.0289  0.6286
  497TMC3     H 7445   0.339   2.429  15.521  0.9861 -0.1720  0.2139
  497TMC3    H1 7446   0.321   2.504  15.949 -1.2342 -1.6049  1.1890
  497TMC3    H2 7447   0.254   2.112  15.796 -2.2801  0.2518 -2.2374
  497TMC3    C7 7448   0.338   2.235  16.000  0.1012  0.0673  0.0112
  497TMC3    C8 7449   0.238   2.176  15.546  0.5460  0.1089  0.6121
  497TMC3    O1 7450   0.295   2.127  16.039  0.0713  0.6069 -0.3599
  497TMC3    O2 7451   0.168   2.083  15.583  0.0086  0.6931 -0.2281
  498MPD2     C 7452   2.789   3.130   9.965 -0.9622  0.1370 -0.0655
  498MPD2    C1 7453   2.662   3.154  10.002  0.0364  0.1100 -0.1681
  498MPD2    C2 7454   2.569   3.058   9.993 -0.2421 -0.1655  0.6885
  498MPD2    C3 7455   2.598   2.938   9.934  0.2805 -0.5954  0.2528
  498MPD2    C4 7456   2.729   2.917   9.892 -0.1852 -0.0958  0.3913
  498MPD2    C5 7457   2.824   3.013   9.912 -0.4379 -0.2852  0.5838
  498MPD2     H 7458   2.466   3.080  10.017 -0.5898  1.6948 -2.5185
  498MPD2    H1 7459   2.756   2.819   9.853  1.5105  0.3711  0.4044
  498MPD2    H2 7460   2.869   3.201   9.986 -0.4147 -0.0247 -1.6108
  498MPD2    H3 7461   2.927   2.995   9.884 -0.2600 -2.4360  2.6114
  498MPD2     N 7462   2.493   2.842   9.930 -0.1805  0.7671 -0.5411
  498MPD2    H5 7463   2.402   2.874   9.962 -0.8369 -2.9955  1.4017
  498MPD2    N1 7464   2.616   3.281  10.039  0.2202 -0.6088 -0.1606
  498MPD2    H7 7465   2.515   3.289  10.051  0.2183  0.2702 -0.7418
  499TMC3    C1 7466   2.594   3.510  10.066 -0.5815 -0.3450 -0.6572
  499TMC3    C2 7467   2.625   3.604  10.159  0.3069 -0.1236  0.1193
  499TMC3    C3 7468   2.573   3.731  10.155 -0.3074 -0.3606 -0.2206
  499TMC3    C4 7469   2.515   3.547   9.961  0.6305 -0.7551  0.7357
  499TMC3    C5 7470   2.468   3.673   9.954 -0.1117 -0.6881 -0.0291
  499TMC3    C6 7471   2.495   3.765  10.051  0.1025 -0.0059 -0.1486
  499TMC3     C 7472   2.688   3.398  10.050 -0.3218  0.2389 -0.0347
  499TMC3     O 7473   2.810   3.420  10.030  0.5008 -0.1277 -0.4615
  499TMC3     H 7474   2.704   3.572  10.226  1.3351  0.3099 -0.8751
  499TMC3    H1 7475   2.507   3.478   9.878  2.7121  3.9953 -3.4354
  499TMC3    H2 7476   2.450   3.863  10.041  0.5992  0.1980 -0.3791
  499TMC3    C7 7477   2.408   3.706   9.831  0.2496  0.3623  0.1801
  499TMC3    C8 7478   2.587   3.824  10.262 -0.3008 -0.2722  0.5887
  499TMC3    O1 7479   2.392   3.826   9.812  0.3885  0.1545  0.7615
  499TMC3    O2 7480   2.521   3.927  10.254 -0.1545 -0.6113 -0.1930
  500MPD2     C 7481   3.220   4.011  10.783 -0.2373  0.1695  0.2616
  500MPD2    C1 7482   3.242   3.995  10.645  0.5923  0.0513 -0.7174
  500MPD2    C2 7483   3.176   4.073  10.558  0.5477  0.9792 -0.7774
  500MPD2    C3 7484   3.091   4.173  10.602  0.0811 -0.0372 -0.1476
  500MPD2    C4 7485   3.074   4.186  10.737  0.0966  0.1765 -0.3693
  500MPD2    C5 7486   3.130   4.106  10.825 -0.2523  0.2853 -0.2443
  500MPD2     H 7487   3.195   4.051  10.454  0.2352 -1.0269 -0.4115
  500MPD2    H1 7488   3.006   4.262  10.775 -0.0190 -0.7701  1.3056
  500MPD2    H2 7489   3.274   3.956  10.859  0.0586 -2.4960 -1.8865
  500MPD2    H3 7490   3.117   4.114  10.932 -0.1678  1.2486 -0.3043
  500MPD2     N 7491   3.023   4.258  10.512  0.1289 -0.1960  0.5635
  500MPD2    H5 7492   2.962   4.320  10.564 -0.5948 -0.3015 -0.1783
  500MPD2    N1 7493   3.337   3.906  10.595 -0.3314 -0.2289 -0.0115
  500MPD2    H7 7494   3.336   3.899  10.493 -1.7078  1.9959 -0.1434
  501TMC3    C1 7495   3.527   3.767  10.590  0.7383  0.6001 -0.1072
  501TMC3    C2 7496   3.569   3.840  10.480 -0.4009  0.1048  0.3241
  501TMC3    C3 7497   3.700   3.831  10.438  0.1851 -0.2006 -0.5211
  501TMC3    C4 7498   3.616   3.685  10.662  0.4568 -0.1720  0.3347
  501TMC3    C5 7499   3.746   3.677  10.611  0.2166  0.5856 -0.2079
  501TMC3    C6 7500   3.787   3.750  10.499 -0.2896  0.1650  0.5026
  501TMC3     C 7501   3.421   3.830  10.668  0.0129  0.6796  0.1344
  501TMC3     O 7502   3.428   3.805  10.787  0.2977 -0.1369  0.1617
  501TMC3     H 7503   3.506   3.919  10.441 -2.4344 -0.1734  3.0435
  501TMC3    H1 7504   3.597   3.643  10.760 -2.5208  1.3888  0.4372
  501TMC3    H2 7505   3.890   3.762  10.467  0.7285 -0.6138  3.4921
  501TMC3    C7 7506   3.837   3.698  10.716  0.4004 -0.5399 -0.3755
  501TMC3    C8 7507   3.756   3.952  10.392 -0.4673 -0.4173 -0.3750
  501TMC3    O1 7508   3.827   3.645  10.827  0.2829 -0.1687 -0.5468
  501TMC3    O2 7509   3.867   3.985  10.426  0.0846 -0.0480  0.0265
  502TMC3    C1 7510   3.222   3.036  14.789  0.8801  0.3984  0.2112
  502TMC3    C2 7511   3.240   3.154  14.719 -0.6835 -0.2917  0.2472
  502TMC3    C3 7512   3.125   3.223  14.673 -0.0970 -0.3314 -0.3325
  502TMC3    C4 7513   3.100   2.976  14.800  0.0904 -0.0950  0.1671
  502TMC3    C5 7514   2.995   3.043  14.749 -0.0481 -0.0132 -0.4207
  502TMC3    C6 7515   3.003   3.163  14.680  0.2349  0.2717  0.0233
  502TMC3     C 7516   3.327   2.994  14.883 -0.5201 -0.2439  0.8155
  502TMC3     O 7517   3.440   3.038  14.866 -0.0966 -0.8273  0.1847
  502TMC3     H 7518   3.335   3.205  14.723 -0.6527 -0.0440 -3.0021
  502TMC3    H1 7519   3.088   2.879  14.847  1.2948 -1.1764 -1.7808
  502TMC3    H2 7520   2.910   3.211  14.653  0.6234 -0.0121 -1.8231
  502TMC3    C7 7521   2.871   2.968  14.754  0.0212 -0.0596 -0.1114
  502TMC3    C8 7522   3.140   3.366  14.649  0.0651  0.2847 -0.0795
  502TMC3    O1 7523   2.883   2.849  14.729  0.2140  0.1009  0.1382
  502TMC3    O2 7524   3.256   3.408  14.648  0.3683 -0.0691 -0.4283
  503MPD2     C 7525   0.429   3.738  17.057 -0.6532 -0.0846 -0.3333
  503MPD2    C1 7526   0.482   3.768  17.174  0.0721 -0.4172 -0.8997
  503MPD2    C2 7527   0.562   3.675  17.239 -0.6371  0.2880 -0.8321
  503MPD2    C3 7528   0.581   3.554  17.179  0.2754  0.2343  0.1386
  503MPD2    C4 7529   0.524   3.528  17.054  0.0733 -0.5582 -0.1459
  503MPD2    C5 7530   0.451   3.619  16.989  0.3639  0.3225 -0.0568
  503MPD2     H 7531   0.606   3.703  17.334  0.6449  0.9750 -1.6322
  503MPD2    H1 7532   0.520   3.428  17.013 -0.3873 -1.0802  1.1515
  503MPD2    H2 7533   0.366   3.805  17.000 -0.0420  0.8552  0.0990
  503MPD2    H3 7534   0.412   3.605  16.889  0.9487  2.1628 -0.5638
  503MPD2     N 7535   0.640   3.451  17.252 -0.2915  0.0021  0.5237
  503MPD2    H5 7536   0.647   3.461  17.353 -0.4986  0.8410  0.4614
  503MPD2    N1 7537   0.475   3.899  17.229  0.1723 -0.4380  0.3668
  503MPD2    H7 7538   0.520   3.910  17.319  2.0644 -1.0359 -0.5027
  504TMC3    C1 7539   0.750   3.248  17.294 -0.2676 -0.2885  0.0862
  504TMC3    C2 7540   0.694   3.244  17.424 -0.2864 -0.1329 -0.0674
  504TMC3    C3 7541   0.768   3.197  17.531 -0.5865  0.1329  0.4133
  504TMC3    C4 7542   0.882   3.224  17.274 -0.1982 -0.0188 -0.4097
  504TMC3    C5 7543   0.957   3.176  17.379  0.2855  0.3791  0.2088
  504TMC3    C6 7544   0.905   3.168  17.509  0.9374 -0.0970  0.0681
  504TMC3     C 7545   0.687   3.334  17.193 -0.2233  0.0545  1.2694
  504TMC3     O 7546   0.704   3.301  17.077  0.5048  0.2687 -0.4231
  504TMC3     H 7547   0.589   3.266  17.440 -0.4496 -1.7742  1.1079
  504TMC3    H1 7548   0.925   3.272  17.187  0.4352 -3.0259 -1.7417
  504TMC3    H2 7549   0.965   3.120  17.586 -0.1861  0.8880  1.5505
  504TMC3    C7 7550   1.093   3.136  17.355  0.0667 -0.7873 -0.0151
  504TMC3    C8 7551   0.727   3.230  17.663 -0.0298 -0.0716 -0.3543
  504TMC3    O1 7552   1.156   3.103  17.453  0.0047 -0.2322 -0.3111
  504TMC3    O2 7553   0.613   3.280  17.662 -0.0405 -0.0917  0.2412
  505MPD2     C 7554   1.412   2.301   9.554  0.5632  0.4955 -0.0423
  505MPD2    C1 7555   1.378   2.226   9.663  0.4716 -0.0141  0.5783
  505MPD2    C2 7556   1.325   2.296   9.775  0.3630 -0.3088  0.8375
  505MPD2    C3 7557   1.309   2.430   9.773  0.5572  0.5934 -0.2230
  505MPD2    C4 7558   1.353   2.499   9.665  0.5159  0.2601  0.7572
  505MPD2    C5 7559   1.406   2.438   9.550 -0.0580  0.0489  0.4573
  505MPD2     H 7560   1.300   2.243   9.866 -3.7558 -0.6929 -0.4730
  505MPD2    H1 7561   1.370   2.606   9.666  3.2972 -0.1758 -0.0102
  505MPD2    H2 7562   1.459   2.261   9.465  0.6390 -0.9486  0.6480
  505MPD2    H3 7563   1.445   2.495   9.467  0.5265 -0.4258  0.3986
  505MPD2     N 7564   1.254   2.502   9.879 -0.9133 -0.4415  0.7107
  505MPD2    H5 7565   1.269   2.602   9.872 -0.9968 -0.4521  0.3764
  505MPD2    N1 7566   1.405   2.089   9.659 -0.6485 -0.4909  0.2729
  505MPD2    H7 7567   1.467   2.055   9.587 -1.1278  0.3649 -0.5370
  506TMC3    C1 7568   1.412   1.863   9.729 -0.3795 -0.4504 -0.2340
  506TMC3    C2 7569   1.543   1.869   9.715  0.2546 -0.1800  1.0578
  506TMC3    C3 7570   1.616   1.780   9.784 -0.4396  0.2676 -0.9332
  506TMC3    C4 7571   1.347   1.777   9.821 -0.4578 -0.1703  0.5531
  506TMC3    C5 7572   1.426   1.693   9.896 -0.0119 -0.4122  1.2521
  506TMC3    C6 7573   1.560   1.681   9.868 -0.0013  0.5397  0.2225
  506TMC3     C 7574   1.352   1.996   9.748  0.1218 -0.7488 -0.4293
  506TMC3     O 7575   1.269   2.017   9.834  0.2845  0.3557 -0.0153
  506TMC3     H 7576   1.592   1.941   9.652  3.1892 -1.8380  1.4459
  506TMC3    H1 7577   1.239   1.775   9.833 -0.6502 -0.3179 -1.2038
  506TMC3    H2 7578   1.620   1.621   9.936 -0.3669 -1.3165 -1.0649
  506TMC3    C7 7579   1.413   1.712  10.036 -0.0311  0.4092  0.6714
  506TMC3    C8 7580   1.767   1.774   9.773 -0.1312  0.3459  0.1165
  506TMC3    O1 7581   1.486   1.648  10.108  0.7068 -0.4117 -0.4900
  506TMC3    O2 7582   1.828   1.672   9.803 -0.1191 -0.0557 -0.4561
  507TMC3    C1 7583   2.074   4.055  15.278 -0.5577  0.2687  0.2139
  507TMC3    C2 7584   2.074   4.033  15.146 -0.0577  0.1067  0.5033
  507TMC3    C3 7585   2.145   4.128  15.070 -0.9303 -0.3646 -0.2659
  507TMC3    C4 7586   2.126   4.172  15.338 -0.0600 -0.4622 -0.7884
  507TMC3    C5 7587   2.194   4.264  15.265  0.5571 -0.7824 -0.0435
  507TMC3    C6 7588   2.193   4.245  15.125  0.0772  0.1854  0.3605
  507TMC3     C 7589   1.998   3.960  15.358  0.2884 -0.2122  0.3866
  507TMC3     O 7590   1.964   4.003  15.467  0.4331  1.1414 -0.0262
  507TMC3     H 7591   2.020   3.949  15.105  0.6441  0.6612 -1.6011
  507TMC3    H1 7592   2.126   4.187  15.445  0.8187  0.1944 -0.8813
  507TMC3    H2 7593   2.253   4.312  15.065 -0.5251 -0.9224 -1.4633
  507TMC3    C7 7594   2.135   4.396  15.288 -0.2876  0.2916 -0.2923
  507TMC3    C8 7595   2.100   4.149  14.933  0.0970 -0.3577 -0.1154
  507TMC3    O1 7596   2.113   4.436  15.402 -0.8323  0.0777 -0.1723
  507TMC3    O2 7597   2.121   4.259  14.886 -0.4598  0.3374  0.7462
  508MPD2     C 7598   2.620   0.662  16.055 -0.5002  0.0097 -0.0534
  508MPD2    C1 7599   2.574   0.759  16.143  0.0562  0.1603  0.3085
  508MPD2    C2 7600   2.516   0.872  16.093 -0.3158 -0.6339  0.6225
  508MPD2    C3 7601   2.504   0.885  15.956  0.0334 -0.3783  0.0831
  508MPD2    C4 7602   2.545   0.787  15.865  0.5948  0.6644  0.4283
  508MPD2    C5 7603   2.606   0.679  15.919 -0.5291 -0.3421  0.5026
  508MPD2     H 7604   2.474   0.946  16.160  2.8296  0.6181  1.1804
  508MPD2    H1 7605   2.533   0.809  15.760  1.5915 -1.1786 -0.0595
  508MPD2    H2 7606   2.670   0.574  16.097 -1.0323  0.0922  0.7574
  508MPD2    H3 7607   2.646   0.617  15.839 -1.7029 -0.5645  0.0819
  508MPD2     N 7608   2.433   1.004  15.916 -0.4517 -0.3798  0.7900
  508MPD2    H5 7609   2.413   1.077  15.984 -0.7164  0.3735 -0.1106
  508MPD2    N1 7610   2.606   0.734  16.279  0.1011  0.0309 -0.3331
  508MPD2    H7 7611   2.660   0.648  16.290 -0.9771 -0.9294 -2.4819
  509TMC3    C1 7612   2.241   1.331  15.643  0.5649  0.9547 -0.5552
  509TMC3    C2 7613   2.312   1.430  15.705 -0.0354  0.4342  0.7134
  509TMC3    C3 7614   2.396   1.393  15.808 -0.9539  0.0211 -0.2188
  509TMC3    C4 7615   2.241   1.200  15.687  0.4266  0.2479  0.9815
  509TMC3    C5 7616   2.331   1.174  15.786  0.6620  0.4969  0.0651
  509TMC3    C6 7617   2.420   1.262  15.839 -0.7617  0.5885 -0.7331
  509TMC3     C 7618   2.126   1.374  15.562  0.9015 -0.1577  0.6035
  509TMC3     O 7619   2.029   1.303  15.565  0.1334 -0.5361  0.0740
  509TMC3     H 7620   2.283   1.533  15.691  1.7531  0.7541 -0.6832
  509TMC3    H1 7621   2.175   1.118  15.660  1.2697 -0.5916  1.4619
  509TMC3    H2 7622   2.497   1.245  15.913 -2.8009  1.2558  1.5815
  509TMC3    C7 7623   2.374   1.033  15.797 -0.1327  0.1076 -0.2397
  509TMC3    C8 7624   2.463   1.497  15.884 -0.6330  0.0076  0.7455
  509TMC3    O1 7625   2.349   0.957  15.703 -0.0907 -0.0374  1.2047
  509TMC3    O2 7626   2.507   1.474  15.996 -0.0291  0.4935  0.2047
  510MPD2     C 7627   0.282   2.679  14.741  0.3577 -0.2216 -0.0521
  510MPD2    C1 7628   0.337   2.554  14.747  0.1594 -0.3645  0.1920
  510MPD2    C2 7629   0.451   2.524  14.670  0.1515  0.3323  0.6210
  510MPD2    C3 7630   0.493   2.614  14.570 -0.3381  0.1442 -0.9511
  510MPD2    C4 7631   0.421   2.726  14.553  0.3633  0.3277 -0.0450
  510MPD2    C5 7632   0.316   2.762  14.635  0.5237 -0.0502  0.0745
  510MPD2     H 7633   0.503   2.429  14.677  1.0690  1.0689  3.9753
  510MPD2    H1 7634   0.455   2.795  14.476  1.7205 -1.2405 -0.8429
  510MPD2    H2 7635   0.194   2.700  14.800 -0.3157  3.1794 -2.3120
  510MPD2    H3 7636   0.268   2.858  14.618 -0.6216 -0.5385  0.5744
  510MPD2     N 7637   0.597   2.574  14.479  0.1336  0.0817 -0.1839
  510MPD2    H5 7638   0.654   2.494  14.504  0.5242  0.2944 -0.4000
  510MPD2    N1 7639   0.289   2.459  14.835 -0.1500 -0.0784  0.2645
  510MPD2    H7 7640   0.219   2.501  14.895 -1.8266 -2.0717 -0.3092
  511TMC3    C1 7641   0.223   2.244  14.937  0.2930 -0.2500 -0.3204
  511TMC3    C2 7642   0.145   2.310  15.030 -0.0599  0.6137 -0.1282
  511TMC3    C3 7643   0.045   2.242  15.090  0.1195  0.4972  0.1813
  511TMC3    C4 7644   0.198   2.114  14.895 -0.2309 -0.1506 -0.5080
  511TMC3    C5 7645   0.086   2.054  14.954 -0.2722  0.2879  0.2114
  511TMC3    C6 7646   0.013   2.110  15.056 -0.0838  0.2084 -0.5159
  511TMC3     C 7647   0.306   2.320  14.843  0.1325  0.5607 -0.4922
  511TMC3     O 7648   0.357   2.249  14.753 -0.1424  0.1575 -0.0629
  511TMC3     H 7649   0.170   2.411  15.062  0.9078  0.3371 -0.0192
  511TMC3    H1 7650   0.257   2.065  14.819 -0.4005 -1.4855  0.2166
  511TMC3    H2 7651   4.652   2.072  15.085  0.8024 -1.0300  0.7628
  511TMC3    C7 7652   0.065   1.919  14.903  0.3290 -0.5248  0.4635
  511TMC3    C8 7653   4.710   2.301  15.198  0.4948  0.1365 -0.8785
  511TMC3    O1 7654   0.131   1.885  14.807 -0.1597  0.3087  0.6143
  511TMC3    O2 7655   4.698   2.422  15.190 -0.0019  0.4277  0.0246
  512TMC3    C1 7656   4.067   1.731  12.719 -0.3148 -0.0609  0.0345
  512TMC3    C2 7657   4.120   1.717  12.846  0.2541  0.1239  0.2654
  512TMC3    C3 7658   4.196   1.602  12.868  0.1958  0.3827  0.2864
  512TMC3    C4 7659   4.090   1.634  12.619 -0.3600  0.7476  0.3119
  512TMC3    C5 7660   4.170   1.527  12.655  1.0795 -0.4342  0.1822
  512TMC3    C6 7661   4.223   1.510  12.775 -0.0023 -1.2307  0.5531
  512TMC3     C 7662   3.975   1.843  12.687  0.3684 -0.4451  0.6564
  512TMC3     O 7663   3.971   1.936  12.766 -0.0168  0.6463  0.2847
  512TMC3     H 7664   4.095   1.795  12.918 -0.3411 -0.1949  0.4099
  512TMC3    H1 7665   4.062   1.656  12.517  0.1819  0.4446  0.0969
  512TMC3    H2 7666   4.266   1.415  12.807  1.6540  0.0264  2.0459
  512TMC3    C7 7667   4.175   1.416  12.560  0.5472  0.3006  0.4259
  512TMC3    C8 7668   4.213   1.564  13.007  0.4404  0.5012  0.2835
  512TMC3    O1 7669   4.193   1.444  12.445 -0.6112 -0.0614 -0.3165
  512TMC3    O2 7670   4.230   1.443  13.023 -0.1715  0.1790 -0.5916
  513MPD2     C 7671   1.129   2.226  12.321 -0.2802  0.1765 -0.1146
  513MPD2    C1 7672   1.003   2.210  12.372 -0.3621  0.7440  0.0666
  513MPD2    C2 7673   0.943   2.308  12.450  0.2306 -0.1618  0.9053
  513MPD2    C3 7674   1.013   2.425  12.475 -0.1489 -0.1326 -0.0733
  513MPD2    C4 7675   1.145   2.438  12.432  0.2422  0.2656 -0.5818
  513MPD2    C5 7676   1.199   2.339  12.356  0.7699 -0.1393  0.3999
  513MPD2     H 7677   0.840   2.307  12.484 -0.1379  2.2747 -0.1755
  513MPD2    H1 7678   1.198   2.531  12.455  0.6376 -0.0377 -0.2609
  513MPD2    H2 7679   1.162   2.139  12.266 -2.9213 -1.5382  0.9639
  513MPD2    H3 7680   1.296   2.358  12.313 -0.3567 -0.4163 -2.2399
  513MPD2     N 7681   0.949   2.512  12.575 -0.0941  0.0491  0.6751
  513MPD2    H5 7682   0.857   2.479  12.604 -0.5659 -0.6753 -1.6023
  513MPD2    N1 7683   0.948   2.084  12.352 -0.2166  0.2162 -0.3569
  513MPD2    H7 7684   0.999   2.024  12.289  1.1651  1.6249 -0.5616
  514TMC3    C1 7685   0.784   1.908  12.370  0.4706  0.8724 -0.4582
  514TMC3    C2 7686   0.886   1.819  12.386  0.2746 -0.9125 -0.5222
  514TMC3    C3 7687   0.867   1.708  12.466 -0.8630  0.7145 -0.5073
  514TMC3    C4 7688   0.664   1.878  12.419  0.2804 -0.0206 -0.7617
  514TMC3    C5 7689   0.646   1.767  12.501  0.8138  0.3425  0.0680
  514TMC3    C6 7690   0.753   1.688  12.527 -0.4556  0.0485  0.9172
  514TMC3     C 7691   0.823   2.044  12.404  0.4051  0.1849 -0.3945
  514TMC3     O 7692   0.755   2.104  12.489 -0.2305  0.3260 -0.2602
  514TMC3     H 7693   0.981   1.846  12.341  0.8152 -3.3224 -0.8257
  514TMC3    H1 7694   0.578   1.941  12.398  0.6987  0.8190  0.0350
  514TMC3    H2 7695   0.757   1.615  12.608  0.3175  1.4006  2.0983
  514TMC3    C7 7696   0.577   1.796  12.629 -0.0796 -0.0465  0.0295
  514TMC3    C8 7697   0.967   1.606  12.470  0.0343  0.7038 -0.3607
  514TMC3    O1 7698   0.558   1.706  12.713  0.0776 -0.1272  0.4708
  514TMC3    O2 7699   0.961   1.519  12.551 -0.1262 -0.2282  0.3387
  515MPD2     C 7700   4.099   3.192  14.663  0.3353  0.1378  0.1665
  515MPD2    C1 7701   4.038   3.275  14.569 -0.1334  0.4472 -0.2017
  515MPD2    C2 7702   4.036   3.410  14.595  0.0554 -0.0460  0.0558
  515MPD2    C3 7703   4.077   3.465  14.715  0.4094  0.6833 -0.1918
  515MPD2    C4 7704   4.129   3.382  14.809  0.3709 -0.5806  0.5575
  515MPD2    C5 7705   4.142   3.248  14.781  0.0991 -0.1443 -0.0057
  515MPD2     H 7706   4.003   3.480  14.519  2.2033  0.4142 -0.4586
  515MPD2    H1 7707   4.166   3.418  14.905 -0.0319  2.1156 -0.3001
  515MPD2    H2 7708   4.108   3.085  14.649 -1.1620  0.2329 -1.6283
  515MPD2    H3 7709   4.191   3.178  14.848  1.6033  2.4345  1.6048
  515MPD2     N 7710   4.080   3.605  14.749 -0.2810  0.3575  0.3733
  515MPD2    H5 7711   4.115   3.635  14.839  1.5743  1.4326 -0.7028
  515MPD2    N1 7712   3.983   3.231  14.446 -0.4634  0.0245  0.6156
  515MPD2    H7 7713   3.956   3.303  14.380 -3.0443  1.6858  3.5260
  516TMC3    C1 7714   3.908   3.085  14.273  0.3808  0.2507 -0.5536
  516TMC3    C2 7715   3.856   3.182  14.206  0.4738  0.6082  0.3135
  516TMC3    C3 7716   3.749   3.159  14.122  0.3677 -0.5101  0.0887
  516TMC3    C4 7717   3.869   2.954  14.252 -0.2818  0.4062  0.2328
  516TMC3    C5 7718   3.747   2.933  14.180 -0.6355  0.2047 -1.3317
  516TMC3    C6 7719   3.692   3.036  14.111 -0.1745 -0.1154 -0.1334
  516TMC3     C 7720   3.966   3.102  14.410  0.3333 -0.2815  0.7788
  516TMC3     O 7721   3.975   3.000  14.481  0.0735  0.2911  0.1972
  516TMC3     H 7722   3.909   3.276  14.216  2.0928 -0.3511  0.6166
  516TMC3    H1 7723   3.908   2.868  14.305  0.8603  0.6124 -0.2799
  516TMC3    H2 7724   3.604   3.014  14.051 -0.0013 -0.8127 -0.1280
  516TMC3    C7 7725   3.651   2.844  14.243 -0.2351  0.1869 -0.4364
  516TMC3    C8 7726   3.695   3.271  14.049 -0.9148 -0.2396  0.0661
  516TMC3    O1 7727   3.544   2.821  14.190  0.2412 -0.6008 -0.3386
  516TMC3    O2 7728   3.577   3.256  14.016 -0.3132 -1.0320  0.1520
  517MPD2     C 7729   3.636   0.415   0.021  0.1709  0.4762 -0.3350
  517MPD2    C1 7730   3.750   0.389   0.094  0.2591  0.0374  0.3107
  517MPD2    C2 7731   3.783   0.469   0.206  0.3121  0.7052 -0.5885
  517MPD2    C3 7732   3.700   0.571   0.244 -0.7091  0.6791 -0.6617
  517MPD2    C4 7733   3.585   0.594   0.170  0.0811  0.1233 -0.3208
  517MPD2    C5 7734   3.557   0.518   0.061 -0.0216  0.0558  0.1675
  517MPD2     H 7735   3.880   0.458   0.253 -0.6553 -1.5179  0.8429
  517MPD2    H1 7736   3.516   0.672   0.200  1.8321  1.5306  0.0391
  517MPD2    H2 7737   3.608   0.361  17.673  1.3640 -0.1725 -0.3057
  517MPD2    H3 7738   3.461   0.530   0.012  0.3864  0.0505 -0.6228
  517MPD2     N 7739   3.722   0.666   0.350  0.0096 -0.3840  0.8914
  517MPD2    H5 7740   3.645   0.730   0.368  0.8303  0.6664  0.6798
  517MPD2    N1 7741   3.836   0.283   0.052 -0.2589 -0.7566  0.7090
  517MPD2    H7 7742   3.929   0.278   0.093  0.5028  1.3825 -0.7846
  518TMC3    C1 7743   3.889   0.071  17.703  0.1549  0.3935 -0.8631
  518TMC3    C2 7744   3.834   4.684  17.691 -0.1912  0.2250 -0.6981
  518TMC3    C3 7745   3.897   4.595  17.611  0.6187 -0.8361  0.3767
  518TMC3    C4 7746   4.019   0.095  17.665  0.5495  0.0743  0.0413
  518TMC3    C5 7747   4.088   4.724  17.605 -0.2484 -0.1206 -0.1366
  518TMC3    C6 7748   4.026   4.607  17.566  0.0241 -0.2499  0.1350
  518TMC3     C 7749   3.789   0.177  17.726  0.0694 -0.6555 -0.8915
  518TMC3     O 7750   3.675   0.148  17.696  0.0728  0.2967  0.4865
  518TMC3     H 7751   3.735   4.665  17.731  0.5010  1.1870  1.4850
  518TMC3    H1 7752   4.059   0.196  17.675  1.3210 -0.0181 -1.9552
  518TMC3    H2 7753   4.066   4.539  17.492  0.0423 -1.2345  1.0456
  518TMC3    C7 7754   4.208   0.022  17.524 -0.2868 -0.7365 -0.0239
  518TMC3    C8 7755   3.833   4.474  17.598 -0.5518 -0.2561  0.4960
  518TMC3    O1 7756   4.249   0.137  17.538  0.2840  0.4862 -0.5605
  518TMC3    O2 7757   3.711   4.488  17.584  0.1350  0.4053 -0.6923
  519MPD2     C 7758   0.530   3.573  14.507  0.3509 -0.0163  0.2991
  519MPD2    C1 7759   0.515   3.652  14.393 -0.2955  0.6368  0.3943
  519MPD2    C2 7760   0.600   3.633  14.284  0.4405  0.6231 -0.1884
  519MPD2    C3 7761   0.706   3.542  14.292 -0.1390  0.5672  0.6092
  519MPD2    C4 7762   0.724   3.464  14.407 -0.9720 -0.2006  0.1695
  519MPD2    C5 7763   0.634   3.484  14.511  0.4912  0.4229 -0.6517
  519MPD2     H 7764   0.598   3.704  14.202  3.1306 -1.4406 -2.0959
  519MPD2    H1 7765   0.798   3.387  14.429  0.1366  0.1702 -2.2659
  519MPD2    H2 7766   0.454   3.585  14.584  2.3392 -0.7364  2.3583
  519MPD2    H3 7767   0.645   3.412  14.591  1.7984  2.1137  0.6774
  519MPD2     N 7768   0.786   3.507  14.179  0.2956 -0.2470  0.3779
  519MPD2    H5 7769   0.846   3.426  14.192  2.6008  1.7029  1.7866
  519MPD2    N1 7770   0.405   3.728  14.384  0.0644 -0.0747  0.1764
  519MPD2    H7 7771   0.333   3.727  14.456 -0.7111 -0.1117 -0.5959
  520TMC3    C1 7772   0.883   3.523  13.960  0.6251 -0.3101  0.3546
  520TMC3    C2 7773   0.834   3.547  13.833  0.6309  1.2588  0.2354
  520TMC3    C3 7774   0.866   3.456  13.741 -0.2965 -0.3048 -0.6936
  520TMC3    C4 7775   0.970   3.427  13.994 -0.1237 -0.2579 -0.6043
  520TMC3    C5 7776   1.001   3.341  13.890  0.3789 -0.0543  0.0474
  520TMC3    C6 7777   0.946   3.347  13.764 -1.0027 -0.0784  0.1279
  520TMC3     C 7778   0.776   3.563  14.053 -0.1617  0.1216 -0.3744
  520TMC3     O 7779   0.713   3.657  14.013 -0.3582 -0.6145 -0.1239
  520TMC3     H 7780   0.777   3.636  13.811 -0.3421  0.8330  1.0216
  520TMC3    H1 7781   1.008   3.403  14.093  0.9137 -0.9356 -1.1703
  520TMC3    H2 7782   0.981   3.290  13.678 -0.6472 -0.9607  0.8548
  520TMC3    C7 7783   1.064   3.213  13.934 -0.1546  0.4252  0.2780
  520TMC3    C8 7784   0.843   3.494  13.599 -0.1187  0.3953  0.0715
  520TMC3    O1 7785   1.139   3.217  14.033 -0.0778 -0.1016 -0.1679
  520TMC3    O2 7786   0.925   3.459  13.518  0.5249  0.1494  0.0817
  521MPD2     C 7787   1.446   1.368   0.108  0.1516  0.0760 -0.1709
  521MPD2    C1 7788   1.426   1.462   0.010  0.2483  0.1314  0.1135
  521MPD2    C2 7789   1.530   1.491  17.658  0.3724  0.5030 -0.7974
  521MPD2    C3 7790   1.645   1.411  17.655  0.1069  0.2254  1.1263
  521MPD2    C4 7791   1.663   1.314   0.011 -0.4500  0.4791 -0.3668
  521MPD2    C5 7792   1.562   1.291   0.106 -0.7825  0.1709  0.3081
  521MPD2     H 7793   1.510   1.561  17.578  0.4150 -0.3135 -1.5233
  521MPD2    H1 7794   1.745   1.244   0.009  1.2683  2.4803 -0.7007
  521MPD2    H2 7795   1.370   1.346   0.183  0.2659  3.2267  0.8682
  521MPD2    H3 7796   1.578   1.208   0.174 -1.4755  0.2901  0.6111
  521MPD2     N 7797   1.738   1.445  17.555  0.7790  0.1718  0.5241
  521MPD2    H5 7798   1.706   1.516  17.490 -1.5143  1.4278  3.0415
  521MPD2    N1 7799   1.310   1.538   0.018 -0.8004 -0.7091 -0.0364
  521MPD2    H7 7800   1.240   1.514   0.088 -1.5027 -0.2584 -0.5754
  522TMC3    C1 7801   1.932   1.426  17.426 -0.5647  0.4491  0.0107
  522TMC3    C2 7802   2.060   1.382  17.426 -0.5312 -1.2075  0.1080
  522TMC3    C3 7803   2.122   1.363  17.306 -0.9963  0.3722 -0.3793
  522TMC3    C4 7804   1.867   1.449  17.311  0.1476 -0.1378 -0.2474
  522TMC3    C5 7805   1.937   1.434  17.193  0.9828  0.4761  0.0506
  522TMC3    C6 7806   2.062   1.382  17.189  0.7062  0.2341  0.0681
  522TMC3     C 7807   1.860   1.388  17.543  0.1329 -0.6081 -0.3307
  522TMC3     O 7808   1.916   1.321  17.630 -0.1542 -0.8220  0.4496
  522TMC3     H 7809   2.129   1.390  17.509  2.2280 -0.8152 -2.1992
  522TMC3    H1 7810   1.759   1.455  17.310  0.2829  2.5186  2.2581
  522TMC3    H2 7811   2.092   1.348  17.091  2.3176  3.9757 -0.7101
  522TMC3    C7 7812   1.841   1.388  17.096 -0.1798  0.0420  0.0284
  522TMC3    C8 7813   2.255   1.310  17.313  0.0028 -1.2417 -0.8488
  522TMC3    O1 7814   1.848   1.269  17.074 -0.3326  0.8486  0.4660
  522TMC3    O2 7815   2.308   1.297  17.425  0.4627  0.2243 -0.0442
  523MPD2     C 7816   3.966   1.275   9.728  0.8206 -1.1524  0.0140
  523MPD2    C1 7817   3.916   1.303   9.849  1.0671  0.1427  0.4517
  523MPD2    C2 7818   3.909   1.436   9.885 -0.2686  0.3439 -0.2051
  523MPD2    C3 7819   3.949   1.539   9.800  0.4725  0.3422  0.2041
  523MPD2    C4 7820   4.002   1.511   9.677 -0.5766  0.6369  0.0222
  523MPD2    C5 7821   4.006   1.375   9.638  0.1516 -0.0284  0.3534
  523MPD2     H 7822   3.876   1.458   9.985  0.0353  0.6931 -0.1837
  523MPD2    H1 7823   4.026   1.594   9.611 -3.2562  0.3860 -1.2800
  523MPD2    H2 7824   3.989   1.175   9.692  1.2036 -1.8347  2.1346
  523MPD2    H3 7825   4.056   1.350   9.545  0.6498 -2.0185  1.1702
  523MPD2     N 7826   3.960   1.669   9.853 -0.3632  0.5172 -0.0606
  523MPD2    H5 7827   4.022   1.736   9.809  3.1397 -2.0428  0.9412
  523MPD2    N1 7828   3.888   1.199   9.929 -0.0808 -0.7874 -0.5112
  523MPD2    H7 7829   3.897   1.107   9.887  1.5309 -0.5742 -0.6004
  524TMC3    C1 7830   3.917   1.842  10.003 -0.1377  0.2068 -0.7202
  524TMC3    C2 7831   4.017   1.908   9.930  0.3809  0.5862  0.1037
  524TMC3    C3 7832   4.021   2.038   9.952 -0.3154 -0.6148 -0.1557
  524TMC3    C4 7833   3.812   1.902  10.060 -0.6772  0.0575 -0.0277
  524TMC3    C5 7834   3.816   2.037  10.067 -0.3350  0.2220  0.6252
  524TMC3    C6 7835   3.920   2.107  10.013 -0.7249 -0.0162 -0.1188
  524TMC3     C 7836   3.881   1.715   9.953  0.4089 -0.2638 -0.6679
  524TMC3     O 7837   3.788   1.660  10.006 -0.0992  0.7676  0.5296
  524TMC3     H 7838   4.111   1.855   9.926 -0.7965 -1.5074  0.0642
  524TMC3    H1 7839   3.743   1.847  10.123  0.1585  0.0838  0.9174
  524TMC3    H2 7840   3.920   2.215  10.020  2.9070 -0.0487  0.4287
  524TMC3    C7 7841   3.694   2.114  10.104 -0.2782 -0.6630  0.2808
  524TMC3    C8 7842   4.134   2.113   9.895 -0.4035 -0.2184 -0.4178
  524TMC3    O1 7843   3.594   2.041  10.111 -0.1989 -0.3602  0.2525
  524TMC3    O2 7844   4.137   2.232   9.923 -0.6167 -0.0547 -0.0652
  525MPD2     C 7845   2.058   3.313  14.260 -0.3233  0.2013 -0.4115
  525MPD2    C1 7846   2.163   3.243  14.290  0.6172 -0.0148 -0.4224
  525MPD2    C2 7847   2.288   3.304  14.262 -0.3316  0.1957  0.2475
  525MPD2    C3 7848   2.292   3.421  14.186 -1.0700 -0.0922 -0.0081
  525MPD2    C4 7849   2.174   3.460  14.126 -0.8065  0.0172  0.2769
  525MPD2    C5 7850   2.059   3.414  14.167  0.1758 -0.3327 -0.0220
  525MPD2     H 7851   2.378   3.258  14.302  0.1503  0.5343 -0.4434
  525MPD2    H1 7852   2.176   3.551  14.067  0.6557  0.1120  0.4557
  525MPD2    H2 7853   1.956   3.281  14.275 -0.4387  1.0608  0.6353
  525MPD2    H3 7854   1.960   3.439  14.129  1.1952  1.6294 -1.4264
  525MPD2     N 7855   2.412   3.488  14.151 -0.0016 -0.1040  0.0973
  525MPD2    H5 7856   2.402   3.554  14.075  1.4941  0.8287  0.7060
  525MPD2    N1 7857   2.158   3.123  14.361 -1.0905  0.1928 -0.8579
  525MPD2    H7 7858   2.247   3.080  14.384 -0.7854 -0.8411 -3.9566
  526TMC3    C1 7859   2.074   2.918  14.422 -0.5376 -0.4433 -0.1316
  526TMC3    C2 7860   2.017   2.876  14.534  0.1991  0.3315 -0.1779
  526TMC3    C3 7861   2.076   2.773  14.599  0.1839  0.3445 -0.7529
  526TMC3    C4 7862   2.189   2.868  14.375  0.3233 -0.7460  0.3871
  526TMC3    C5 7863   2.246   2.767  14.444 -0.0347 -0.1674 -0.1770
  526TMC3    C6 7864   2.193   2.715  14.556  0.0414 -0.3881  0.3414
  526TMC3     C 7865   2.046   3.055  14.387  0.2523 -0.3224 -0.2576
  526TMC3     O 7866   1.928   3.088  14.378  0.3332 -0.0893 -0.0839
  526TMC3     H 7867   1.934   2.938  14.568  1.0775  2.2857 -1.5673
  526TMC3    H1 7868   2.224   2.892  14.275  0.4555 -1.4462  0.2655
  526TMC3    H2 7869   2.254   2.656  14.624  0.9381  0.2221  0.0672
  526TMC3    C7 7870   2.384   2.744  14.422  0.6475  0.8358  0.6570
  526TMC3    C8 7871   2.008   2.723  14.722 -0.4687  0.1604 -0.3373
  526TMC3    O1 7872   2.444   2.826  14.352  0.3996 -0.2110  0.0686
  526TMC3    O2 7873   2.081   2.655  14.797 -0.4672  0.0390 -0.0993
  527MPD2     C 7874   0.062   0.992   1.730 -0.3415 -0.6854 -0.2662
  527MPD2    C1 7875   0.046   0.965   1.599  0.3579  0.1681 -0.0065
  527MPD2    C2 7876   0.149   0.911   1.523 -0.0103 -0.3174 -0.3901
  527MPD2    C3 7877   0.278   0.898   1.576 -0.1256  0.4448  0.7327
  527MPD2    C4 7878   0.300   0.940   1.712  0.6323  0.3080  0.7848
  527MPD2    C5 7879   0.186   0.972   1.790  0.9047 -0.1211 -0.1922
  527MPD2     H 7880   0.126   0.884   1.421 -0.6285  0.7692 -0.5290
  527MPD2    H1 7881   0.382   0.912   1.776 -0.0969 -0.6498  1.3065
  527MPD2    H2 7882   4.714   1.007   1.798 -0.6187  1.4472 -1.0670
  527MPD2    H3 7883   0.194   0.985   1.897 -0.0716  1.3814 -0.3015
  527MPD2     N 7884   0.369   0.830   1.497  0.4690 -0.0071  0.5223
  527MPD2    H5 7885   0.337   0.782   1.413  1.3458 -1.2116  0.8702
  527MPD2    N1 7886   4.661   0.981   1.531  0.1704 -0.3832 -0.4264
  527MPD2    H7 7887   4.661   0.962   1.432 -1.3796  0.4322 -0.5781
  528TMC3    C1 7888   4.438   1.060   1.488 -0.1136 -0.4153 -0.3057
  528TMC3    C2 7889   4.461   1.021   1.353 -0.0465 -0.0263  1.1454
  528TMC3    C3 7890   4.347   1.025   1.271  0.1401  0.2777  0.2712
  528TMC3    C4 7891   4.311   1.089   1.541 -0.0465 -0.0918 -0.7621
  528TMC3    C5 7892   4.207   1.087   1.452  0.0981  0.0726  0.1875
  528TMC3    C6 7893   4.224   1.071   1.316  0.3236 -0.2290 -0.2120
  528TMC3     C 7894   4.549   1.049   1.580  0.5556  0.1356  0.1349
  528TMC3     O 7895   4.523   1.094   1.693 -0.6945 -0.1635 -0.5424
  528TMC3     H 7896   4.556   0.996   1.308 -0.2132  1.2791  0.0717
  528TMC3    H1 7897   4.305   1.104   1.648 -1.8154 -1.9733 -0.5927
  528TMC3    H2 7898   4.139   1.077   1.249  0.5093  2.5289 -0.2056
  528TMC3    C7 7899   4.075   1.118   1.506  0.6764  0.5266 -0.1590
  528TMC3    C8 7900   4.359   0.981   1.129  0.3558 -0.0988  0.3762
  528TMC3    O1 7901   3.983   1.110   1.425  0.3995  0.7197  0.2621
  528TMC3    O2 7902   4.469   1.008   1.078  0.6005  0.3282  0.0948
  529MPD2     C 7903   2.004   3.713   0.952  0.4208 -0.9845 -0.0040
  529MPD2    C1 7904   2.133   3.745   0.917  0.0514 -0.4808  0.8581
  529MPD2    C2 7905   2.153   3.843   0.822 -0.1788 -0.1584  0.0899
  529MPD2    C3 7906   2.046   3.907   0.771  0.1297 -0.1539 -0.3431
  529MPD2    C4 7907   1.921   3.886   0.811 -0.0037  0.1916  0.0805
  529MPD2    C5 7908   1.902   3.783   0.895 -0.6523 -1.0148 -0.1138
  529MPD2     H 7909   2.253   3.852   0.783  0.4367  1.2399  2.0365
  529MPD2    H1 7910   1.837   3.947   0.780  0.9207  1.2516 -0.3615
  529MPD2    H2 7911   1.976   3.643   1.029 -2.0573 -1.7122 -1.5621
  529MPD2    H3 7912   1.802   3.752   0.924 -1.0430 -0.4209 -0.8135
  529MPD2     N 7913   2.057   3.997   0.660 -0.4954  0.8405 -0.4165
  529MPD2    H5 7914   1.969   4.038   0.630 -1.0785 -0.6666 -0.7316
  529MPD2    N1 7915   2.245   3.672   0.963  0.6019 -0.1182 -0.1143
  529MPD2    H7 7916   2.329   3.726   0.941  1.4196 -2.3623 -2.5127
  530TMC3    C1 7917   2.364   3.518   1.097  0.6204  0.0134  0.3219
  530TMC3    C2 7918   2.479   3.581   1.060  0.4902 -0.0430 -0.2545
  530TMC3    C3 7919   2.587   3.507   1.069  0.5814 -0.4789  0.1702
  530TMC3    C4 7920   2.361   3.396   1.161  0.2143  0.1498 -0.2749
  530TMC3    C5 7921   2.468   3.317   1.150 -0.3712  0.0150  0.2955
  530TMC3    C6 7922   2.591   3.380   1.120 -0.3109  0.3249  0.3316
  530TMC3     C 7923   2.240   3.558   1.043 -0.1224 -0.4417 -0.1122
  530TMC3     O 7924   2.135   3.501   1.078 -0.0821  0.0290  0.9000
  530TMC3     H 7925   2.480   3.686   1.034 -0.1083  0.2066  0.7501
  530TMC3    H1 7926   2.261   3.360   1.184  0.3946  0.3673  0.8620
  530TMC3    H2 7927   2.680   3.317   1.116  0.7561  1.9528 -1.3772
  530TMC3    C7 7928   2.474   3.185   1.206 -0.4666 -0.2087  0.5926
  530TMC3    C8 7929   2.696   3.558   0.984  0.1395 -0.2400 -0.4446
  530TMC3    O1 7930   2.581   3.134   1.229 -0.1869 -0.6287 -0.2452
  530TMC3    O2 7931   2.680   3.674   0.940 -0.1436  0.2058 -0.0313
  531MPD2     C 7932   0.475   2.176  12.979  0.6866  0.4539  0.7917
  531MPD2    C1 7933   0.566   2.218  12.882 -0.1509 -0.3108 -0.6953
  531MPD2    C2 7934   0.585   2.133  12.771  0.6691  0.2231  0.0417
  531MPD2    C3 7935   0.538   2.003  12.757 -0.2746  0.1105 -0.0217
  531MPD2    C4 7936   0.456   1.959  12.860 -0.2300  0.2231  0.6907
  531MPD2    C5 7937   0.426   2.044  12.968 -0.5251  0.1853 -1.1623
  531MPD2     H 7938   0.657   2.159  12.694 -0.9375  1.9799 -0.8575
  531MPD2    H1 7939   0.399   1.868  12.845  1.4228 -0.2496 -2.7797
  531MPD2    H2 7940   0.461   2.238  13.068 -2.1839 -2.8009  2.6107
  531MPD2    H3 7941   0.377   2.013  13.059  1.8271 -1.4073 -0.4523
  531MPD2     N 7942   0.569   1.934  12.639 -0.0648  0.0220  0.2591
  531MPD2    H5 7943   0.614   1.992  12.569 -1.0210 -0.8762 -1.0854
  531MPD2    N1 7944   0.614   2.347  12.898 -0.3798 -0.1080 -0.2216
  531MPD2    H7 7945   0.589   2.394  12.985 -0.5513  1.9008 -1.3590
  532TMC3    C1 7946   0.732   2.551  12.835  0.0166 -0.4175 -0.3170
  532TMC3    C2 7947   0.787   2.608  12.729  0.0903  0.3453  0.0243
  532TMC3    C3 7948   0.908   2.671  12.734  0.0235  0.2726 -0.5203
  532TMC3    C4 7949   0.797   2.557  12.954  0.4664 -0.2217 -0.1097
  532TMC3    C5 7950   0.917   2.624  12.958  0.1385 -0.0980 -0.6352
  532TMC3    C6 7951   0.972   2.689  12.852 -0.0865 -0.0424 -0.6187
  532TMC3     C 7952   0.682   2.420  12.805 -0.4693  0.1697  0.0377
  532TMC3     O 7953   0.712   2.380  12.692 -0.1006  0.0193 -0.2482
  532TMC3     H 7954   0.731   2.591  12.638 -1.7909 -0.7981  1.4079
  532TMC3    H1 7955   0.772   2.497  13.040  0.1247 -0.6256 -0.4906
  532TMC3    H2 7956   1.072   2.729  12.858 -0.4613  0.4225  2.5421
  532TMC3    C7 7957   0.995   2.610  13.078 -0.2096  0.1860 -0.7602
  532TMC3    C8 7958   0.999   2.630  12.631  0.6309 -0.2542 -0.1002
  532TMC3    O1 7959   1.065   2.704  13.115 -0.0383  0.2096  0.0394
  532TMC3    O2 7960   1.114   2.679  12.628  0.8704 -0.6621  0.6543
  533TMC3    C1 7961   2.627   3.578  14.185  0.8382  0.0888  0.2994
  533TMC3    C2 7962   2.764   3.557  14.193 -0.0904  0.1194  0.3891
  533TMC3    C3 7963   2.842   3.650  14.253  0.9506 -0.5503  0.3234
  533TMC3    C4 7964   2.570   3.679  14.253  0.8807 -0.8201  0.0195
  533TMC3    C5 7965   2.657   3.769  14.315  0.0043 -0.4262  0.0492
  533TMC3    C6 7966   2.792   3.761  14.307  0.5132  0.1385 -0.4741
  533TMC3     C 7967   2.543   3.459  14.187  0.3373 -0.1517  0.0745
  533TMC3     O 7968   2.575   3.358  14.243 -0.0784  0.3329 -0.0890
  533TMC3     H 7969   2.810   3.472  14.143 -1.3642 -0.1919 -0.2456
  533TMC3    H1 7970   2.464   3.696  14.271  1.3251  1.9044  0.0648
  533TMC3    H2 7971   2.855   3.833  14.358  0.5106 -2.1962  2.8279
  533TMC3    C7 7972   2.613   3.839  14.435 -0.4456 -0.5940 -0.3003
  533TMC3    C8 7973   2.984   3.667  14.224  0.6853  0.2365  0.0416
  533TMC3    O1 7974   2.658   3.953  14.455  0.6758 -0.4488  0.0133
  533TMC3    O2 7975   3.015   3.786  14.202 -0.1699 -0.1758  0.2384
  534MPD2     C 7976   0.563   4.112   1.707 -0.2718  0.0790 -0.4408
  534MPD2    C1 7977   0.564   4.216   1.619 -1.2214 -0.1458  0.3464
  534MPD2    C2 7978   0.467   4.230   1.524 -0.5175 -0.0369  0.0559
  534MPD2    C3 7979   0.378   4.125   1.486  0.7471  0.6085  0.5248
  534MPD2    C4 7980   0.379   4.020   1.576  0.2144 -1.1332  0.8772
  534MPD2    C5 7981   0.465   4.018   1.687 -0.3085  0.4837 -0.1063
  534MPD2     H 7982   0.470   4.321   1.465 -1.7849 -0.3862 -0.5451
  534MPD2    H1 7983   0.301   3.947   1.555 -0.9970  0.6523 -0.7496
  534MPD2    H2 7984   0.629   4.099   1.793  0.7186  0.1552 -1.1843
  534MPD2    H3 7985   0.472   3.933   1.754  1.5497  0.1011 -0.7781
  534MPD2     N 7986   0.278   4.123   1.387 -0.2409  0.1485  0.3276
  534MPD2    H5 7987   0.217   4.043   1.374  1.2104 -0.8029 -0.6924
  534MPD2    N1 7988   0.660   4.319   1.630 -0.1928  0.1857  0.1367
  534MPD2    H7 7989   0.648   4.395   1.563  1.5826 -0.7969 -1.3245
  535TMC3    C1 7990   0.115   4.214   1.245  0.1688 -0.6041  0.2551
  535TMC3    C2 7991   0.006   4.194   1.329 -0.6808  0.5531  0.0230
  535TMC3    C3 7992   4.610   4.227   1.298 -0.0916 -0.2999  0.3653
  535TMC3    C4 7993   0.093   4.278   1.129  0.4354  0.1647 -0.2713
  535TMC3    C5 7994   4.697   4.304   1.094  0.6255 -0.6189 -0.0295
  535TMC3    C6 7995   4.590   4.278   1.179 -0.0392  0.0039 -0.6383
  535TMC3     C 7996   0.251   4.222   1.298 -0.8616 -0.7584 -0.0508
  535TMC3     O 7997   0.321   4.318   1.271 -0.2865  0.3259 -0.1362
  535TMC3     H 7998   0.024   4.162   1.431 -3.7580  0.0438  0.4150
  535TMC3    H1 7999   0.177   4.310   1.068  0.5792 -0.2250 -0.2778
  535TMC3    H2 8000   4.487   4.297   1.152 -0.1227  1.2479  0.6300
  535TMC3    C7 8001   4.674   4.372   0.968 -0.0582  0.9442 -0.8971
  535TMC3    C8 8002   4.490   4.173   1.368 -0.1957 -0.0648 -0.5290
  535TMC3    O1 8003   0.009   4.338   0.871 -0.4128 -0.5143  0.0543
  535TMC3    O2 8004   4.401   4.142   1.294 -0.5945  0.2177  0.0840
  536MPD2     C 8005   3.636   2.672  16.196  0.1970 -0.1095 -1.0440
  536MPD2    C1 8006   3.533   2.576  16.201  0.1354  0.3653 -0.0805
  536MPD2    C2 8007   3.437   2.585  16.101  0.4316  0.3159  0.2615
  536MPD2    C3 8008   3.447   2.669  15.991  0.2261 -0.1722 -0.6739
  536MPD2    C4 8009   3.559   2.747  15.989 -0.0570 -0.1095 -0.4865
  536MPD2    C5 8010   3.647   2.755  16.090  0.2644 -0.0402  0.1074
  536MPD2     H 8011   3.347   2.526  16.118  2.1372 -2.6435 -0.9307
  536MPD2    H1 8012   3.567   2.820  15.909  0.8028  0.3283 -0.0158
  536MPD2    H2 8013   3.712   2.690  16.271  0.2632 -0.0718 -1.1204
  536MPD2    H3 8014   3.728   2.826  16.096  0.2917 -0.0712  0.1074
  536MPD2     N 8015   3.351   2.687  15.886 -0.3321  0.5854 -0.0071
  536MPD2    H5 8016   3.375   2.760  15.820 -0.6861  2.4677  1.9529
  536MPD2    N1 8017   3.529   2.483  16.307 -0.4017  0.0114  0.0736
  536MPD2    H7 8018   3.588   2.509  16.385  1.6256 -0.4155 -1.3155
  537TMC3    C1 8019   3.459   2.319  16.456 -0.4559  0.2416 -0.2647
  537TMC3    C2 8020   3.507   2.390  16.561 -1.0052 -0.3065 -0.5956
  537TMC3    C3 8021   3.522   2.330  16.679 -0.7740 -0.4288 -0.6094
  537TMC3    C4 8022   3.409   2.194  16.478  0.2033  0.7493 -0.1477
  537TMC3    C5 8023   3.430   2.137  16.602  0.0597 -0.2283  0.7345
  537TMC3    C6 8024   3.496   2.200  16.705 -0.6373  0.3810  0.0799
  537TMC3     C 8025   3.443   2.376  16.322 -0.1228 -0.3293 -0.5870
  537TMC3     O 8026   3.363   2.337  16.236 -0.0861 -0.3866 -0.5431
  537TMC3     H 8027   3.523   2.496  16.550 -2.3324 -0.2402 -1.7977
  537TMC3    H1 8028   3.377   2.145  16.387  3.1973 -1.2737 -0.1348
  537TMC3    H2 8029   3.520   2.149  16.798 -1.8572  0.2285  0.3137
  537TMC3    C7 8030   3.343   2.026  16.630 -0.6100  0.1717 -0.6122
  537TMC3    C8 8031   3.532   2.410  16.803  0.0243  0.3335  0.0919
  537TMC3    O1 8032   3.296   1.971  16.534  0.2459  0.0997 -0.4034
  537TMC3    O2 8033   3.590   2.361  16.902 -0.0863 -0.4878 -0.0258
  538TMC3    C1 8034   4.703   1.139  10.984  0.1609  0.3001 -0.4767
  538TMC3    C2 8035   0.096   1.099  10.968 -0.1422 -0.2711 -0.3002
  538TMC3    C3 8036   0.163   1.136  10.853 -0.4928  0.5731 -0.0158
  538TMC3    C4 8037   4.627   1.184  10.877  0.2898  0.7394 -0.1174
  538TMC3    C5 8038   4.696   1.214  10.767  0.1006 -0.4148  0.3827
  538TMC3    C6 8039   0.093   1.196  10.748 -0.3618 -0.1502 -0.0862
  538TMC3     C 8040   4.635   1.115  11.111  0.1601 -0.0684 -0.0704
  538TMC3     O 8041   4.513   1.089  11.109  0.6036  0.6372 -0.3734
  538TMC3     H 8042   0.146   1.048  11.050 -1.6575 -1.6648 -0.2394
  538TMC3    H1 8043   4.529   1.214  10.912  0.3350 -0.5973  1.1757
  538TMC3    H2 8044   0.126   1.203  10.645 -2.8966 -1.1779 -0.9794
  538TMC3    C7 8045   4.630   1.290  10.662 -0.7574 -0.5249 -0.3545
  538TMC3    C8 8046   0.277   1.055  10.823 -0.0053 -0.2066  0.0497
  538TMC3    O1 8047   4.696   1.361  10.585  0.0754 -0.5607  0.6756
  538TMC3    O2 8048   0.272   0.934  10.854 -0.1352 -0.1785 -0.0334
  539MPD2     C 8049   4.027   0.025  11.234 -0.2428  0.4612 -0.2239
  539MPD2    C1 8050   4.140   0.075  11.292  0.1257 -0.3369 -0.1051
  539MPD2    C2 8051   4.162   0.213  11.294 -0.0604 -0.4403 -0.3933
  539MPD2    C3 8052   4.080   0.300  11.216 -0.3281  0.1154 -0.1980
  539MPD2    C4 8053   3.969   0.237  11.147  0.3102 -0.3820 -0.5813
  539MPD2    C5 8054   3.949   0.105  11.164  0.4529 -0.4334  0.3659
  539MPD2     H 8055   4.240   0.251  11.360  0.4780  0.0744 -1.3338
  539MPD2    H1 8056   3.901   0.286  11.077  0.4641  3.5138  2.0168
  539MPD2    H2 8057   4.008   4.654  11.240  3.3247 -0.1719 -0.4400
  539MPD2    H3 8058   3.870   0.055  11.110 -0.4468 -1.0355  2.2356
  539MPD2     N 8059   4.096   0.444  11.217  0.1475  0.2314  0.1023
  539MPD2    H5 8060   4.168   0.479  11.278  2.1160 -2.5203 -0.6401
  539MPD2    N1 8061   4.226   4.716  11.346 -0.5478  0.3734 -0.6557
  539MPD2    H7 8062   4.215   4.623  11.308  1.2461  0.3118 -1.0201
  540TMC3    C1 8063   4.063   0.669  11.145  0.4390 -0.0390 -0.4845
  540TMC3    C2 8064   4.033   0.731  11.030 -0.8588 -0.0111  0.3454
  540TMC3    C3 8065   3.931   0.817  11.027 -0.3370 -0.1169 -0.1354
  540TMC3    C4 8066   4.007   0.700  11.266  0.7587 -0.7053  0.8295
  540TMC3    C5 8067   3.924   0.805  11.263 -0.3758 -0.0700 -0.1908
  540TMC3    C6 8068   3.881   0.864  11.148  0.7943  0.1859  0.8771
  540TMC3     C 8069   4.054   0.527  11.123  0.3016  0.4994  0.3346
  540TMC3     O 8070   4.005   0.505  11.012  0.4808 -0.3267  0.9113
  540TMC3     H 8071   4.077   0.695  10.937  0.7826 -2.2252  1.9712
  540TMC3    H1 8072   4.030   0.650  11.360  0.1170  1.4659  2.1405
  540TMC3    H2 8073   3.788   0.920  11.152  0.2401 -0.6356 -0.8427
  540TMC3    C7 8074   3.863   0.833  11.390 -0.5017  0.1813 -0.9460
  540TMC3    C8 8075   3.836   0.800  10.915 -0.5967  0.3583 -0.0199
  540TMC3    O1 8076   3.889   0.752  11.480 -0.0295 -0.0892 -0.3436
  540TMC3    O2 8077   3.730   0.867  10.916 -0.5261  0.1984 -0.5768
  541MPD2     C 8078   1.830   2.059  13.443  0.5027  0.3602 -0.1064
  541MPD2    C1 8079   1.922   1.981  13.370  0.1291 -0.7404  0.7039
  541MPD2    C2 8080   1.988   2.034  13.261  0.2893  0.6190  0.0678
  541MPD2    C3 8081   1.966   2.165  13.222  0.1402 -0.3623 -0.3859
  541MPD2    C4 8082   1.869   2.237  13.284 -0.0953  0.0952  0.1966
  541MPD2    C5 8083   1.813   2.188  13.404 -0.3817 -0.2856 -0.3844
  541MPD2     H 8084   2.068   1.974  13.219 -1.1392 -0.0455 -1.6676
  541MPD2    H1 8085   1.846   2.339  13.257 -0.6715 -0.4582 -1.3989
  541MPD2    H2 8086   1.787   2.018  13.533 -0.8912 -0.1718 -1.0032
  541MPD2    H3 8087   1.750   2.245  13.470 -0.1262 -1.7373  1.1083
  541MPD2     N 8088   2.040   2.223  13.109  0.2592 -0.3015 -0.6494
  541MPD2    H5 8089   2.017   2.318  13.083  1.4747 -0.0723 -0.8707
  541MPD2    N1 8090   1.932   1.849  13.418 -0.1187 -0.2601 -0.2091
  541MPD2    H7 8091   1.884   1.844  13.507  1.6740 -0.3249  0.7574
  542TMC3    C1 8092   2.200   2.252  12.938 -0.2918  0.5137 -0.2392
  542TMC3    C2 8093   2.250   2.180  12.834 -0.7306  0.0457 -0.9635
  542TMC3    C3 8094   2.261   2.252  12.716 -0.2606 -0.6639 -0.2001
  542TMC3    C4 8095   2.165   2.384  12.933  0.1975 -0.4292  0.0330
  542TMC3    C5 8096   2.194   2.454  12.820  0.2406 -0.7458  0.4016
  542TMC3    C6 8097   2.238   2.386  12.707  0.4862 -0.4207 -0.6562
  542TMC3     C 8098   2.135   2.160  13.040  0.0791 -0.1148 -0.0475
  542TMC3     O 8099   2.164   2.040  13.031  0.3747 -0.0694  0.2452
  542TMC3     H 8100   2.254   2.072  12.828  1.5425  0.0410  0.5162
  542TMC3    H1 8101   2.124   2.424  13.025  2.9043  0.4868  0.8525
  542TMC3    H2 8102   2.265   2.437  12.615  0.1235  1.2104  0.1318
  542TMC3    C7 8103   2.200   2.596  12.822  0.1726 -0.0310  0.0673
  542TMC3    C8 8104   2.282   2.182  12.590  0.0887 -0.9490  0.3259
  542TMC3    O1 8105   2.212   2.667  12.722 -0.4334  0.0102 -0.1122
  542TMC3    O2 8106   2.236   2.231  12.487  0.4069  0.3017 -0.0878
  543TMC3    C1 8107   2.296   3.353  17.479 -0.1494 -0.0877  0.7329
  543TMC3    C2 8108   2.317   3.236  17.540  0.2862  0.0739 -0.0545
  543TMC3    C3 8109   2.265   3.209  17.655 -0.1056 -0.3139  0.5833
  543TMC3    C4 8110   2.207   3.444  17.528 -0.0619 -0.3458  0.1220
  543TMC3    C5 8111   2.147   3.413  17.643  0.1732 -0.4736  0.1486
  543TMC3    C6 8112   2.176   3.294  17.710  0.2215  0.1108 -0.1979
  543TMC3     C 8113   2.330   3.356  17.339 -0.5018 -1.2121 -1.0919
  543TMC3     O 8114   2.432   3.293  17.319  0.3495  0.1777 -0.3413
  543TMC3     H 8115   2.372   3.157  17.491  0.4502  0.0422  0.1815
  543TMC3    H1 8116   2.180   3.527  17.463 -0.3543  0.4596  1.2744
  543TMC3    H2 8117   2.136   3.275   0.067  1.1525 -1.1393 -0.0641
  543TMC3    C7 8118   2.039   3.495  17.700 -0.1574  0.3085 -0.1804
  543TMC3    C8 8119   2.282   3.078  17.722 -0.4289 -0.4518  0.0399
  543TMC3    O1 8120   1.974   3.438   0.048 -0.3288  0.1793 -0.2507
  543TMC3    O2 8121   2.261   3.088   0.100 -0.3875 -0.2137 -0.1971
  544MPD2     C 8122   2.273   2.575  17.726 -0.4289  0.2511 -0.1653
  544MPD2    C1 8123   2.232   2.623  17.605 -0.4967  0.2605 -0.4007
  544MPD2    C2 8124   2.227   2.758  17.582 -0.1844  0.4099 -0.2859
  544MPD2    C3 8125   2.259   2.843  17.680 -0.1579  0.3732  0.0087
  544MPD2    C4 8126   2.300   2.793   0.062 -0.1055 -0.8292 -0.2793
  544MPD2    C5 8127   2.310   2.661   0.082 -0.2336  0.2744  0.5293
  544MPD2     H 8128   2.191   2.799  17.489  2.5281 -1.5704 -2.2028
  544MPD2    H1 8129   2.323   2.860   0.144  0.4348 -2.2309  0.7129
  544MPD2    H2 8130   2.269   2.474   0.023 -0.9802  0.9095  1.5266
  544MPD2    H3 8131   2.356   2.616   0.170  1.5399  1.5483  0.2458
  544MPD2     N 8132   2.272   2.975  17.638  0.0962  0.4783  0.2743
  544MPD2    H5 8133   2.258   2.998  17.540 -0.6393 -1.2053 -0.0228
  544MPD2    N1 8134   2.179   2.537  17.514  0.0623  0.8159  0.4081
  544MPD2    H7 8135   2.171   2.440  17.542 -3.1399  1.2588  1.0757
  545TMC3    C1 8136   2.113   2.448  17.308 -0.2208  0.1360  0.4305
  545TMC3    C2 8137   2.077   2.481  17.181  0.5673 -1.2957  0.8675
  545TMC3    C3 8138   2.074   2.385  17.088 -0.2217 -0.3140 -0.2224
  545TMC3    C4 8139   2.155   2.318  17.337 -0.3675  0.6186  0.3691
  545TMC3    C5 8140   2.158   2.227  17.232  0.1574  0.1149  0.5110
  545TMC3    C6 8141   2.107   2.253  17.111  0.0929 -0.6723  0.4429
  545TMC3     C 8142   2.160   2.567  17.380 -1.1487  0.2597 -0.0705
  545TMC3     O 8143   2.192   2.666  17.314  0.3626 -0.3384  0.0703
  545TMC3     H 8144   2.025   2.574  17.160  0.8792 -1.3634 -0.2311
  545TMC3    H1 8145   2.189   2.287  17.435  1.9240  0.3317 -0.5308
  545TMC3    H2 8146   2.096   2.176  17.036  4.3257  1.1283 -2.0257
  545TMC3    C7 8147   2.174   2.087  17.264 -0.3620 -0.0944 -0.3658
  545TMC3    C8 8148   1.995   2.398  16.968 -0.2827 -0.2782  0.6197
  545TMC3    O1 8149   2.094   2.011  17.211  0.6431  0.2460 -0.7375
  545TMC3    O2 8150   1.953   2.297  16.911 -0.2093 -0.3837  0.8425
  546MPD2     C 8151   3.829   2.907  17.652 -0.5746 -0.1168  0.6248
  546MPD2    C1 8152   3.760   2.966  17.551 -0.0126  0.8613 -0.6654
  546MPD2    C2 8153   3.812   3.084  17.498 -0.3741  0.5465 -0.1599
  546MPD2    C3 8154   3.919   3.146  17.558  0.3863  0.0069 -0.1702
  546MPD2    C4 8155   3.986   3.085  17.661  0.5963 -0.1972 -0.3139
  546MPD2    C5 8156   3.941   2.970  17.705 -0.2562 -0.5024  0.6509
  546MPD2     H 8157   3.756   3.150  17.433 -0.7062  0.8331  0.4130
  546MPD2    H1 8158   4.069   3.136  17.710  1.4924  0.4322 -2.4625
  546MPD2    H2 8159   3.799   2.812  17.695  1.5690 -0.4724  1.2987
  546MPD2    H3 8160   4.007   2.913   0.028  0.5119 -0.9051 -0.4804
  546MPD2     N 8161   3.961   3.275  17.520 -1.3049  0.7483 -0.2806
  546MPD2    H5 8162   4.033   3.317  17.579 -0.4133 -0.3496 -0.5908
  546MPD2    N1 8163   3.636   2.913  17.511 -0.7345  0.2649  0.2865
  546MPD2    H7 8164   3.598   2.833  17.560 -0.9899 -0.3325 -0.8803
  547TMC3    C1 8165   3.442   2.890  17.382  0.4025 -0.2643  0.3916
  547TMC3    C2 8166   3.376   2.899  17.257  0.2921 -0.5887 -0.4963
  547TMC3    C3 8167   3.260   2.828  17.240  0.7431  0.0278 -0.2018
  547TMC3    C4 8168   3.385   2.818  17.478 -0.3394  0.0185  0.5268
  547TMC3    C5 8169   3.274   2.744  17.452  0.1539 -0.3068  0.4519
  547TMC3    C6 8170   3.213   2.738  17.333  0.2519 -0.2728 -0.2232
  547TMC3     C 8171   3.570   2.950  17.395  0.1694  0.1467  0.0605
  547TMC3     O 8172   3.612   3.011  17.297  0.5294 -0.1574  0.2862
  547TMC3     H 8173   3.408   2.964  17.176  1.7980 -0.0993  0.5051
  547TMC3    H1 8174   3.424   2.808  17.579  0.0095 -2.5306  0.1488
  547TMC3    H2 8175   3.122   2.683  17.314  0.2319  0.2293 -1.6205
  547TMC3    C7 8176   3.212   2.672  17.565  0.7283  0.0626  0.1249
  547TMC3    C8 8177   3.198   2.831  17.114 -0.0002  0.1829  0.4514
  547TMC3    O1 8178   3.231   2.710  17.680  0.0609 -0.3445 -0.3536
  547TMC3    O2 8179   3.170   2.941  17.065 -0.6519 -0.8562  0.1580
  548MPD2     C 8180   3.108   3.916  13.009 -0.0766 -0.0798  1.0099
  548MPD2    C1 8181   3.100   3.844  12.889  0.2653  0.1784 -0.7828
  548MPD2    C2 8182   3.179   3.732  12.871  0.0686 -0.3482  0.8941
  548MPD2    C3 8183   3.243   3.671  12.977  0.0571  0.4305 -0.6448
  548MPD2    C4 8184   3.238   3.740  13.102 -0.5509  0.0256 -0.6998
  548MPD2    C5 8185   3.177   3.861  13.112  0.3735 -0.9531  0.6717
  548MPD2     H 8186   3.190   3.678  12.777  0.2344  2.2614 -0.5868
  548MPD2    H1 8187   3.287   3.712  13.195 -2.3508  3.0396  1.1355
  548MPD2    H2 8188   3.052   4.009  13.019  0.4153  0.3699 -0.5905
  548MPD2    H3 8189   3.183   3.918  13.204  0.9936  0.8476 -0.4891
  548MPD2     N 8190   3.306   3.548  12.955  0.3432 -0.4873 -0.2500
  548MPD2    H5 8191   3.304   3.509  12.861 -1.2512  0.9244 -0.8089
  548MPD2    N1 8192   3.004   3.883  12.796  0.3118 -0.5043 -0.4323
  548MPD2    H7 8193   2.935   3.954  12.819 -0.3432 -1.2940  0.0494
  549TMC3    C1 8194   2.849   3.857  12.632 -0.7048  0.3725  0.4020
  549TMC3    C2 8195   2.818   3.987  12.608 -0.1169 -0.4461 -0.2057
  549TMC3    C3 8196   2.693   4.006  12.556 -0.2803 -0.3271  0.1274
  549TMC3    C4 8197   2.745   3.766  12.637  0.3208  0.3109  0.2845
  549TMC3    C5 8198   2.614   3.794  12.613  0.1496  0.2569  0.6666
  549TMC3    C6 8199   2.595   3.911  12.546 -0.3055 -0.8889  0.4556
  549TMC3     C 8200   2.975   3.816  12.685 -0.3866 -0.7515 -0.4369
  549TMC3     O 8201   3.018   3.714  12.636  0.6803  0.1061 -0.5025
  549TMC3     H 8202   2.894   4.064  12.613  0.2851 -0.8363 -0.3401
  549TMC3    H1 8203   2.767   3.661  12.653 -2.1429 -0.4261 -1.1080
  549TMC3    H2 8204   2.493   3.935  12.517  0.1755  0.0998 -0.4249
  549TMC3    C7 8205   2.502   3.693  12.623  0.7249  0.5037 -0.3530
  549TMC3    C8 8206   2.651   4.136  12.518  0.0886 -0.3171 -1.1084
  549TMC3    O1 8207   2.397   3.733  12.580  1.0192  0.3895  0.4724
  549TMC3    O2 8208   2.552   4.128  12.445 -0.4373 -0.0437  0.1492
  550TMC3    C1 8209   1.997   1.857  12.729 -0.3701  0.0337 -0.0645
  550TMC3    C2 8210   1.929   1.955  12.797  0.4788 -0.1847 -0.3559
  550TMC3    C3 8211   1.882   2.058  12.718 -0.0272 -0.2728 -0.0930
  550TMC3    C4 8212   2.029   1.858  12.592  0.8386 -0.1459  0.9024
  550TMC3    C5 8213   1.971   1.963  12.521 -0.3423  0.2391  0.3089
  550TMC3    C6 8214   1.892   2.056  12.584 -0.4433 -0.4143 -0.1033
  550TMC3     C 8215   1.969   1.725  12.772 -0.1364 -0.7300 -0.4620
  550TMC3     O 8216   1.930   1.707  12.887  0.0085 -0.1901  0.1351
  550TMC3     H 8217   1.933   1.960  12.905  0.0971 -1.1345 -0.2989
  550TMC3    H1 8218   2.117   1.809  12.552  1.2122  0.7862  0.5930
  550TMC3    H2 8219   1.859   2.139  12.522  2.1978  0.5147 -0.2830
  550TMC3    C7 8220   1.971   1.934  12.376  0.2539 -0.1782 -0.6720
  550TMC3    C8 8221   1.780   2.152  12.768 -0.0187  0.1697 -0.3822
  550TMC3    O1 8222   1.997   1.819  12.345 -0.3819  0.0070  0.4165
  550TMC3    O2 8223   1.752   2.245  12.694  0.2739 -0.0577 -0.1998
  551TMC3    C1 8224   4.355   4.447  13.372 -0.2452 -0.1029 -0.6008
  551TMC3    C2 8225   4.471   4.380  13.354 -0.3100  0.6263  0.7689
  551TMC3    C3 8226   4.585   4.427  13.414  0.2213 -0.1010 -0.4950
  551TMC3    C4 8227   4.341   4.537  13.477 -0.3433 -0.0129  0.0291
  551TMC3    C5 8228   4.458   4.572  13.537 -0.0110  0.1106  0.1772
  551TMC3    C6 8229   4.583   4.525  13.511 -0.0666 -0.1255 -1.2408
  551TMC3     C 8230   4.241   4.408  13.293 -0.4360 -0.1298 -0.4881
  551TMC3     O 8231   4.261   4.321  13.210  0.1102 -0.3068 -0.2675
  551TMC3     H 8232   4.476   4.306  13.274  0.3292  1.2562  0.2248
  551TMC3    H1 8233   4.254   4.598  13.497 -0.9021 -0.1560 -1.9732
  551TMC3    H2 8234   4.667   4.551  13.574 -0.8039  3.6238 -1.7979
  551TMC3    C7 8235   4.452   4.621  13.674  0.0433 -0.1266 -0.2273
  551TMC3    C8 8236   4.709   4.410  13.345 -0.1236  0.5846  0.2445
  551TMC3    O1 8237   4.527   4.567  13.756 -0.4614  0.1194 -0.2355
  551TMC3    O2 8238   4.723   4.312  13.272 -0.4474  0.1553  0.4288
  552MPD2     C 8239   1.544   1.892  14.228 -0.9317  0.4126 -0.0933
  552MPD2    C1 8240   1.477   1.785  14.280 -0.2744  0.6832  0.1277
  552MPD2    C2 8241   1.510   1.738  14.406  0.3669  0.3923  0.0506
  552MPD2    C3 8242   1.611   1.793  14.479  0.2490 -0.0798 -0.0080
  552MPD2    C4 8243   1.676   1.902  14.428 -0.2389 -0.5236  0.8638
  552MPD2    C5 8244   1.644   1.946  14.304 -0.0491  0.4316  0.0842
  552MPD2     H 8245   1.463   1.650  14.448  0.5135  0.5820  0.6073
  552MPD2    H1 8246   1.747   1.957  14.487  1.8252 -1.5101 -0.7058
  552MPD2    H2 8247   1.523   1.939  14.132  0.9096  1.5004  0.0458
  552MPD2    H3 8248   1.700   2.024  14.253 -0.4590 -0.6726 -2.0625
  552MPD2     N 8249   1.663   1.746  14.598  0.6073 -1.0249 -0.0328
  552MPD2    H5 8250   1.747   1.789  14.636 -0.7464  1.9582 -0.3953
  552MPD2    N1 8251   1.373   1.712  14.213 -0.1728  0.7602  0.2194
  552MPD2    H7 8252   1.312   1.646  14.260 -2.1045  1.6721 -1.0039
  553TMC3    C1 8253   1.233   1.651  14.039 -1.0337 -0.3092  0.4458
  553TMC3    C2 8254   1.208   1.666  13.908  0.0860  0.1160 -0.4076
  553TMC3    C3 8255   1.150   1.559  13.845 -0.1399 -0.2849 -0.0699
  553TMC3    C4 8256   1.192   1.545  14.117  0.6974 -0.5609  0.1934
  553TMC3    C5 8257   1.123   1.445  14.053 -0.1240 -0.0404 -0.2425
  553TMC3    C6 8258   1.093   1.451  13.916  0.3079  0.1926 -0.2374
  553TMC3     C 8259   1.355   1.728  14.077  0.5607 -0.4772 -0.2133
  553TMC3     O 8260   1.406   1.800  13.990 -0.0460 -0.0727  0.3720
  553TMC3     H 8261   1.244   1.744  13.842  1.4209 -0.0357  0.1543
  553TMC3    H1 8262   1.215   1.532  14.222 -2.4147 -0.2449  0.9076
  553TMC3    H2 8263   1.047   1.365  13.869 -2.1900  0.0157  2.5320
  553TMC3    C7 8264   1.146   1.313  14.111  0.3645 -0.3945  0.0006
  553TMC3    C8 8265   1.170   1.537  13.707  0.0080  0.1406 -0.6595
  553TMC3    O1 8266   1.050   1.236  14.111 -0.0473 -0.0672  0.0225
  553TMC3    O2 8267   1.206   1.632  13.639  0.6322 -0.5484  0.2737
  554TMC3    C1 8268   3.002   0.399  11.382  0.1944 -0.5342  0.0251
  554TMC3    C2 8269   2.978   0.373  11.250  0.7505  0.4231  0.3877
  554TMC3    C3 8270   3.047   0.459  11.171 -0.1200  0.9867  0.5601
  554TMC3    C4 8271   3.074   0.505  11.436 -0.0912  0.0796  0.1759
  554TMC3    C5 8272   3.144   0.591  11.351  0.6828 -0.2370 -0.3059
  554TMC3    C6 8273   3.131   0.561  11.216 -0.4917  0.0470 -1.0855
  554TMC3     C 8274   2.951   0.306  11.482 -1.2229 -0.3409  0.2105
  554TMC3     O 8275   2.855   0.246  11.441  0.0055  0.6164  0.7763
  554TMC3     H 8276   2.926   0.285  11.213  2.3994  0.3430 -1.7375
  554TMC3    H1 8277   3.079   0.522  11.543 -0.7041 -0.4364  0.2893
  554TMC3    H2 8278   3.180   0.619  11.140  0.1360  0.2604 -0.5147
  554TMC3    C7 8279   3.201   0.710  11.407 -0.4374  0.1759 -0.1885
  554TMC3    C8 8280   3.034   0.441  11.023  0.4684 -0.0077 -0.1054
  554TMC3    O1 8281   3.153   0.745  11.513 -0.1471 -0.5863  0.1530
  554TMC3    O2 8282   3.135   0.483  10.963  0.8300 -0.2499  0.4529
  555TMC3    C1 8283   2.326   0.255  15.748 -0.8893 -0.0924  0.4959
  555TMC3    C2 8284   2.281   0.348  15.838 -1.0338  0.0935  0.1985
  555TMC3    C3 8285   2.255   0.314  15.967 -0.1307  0.4422  0.3795
  555TMC3    C4 8286   2.339   0.129  15.798 -0.2365  0.2515  0.0236
  555TMC3    C5 8287   2.303   0.098  15.928  0.3719 -0.4786 -0.4738
  555TMC3    C6 8288   2.252   0.190  16.015  0.2900 -0.1398 -0.1105
  555TMC3     C 8289   2.366   0.287  15.610  0.6958  0.0036  0.8137
  555TMC3     O 8290   2.453   0.226  15.557  0.6920 -0.4045  0.3573
  555TMC3     H 8291   2.271   0.455  15.819 -1.4554 -0.1576 -0.9862
  555TMC3    H1 8292   2.367   0.057  15.722  0.6392 -2.6825  3.1847
  555TMC3    H2 8293   2.226   0.165  16.117  2.1599 -0.8620  0.1824
  555TMC3    C7 8294   2.291   4.688  15.955 -0.3810  0.8432 -0.3148
  555TMC3    C8 8295   2.259   0.416  16.079 -0.1675 -0.1319  0.7761
  555TMC3    O1 8296   2.305   4.612  15.860 -0.6799 -0.2750  0.3102
  555TMC3    O2 8297   2.230   0.527  16.041 -0.0231  0.7778 -0.5590
  556MPD2     C 8298   0.598   2.141  10.366  0.0577  0.6980  0.1858
  556MPD2    C1 8299   0.646   2.051  10.469 -0.4177  0.1174  0.2733
  556MPD2    C2 8300   0.657   1.914  10.446  0.0043  0.0865 -0.4659
  556MPD2    C3 8301   0.647   1.866  10.313  0.7936  0.5442  0.5979
  556MPD2    C4 8302   0.615   1.960  10.216  0.4477 -0.5583  0.3001
  556MPD2    C5 8303   0.594   2.096  10.238 -0.4088 -0.3402  0.1877
  556MPD2     H 8304   0.661   1.840  10.525  0.2813 -0.6057 -1.1254
  556MPD2    H1 8305   0.612   1.933  10.111  1.3930 -2.3040  0.7281
  556MPD2    H2 8306   0.584   2.245  10.393  2.2532  0.6667  1.4690
  556MPD2    H3 8307   0.566   2.162  10.157  0.9428 -0.2976 -0.2506
  556MPD2     N 8308   0.666   1.726  10.286  0.2333  0.0843  0.0678
  556MPD2    H5 8309   0.703   1.666  10.359 -1.7761 -2.6802 -1.1751
  556MPD2    N1 8310   0.667   2.097  10.605  0.0936  0.8366 -0.1549
  556MPD2    H7 8311   0.687   2.032  10.680 -0.8245  0.8649  0.1187
  557TMC3    C1 8312   0.691   1.527  10.146  0.2534  0.4456 -0.1614
  557TMC3    C2 8313   0.657   1.459  10.033 -0.3540  0.3282  0.0325
  557TMC3    C3 8314   0.668   1.323  10.034  0.5663 -0.6792  0.7978
  557TMC3    C4 8315   0.751   1.460  10.249  0.3128 -0.2642  0.1415
  557TMC3    C5 8316   0.757   1.323  10.253 -0.6296  0.3112 -0.0771
  557TMC3    C6 8317   0.709   1.257  10.144  0.7220  0.4023  0.2634
  557TMC3     C 8318   0.643   1.662  10.166 -0.0225  0.3991 -0.1426
  557TMC3     O 8319   0.577   1.702  10.066  0.4452  0.2802  0.0229
  557TMC3     H 8320   0.614   1.509   9.947  0.7334 -0.1461 -0.7827
  557TMC3    H1 8321   0.790   1.514  10.334  1.3829 -0.3087 -0.3111
  557TMC3    H2 8322   0.691   1.150  10.157 -0.2960  0.5732  0.2883
  557TMC3    C7 8323   0.721   1.274  10.385  0.2250  0.2419  0.2595
  557TMC3    C8 8324   0.608   1.251   9.917 -0.0048 -0.4285  0.2500
  557TMC3    O1 8325   0.722   1.352  10.475  0.0372  0.5348  0.2946
  557TMC3    O2 8326   0.600   1.323   9.817  0.1358 -0.0764 -0.0696
  558TMC3    C1 8327   2.921   4.337  10.308  0.0860 -0.7767  0.0284
  558TMC3    C2 8328   2.795   4.336  10.348 -0.3017  0.3611 -0.0470
  558TMC3    C3 8329   2.702   4.369  10.254  1.0091 -0.3886  0.6828
  558TMC3    C4 8330   2.942   4.348  10.176  0.9113 -0.1193 -0.6066
  558TMC3    C5 8331   2.844   4.354  10.080  0.7807  0.0050  0.5730
  558TMC3    C6 8332   2.715   4.369  10.122 -0.5730  0.3906 -1.6844
  558TMC3     C 8333   3.015   4.250  10.374 -0.1208 -0.6615  0.8780
  558TMC3     O 8334   3.086   4.184  10.304 -0.0419  0.1380  0.3683
  558TMC3     H 8335   2.775   4.326  10.454  1.2726 -3.7041 -0.1584
  558TMC3    H1 8336   3.043   4.338  10.139  0.6405  3.6120 -2.2727
  558TMC3    H2 8337   2.625   4.386  10.063 -1.6730 -2.2676 -0.7979
  558TMC3    C7 8338   2.875   4.360   9.941 -0.2004 -0.5509  0.1777
  558TMC3    C8 8339   2.563   4.360  10.304 -0.3888 -0.0679  0.6148
  558TMC3    O1 8340   2.996   4.371   9.921 -0.1920  0.0361 -0.3145
  558TMC3    O2 8341   2.476   4.318  10.230  0.4475  0.2725  0.0631
  559MPD2     C 8342   2.880   4.705  10.052 -0.3093  0.3777  0.2285
  559MPD2    C1 8343   2.828   4.735  10.178  0.3196 -0.3304  0.8012
  559MPD2    C2 8344   2.914   0.006  10.280  0.9022 -0.2381  0.5374
  559MPD2    C3 8345   3.051   4.709  10.262 -0.0066 -0.7634  0.0475
  559MPD2    C4 8346   3.102   4.685  10.135  1.0769  0.6541  0.4810
  559MPD2    C5 8347   3.019   4.690  10.035  0.2409 -0.4248 -0.4770
  559MPD2     H 8348   2.886   0.031  10.381 -1.0423 -1.1690  0.2281
  559MPD2    H1 8349   3.206   4.671  10.107  0.5302 -2.7178  0.1590
  559MPD2    H2 8350   2.808   4.707   9.971  0.2737 -1.2952 -0.3393
  559MPD2    H3 8351   3.059   4.685   9.934  0.7951  0.2990 -0.2957
  559MPD2     N 8352   3.126   4.697  10.382  0.1179 -0.1323  0.1979
  559MPD2    H5 8353   3.076   4.712  10.469 -0.3988 -1.4423  0.1321
  559MPD2    N1 8354   2.689   0.039  10.191  0.1734  0.0450  0.7907
  559MPD2    H7 8355   2.640   0.027  10.104 -1.2359  0.5298  1.5220
  560TMC3    C1 8356   3.314   4.642  10.515  0.1144 -0.2784  0.4274
  560TMC3    C2 8357   3.235   4.582  10.607  0.6012 -0.0380 -0.0662
  560TMC3    C3 8358   3.277   4.563  10.732 -0.6640 -0.6614  0.3199
  560TMC3    C4 8359   3.450   4.666  10.539  0.5564  0.2587  0.3759
  560TMC3    C5 8360   3.495   4.638  10.668  0.1553 -0.3211 -0.6056
  560TMC3    C6 8361   3.410   4.588  10.767  0.9420  0.7890 -0.7328
  560TMC3     C 8362   3.262   4.665  10.380  0.1734  0.2037  0.2167
  560TMC3     O 8363   3.345   4.660  10.285 -0.2769  0.0949 -0.2741
  560TMC3     H 8364   3.135   4.555  10.576  1.1628 -0.5570 -1.4404
  560TMC3    H1 8365   3.521   4.705  10.467 -1.6171  1.7171 -0.9524
  560TMC3    H2 8366   3.442   4.578  10.870 -0.5275 -1.1904 -0.4719
  560TMC3    C7 8367   3.633   4.662  10.709  0.0931  0.0449  0.2903
  560TMC3    C8 8368   3.177   4.503  10.823 -0.1177 -0.3497 -0.4176
  560TMC3    O1 8369   3.689   0.006  10.639 -0.4993  0.6648 -0.4522
  560TMC3    O2 8370   3.062   4.519  10.790 -0.0258  0.2573 -0.2692
  561TMC3    C1 8371   1.132   4.037  11.109  1.1357  0.8093  0.0030
  561TMC3    C2 8372   1.136   3.985  11.237 -0.5253 -0.1415  0.3507
  561TMC3    C3 8373   1.109   4.067  11.343 -0.2479  0.3452 -0.2890
  561TMC3    C4 8374   1.128   4.176  11.092  0.1297 -0.2172 -0.0610
  561TMC3    C5 8375   1.120   4.255  11.207 -0.3148  0.4381 -0.1662
  561TMC3    C6 8376   1.103   4.205  11.332  0.7006  0.0549 -0.3527
  561TMC3     C 8377   1.143   3.946  11.002 -0.2542 -0.2479 -0.3317
  561TMC3     O 8378   1.171   3.830  11.025 -0.0137  0.4136 -0.0656
  561TMC3     H 8379   1.150   3.878  11.247  1.4941  0.1267  0.5698
  561TMC3    H1 8380   1.133   4.224  10.995  0.5175  0.6192  0.3746
  561TMC3    H2 8381   1.082   4.265  11.420 -1.2248 -0.3042 -0.5582
  561TMC3    C7 8382   1.109   4.397  11.191  0.2452  0.6032 -0.1665
  561TMC3    C8 8383   1.073   3.999  11.465 -0.0342  0.5215  0.4175
  561TMC3    O1 8384   1.111   4.459  11.299 -0.5663  0.4100  0.2925
  561TMC3    O2 8385   1.111   3.883  11.478  0.2222  0.1788  0.4798
  562TMC3    C1 8386   2.070   0.978  16.830 -0.9001 -0.7694 -0.5335
  562TMC3    C2 8387   2.006   1.094  16.787  0.1416 -0.3137 -0.3739
  562TMC3    C3 8388   1.905   1.088  16.690  0.6590  0.8946 -0.2381
  562TMC3    C4 8389   2.042   0.849  16.781 -0.4665  0.4960 -0.2007
  562TMC3    C5 8390   1.955   0.844  16.675  0.0085  0.0073  0.3075
  562TMC3    C6 8391   1.889   0.960  16.635  0.5249  0.2516 -0.2230
  562TMC3     C 8392   2.095   0.981  16.968 -0.1260  0.2618 -0.0634
  562TMC3     O 8393   2.140   1.088  17.006 -0.3127 -0.4215  0.8010
  562TMC3     H 8394   2.036   1.187  16.835  1.1866  0.2496 -2.0954
  562TMC3    H1 8395   2.089   0.758  16.816 -1.3798 -0.5752 -1.7568
  562TMC3    H2 8396   1.837   0.956  16.540 -0.2444 -1.9811  0.3078
  562TMC3    C7 8397   1.933   0.724  16.593 -0.2152 -0.6295 -0.2008
  562TMC3    C8 8398   1.910   1.200  16.587  0.2343 -0.5063  0.1227
  562TMC3    O1 8399   1.871   0.739  16.486 -0.2821 -0.1347  0.6650
  562TMC3    O2 8400   2.010   1.274  16.596  0.0998 -0.2736 -0.4614
  563MPD2     C 8401   4.674   1.571  15.517 -0.6019 -0.1742  0.0681
  563MPD2    C1 8402   4.682   1.576  15.654 -0.5374 -0.0669 -0.4612
  563MPD2    C2 8403   0.071   1.590  15.713 -0.2235  0.3539 -0.4925
  563MPD2    C3 8404   0.185   1.603  15.643  0.2716  0.1469  0.3433
  563MPD2    C4 8405   0.177   1.599  15.503 -0.3949 -0.0978 -0.0682
  563MPD2    C5 8406   0.057   1.583  15.443 -0.2384  0.2107  0.1973
  563MPD2     H 8407   0.085   1.602  15.820  0.8966  1.7107 -0.7972
  563MPD2    H1 8408   0.262   1.626  15.441 -1.6898  0.6253 -1.5025
  563MPD2    H2 8409   4.582   1.548  15.465 -0.0648 -2.7281  0.2007
  563MPD2    H3 8410   0.053   1.579  15.334  1.3221 -0.1487  0.1589
  563MPD2     N 8411   0.304   1.630  15.716  0.0483  0.7444  0.3712
  563MPD2    H5 8412   0.308   1.605  15.814 -1.7454  2.3786  0.8701
  563MPD2    N1 8413   4.561   1.573  15.725  0.1659  0.1107  0.5205
  563MPD2    H7 8414   4.484   1.583  15.660  1.0818  1.2018 -0.4097
  564TMC3    C1 8415   4.412   1.594  15.910  0.6252  0.0287 -0.2688
  564TMC3    C2 8416   4.325   1.493  15.876 -0.0834 -0.7548 -0.3783
  564TMC3    C3 8417   4.237   1.454  15.976  0.1413 -0.6851 -0.2874
  564TMC3    C4 8418   4.416   1.643  16.039  0.0225 -0.1423 -0.7620
  564TMC3    C5 8419   4.333   1.593  16.137  0.0419  0.2596  0.5114
  564TMC3    C6 8420   4.238   1.498  16.106 -0.2422  0.6949 -0.1008
  564TMC3     C 8421   4.548   1.569  15.863  0.1097 -0.1775  0.2049
  564TMC3     O 8422   4.630   1.570  15.955  0.7163 -0.2715  0.0343
  564TMC3     H 8423   4.341   1.435  15.786 -1.2340  0.0421 -1.0979
  564TMC3    H1 8424   4.483   1.726  16.054  0.5406 -0.3939 -1.7079
  564TMC3    H2 8425   4.163   1.462  16.174  0.6191 -0.4404  0.2341
  564TMC3    C7 8426   4.422   1.547  16.250 -0.4001 -0.4530  0.5040
  564TMC3    C8 8427   4.179   1.327  15.959 -0.0894 -0.6637  0.2200
  564TMC3    O1 8428   4.514   1.614  16.296 -0.4122  0.2309 -0.2040
  564TMC3    O2 8429   4.189   1.249  16.056 -0.5068 -0.0776 -0.2869
  565TMC3    C1 8430   0.376   3.153  10.149 -0.2706 -0.6828  0.0521
  565TMC3    C2 8431   0.356   3.051  10.240  1.2602  1.3406 -0.3202
  565TMC3    C3 8432   0.338   2.925  10.194  0.4516  0.7285  0.4195
  565TMC3    C4 8433   0.366   3.128  10.009  0.0549  0.7334  0.1910
  565TMC3    C5 8434   0.345   3.004   9.969  0.1969  0.1771  0.0846
  565TMC3    C6 8435   0.339   2.897  10.058  0.0582  0.0961 -0.4209
  565TMC3     C 8436   0.406   3.290  10.183  0.3588 -0.7451  0.4837
  565TMC3     O 8437   0.423   3.373  10.093 -0.3542 -0.0211  0.4520
  565TMC3     H 8438   0.348   3.077  10.345 -0.9739 -1.9264  0.3067
  565TMC3    H1 8439   0.383   3.199   9.928 -1.9186  0.8162 -0.1657
  565TMC3    H2 8440   0.297   2.800  10.034 -1.6873  0.2636  1.9936
  565TMC3    C7 8441   0.362   2.980   9.819  0.1267 -0.1557  0.3863
  565TMC3    C8 8442   0.295   2.828  10.292 -0.4478 -0.2239 -0.0625
  565TMC3    O1 8443   0.342   3.064   9.734 -0.0690 -0.3345  0.4092
  565TMC3    O2 8444   0.289   2.864  10.409  0.9644 -0.3477  0.0451
  566MPD2     C 8445   2.091   3.765  14.401 -0.3501  0.1763 -0.6399
  566MPD2    C1 8446   2.086   3.905  14.418  0.0283  0.0590  0.3415
  566MPD2    C2 8447   1.976   3.969  14.364 -0.3482  0.0769  0.3827
  566MPD2    C3 8448   1.865   3.901  14.330  0.0830 -0.2821  0.1279
  566MPD2    C4 8449   1.867   3.769  14.313  0.0512  0.3002  0.2137
  566MPD2    C5 8450   1.982   3.700  14.347  0.3925  0.4917 -0.3682
  566MPD2     H 8451   1.964   4.076  14.374  0.2116  0.1839 -0.1044
  566MPD2    H1 8452   1.782   3.710  14.279 -0.5763  1.6744 -0.5943
  566MPD2    H2 8453   2.178   3.705  14.425 -1.0309 -0.1885  0.9072
  566MPD2    H3 8454   1.989   3.595  14.323  1.3663  0.7197 -1.0913
  566MPD2     N 8455   1.754   3.980  14.286  1.1010 -0.3522  0.0870
  566MPD2    H5 8456   1.774   4.080  14.291 -0.8544  0.0905 -1.0146
  566MPD2    N1 8457   2.194   3.973  14.480  0.2059  0.6415 -0.3563
  566MPD2    H7 8458   2.274   3.917  14.508  1.5732  3.3066  1.0620
  567TMC3    C1 8459   2.315   4.166  14.520 -0.3686  0.0436 -0.4118
  567TMC3    C2 8460   2.403   4.128  14.423  0.4360 -0.4152  0.2808
  567TMC3    C3 8461   2.489   4.223  14.371  0.2155  0.3889 -0.2810
  567TMC3    C4 8462   2.306   4.294  14.570  0.1143  0.2339 -0.7877
  567TMC3    C5 8463   2.379   4.389  14.502  0.3584 -0.2364  0.8756
  567TMC3    C6 8464   2.477   4.354  14.405 -0.8287 -0.2710 -0.1836
  567TMC3     C 8465   2.183   4.112  14.505  0.5479 -0.1303 -0.0990
  567TMC3     O 8466   2.095   4.195  14.489 -0.1200  0.0745 -0.4561
  567TMC3     H 8467   2.390   4.033  14.373 -2.2437  0.7955 -1.2591
  567TMC3    H1 8468   2.223   4.314  14.637  0.3115  2.5549 -1.2344
  567TMC3    H2 8469   2.536   4.434  14.361 -2.8031  1.8925  1.1077
  567TMC3    C7 8470   2.309   4.496  14.440 -0.0777 -0.0684  0.3970
  567TMC3    C8 8471   2.521   4.214  14.231  0.2664 -0.3299  0.3809
  567TMC3    O1 8472   2.326   4.515  14.319  0.6334 -0.6360  0.2724
  567TMC3    O2 8473   2.569   4.106  14.191 -0.0972 -0.2523 -0.3798
  568MPD2     C 8474   4.365   4.657  16.327 -0.3926  0.0709  0.6310
  568MPD2    C1 8475   4.322   0.011  16.423 -0.4032 -0.8965 -0.1069
  568MPD2    C2 8476   4.249   0.123  16.384 -1.2393  0.4957  0.4774
  568MPD2    C3 8477   4.242   0.148  16.247 -0.8893  0.2217 -0.0258
  568MPD2    C4 8478   4.284   0.057  16.152  0.4116  0.5533  0.0099
  568MPD2    C5 8479   4.348   4.678  16.192 -0.0263 -0.5196 -0.3559
  568MPD2     H 8480   4.206   0.184  16.462  0.2739 -0.3247  1.9479
  568MPD2    H1 8481   4.258   0.064  16.047 -0.1167 -1.1242  0.0319
  568MPD2    H2 8482   4.406   4.560  16.353  0.1372  0.3994  1.0253
  568MPD2    H3 8483   4.366   4.599  16.122  0.1575  0.0960 -1.0030
  568MPD2     N 8484   4.172   0.259  16.214  0.3767  0.1309 -0.1601
  568MPD2    H5 8485   4.136   0.309  16.296  2.0168 -2.2252  1.9993
  568MPD2    N1 8486   4.345   4.719  16.559  0.0617 -0.0027  0.1900
  568MPD2    H7 8487   4.403   4.638  16.577 -1.6779 -1.4526 -0.8128
  569TMC3    C1 8488   4.113   0.448  16.099 -0.8362 -0.0189  0.7472
  569TMC3    C2 8489   4.124   0.517  16.215  0.1978  0.3777  0.7964
  569TMC3    C3 8490   4.071   0.639  16.222  0.2481 -0.8665 -0.4562
  569TMC3    C4 8491   4.057   0.503  15.987 -0.2326 -0.0553  0.1137
  569TMC3    C5 8492   4.018   0.630  15.991  0.0983  0.0012  0.3535
  569TMC3    C6 8493   4.020   0.697  16.112  0.2184  0.3129  0.3356
  569TMC3     C 8494   4.152   0.311  16.089  0.5610  0.5127  0.5244
  569TMC3     O 8495   4.199   0.275  15.986  0.5969  0.1724 -0.4175
  569TMC3     H 8496   4.180   0.480  16.300  1.2001  0.1141  0.0283
  569TMC3    H1 8497   4.037   0.442  15.899  1.9156  0.3936 -0.6839
  569TMC3    H2 8498   3.963   0.788  16.127 -1.3220 -0.7847  1.1411
  569TMC3    C7 8499   4.012   0.708  15.872 -0.0130  0.2882 -0.5187
  569TMC3    C8 8500   4.046   0.679  16.353  0.2644  1.0311  0.0366
  569TMC3    O1 8501   3.989   0.664  15.762  0.5089 -0.5519  0.2385
  569TMC3    O2 8502   4.018   0.592  16.432 -0.4180 -0.2564 -0.3220
  570TMC3    C1 8503   3.675   3.593  16.291 -0.0662  0.2999 -0.2821
  570TMC3    C2 8504   3.746   3.596  16.176 -0.1139  0.6886 -0.2160
  570TMC3    C3 8505   3.791   3.717  16.135 -0.3251  0.2007 -0.0870
  570TMC3    C4 8506   3.638   3.700  16.362  0.3321 -0.0730  0.5180
  570TMC3    C5 8507   3.688   3.824  16.316  0.3883 -0.6261 -0.1575
  570TMC3    C6 8508   3.772   3.832  16.212  0.6271 -0.0209  0.2905
  570TMC3     C 8509   3.627   3.464  16.339  0.0125 -0.1235  0.4754
  570TMC3     O 8510   3.618   3.363  16.266  0.5729 -0.0336 -0.5797
  570TMC3     H 8511   3.762   3.501  16.128  2.3517  0.4010  1.1764
  570TMC3    H1 8512   3.550   3.700  16.427 -0.0654 -0.2520 -0.0211
  570TMC3    H2 8513   3.816   3.926  16.180  2.2516 -0.3690  1.5252
  570TMC3    C7 8514   3.626   3.943  16.373  0.2627 -0.1959  0.4107
  570TMC3    C8 8515   3.879   3.737  16.011  0.2286 -0.0634 -0.2672
  570TMC3    O1 8516   3.577   3.938  16.483  0.0494  0.5088  0.1792
  570TMC3    O2 8517   3.956   3.830  16.002 -0.2422 -0.1351  0.5665
  571MPD2     C 8518   1.189   1.587   0.774  0.4373  0.1454 -0.4060
  571MPD2    C1 8519   1.262   1.477   0.801 -0.1349 -0.0636 -1.0689
  571MPD2    C2 8520   1.400   1.487   0.801 -0.2979 -0.0519 -0.2586
  571MPD2    C3 8521   1.470   1.605   0.769 -0.7275 -0.0669 -0.5211
  571MPD2    C4 8522   1.393   1.713   0.727  0.5475 -0.6867 -0.4712
  571MPD2    C5 8523   1.253   1.705   0.729  0.4594  0.3552 -0.6228
  571MPD2     H 8524   1.457   1.398   0.825 -1.1205 -0.4618  0.1553
  571MPD2    H1 8525   1.433   1.809   0.696 -0.4070  0.3467  1.5177
  571MPD2    H2 8526   1.082   1.589   0.787  0.5880 -2.2526  1.1189
  571MPD2    H3 8527   1.193   1.793   0.710 -1.3890 -0.9773 -0.8664
  571MPD2     N 8528   1.611   1.607   0.751 -0.3800 -0.7288  0.0123
  571MPD2    H5 8529   1.645   1.691   0.705 -2.0470  0.4155  0.8936
  571MPD2    N1 8530   1.183   1.368   0.840  0.3349  0.0640 -0.7133
  571MPD2    H7 8531   1.082   1.382   0.843  0.2451 -0.6998 -0.2555
  572TMC3    C1 8532   1.832   1.533   0.722 -0.3836 -0.5211  0.3580
  572TMC3    C2 8533   1.935   1.489   0.793  0.0377 -0.3592  0.1318
  572TMC3    C3 8534   2.055   1.530   0.743  0.2702 -0.0459 -1.0297
  572TMC3    C4 8535   1.841   1.600   0.606  0.1298 -0.0306 -0.7136
  572TMC3    C5 8536   1.966   1.641   0.558  0.1331 -0.1080  0.0965
  572TMC3    C6 8537   2.082   1.599   0.623 -0.0023  0.0005 -0.3417
  572TMC3     C 8538   1.697   1.501   0.776 -0.9923 -0.1046  0.2290
  572TMC3     O 8539   1.686   1.421   0.867  0.0696  0.2612 -0.4429
  572TMC3     H 8540   1.913   1.463   0.895 -0.0217  0.6869  0.3865
  572TMC3    H1 8541   1.755   1.632   0.549  0.0292 -1.5456 -1.3981
  572TMC3    H2 8542   2.181   1.611   0.582 -0.2985  0.7893 -0.8114
  572TMC3    C7 8543   1.959   1.738   0.453 -0.9548  0.2737 -0.1996
  572TMC3    C8 8544   2.175   1.461   0.803  0.0416 -0.2681  0.0781
  572TMC3    O1 8545   1.861   1.808   0.439 -0.0884 -0.2000 -0.2676
  572TMC3    O2 8546   2.272   1.441   0.729 -0.3258  0.3063  1.3345
  573MPD2     C 8547   3.119   1.912   0.758 -0.3998 -0.1679  0.5824
  573MPD2    C1 8548   2.991   1.916   0.715  0.9014  0.1276  0.3523
  573MPD2    C2 8549   2.953   1.861   0.592  0.2859  0.4219  0.5368
  573MPD2    C3 8550   3.050   1.820   0.509 -0.9114 -0.5990  0.5654
  573MPD2    C4 8551   3.183   1.831   0.544  0.1428 -0.3037  0.2020
  573MPD2    C5 8552   3.222   1.886   0.666 -0.2731  0.0597  0.3948
  573MPD2     H 8553   2.854   1.875   0.550  0.1353 -0.3368  0.6289
  573MPD2    H1 8554   3.261   1.790   0.481 -0.1332 -0.3096 -0.1343
  573MPD2    H2 8555   3.152   1.958   0.850 -3.0434 -2.4410  2.6480
  573MPD2    H3 8556   3.324   1.903   0.699 -0.3372 -3.3445  2.3070
  573MPD2     N 8557   3.020   1.778   0.380 -0.8735  0.2732  0.7822
  573MPD2    H5 8558   3.102   1.764   0.321 -0.2485 -1.9168  2.1171
  573MPD2    N1 8559   2.900   1.967   0.811  0.2954 -0.0671 -0.1970
  573MPD2    H7 8560   2.941   1.990   0.901  0.4626 -1.5191  0.0989
  574TMC3    C1 8561   2.911   1.749   0.179  0.5135 -0.0218  0.4679
  574TMC3    C2 8562   2.798   1.700   0.114  0.2426  0.3027  0.0113
  574TMC3    C3 8563   2.777   1.727  17.722 -0.3481  1.1191  0.0438
  574TMC3    C4 8564   2.997   1.829   0.111  0.1009 -0.7947 -0.4018
  574TMC3    C5 8565   2.972   1.852  17.719  1.1538 -0.3419 -0.3073
  574TMC3    C6 8566   2.862   1.803  17.650  1.0227  0.6018 -0.5115
  574TMC3     C 8567   2.897   1.760   0.323  0.4540 -0.3293 -0.0058
  574TMC3     O 8568   2.794   1.718   0.369 -0.4038  0.5086 -0.3365
  574TMC3     H 8569   2.726   1.638   0.166  0.0591 -1.7676 -2.7093
  574TMC3    H1 8570   3.060   1.900   0.163 -0.1522  0.6553 -2.0626
  574TMC3    H2 8571   2.878   1.794  17.543 -0.2731 -1.2565 -0.5496
  574TMC3    C7 8572   3.074   1.915  17.642  0.3425 -0.1321 -0.2172
  574TMC3    C8 8573   2.646   1.686  17.665  0.2112 -0.1189  0.4920
  574TMC3    O1 8574   3.053   1.926  17.524  0.2210 -0.1715  0.1003
  574TMC3    O2 8575   2.580   1.599  17.715  0.1139 -0.1480 -0.4810
  575TMC3    C1 8576   4.659   2.505  11.033  0.2683  0.4961 -0.6043
  575TMC3    C2 8577   4.598   2.384  11.025  0.0329  0.1241 -0.5691
  575TMC3    C3 8578   4.587   2.315  10.911  0.2772 -1.3600 -0.3406
  575TMC3    C4 8579   4.719   2.554  10.921  0.0573  0.0211  0.4361
  575TMC3    C5 8580   4.711   2.483  10.807  0.2938 -0.0690  0.7227
  575TMC3    C6 8581   4.651   2.362  10.791  0.5358  0.2819  0.8304
  575TMC3     C 8582   4.701   2.557  11.161  0.6241 -0.0362 -0.1989
  575TMC3     O 8583   4.699   2.476  11.255 -0.2880 -0.5902 -0.4073
  575TMC3     H 8584   4.559   2.339  11.115  4.0237 -0.7202  0.7556
  575TMC3    H1 8585   0.052   2.636  10.936 -0.0279  0.0932  0.4367
  575TMC3    H2 8586   4.624   2.321  10.694  0.5430  0.6323  0.6762
  575TMC3    C7 8587   0.065   2.533  10.704 -0.0034  0.0523 -0.2986
  575TMC3    C8 8588   4.508   2.190  10.906 -0.0568 -0.9733  0.2421
  575TMC3    O1 8589   0.103   2.648  10.717 -0.2945 -0.2958  0.1934
  575TMC3    O2 8590   4.420   2.180  10.993  0.2005  0.3618  0.4055
  576MPD2     C 8591   0.393   4.608  12.642 -0.1676  0.3107 -1.1634
  576MPD2    C1 8592   0.339   4.617  12.520  0.2366 -0.1176 -0.1537
  576MPD2    C2 8593   0.236   4.712  12.505  0.6890  0.0266  0.3944
  576MPD2    C3 8594   0.187   0.054  12.609  0.0733 -0.1842  0.9583
  576MPD2    C4 8595   0.230   0.025  12.733 -0.7727 -0.8197 -0.4990
  576MPD2    C5 8596   0.338   4.672  12.748 -1.0182  0.5053  0.0440
  576MPD2     H 8597   0.191   4.719  12.407 -0.1622 -1.9930  0.6548
  576MPD2    H1 8598   0.187   0.066  12.824  0.0612  2.4383 -1.5561
  576MPD2    H2 8599   0.469   4.533  12.657 -0.0495  0.3413 -1.6303
  576MPD2    H3 8600   0.377   4.653  12.848 -1.4965 -0.9572 -0.0393
  576MPD2     N 8601   0.077   0.135  12.574 -0.1545  0.2000  0.2054
  576MPD2    H5 8602   0.065   0.152  12.475 -0.1715 -1.7829 -0.1245
  576MPD2    N1 8603   0.370   4.542  12.408 -0.1376  0.0401  0.1925
  576MPD2    H7 8604   0.323   4.564  12.321  0.6062 -0.0761 -0.2397
  577TMC3    C1 8605   0.510   4.436  12.264  0.1585  0.5246 -0.2665
  577TMC3    C2 8606   0.574   4.318  12.226 -0.1066 -0.0917  0.7675
  577TMC3    C3 8607   0.600   4.297  12.092 -0.1521  0.8206  0.1284
  577TMC3    C4 8608   0.473   4.532  12.168 -0.0804  0.2400 -0.0869
  577TMC3    C5 8609   0.506   4.506  12.041 -0.3202 -0.9382  0.2651
  577TMC3    C6 8610   0.564   4.395  11.998 -0.8277 -0.5040 -0.1307
  577TMC3     C 8611   0.473   4.450  12.399  0.1423 -0.2506  0.6154
  577TMC3     O 8612   0.527   4.388  12.488  0.0656  0.1186 -0.2187
  577TMC3     H 8613   0.612   4.250  12.301  1.7773 -0.0134 -0.1181
  577TMC3    H1 8614   0.449   4.636  12.187  0.0926  0.2077  0.3315
  577TMC3    H2 8615   0.615   4.391  11.902 -1.4547 -1.3146 -0.4371
  577TMC3    C7 8616   0.472   4.612  11.948 -0.2588  0.4810 -0.4108
  577TMC3    C8 8617   0.697   4.192  12.060  0.1278 -0.1711  0.6197
  577TMC3    O1 8618   0.512   4.720  11.985 -0.1438  0.6196  0.6886
  577TMC3    O2 8619   0.744   4.133  12.154  0.2077  0.1186  0.4077
  578MPD2     C 8620   3.117   4.075   1.335 -0.2102 -0.2735 -0.0013
  578MPD2    C1 8621   3.215   4.060   1.243  0.3129  0.2994  0.5409
  578MPD2    C2 8622   3.331   3.995   1.277  0.7255 -1.1034 -0.1700
  578MPD2    C3 8623   3.353   3.953   1.412 -0.1521 -0.6184 -0.6795
  578MPD2    C4 8624   3.249   3.970   1.507  0.6776 -0.7143  0.0099
  578MPD2    C5 8625   3.129   4.032   1.464 -0.1389  0.2176  0.2365
  578MPD2     H 8626   3.425   3.986   1.223  0.2067 -1.7196 -0.9677
  578MPD2    H1 8627   3.248   3.927   1.607 -1.8710  3.5580  1.8059
  578MPD2    H2 8628   3.025   4.128   1.314 -1.4468 -1.7346  1.7371
  578MPD2    H3 8629   3.051   4.045   1.539  0.3504  0.7444  0.6575
  578MPD2     N 8630   3.472   3.883   1.440  0.3945  0.3604 -0.0084
  578MPD2    H5 8631   3.529   3.858   1.360 -0.4080  1.2329 -0.8586
  578MPD2    N1 8632   3.200   4.119   1.116 -1.2251 -0.2075  0.3056
  578MPD2    H7 8633   3.117   4.170   1.087 -1.5393 -1.3433 -0.8240
  579TMC3    C1 8634   3.659   3.807   1.554 -0.1924 -0.3250  0.0857
  579TMC3    C2 8635   3.756   3.872   1.628 -0.0951  0.7116 -0.2134
  579TMC3    C3 8636   3.886   3.848   1.587 -0.0347 -0.7503  0.1286
  579TMC3    C4 8637   3.686   3.721   1.452 -0.3359 -0.4193 -0.0794
  579TMC3    C5 8638   3.817   3.703   1.425  0.3418 -0.2595 -0.0708
  579TMC3    C6 8639   3.923   3.766   1.483  0.3662  0.0756 -0.0147
  579TMC3     C 8640   3.522   3.857   1.565  0.7090  0.0648 -0.0075
  579TMC3     O 8641   3.483   3.879   1.678 -0.0116 -0.0025 -0.1174
  579TMC3     H 8642   3.740   3.954   1.697  1.6368  1.3630 -0.5759
  579TMC3    H1 8643   3.614   3.666   1.394 -0.0674 -1.3823  0.4961
  579TMC3    H2 8644   4.029   3.748   1.468 -0.2825 -2.1404 -2.0076
  579TMC3    C7 8645   3.855   3.587   1.345 -0.5078  0.1425  0.8478
  579TMC3    C8 8646   3.981   3.923   1.666 -0.6156  0.0217 -0.7012
  579TMC3    O1 8647   3.973   3.551   1.366 -0.1462 -0.3954  0.2862
  579TMC3    O2 8648   3.954   3.945   1.782  0.5619 -0.0047  0.1167
  580TMC3    C1 8649   3.144   3.662  12.274  0.2722  0.2557  0.2654
  580TMC3    C2 8650   3.268   3.674  12.216  0.3374  0.0507 -0.1367
  580TMC3    C3 8651   3.372   3.600  12.261 -0.5738  0.1628 -0.0010
  580TMC3    C4 8652   3.130   3.562  12.366  0.0353  0.5171  0.3191
  580TMC3    C5 8653   3.230   3.481  12.409  0.4140 -0.0970  0.3375
  580TMC3    C6 8654   3.357   3.499  12.354 -0.2283 -0.3547 -0.2291
  580TMC3     C 8655   3.029   3.714  12.206 -0.1661  0.2088 -0.5427
  580TMC3     O 8656   3.048   3.787  12.111 -0.5458 -0.5573  0.0824
  580TMC3     H 8657   3.283   3.751  12.141 -0.2437 -0.7922 -1.1093
  580TMC3    H1 8658   3.038   3.561  12.423 -0.7992 -1.3900 -1.0471
  580TMC3    H2 8659   3.441   3.435  12.376  0.2269  0.4471  0.3675
  580TMC3    C7 8660   3.183   3.361  12.476 -0.2703 -0.4665 -0.5501
  580TMC3    C8 8661   3.495   3.608  12.184  0.3619 -0.0692 -0.0471
  580TMC3    O1 8662   3.063   3.365  12.507  0.1635  0.3773 -0.0727
  580TMC3    O2 8663   3.603   3.608  12.241 -0.5395  0.5842  0.1405
  581MPD2     C 8664   0.702   2.960  14.448  0.6301  0.3604  0.3294
  581MPD2    C1 8665   0.637   2.977  14.569  0.7306 -0.1298 -0.2288
  581MPD2    C2 8666   0.523   3.054  14.571  0.1576 -0.0500  0.4415
  581MPD2    C3 8667   0.490   3.123  14.456 -0.5607 -0.3592 -0.7718
  581MPD2    C4 8668   0.562   3.108  14.336  0.2915 -0.4222 -0.4739
  581MPD2    C5 8669   0.655   3.011  14.329  0.1008  0.3706  0.2927
  581MPD2     H 8670   0.468   3.052  14.663 -1.5960  0.3611 -0.6039
  581MPD2    H1 8671   0.545   3.159  14.243 -1.7536 -0.4550 -0.1178
  581MPD2    H2 8672   0.790   2.897  14.439  0.4880 -0.0526  1.8230
  581MPD2    H3 8673   0.709   2.985  14.238 -0.7030  1.0309 -0.3721
  581MPD2     N 8674   0.382   3.213  14.465  0.1684 -0.1578 -0.4223
  581MPD2    H5 8675   0.333   3.220  14.553  0.0605  2.2672 -0.6905
  581MPD2    N1 8676   0.679   2.911  14.691 -0.5095  0.7076  0.3056
  581MPD2    H7 8677   0.612   2.915  14.767  1.1657  1.8013  1.7035
  582TMC3    C1 8678   0.781   2.752  14.821  0.3183  0.5810  0.0115
  582TMC3    C2 8679   0.901   2.711  14.876 -0.8979  0.1737  0.7589
  582TMC3    C3 8680   0.900   2.635  14.991 -0.3133  0.0206 -0.2558
  582TMC3    C4 8681   0.657   2.716  14.861 -0.1251 -0.3442  0.4635
  582TMC3    C5 8682   0.660   2.638  14.975 -0.5161  0.6745  0.5442
  582TMC3    C6 8683   0.778   2.596  15.041  0.1530  0.0824 -0.1431
  582TMC3     C 8684   0.797   2.841  14.704  0.5767  0.1657  0.2287
  582TMC3     O 8685   0.898   2.823  14.637 -0.0518  0.5280  0.0439
  582TMC3     H 8686   0.995   2.749  14.837 -0.3020 -2.5765 -0.4280
  582TMC3    H1 8687   0.568   2.751  14.810 -0.2369 -0.1730  0.7795
  582TMC3    H2 8688   0.776   2.532  15.128  2.7773 -0.6206 -0.5810
  582TMC3    C7 8689   0.539   2.622  15.054  0.0215  0.4498 -0.4607
  582TMC3    C8 8690   1.014   2.660  15.078  0.6736  0.5496  0.2703
  582TMC3    O1 8691   0.541   2.544  15.151  0.1340  0.2392  1.3824
  582TMC3    O2 8692   1.118   2.695  15.021  0.4511  0.1535 -0.1186
  583MPD2     C 8693   0.673   0.154  17.026  0.1915 -0.1154  0.2779
  583MPD2    C1 8694   0.674   0.280  16.967 -0.0641  0.3522 -0.0592
  583MPD2    C2 8695   0.647   0.395  17.051  0.4110  0.4852  0.6682
  583MPD2    C3 8696   0.610   0.381  17.185 -0.6283 -0.0115  0.6529
  583MPD2    C4 8697   0.627   0.249  17.241 -0.4099  0.1519 -0.3918
  583MPD2    C5 8698   0.661   0.140  17.163  0.4530  0.5122 -0.2812
  583MPD2     H 8699   0.637   0.491  17.001 -0.6619 -0.7060 -1.4252
  583MPD2    H1 8700   0.604   0.226  17.344  0.6687  1.8628  0.2454
  583MPD2    H2 8701   0.696   0.066  16.966  1.4343  0.7791 -0.5768
  583MPD2    H3 8702   0.666   0.042  17.210  1.0576  1.2543  1.2247
  583MPD2     N 8703   0.565   0.492  17.262 -0.1393  0.3627  0.4444
  583MPD2    H5 8704   0.553   0.581  17.214  2.7281  0.9218  0.7721
  583MPD2    N1 8705   0.708   0.291  16.830 -0.4044  0.4481  0.6678
  583MPD2    H7 8706   0.719   0.385  16.794  0.0187  0.5457  1.0586
  584TMC3    C1 8707   0.496   0.623  17.447 -0.6041 -0.0222  0.1568
  584TMC3    C2 8708   0.527   0.739  17.375  0.8480 -0.4956  0.0846
  584TMC3    C3 8709   0.503   0.860  17.436 -0.0112 -0.3390 -1.0284
  584TMC3    C4 8710   0.467   0.628  17.581  0.1461  0.0285 -0.1628
  584TMC3    C5 8711   0.452   0.749  17.641  0.2245  0.1229 -0.7047
  584TMC3    C6 8712   0.465   0.868  17.570 -0.3532 -0.2569 -0.4457
  584TMC3     C 8713   0.534   0.491  17.395 -0.4630 -0.4007 -0.7861
  584TMC3     O 8714   0.542   0.400  17.480 -0.0688  0.5734 -0.3700
  584TMC3     H 8715   0.570   0.735  17.275 -1.3388  0.2292 -0.8780
  584TMC3    H1 8716   0.451   0.539  17.641  1.1262  0.1640  0.3047
  584TMC3    H2 8717   0.462   0.965  17.619 -2.1245 -0.7001  0.3109
  584TMC3    C7 8718   0.474   0.752   0.043 -0.0332 -0.6404 -0.1425
  584TMC3    C8 8719   0.517   0.984  17.356  0.6033 -0.1902  0.1104
  584TMC3    O1 8720   0.519   0.858   0.082 -0.6841 -0.8174  0.7620
  584TMC3    O2 8721   0.482   0.982  17.240  0.0033 -0.7113 -0.1827
  585MPD2     C 8722   4.662   3.945   0.441  1.0506 -0.9595  0.9043
  585MPD2    C1 8723   4.608   3.973   0.317  0.5916  0.6754  0.5410
  585MPD2    C2 8724   4.634   3.886   0.207  0.5269  0.4254  0.4742
  585MPD2    C3 8725   4.713   3.777   0.228  0.5722 -0.6196 -0.3795
  585MPD2    C4 8726   0.034   3.750   0.352 -0.2441  0.4461  0.2289
  585MPD2    C5 8727   0.011   3.840   0.450  0.4959  0.5875 -0.4960
  585MPD2     H 8728   4.582   3.897   0.113 -0.6703 -1.3960  0.9144
  585MPD2    H1 8729   0.097   3.664   0.375 -1.2871 -1.4802 -4.0168
  585MPD2    H2 8730   4.654   4.013   0.525  1.9769 -1.0843  1.0975
  585MPD2    H3 8731   0.064   3.823   0.543 -2.2493 -0.1407  0.9298
  585MPD2     N 8732   0.003   3.682   0.128  0.6246 -0.2112  0.1572
  585MPD2    H5 8733   0.031   3.586   0.145  0.5996 -0.2447  0.0091
  585MPD2    N1 8734   4.517   4.086   0.306 -0.2396 -0.6319  0.1160
  585MPD2    H7 8735   4.516   4.148   0.387  2.2395 -0.6152  0.1287
  586TMC3    C1 8736   0.029   3.603  17.652 -0.4132 -0.7025  0.0453
  586TMC3    C2 8737   0.116   3.599  17.549  0.4975 -0.4438  0.6613
  586TMC3    C3 8738   0.169   3.484  17.511 -0.0458  0.1194  0.3630
  586TMC3    C4 8739   4.711   3.487  17.698  1.2238  0.4917  0.1346
  586TMC3    C5 8740   0.016   3.366  17.641 -0.3036  0.1230 -0.0666
  586TMC3    C6 8741   0.117   3.365  17.546 -0.5743  0.2807 -0.1493
  586TMC3     C 8742   0.023   3.718  17.739 -0.0606 -0.6465  0.2919
  586TMC3     O 8743   0.022   3.833  17.698 -0.0942  0.8457 -0.0149
  586TMC3     H 8744   0.168   3.691  17.523  0.5790 -0.9957 -1.1228
  586TMC3    H1 8745   4.627   3.490   0.026 -0.1438  0.8880 -1.5442
  586TMC3    H2 8746   0.141   3.279  17.484  1.0751 -1.5940  3.0731
  586TMC3    C7 8747   4.639   3.290  17.591  0.2462 -0.1823  0.1081
  586TMC3    C8 8748   0.260   3.473  17.398 -0.3365 -0.2721  0.4688
  586TMC3    O1 8749   4.564   3.242  17.672  0.2205 -0.3553  0.5058
  586TMC3    O2 8750   0.348   3.386  17.412  0.4135 -0.1528  0.8281
  587TMC3    C1 8751   2.087   2.659  15.744  0.3440 -0.0675  0.0605
  587TMC3    C2 8752   2.115   2.684  15.878 -0.8529 -0.2853 -0.4433
  587TMC3    C3 8753   2.245   2.695  15.916  0.6026 -0.3922 -0.1064
  587TMC3    C4 8754   2.188   2.650  15.653 -0.1751  0.5116  0.1477
  587TMC3    C5 8755   2.321   2.644  15.702  0.3329  0.4194  0.3516
  587TMC3    C6 8756   2.350   2.665  15.834  0.1878 -0.0431 -0.1805
  587TMC3     C 8757   1.949   2.631  15.705  0.2266  0.5782 -0.1004
  587TMC3     O 8758   1.920   2.629  15.588  0.7336 -0.4312 -0.2332
  587TMC3     H 8759   2.040   2.684  15.957 -1.6129 -0.2097 -1.1556
  587TMC3    H1 8760   2.176   2.616  15.551 -0.0623 -1.5450  0.8134
  587TMC3    H2 8761   2.454   2.674  15.861  0.2899  0.5022 -0.7447
  587TMC3    C7 8762   2.427   2.594  15.610  0.1476  0.2701  0.0169
  587TMC3    C8 8763   2.269   2.740  16.056  0.3958  0.2291 -0.2076
  587TMC3    O1 8764   2.419   2.623  15.490  0.4282 -0.0475  0.8011
  587TMC3    O2 8765   2.371   2.698  16.106 -0.0492  0.3249  0.7051
  588TMC3    C1 8766   4.193   0.444   9.920 -0.1518  0.1227 -0.1763
  588TMC3    C2 8767   4.178   0.340   9.837 -0.3574  0.1796 -0.5756
  588TMC3    C3 8768   4.274   0.244   9.821  0.0392 -0.0989 -0.4623
  588TMC3    C4 8769   4.306   0.457   9.994  0.0044  0.4090  0.5719
  588TMC3    C5 8770   4.408   0.364   9.973 -0.2367  0.4827 -0.3315
  588TMC3    C6 8771   4.395   0.261   9.887 -0.2050  0.3091  0.1094
  588TMC3     C 8772   4.165   0.578   9.867 -0.9276 -0.9685 -0.1413
  588TMC3     O 8773   4.167   0.578   9.743 -0.1439  0.4559 -0.4995
  588TMC3     H 8774   4.082   0.322   9.790  0.3384 -1.5589 -1.3398
  588TMC3    H1 8775   4.322   0.536  10.067 -2.4474  1.6761 -0.2772
  588TMC3    H2 8776   4.483   0.198   9.884 -1.4958 -1.2486 -5.0985
  588TMC3    C7 8777   4.540   0.392  10.025 -0.2490 -0.4918 -0.0350
  588TMC3    C8 8778   4.257   0.131   9.737  0.3125  0.1497 -0.2683
  588TMC3    O1 8779   4.614   0.302  10.065  0.3980  0.1212  0.2739
  588TMC3    O2 8780   4.156   0.120   9.666  0.2213  0.0374  0.1284
  589TMC3    C1 8781   3.994   2.488   1.217 -0.3557 -0.2982  0.2228
  589TMC3    C2 8782   4.100   2.554   1.268  0.2365  0.0941 -0.5952
  589TMC3    C3 8783   4.218   2.483   1.261  0.0776 -0.3357  0.2915
  589TMC3    C4 8784   4.000   2.370   1.152 -0.3050 -0.3052  0.4123
  589TMC3    C5 8785   4.125   2.308   1.146 -0.3881  0.4289 -0.6511
  589TMC3    C6 8786   4.234   2.356   1.205  0.3699  0.1949  0.1057
  589TMC3     C 8787   3.863   2.518   1.281  0.4734 -0.6704 -1.0147
  589TMC3     O 8788   3.775   2.439   1.248 -0.5939  0.0511  0.0487
  589TMC3     H 8789   4.101   2.661   1.289 -0.3813 -0.0864  0.3573
  589TMC3    H1 8790   3.916   2.342   1.089  0.2741 -1.7385  0.2913
  589TMC3    H2 8791   4.330   2.305   1.207  0.0702 -0.3783 -0.1147
  589TMC3    C7 8792   4.114   2.181   1.081 -0.0138 -0.0112 -0.7076
  589TMC3    C8 8793   4.333   2.548   1.315 -0.4608  0.1074  1.1931
  589TMC3    O1 8794   4.004   2.135   1.049  0.2326 -0.2423 -0.0752
  589TMC3    O2 8795   4.308   2.648   1.382  0.4051 -0.4567  0.4177
  590MPD2     C 8796   3.245   0.708  16.813 -0.6641 -0.6064  0.2954
  590MPD2    C1 8797   3.175   0.781  16.721 -1.5454 -0.8022 -0.1268
  590MPD2    C2 8798   3.258   0.841  16.634 -0.7448  0.1200  0.0733
  590MPD2    C3 8799   3.393   0.831  16.627  0.5033  0.2155  0.2666
  590MPD2    C4 8800   3.462   0.749  16.715 -0.1326 -0.1582  0.3855
  590MPD2    C5 8801   3.384   0.682  16.808  0.2777  0.6972  0.2418
  590MPD2     H 8802   3.212   0.894  16.551  0.3842  1.0217  0.0313
  590MPD2    H1 8803   3.570   0.750  16.729 -0.1400 -1.9546  0.5624
  590MPD2    H2 8804   3.192   0.655  16.891 -1.2078  0.7204  0.8289
  590MPD2    H3 8805   3.422   0.615  16.886 -0.1513 -2.6669 -2.4275
  590MPD2     N 8806   3.453   0.894  16.517  0.4340 -0.1136  0.5393
  590MPD2    H5 8807   3.396   0.961  16.467  1.4591 -0.0200 -0.5035
  590MPD2    N1 8808   3.036   0.780  16.718 -0.1746 -0.1882  0.2182
  590MPD2    H7 8809   2.991   0.740  16.800 -1.7639 -1.0094 -1.0770
  591TMC3    C1 8810   3.614   0.955  16.366 -0.2730 -0.4348  0.7516
  591TMC3    C2 8811   3.677   0.902  16.263  0.0292  0.3573  0.5406
  591TMC3    C3 8812   3.704   0.981  16.152 -0.1373  0.6745  0.1739
  591TMC3    C4 8813   3.569   1.085  16.366  0.6964 -0.4611 -0.3492
  591TMC3    C5 8814   3.618   1.161  16.261 -0.1566  0.8847 -0.6756
  591TMC3    C6 8815   3.676   1.111  16.152  0.3330 -0.6458 -0.2866
  591TMC3     C 8816   3.579   0.869  16.475  0.3811  0.0796 -0.1890
  591TMC3     O 8817   3.647   0.769  16.488  0.0328  0.7152  0.1297
  591TMC3     H 8818   3.695   0.795  16.263  3.0671  0.8772 -1.1097
  591TMC3    H1 8819   3.505   1.127  16.443 -1.4646 -1.8744 -1.3718
  591TMC3    H2 8820   3.686   1.174  16.064  0.7311 -0.3251 -0.0111
  591TMC3    C7 8821   3.527   1.272  16.237 -0.0877  0.0780 -0.2899
  591TMC3    C8 8822   3.712   0.907  16.028 -0.6212 -0.4519  0.5299
  591TMC3    O1 8823   3.417   1.254  16.274 -0.0461  0.2224 -0.1634
  591TMC3    O2 8824   3.724   0.786  16.040 -0.0493 -0.0979 -0.1020
  592MPD2     C 8825   3.371   2.723  11.977 -0.4209 -0.2865  0.1503
  592MPD2    C1 8826   3.432   2.772  12.091  0.6833 -0.9207 -0.4889
  592MPD2    C2 8827   3.403   2.709  12.213 -0.0751 -0.7719 -0.1404
  592MPD2    C3 8828   3.316   2.597  12.217  0.3484  0.4887 -0.5597
  592MPD2    C4 8829   3.246   2.559  12.101 -0.1864  0.6685  0.2608
  592MPD2    C5 8830   3.275   2.626  11.983  0.6605 -0.5217 -0.2683
  592MPD2     H 8831   3.446   2.743  12.307 -0.4738 -2.3613  0.6228
  592MPD2    H1 8832   3.172   2.480  12.101  2.5150 -1.8653 -0.0501
  592MPD2    H2 8833   3.404   2.756  11.880  1.6209 -1.8513  0.2973
  592MPD2    H3 8834   3.231   2.587  11.892  0.0428  0.1860 -0.2704
  592MPD2     N 8835   3.308   2.527  12.341 -0.0349 -0.0346  0.4258
  592MPD2    H5 8836   3.365   2.568  12.414 -0.3127  2.1640 -0.5805
  592MPD2    N1 8837   3.528   2.878  12.085 -0.0815 -0.6553  0.0846
  592MPD2    H7 8838   3.539   2.931  11.999  0.2055  0.9594  1.0943
  593TMC3    C1 8839   3.675   3.056  12.152 -0.3973  0.4525  0.7713
  593TMC3    C2 8840   3.699   3.145  12.249  0.2876  0.0262 -1.1131
  593TMC3    C3 8841   3.774   3.256  12.212  0.5264  0.3660  0.2469
  593TMC3    C4 8842   3.713   3.071  12.027 -0.2906 -0.0430 -0.3388
  593TMC3    C5 8843   3.781   3.181  11.988  0.4399  0.0224 -0.1411
  593TMC3    C6 8844   3.817   3.275  12.084 -0.2141 -0.2279  0.7247
  593TMC3     C 8845   3.604   2.934  12.188  0.2305  0.8856  0.2039
  593TMC3     O 8846   3.593   2.904  12.309  0.2482  0.1240 -0.0689
  593TMC3     H 8847   3.673   3.130  12.354 -1.7528 -0.6082 -1.7109
  593TMC3    H1 8848   3.710   2.986  11.960 -0.9985 -0.0514 -0.3013
  593TMC3    H2 8849   3.872   3.364  12.056  0.9928 -1.8539 -2.0684
  593TMC3    C7 8850   3.835   3.214  11.855 -0.5635  0.0819  0.7557
  593TMC3    C8 8851   3.829   3.331  12.324 -0.2342  0.3700  1.0879
  593TMC3    O1 8852   3.911   3.308  11.847  0.5600 -0.2892 -0.4159
  593TMC3    O2 8853   3.780   3.297  12.431 -0.0912  0.1094  0.5222
  594MPD2     C 8854   2.331   1.479  15.061  0.4781 -0.7815  0.4449
  594MPD2    C1 8855   2.277   1.565  14.961 -0.3159 -0.3925 -0.3423
  594MPD2    C2 8856   2.353   1.643  14.876  0.8318  1.0763  0.5354
  594MPD2    C3 8857   2.494   1.644  14.898 -0.1321  0.7209  0.9484
  594MPD2    C4 8858   2.548   1.575  15.001 -0.6955  0.2304  0.0748
  594MPD2    C5 8859   2.471   1.484  15.077  0.1778 -0.6199  0.0602
  594MPD2     H 8860   2.317   1.694  14.787  1.2456 -1.2676 -0.9579
  594MPD2    H1 8861   2.652   1.588  15.029 -1.0329  1.4198  0.7505
  594MPD2    H2 8862   2.273   1.421  15.131 -0.1379 -1.3062 -0.5029
  594MPD2    H3 8863   2.518   1.431  15.159 -0.4006 -1.8436 -0.4010
  594MPD2     N 8864   2.571   1.733  14.821  0.5723 -0.5243 -0.1086
  594MPD2    H5 8865   2.526   1.761  14.734  1.0472  0.1765 -0.1256
  594MPD2    N1 8866   2.139   1.558  14.957  0.2110 -0.3081 -0.4960
  594MPD2    H7 8867   2.093   1.485  15.011 -2.2744  1.1787 -0.6204
  595TMC3    C1 8868   2.891   1.938  14.560 -0.3292 -0.2755 -0.0538
  595TMC3    C2 8869   2.858   1.845  14.657  0.0550  0.4921 -0.7058
  595TMC3    C3 8870   2.736   1.851  14.712  0.3520  0.0789  0.1850
  595TMC3    C4 8871   2.795   2.018  14.509 -0.5151  0.2892  0.1438
  595TMC3    C5 8872   2.673   2.023  14.572 -0.4758  0.0046 -0.6207
  595TMC3    C6 8873   2.638   1.937  14.670  0.6174  0.1196 -0.7629
  595TMC3     C 8874   3.027   1.964  14.512  0.9951 -0.0831 -0.2892
  595TMC3     O 8875   3.052   2.076  14.472 -0.0889 -0.5399  0.3634
  595TMC3     H 8876   2.927   1.769  14.691 -0.2976  0.1664 -0.7100
  595TMC3    H1 8877   2.812   2.079  14.421  2.5739  0.7879  1.0956
  595TMC3    H2 8878   2.555   1.963  14.734  0.6322  0.7922 -1.0176
  595TMC3    C7 8879   2.628   2.166  14.598  0.4318 -0.2560 -0.9599
  595TMC3    C8 8880   2.707   1.751  14.820 -0.0137  0.1993 -1.0115
  595TMC3    O1 8881   2.522   2.192  14.654  0.3640 -0.5998 -0.4465
  595TMC3    O2 8882   2.797   1.707  14.891  0.6176 -0.5431  0.2909
  596MPD2     C 8883   1.487   4.484  16.844  0.6216 -0.6808 -0.4976
  596MPD2    C1 8884   1.491   4.622  16.811 -0.0278  0.1719 -0.2175
  596MPD2    C2 8885   1.493   4.648  16.675  0.4092  0.1547  0.4842
  596MPD2    C3 8886   1.495   4.551  16.573  0.3475  1.1548  0.0182
  596MPD2    C4 8887   1.483   4.421  16.611 -0.2556 -0.1723 -0.0173
  596MPD2    C5 8888   1.483   4.391  16.745  0.1607 -0.3579  0.4064
  596MPD2     H 8889   1.512   0.016  16.649  0.4471  0.4359  1.6414
  596MPD2    H1 8890   1.476   4.344  16.535  1.4885  1.0971 -1.4755
  596MPD2    H2 8891   1.491   4.447  16.946 -0.6630  1.1691  0.2175
  596MPD2    H3 8892   1.469   4.288  16.774 -1.6067 -0.1107  0.4516
  596MPD2     N 8893   1.511   4.580  16.430  0.0693 -0.1322 -0.3545
  596MPD2    H5 8894   1.523   4.496  16.373 -0.4635 -0.4272 -0.0347
  596MPD2    N1 8895   1.485   4.725  16.900  0.0773 -0.4448 -1.3950
  596MPD2    H7 8896   1.491   0.080  16.855  2.4330 -0.0332 -0.2369
  597TMC3    C1 8897   1.436   0.111  17.094  0.5878 -0.1083  0.2496
  597TMC3    C2 8898   1.515   0.210  17.045 -0.0545 -0.7866  0.2474
  597TMC3    C3 8899   1.517   0.327  17.118 -0.0565 -0.5413 -0.8448
  597TMC3    C4 8900   1.347   0.126  17.200 -0.2750 -0.1272  0.0786
  597TMC3    C5 8901   1.347   0.251  17.264 -0.2076  0.0328  0.2739
  597TMC3    C6 8902   1.428   0.355  17.221  0.0343 -0.3208  0.7572
  597TMC3     C 8903   1.438   4.716  17.031 -0.3242 -0.1385 -0.9806
  597TMC3     O 8904   1.393   4.624  17.090 -0.1930  0.5612  0.0694
  597TMC3     H 8905   1.586   0.198  16.964 -0.1229  2.6225 -0.3128
  597TMC3    H1 8906   1.277   0.052  17.238 -2.9052  1.1262 -2.2796
  597TMC3    H2 8907   1.434   0.444  17.282  0.8498  0.0126  0.1961
  597TMC3    C7 8908   1.230   0.285  17.346  0.0438 -0.3379  0.2559
  597TMC3    C8 8909   1.583   0.442  17.062  0.1149 -0.4676  0.1088
  597TMC3    O1 8910   1.181   0.194  17.409 -0.2471 -0.7894  0.0421
  597TMC3    O2 8911   1.644   0.419  16.959 -0.9386  0.6377  0.5784
  598TMC3    C1 8912   4.312   1.200  15.425 -0.5974  0.1140  0.5765
  598TMC3    C2 8913   4.212   1.114  15.399 -0.2123 -0.7008  0.3458
  598TMC3    C3 8914   4.175   1.099  15.269 -0.2256 -0.0763  0.2122
  598TMC3    C4 8915   4.366   1.279  15.328  0.5454  0.1244 -0.0278
  598TMC3    C5 8916   4.315   1.268  15.202  0.3293 -0.1933 -0.1573
  598TMC3    C6 8917   4.221   1.178  15.166  0.7229  0.0614 -0.1777
  598TMC3     C 8918   4.363   1.209  15.559 -0.0746  0.0706  0.0935
  598TMC3     O 8919   4.437   1.301  15.580 -0.1289 -0.3540  0.1686
  598TMC3     H 8920   4.181   1.038  15.470 -2.7935  1.0930  1.1267
  598TMC3    H1 8921   4.450   1.340  15.357  0.9953 -1.0130  1.0624
  598TMC3    H2 8922   4.174   1.180  15.068 -1.0543  1.0165  0.7126
  598TMC3    C7 8923   4.383   1.324  15.087  0.2699 -0.2080 -0.5540
  598TMC3    C8 8924   4.072   0.998  15.241  0.0122  0.4275  0.0558
  598TMC3    O1 8925   4.360   1.276  14.976 -0.0245  0.5513 -0.5165
  598TMC3    O2 8926   4.017   0.945  15.340  0.1046  0.1285  0.0044
  599MPD2     C 8927   4.555   3.538  15.673 -0.3695  0.3350 -0.2426
  599MPD2    C1 8928   4.528   3.401  15.695 -0.6601 -0.4681 -0.4399
  599MPD2    C2 8929   4.409   3.371  15.760  0.1475  0.1649  0.3059
  599MPD2    C3 8930   4.316   3.472  15.797 -0.5900  0.3551  0.3740
  599MPD2    C4 8931   4.346   3.601  15.765 -0.5086  0.3143  0.8874
  599MPD2    C5 8932   4.465   3.627  15.708  0.8038  0.2288  0.0150
  599MPD2     H 8933   4.391   3.267  15.783 -1.3505  0.3873  0.1484
  599MPD2    H1 8934   4.280   3.683  15.791  0.8668  0.7725  2.9204
  599MPD2    H2 8935   4.647   3.575  15.629 -1.6713  3.0271 -0.7112
  599MPD2    H3 8936   4.482   3.732  15.684 -0.2676 -0.3017 -3.1242
  599MPD2     N 8937   4.199   3.453  15.881  0.0611  0.0218 -0.5351
  599MPD2    H5 8938   4.139   3.530  15.910  0.4959 -0.1546  0.8851
  599MPD2    N1 8939   4.612   3.297  15.647 -0.7260 -0.1760 -0.4023
  599MPD2    H7 8940   4.707   3.327  15.629 -1.3316  2.0661  0.0709
  600TMC3    C1 8941   4.077   3.345  16.049 -0.0179  0.2632  0.1678
  600TMC3    C2 8942   4.019   3.227  16.089 -0.2357 -0.0584  0.1823
  600TMC3    C3 8943   3.965   3.217  16.215 -0.0690  0.7462  0.2499
  600TMC3    C4 8944   4.080   3.454  16.131 -0.2469  0.2565  0.0222
  600TMC3    C5 8945   4.031   3.443  16.258  0.4712 -0.1463 -1.0980
  600TMC3    C6 8946   3.961   3.330  16.291 -0.4507 -0.3089 -0.0010
  600TMC3     C 8947   4.167   3.329  15.933 -0.9570 -0.2018  0.1600
  600TMC3     O 8948   4.216   3.221  15.906  0.2209 -0.2254  0.3622
  600TMC3     H 8949   4.036   3.144  16.020 -0.4932  0.1218 -0.0951
  600TMC3    H1 8950   4.121   3.546  16.092  0.1803 -0.2579 -0.7640
  600TMC3    H2 8951   3.908   3.343  16.384  0.8518  0.3467  0.6520
  600TMC3    C7 8952   4.034   3.555  16.349 -0.3825 -0.1156 -0.5473
  600TMC3    C8 8953   3.888   3.108  16.242  0.2980  0.0214  0.6855
  600TMC3    O1 8954   3.961   3.558  16.445 -0.2560 -0.1575 -0.3043
  600TMC3    O2 8955   3.820   3.074  16.152  0.7747  0.4912 -0.0475
  601MPD2     C 8956   2.186   1.952   0.041 -0.2561 -0.3311 -1.1604
  601MPD2    C1 8957   2.063   1.968   0.096 -0.1803  0.4556 -0.6195
  601MPD2    C2 8958   2.027   1.896   0.201  0.5212  1.1377  0.4233
  601MPD2    C3 8959   2.109   1.797   0.256  0.2069 -0.5462  0.1200
  601MPD2    C4 8960   2.237   1.778   0.195  0.7586 -0.1600 -0.2702
  601MPD2    C5 8961   2.275   1.858   0.088 -0.2618 -0.4090  0.0723
  601MPD2     H 8962   1.933   1.920   0.249 -0.0182  0.3815 -0.2630
  601MPD2    H1 8963   2.313   1.712   0.237  1.8872 -0.5531 -2.9414
  601MPD2    H2 8964   2.212   2.004  17.692  1.9427 -1.9383 -1.4695
  601MPD2    H3 8965   2.361   1.841   0.025 -0.8872  1.8342 -1.3891
  601MPD2     N 8966   2.070   1.720   0.370 -0.5361 -0.2033  0.5687
  601MPD2    H5 8967   2.135   1.653   0.411 -0.8333 -1.1934 -0.5829
  601MPD2    N1 8968   1.967   2.066   0.049  0.6441 -0.9485  0.0098
  601MPD2    H7 8969   1.887   2.080   0.110  0.7384 -1.9750  0.3644
  602TMC3    C1 8970   1.861   2.232  17.659  0.2957  0.2263 -0.4017
  602TMC3    C2 8971   1.868   2.353  17.600 -0.0653  0.4677  0.3525
  602TMC3    C3 8972   1.757   2.413  17.554  0.4230  0.3177  0.1635
  602TMC3    C4 8973   1.737   2.172  17.673  0.3441  0.3651 -0.2098
  602TMC3    C5 8974   1.625   2.228  17.619 -0.5692  0.4522 -0.6688
  602TMC3    C6 8975   1.631   2.349  17.557  0.1786 -0.0493 -0.3186
  602TMC3     C 8976   1.980   2.149  17.682  0.2657 -0.3175 -0.5225
  602TMC3     O 8977   2.084   2.177  17.620  0.7361 -0.2886 -0.1239
  602TMC3     H 8978   1.964   2.387  17.562 -0.8138  1.8614 -0.2800
  602TMC3    H1 8979   1.725   2.071  17.710 -1.0243  0.9795  1.0165
  602TMC3    H2 8980   1.535   2.397  17.543 -0.0097 -0.6209 -0.9801
  602TMC3    C7 8981   1.521   2.142  17.568  0.1656 -0.2207  0.7773
  602TMC3    C8 8982   1.769   2.520  17.464  0.4296  0.0001  0.0158
  602TMC3    O1 8983   1.506   2.035  17.629  0.0482  0.2174  0.2660
  602TMC3    O2 8984   1.861   2.598  17.481 -0.2517 -0.6701 -0.0836
  603TMC3    C1 8985   4.089   2.374  11.002  0.0833 -0.7399 -0.4464
  603TMC3    C2 8986   4.146   2.393  11.123  0.1527 -0.5333  0.2704
  603TMC3    C3 8987   4.248   2.484  11.141  0.4393 -0.1043 -0.5238
  603TMC3    C4 8988   4.142   2.438  10.890 -0.9160  0.6603  0.2636
  603TMC3    C5 8989   4.251   2.520  10.905  0.3572 -0.1420 -0.1930
  603TMC3    C6 8990   4.302   2.546  11.036  0.2472 -0.4757  0.3322
  603TMC3     C 8991   3.952   2.333  11.007 -0.3517 -0.5670 -0.0978
  603TMC3     O 8992   3.877   2.368  10.917 -0.1523  0.2927 -0.7438
  603TMC3     H 8993   4.100   2.349  11.211 -0.0096  0.3528  0.6310
  603TMC3    H1 8994   4.097   2.430  10.791  1.4502  1.8192 -0.8941
  603TMC3    H2 8995   4.402   2.584  11.052 -0.5598  1.5547  0.5505
  603TMC3    C7 8996   4.336   2.563  10.800  0.6115 -0.4548 -0.1125
  603TMC3    C8 8997   4.281   2.513  11.278 -0.6029  0.5842  0.6784
  603TMC3    O1 8998   4.426   2.641  10.831  0.3119  0.2564  0.3218
  603TMC3    O2 8999   4.257   2.428  11.365 -0.1020  0.3941  0.1334
  604MPD2     C 9000   0.777   1.406  16.697  0.4313  0.0022 -0.7929
  604MPD2    C1 9001   0.688   1.314  16.639  0.0094 -0.2384  0.1428
  604MPD2    C2 9002   0.716   1.254  16.519 -0.5652  0.0392 -0.4297
  604MPD2    C3 9003   0.836   1.281  16.459  0.0438  0.1161  0.2194
  604MPD2    C4 9004   0.928   1.365  16.517 -0.8995 -0.3668 -0.1380
  604MPD2    C5 9005   0.899   1.427  16.636  0.0817 -0.3834 -0.1486
  604MPD2     H 9006   0.652   1.183  16.468 -1.4971  1.2176 -0.8771
  604MPD2    H1 9007   1.025   1.384  16.471 -0.4879 -0.8872  0.5099
  604MPD2    H2 9008   0.765   1.467  16.786  0.5969  1.8039 -1.9951
  604MPD2    H3 9009   0.962   1.502  16.682  2.1102 -2.2286  0.0449
  604MPD2     N 9010   0.850   1.216  16.331  0.0463 -0.3220  0.0503
  604MPD2    H5 9011   0.768   1.165  16.299 -1.5613  2.7357 -0.6476
  604MPD2    N1 9012   0.573   1.294  16.714 -0.2627 -0.5977 -0.5774
  604MPD2    H7 9013   0.552   1.350  16.796  0.6189  1.0337 -1.4455
  605TMC3    C1 9014   0.360   1.222  16.794 -0.6133 -0.1476  0.3758
  605TMC3    C2 9015   0.398   1.321  16.883 -0.4222  0.0726  0.4835
  605TMC3    C3 9016   0.318   1.436  16.891  0.0763  0.2175  0.0607
  605TMC3    C4 9017   0.251   1.247  16.717  0.1729 -0.1121  0.6172
  605TMC3    C5 9018   0.176   1.360  16.729 -0.6348  0.1793  0.7689
  605TMC3    C6 9019   0.214   1.458  16.814  0.3344  0.0450 -0.1035
  605TMC3     C 9020   0.468   1.203  16.696  0.4305 -0.1318  0.2585
  605TMC3     O 9021   0.452   1.135  16.598 -0.6871  0.3003 -0.3188
  605TMC3     H 9022   0.479   1.303  16.953 -0.7049 -0.1750  0.7457
  605TMC3    H1 9023   0.232   1.166  16.648  0.8584 -0.1607  0.4887
  605TMC3    H2 9024   0.153   1.548  16.820  1.1553  0.7096 -1.7600
  605TMC3    C7 9025   0.067   1.384  16.638 -0.2320 -0.9591  0.5632
  605TMC3    C8 9026   0.414   1.548  16.909 -0.0780  0.4036 -0.1482
  605TMC3    O1 9027   0.051   1.499  16.599 -0.1567 -0.2921 -0.0425
  605TMC3    O2 9028   0.529   1.518  16.898  0.1940 -0.2107 -0.0447
  606TMC3    C1 9029   1.647   4.558  17.328  0.5186 -1.1192  0.3030
  606TMC3    C2 9030   1.594   4.541  17.451 -0.0137  0.1210  0.4079
  606TMC3    C3 9031   1.557   4.412  17.481 -0.4200  0.0161 -0.0656
  606TMC3    C4 9032   1.653   4.472  17.228  0.0911 -0.3491 -0.4047
  606TMC3    C5 9033   1.620   4.348  17.259  0.2267 -0.0146  0.4332
  606TMC3    C6 9034   1.573   4.317  17.383  0.3677  0.6072 -0.2285
  606TMC3     C 9035   1.687   4.696  17.289  0.0015  0.1744 -0.0908
  606TMC3     O 9036   1.735   4.723  17.181  0.9790  0.1825 -0.4025
  606TMC3     H 9037   1.578   4.617  17.527 -0.9308  1.2109 -0.8643
  606TMC3    H1 9038   1.695   4.492  17.130 -0.2007 -2.5598 -0.9789
  606TMC3    H2 9039   1.563   4.212  17.409 -2.1163  0.4903 -1.6288
  606TMC3    C7 9040   1.623   4.242  17.155  0.7044  0.7771  0.1584
  606TMC3    C8 9041   1.554   4.398  17.631 -0.0320 -0.6372  0.1717
  606TMC3    O1 9042   1.690   4.267  17.054  0.1367  0.3542  0.5580
  606TMC3    O2 9043   1.633   4.477  17.688 -0.8105 -0.0745 -0.0379
  607MPD2     C 9044   3.754   2.457  11.415  0.1244 -0.2036 -0.5586
  607MPD2    C1 9045   3.773   2.543  11.519 -0.2380  1.3349  0.2824
  607MPD2    C2 9046   3.724   2.516  11.650 -0.5338  0.3406 -0.3152
  607MPD2    C3 9047   3.666   2.391  11.672 -0.1242 -0.6240  0.2205
  607MPD2    C4 9048   3.653   2.302  11.566  0.2394  0.6077 -0.3181
  607MPD2    C5 9049   3.699   2.330  11.442 -0.3914  0.2073 -0.2935
  607MPD2     H 9050   3.735   2.579  11.737  3.0406 -0.7861  0.0584
  607MPD2    H1 9051   3.606   2.204  11.570  0.5788  0.4983  1.0764
  607MPD2    H2 9052   3.769   2.484  11.311  1.0426  0.7664 -0.1804
  607MPD2    H3 9053   3.691   2.258  11.362  2.1984 -1.2413  0.7629
  607MPD2     N 9054   3.629   2.360  11.800 -0.9469  0.9456 -0.2875
  607MPD2    H5 9055   3.666   2.429  11.865 -0.0736 -0.3792  0.6291
  607MPD2    N1 9056   3.843   2.661  11.501  0.3463 -0.0786 -0.0331
  607MPD2    H7 9057   3.837   2.729  11.577 -2.6975 -0.1141 -0.2662
  608TMC3    C1 9058   4.019   2.804  11.455  0.2420 -0.3939 -0.2273
  608TMC3    C2 9059   4.028   2.829  11.588 -0.0378  0.1753 -0.0242
  608TMC3    C3 9060   4.129   2.914  11.626 -0.2458  0.3574  0.1254
  608TMC3    C4 9061   4.104   2.857  11.364 -0.8099 -0.3534  0.2039
  608TMC3    C5 9062   4.189   2.964  11.406  0.1547  0.6284 -0.0377
  608TMC3    C6 9063   4.203   2.996  11.540 -0.4956  0.1514 -0.2370
  608TMC3     C 9064   3.938   2.686  11.412  0.1340 -0.5028  0.2681
  608TMC3     O 9065   3.974   2.618  11.314  0.4910  0.5552 -1.1076
  608TMC3     H 9066   3.974   2.771  11.662  0.6417  1.7138  1.6771
  608TMC3    H1 9067   4.093   2.830  11.260 -0.4612  1.3029 -0.2737
  608TMC3    H2 9068   4.278   3.063  11.581 -0.1765 -1.9281  2.5487
  608TMC3    C7 9069   4.238   3.058  11.307 -0.6248 -0.3122  0.0660
  608TMC3    C8 9070   4.132   2.941  11.772 -0.1943  0.6140 -0.5459
  608TMC3    O1 9071   4.197   3.042  11.194 -0.3485 -1.3842 -0.1433
  608TMC3    O2 9072   4.174   3.049  11.812 -0.3394  0.1616  0.6761
  609TMC3    C1 9073   3.282   2.538   9.274 -0.8777  0.1879  0.0279
  609TMC3    C2 9074   3.220   2.659   9.262  0.7883  0.4214 -0.1206
  609TMC3    C3 9075   3.291   2.767   9.211 -0.3822  0.6282 -0.0378
  609TMC3    C4 9076   3.418   2.541   9.275  0.2028  0.3594  0.6284
  609TMC3    C5 9077   3.486   2.652   9.244  0.4723  0.3077  0.6477
  609TMC3    C6 9078   3.427   2.768   9.211 -0.1039 -0.4471 -0.0850
  609TMC3     C 9079   3.214   2.444   9.362  0.3070 -0.4080 -0.1561
  609TMC3     O 9080   3.100   2.469   9.401  0.0452 -0.6766  0.2324
  609TMC3     H 9081   3.112   2.655   9.275  0.8845 -1.6237 -0.0032
  609TMC3    H1 9082   3.475   2.453   9.302 -0.2565  0.2406  1.1981
  609TMC3    H2 9083   3.495   2.851   9.221  1.7055 -1.7431 -1.6091
  609TMC3    C7 9084   3.637   2.643   9.273 -0.6102  0.1916 -0.3203
  609TMC3    C8 9085   3.215   2.897   9.205  0.3352  0.5748  0.5651
  609TMC3    O1 9086   3.663   2.558   9.358 -0.5120 -0.7441 -0.1551
  609TMC3    O2 9087   3.097   2.898   9.242 -0.1695  0.1325 -0.1848
  610TMC3    C1 9088   4.227   2.553  12.483  0.0259  0.3719  0.1037
  610TMC3    C2 9089   4.229   2.580  12.349 -0.2385 -0.3505  0.6783
  610TMC3    C3 9090   4.227   2.471  12.267  0.6789 -0.2100 -0.5758
  610TMC3    C4 9091   4.242   2.430  12.535 -0.2771  0.8646 -0.5943
  610TMC3    C5 9092   4.250   2.330  12.450  0.6407 -0.2761 -0.7734
  610TMC3    C6 9093   4.240   2.345  12.309  0.1164  0.8831  0.1265
  610TMC3     C 9094   4.201   2.652  12.579 -0.7580 -0.2396  0.9761
  610TMC3     O 9095   4.160   2.627  12.689 -0.2242  0.1779  0.2814
  610TMC3     H 9096   4.212   2.678  12.306  0.6222 -0.7267 -0.5120
  610TMC3    H1 9097   4.251   2.417  12.642 -1.4312 -0.0151 -0.5984
  610TMC3    H2 9098   4.252   2.264  12.237  2.1047  2.9241 -1.8281
  610TMC3    C7 9099   4.303   2.216  12.509  0.6011  0.0932  0.2111
  610TMC3    C8 9100   4.207   2.497  12.124 -0.5305  0.4263 -1.1338
  610TMC3    O1 9101   4.361   2.220  12.612 -0.7709  0.3978 -0.3088
  610TMC3    O2 9102   4.241   2.606  12.082  0.0067 -0.2229 -0.3218
  611MPD2     C 9103   4.048   1.577  10.213  0.2665  0.4370  0.5727
  611MPD2    C1 9104   4.049   1.703  10.280  0.4468  0.2934 -0.4941
  611MPD2    C2 9105   4.157   1.793  10.269 -0.4560  0.0839  0.2842
  611MPD2    C3 9106   4.255   1.760  10.172 -0.2696 -0.1426  0.0053
  611MPD2    C4 9107   4.253   1.635  10.114  0.0916  0.3678  0.0061
  611MPD2    C5 9108   4.159   1.538  10.133 -0.5327  0.5027 -0.0412
  611MPD2     H 9109   4.155   1.891  10.316  0.2889 -0.1343  0.7702
  611MPD2    H1 9110   4.333   1.598  10.050 -1.1254  0.2436 -1.4480
  611MPD2    H2 9111   3.968   1.506  10.231 -0.8680  1.5741 -0.0507
  611MPD2    H3 9112   4.156   1.434  10.101  0.6040  0.5618 -0.3399
  611MPD2     N 9113   4.344   1.871  10.143  0.5433 -0.1287 -0.0997
  611MPD2    H5 9114   4.327   1.950  10.204 -2.5748 -0.8729 -0.0046
  611MPD2    N1 9115   3.940   1.726  10.361 -0.3258  0.1251 -0.0640
  611MPD2    H7 9116   3.875   1.649  10.371  0.6801 -0.8695 -1.2088
  612TMC3    C1 9117   4.557   1.954  10.080  0.5943 -0.8023 -0.3019
  612TMC3    C2 9118   4.522   2.083  10.120 -0.8013  0.1497 -0.0314
  612TMC3    C3 9119   4.623   2.175  10.105 -0.0040 -0.3213 -0.0759
  612TMC3    C4 9120   4.672   1.922  10.019  0.0270  0.9028  0.4232
  612TMC3    C5 9121   0.029   2.022  10.001  0.6526 -0.4405 -0.4392
  612TMC3    C6 9122   0.011   2.151  10.043  0.7246 -0.3347  0.1220
  612TMC3     C 9123   4.455   1.848  10.064 -0.4314  0.3237 -0.9319
  612TMC3     O 9124   4.473   1.761   9.981 -0.5680  0.2959  0.5951
  612TMC3     H 9125   4.430   2.113  10.171  1.7875  2.0789  3.5227
  612TMC3    H1 9126   4.691   1.820   9.986  2.3791  1.5412 -0.2202
  612TMC3    H2 9127   0.088   2.225  10.058  0.5875 -0.0319 -0.7051
  612TMC3    C7 9128   0.156   1.971   9.979  0.0184 -0.2381  0.1165
  612TMC3    C8 9129   4.610   2.300  10.178 -0.5901 -0.5911 -0.4889
  612TMC3    O1 9130   0.188   1.865  10.030 -0.2650  0.5943  0.3454
  612TMC3    O2 9131   4.667   2.396  10.122 -0.2763  0.1803 -0.1475
  613MPD2     C 9132   2.877   0.071  17.312 -0.6187 -0.7511 -0.1857
  613MPD2    C1 9133   2.811   0.169  17.246  0.4244  0.1448  0.1985
  613MPD2    C2 9134   2.681   0.136  17.210  0.0681 -0.6214 -0.4303
  613MPD2    C3 9135   2.626   0.006  17.221  0.4356  0.9989 -0.3986
  613MPD2    C4 9136   2.697   4.647  17.295  0.1258 -0.0559 -0.1620
  613MPD2    C5 9137   2.820   4.683  17.332 -0.1439 -0.1337 -0.4415
  613MPD2     H 9138   2.624   0.216  17.164  2.0070  2.2047  2.1466
  613MPD2    H1 9139   2.656   4.551  17.325  0.6082 -0.3047 -0.2880
  613MPD2    H2 9140   2.980   0.084  17.345  0.6732  1.6216 -5.0725
  613MPD2    H3 9141   2.888   4.609  17.373  0.8618  2.1279  1.9763
  613MPD2     N 9142   2.500   4.700  17.164  0.0110  0.0329  0.4351
  613MPD2    H5 9143   2.481   4.601  17.167 -0.7499  0.1469 -0.5469
  613MPD2    N1 9144   2.882   0.286  17.216  0.1066 -0.3025 -0.4015
  613MPD2    H7 9145   2.970   0.293  17.266 -0.8837  0.9014  1.1813
  614TMC3    C1 9146   2.777   0.347  17.003 -0.7814  0.5013 -0.3000
  614TMC3    C2 9147   2.804   0.226  16.953  0.1546 -0.2687  0.6699
  614TMC3    C3 9148   2.750   0.186  16.832 -0.5595 -0.1516  0.0311
  614TMC3    C4 9149   2.684   0.422  16.938  0.1383 -0.0110  0.4846
  614TMC3    C5 9150   2.643   0.384  16.811  0.3962 -0.0327  0.5265
  614TMC3    C6 9151   2.678   0.269  16.754  0.1781  0.5682 -0.2984
  614TMC3     C 9152   2.841   0.393  17.131  0.1275  0.5343 -0.4913
  614TMC3     O 9153   2.883   0.508  17.126  0.0104 -0.6663 -0.1304
  614TMC3     H 9154   2.870   0.155  17.001 -0.8410 -1.6617 -0.0250
  614TMC3    H1 9155   2.661   0.521  16.977  0.9049 -0.8750  3.1250
  614TMC3    H2 9156   2.632   0.225  16.666 -0.2337 -0.9884  0.6777
  614TMC3    C7 9157   2.548   0.469  16.749 -0.7649 -0.4238  0.1388
  614TMC3    C8 9158   2.712   0.044  16.823 -0.0125 -0.1782 -0.2435
  614TMC3    O1 9159   2.521   0.578  16.796 -0.5338  0.8655 -0.5829
  614TMC3    O2 9160   2.602   0.019  16.769 -0.1370  0.1392 -0.4173
  615MPD2     C 9161   2.099   1.007  16.261 -0.3005  0.0157  0.3434
  615MPD2    C1 9162   2.168   1.126  16.282 -0.6448  0.4975  0.1179
  615MPD2    C2 9163   2.142   1.230  16.193  0.1183  1.0972 -0.5447
  615MPD2    C3 9164   2.050   1.212  16.092  0.2732  0.4350 -0.8222
  615MPD2    C4 9165   1.999   1.090  16.066 -0.1712 -0.0297 -0.8117
  615MPD2    C5 9166   2.006   0.993  16.161 -0.2752 -0.3458 -0.7925
  615MPD2     H 9167   2.200   1.316  16.223 -3.1341  3.3328 -0.6422
  615MPD2    H1 9168   1.922   1.092  15.989 -1.1841  1.1451  0.2310
  615MPD2    H2 9169   2.116   0.920  16.323  1.3810 -1.2104 -1.8270
  615MPD2    H3 9170   1.938   0.909  16.165 -0.1287 -0.3029  2.4806
  615MPD2     N 9171   2.005   1.320  16.008  0.2319  0.1934 -0.2017
  615MPD2    H5 9172   1.931   1.290  15.944 -1.7446 -1.2573  2.7823
  615MPD2    N1 9173   2.256   1.150  16.386 -0.3750 -0.0156 -0.5730
  615MPD2    H7 9174   2.321   1.226  16.365  0.0096 -0.4981 -1.1379
  616TMC3    C1 9175   2.378   1.144  16.571  0.3548 -0.1646 -0.8852
  616TMC3    C2 9176   2.492   1.202  16.503  0.0399  0.4497 -0.0880
  616TMC3    C3 9177   2.572   1.278  16.574  0.4178 -0.2909 -0.0856
  616TMC3    C4 9178   2.348   1.174  16.701 -0.3233 -0.1308  0.1718
  616TMC3    C5 9179   2.430   1.264  16.758  0.1266 -0.1600 -0.0210
  616TMC3    C6 9180   2.542   1.318  16.699  0.2906  0.4127 -0.1540
  616TMC3     C 9181   2.277   1.077  16.493 -0.0528 -0.9866 -0.1864
  616TMC3     O 9182   2.212   0.986  16.542  0.2896 -0.4882 -0.0980
  616TMC3     H 9183   2.514   1.160  16.405 -1.5767  0.6925 -0.5440
  616TMC3    H1 9184   2.267   1.125  16.755 -1.2357  0.7492 -0.4190
  616TMC3    H2 9185   2.615   1.381  16.750  0.7847  0.2766 -0.6955
  616TMC3    C7 9186   2.370   1.354  16.851 -0.0278  0.5403 -0.1757
  616TMC3    C8 9187   2.702   1.315  16.529 -0.3647 -0.7445 -0.3763
  616TMC3    O1 9188   2.452   1.396  16.929 -0.3240  0.2093  0.0581
  616TMC3    O2 9189   2.779   1.345  16.617  0.1791  0.3259 -0.5748
  617MPD2     C 9190   0.416   4.601  13.698 -0.0269 -0.3268 -0.5025
  617MPD2    C1 9191   0.445   4.510  13.795 -0.4916  0.4302 -0.0932
  617MPD2    C2 9192   0.345   4.493  13.891 -0.0056  0.1677 -0.4338
  617MPD2    C3 9193   0.219   4.553  13.877  0.6567  0.3051  0.6958
  617MPD2    C4 9194   0.201   4.649  13.787 -0.0269 -0.0669  0.3005
  617MPD2    C5 9195   0.301   4.675  13.697 -0.0756 -0.7690  0.1548
  617MPD2     H 9196   0.365   4.427  13.974  0.1564  1.7574  0.8037
  617MPD2    H1 9197   0.110   4.708  13.791  0.3051  0.4249  0.6724
  617MPD2    H2 9198   0.493   4.617  13.624  0.7375 -1.1900  0.1032
  617MPD2    H3 9199   0.283   0.019  13.627 -1.8971  0.0931  1.6018
  617MPD2     N 9200   0.110   4.529  13.970  0.0277  0.2048  0.3865
  617MPD2    H5 9201   0.025   4.583  13.959  0.4332  0.1011 -3.3021
  617MPD2    N1 9202   0.574   4.458  13.799  0.2204  0.1023  0.3199
  617MPD2    H7 9203   0.635   4.476  13.720 -1.1512  0.2891 -0.6869
  618TMC3    C1 9204   0.761   4.336  13.867 -0.5714  0.7884 -0.5956
  618TMC3    C2 9205   0.802   4.208  13.842  0.0925 -0.4434 -0.6444
  618TMC3    C3 9206   0.931   4.189  13.802 -0.7579 -0.5225 -0.0069
  618TMC3    C4 9207   0.837   4.448  13.859 -0.4368 -0.5235  0.0368
  618TMC3    C5 9208   0.971   4.422  13.833  0.6730  0.5402 -0.4679
  618TMC3    C6 9209   1.022   4.292  13.806 -0.0438  0.4879 -0.4656
  618TMC3     C 9210   0.625   4.367  13.893 -0.0962  0.5933 -0.9380
  618TMC3     O 9211   0.566   4.305  13.983  0.3804 -0.3100 -0.5393
  618TMC3     H 9212   0.730   4.129  13.826  0.2586 -0.1221 -3.0464
  618TMC3    H1 9213   0.803   4.549  13.880  3.0632  0.9769 -1.5007
  618TMC3    H2 9214   1.128   4.272  13.810  0.0376  0.8083 -0.9810
  618TMC3    C7 9215   1.061   4.536  13.838  1.1851 -0.4254 -0.8416
  618TMC3    C8 9216   0.933   4.098  13.691  0.5865 -0.1703 -0.0106
  618TMC3    O1 9217   1.051   4.598  13.941  0.1670  0.7493 -0.2906
  618TMC3    O2 9218   0.847   4.022  13.663 -0.6293 -0.2885 -0.0176
  619MPD2     C 9219   1.691   1.440  13.684 -0.4326 -0.1694  0.1180
  619MPD2    C1 9220   1.562   1.417  13.638 -0.0577  0.3914 -0.2644
  619MPD2    C2 9221   1.488   1.307  13.677  0.1930  0.1328  0.0627
  619MPD2    C3 9222   1.550   1.218  13.755  0.4465  0.1911  0.4954
  619MPD2    C4 9223   1.686   1.216  13.774  0.0957  0.1069  0.1850
  619MPD2    C5 9224   1.754   1.333  13.743  0.0873  0.1028 -0.4258
  619MPD2     H 9225   1.382   1.304  13.653  0.3413  0.3307 -0.6066
  619MPD2    H1 9226   1.738   1.139  13.831 -0.9215  0.5416  1.6827
  619MPD2    H2 9227   1.731   1.541  13.679  1.5476 -1.0796 -2.5769
  619MPD2    H3 9228   1.848   1.359  13.791 -1.5614  1.9397  1.7827
  619MPD2     N 9229   1.477   1.109  13.822 -0.5739  0.3407 -0.0283
  619MPD2    H5 9230   1.540   1.035  13.854 -0.2561  1.2031  1.3032
  619MPD2    N1 9231   1.497   1.510  13.556  0.3318 -0.1769  0.0425
  619MPD2    H7 9232   1.402   1.496  13.523  0.2580 -1.6532  0.9022
  620TMC3    C1 9233   1.460   1.702  13.418 -0.2852  0.4642  0.0314
  620TMC3    C2 9234   1.371   1.625  13.350  0.2540 -0.1440  0.5450
  620TMC3    C3 9235   1.266   1.682  13.289  0.4600  0.1405  0.1312
  620TMC3    C4 9236   1.443   1.837  13.432 -0.4866  0.0794  0.5304
  620TMC3    C5 9237   1.328   1.888  13.375  0.1387 -0.2167 -0.3231
  620TMC3    C6 9238   1.243   1.813  13.302  0.5074 -1.1149 -0.2359
  620TMC3     C 9239   1.547   1.639  13.514 -0.7898 -0.5680 -0.6738
  620TMC3     O 9240   1.653   1.693  13.531 -0.1465 -0.6661  0.0624
  620TMC3     H 9241   1.397   1.521  13.333  1.4557  0.1279  0.7077
  620TMC3    H1 9242   1.507   1.891  13.500  0.3911 -0.0311 -0.1952
  620TMC3    H2 9243   1.146   1.847  13.268  0.5532 -2.0180 -1.2722
  620TMC3    C7 9244   1.285   2.017  13.426  0.3810 -0.7172 -0.1651
  620TMC3    C8 9245   1.205   1.618  13.170 -0.1538  0.6242 -0.1519
  620TMC3    O1 9246   1.335   2.055  13.529 -0.4425 -0.6015  0.6082
  620TMC3    O2 9247   1.162   1.697  13.083 -0.0619  0.1641 -0.3227
  621MPD2     C 9248   2.494   0.293   9.911 -0.1726 -0.7298  0.6078
  621MPD2    C1 9249   2.386   0.376   9.884 -0.7190  0.2235 -0.4123
  621MPD2    C2 9250   2.389   0.514   9.892  0.5021  0.8818 -0.5485
  621MPD2    C3 9251   2.503   0.576   9.925 -0.0826  0.0290 -0.1505
  621MPD2    C4 9252   2.617   0.499   9.955  0.4235  0.2464  0.0953
  621MPD2    C5 9253   2.607   0.360   9.951 -0.1921  0.1065  0.6128
  621MPD2     H 9254   2.298   0.571   9.876  0.8602  1.7525  0.5402
  621MPD2    H1 9255   2.706   0.552   9.985  0.3370 -0.2473  1.2266
  621MPD2    H2 9256   2.492   0.185   9.902 -1.2447 -0.6838  0.3017
  621MPD2    H3 9257   2.691   0.303   9.989  0.4111 -0.0803 -0.9887
  621MPD2     N 9258   2.515   0.711   9.911 -0.7915 -0.7114  0.2278
  621MPD2    H5 9259   2.434   0.760   9.876 -0.2109 -0.4361 -0.7374
  621MPD2    N1 9260   2.268   0.311   9.852 -0.2345 -0.6567 -0.1041
  621MPD2    H7 9261   2.195   0.377   9.826  0.7207 -0.0006 -1.1052
  622TMC3    C1 9262   2.092   0.167   9.810 -0.0304  0.0631  0.2121
  622TMC3    C2 9263   1.998   0.267   9.841  0.6411  0.3588  0.8314
  622TMC3    C3 9264   1.863   0.242   9.825 -0.0807  0.3350 -0.2190
  622TMC3    C4 9265   2.050   0.054   9.751  0.7491  0.7078 -0.3302
  622TMC3    C5 9266   1.913   0.038   9.726 -0.2717 -0.1256  0.0715
  622TMC3    C6 9267   1.825   0.132   9.761  0.5305 -0.2175  0.4951
  622TMC3     C 9268   2.234   0.181   9.830  0.1512  0.1913  0.0619
  622TMC3     O 9269   2.301   0.089   9.784 -0.2214  0.1825 -0.5770
  622TMC3     H 9270   2.027   0.361   9.886  0.8325  0.3901  0.6474
  622TMC3    H1 9271   2.121   4.709   9.735 -0.1383 -0.5990  2.4528
  622TMC3    H2 9272   1.719   0.110   9.752  0.0800  2.6436 -1.2629
  622TMC3    C7 9273   1.871   4.664   9.641 -0.0353  0.6777 -0.8455
  622TMC3    C8 9274   1.766   0.356   9.816 -0.4107  0.3140  1.1702
  622TMC3    O1 9275   1.948   4.567   9.625  0.0425  0.4479  0.0942
  622TMC3    O2 9276   1.690   0.353   9.717 -0.2010 -0.1059  0.6502
  623MPD2     C 9277   1.028   2.004  15.989  0.1127  1.0427 -0.9651
  623MPD2    C1 9278   0.955   1.906  16.044  1.1113 -0.0182  0.6114
  623MPD2    C2 9279   0.979   1.892  16.180 -0.0082 -0.0356 -0.1530
  623MPD2    C3 9280   1.062   1.964  16.260 -0.3887 -0.4240  0.3946
  623MPD2    C4 9281   1.137   2.068  16.192 -0.4996  0.3555 -0.0520
  623MPD2    C5 9282   1.124   2.080  16.055 -0.2181 -0.1114 -0.1687
  623MPD2     H 9283   0.933   1.806  16.227 -0.8029  0.5808  0.1873
  623MPD2    H1 9284   1.203   2.138  16.241  1.5244 -0.1941 -1.9696
  623MPD2    H2 9285   1.026   2.017  15.882  0.8065 -0.5426 -1.1735
  623MPD2    H3 9286   1.187   2.148  16.000  2.4617 -1.7635  0.8204
  623MPD2     N 9287   1.071   1.945  16.399 -0.8283 -1.1395 -0.0150
  623MPD2    H5 9288   1.005   1.881  16.443 -0.2091  0.0889  2.7644
  623MPD2    N1 9289   0.864   1.819  15.979 -0.0083  1.0552 -0.0248
  623MPD2    H7 9290   0.818   1.751  16.039  1.1835 -0.1025 -0.4127
  624TMC3    C1 9291   1.224   1.837  16.796  0.7702 -0.7566  0.3617
  624TMC3    C2 9292   1.104   1.795  16.843 -0.1418  0.2259 -0.5621
  624TMC3    C3 9293   0.996   1.859  16.772 -0.2082  0.5620  0.2733
  624TMC3    C4 9294   1.253   1.917  16.688  0.0344  0.5906  0.4524
  624TMC3    C5 9295   1.140   1.964  16.623  0.0157 -0.0002 -0.1416
  624TMC3    C6 9296   1.021   1.933  16.660 -1.3768 -0.3457  0.6548
  624TMC3     C 9297   1.337   1.790  16.868  0.3780  0.0331  0.1332
  624TMC3     O 9298   1.441   1.856  16.875 -0.0331  0.0706  0.2847
  624TMC3     H 9299   1.094   1.725  16.925 -2.2985 -2.2141 -2.9200
  624TMC3    H1 9300   1.351   1.955  16.662 -0.0189  0.4112  0.0054
  624TMC3    H2 9301   0.942   1.985  16.606  0.3633 -0.1614 -1.7005
  624TMC3    C7 9302   1.161   2.007  16.486 -0.3710 -0.5806  0.6077
  624TMC3    C8 9303   0.861   1.820  16.810  0.4125  0.4550  0.5811
  624TMC3    O1 9304   1.254   2.078  16.461 -0.2199  0.0305  0.0741
  624TMC3    O2 9305   0.853   1.713  16.865  0.0509  0.0234 -0.3584
  625MPD2     C 9306   1.498   2.697   0.849 -0.4031  0.8942  0.5785
  625MPD2    C1 9307   1.547   2.824   0.829  0.4532 -0.3764  0.5398
  625MPD2    C2 9308   1.686   2.845   0.823 -0.0312 -0.2263 -0.4723
  625MPD2    C3 9309   1.775   2.738   0.851  0.0715 -0.3535 -0.1221
  625MPD2    C4 9310   1.715   2.614   0.883  0.0612 -0.0794  0.1875
  625MPD2    C5 9311   1.583   2.593   0.869 -0.3271  0.3721  0.4319
  625MPD2     H 9312   1.722   2.944   0.800  0.7427  0.0909  2.0537
  625MPD2    H1 9313   1.771   2.524   0.905  2.6106  1.4218 -0.1764
  625MPD2    H2 9314   1.390   2.685   0.847 -0.1835 -1.1478  0.8493
  625MPD2    H3 9315   1.543   2.495   0.887  1.8274 -0.3935  1.0682
  625MPD2     N 9316   1.919   2.757   0.843  0.0594 -0.1958 -0.3859
  625MPD2    H5 9317   1.950   2.842   0.798 -0.1292  1.3498  2.3880
  625MPD2    N1 9318   1.451   2.924   0.801 -0.1082 -0.1027 -0.2541
  625MPD2    H7 9319   1.352   2.900   0.808 -0.2053 -0.0627 -1.4657
  626TMC3    C1 9320   1.359   3.120   0.744 -0.2826  0.0380  0.2140
  626TMC3    C2 9321   1.286   3.069   0.638 -0.6197 -0.0200 -0.0780
  626TMC3    C3 9322   1.178   3.148   0.600  0.1892 -0.5633 -0.3183
  626TMC3    C4 9323   1.317   3.210   0.834  0.1349 -0.4501  0.0039
  626TMC3    C5 9324   1.198   3.266   0.804 -0.9607  0.4169 -0.0755
  626TMC3    C6 9325   1.135   3.247   0.681  0.1236  0.2131  0.3259
  626TMC3     C 9326   1.474   3.055   0.787  0.2255 -0.7790  0.5920
  626TMC3     O 9327   1.576   3.119   0.802 -0.5727  0.3270  0.0649
  626TMC3     H 9328   1.333   3.001   0.568  1.3217 -0.5953  1.8025
  626TMC3    H1 9329   1.373   3.258   0.913  1.0565 -0.8051 -0.4319
  626TMC3    H2 9330   1.050   3.314   0.668  0.2306  0.3823  0.4942
  626TMC3    C7 9331   1.134   3.355   0.908 -0.5518 -1.0844 -0.3159
  626TMC3    C8 9332   1.097   3.130   0.479 -0.6805  0.6789  0.0514
  626TMC3    O1 9333   1.206   3.410   0.993 -0.0031 -0.2438  0.5055
  626TMC3    O2 9334   1.153   3.082   0.383 -0.1881 -0.8541  0.1303
  627MPD2     C 9335   4.348   3.137  14.238 -0.8144 -0.0095 -0.1603
  627MPD2    C1 9336   4.443   3.106  14.328  0.4592  0.2237  0.5269
  627MPD2    C2 9337   4.448   2.981  14.399 -0.4365  0.0095  0.2979
  627MPD2    C3 9338   4.348   2.891  14.354 -0.5982  0.0120  0.3785
  627MPD2    C4 9339   4.251   2.929  14.263  0.3005  0.2694 -0.1570
  627MPD2    C5 9340   4.251   3.045  14.204  0.2050 -0.3251 -0.3443
  627MPD2     H 9341   4.523   2.945  14.468 -1.5651 -0.1425  1.4511
  627MPD2    H1 9342   4.179   2.849  14.245 -0.7938  1.4017 -0.8188
  627MPD2    H2 9343   4.338   3.224  14.175  0.6030 -0.8042 -1.4598
  627MPD2    H3 9344   4.182   3.054  14.121  0.4982  2.1296 -0.3119
  627MPD2     N 9345   4.330   2.761  14.418 -0.1825  0.0704  0.4513
  627MPD2    H5 9346   4.257   2.700  14.384  0.4001  1.0470 -2.6007
  627MPD2    N1 9347   4.550   3.194  14.349  0.4117 -0.3722 -0.1325
  627MPD2    H7 9348   4.627   3.153  14.401 -0.4955  0.0714  1.5679
  628TMC3    C1 9349   4.702   3.378  14.329 -0.3510 -0.4066  0.0016
  628TMC3    C2 9350   0.070   3.291  14.315 -0.8902  0.1814 -0.7127
  628TMC3    C3 9351   0.180   3.308  14.395 -0.7829 -0.1517  0.0396
  628TMC3    C4 9352   4.704   3.489  14.408  0.2775 -0.0018 -0.3226
  628TMC3    C5 9353   0.081   3.500  14.495  1.0805 -0.3943  0.1553
  628TMC3    C6 9354   0.185   3.409  14.492 -0.4475 -0.6851  0.1842
  628TMC3     C 9355   4.570   3.322  14.300 -0.3774  0.7016 -0.4508
  628TMC3     O 9356   4.483   3.403  14.266 -0.2860 -0.1246 -0.1332
  628TMC3     H 9357   0.058   3.213  14.240 -0.8329 -1.0745  0.5806
  628TMC3    H1 9358   4.621   3.559  14.413  0.4147  0.2850 -2.0317
  628TMC3    H2 9359   0.266   3.407  14.565 -0.3895 -0.4378  0.1247
  628TMC3    C7 9360   0.105   3.626  14.571 -0.2890  0.7060 -0.4663
  628TMC3    C8 9361   0.301   3.253  14.355  0.2587  0.4069 -1.0195
  628TMC3    O1 9362   0.220   3.630  14.619  0.4424  0.7067 -0.4507
  628TMC3    O2 9363   0.304   3.209  14.239 -0.3334  0.3603  0.2855
  629MPD2     C 9364   2.986   1.584  16.214 -0.3954 -0.3275 -0.1474
  629MPD2    C1 9365   3.017   1.527  16.334  0.4368  0.9728 -0.4892
  629MPD2    C2 9366   2.926   1.450  16.398  0.2253  0.1282  0.2130
  629MPD2    C3 9367   2.799   1.431  16.339  0.5906  0.1445  0.2908
  629MPD2    C4 9368   2.777   1.479  16.215  0.1356  1.1982 -0.4288
  629MPD2    C5 9369   2.865   1.566  16.161 -0.1794  0.3457 -0.2080
  629MPD2     H 9370   2.961   1.401  16.487 -1.2548  0.1649  0.8196
  629MPD2    H1 9371   2.679   1.464  16.171  0.7045 -1.2515 -0.8792
  629MPD2    H2 9372   3.048   1.664  16.175 -0.1533  0.4351  1.7792
  629MPD2    H3 9373   2.843   1.611  16.065  0.0873  2.4707  0.7098
  629MPD2     N 9374   2.693   1.357  16.400 -0.0215 -0.6339  0.0544
  629MPD2    H5 9375   2.603   1.364  16.354 -0.7342 -0.0898  1.5682
  629MPD2    N1 9376   3.152   1.556  16.379 -0.1921 -0.3393  0.5968
  629MPD2    H7 9377   3.212   1.617  16.324 -2.3851 -0.7418 -2.2108
  630TMC3    C1 9378   3.339   1.554  16.525 -0.2393  0.2057 -0.7675
  630TMC3    C2 9379   3.396   1.654  16.453  0.7416  0.0676 -0.2270
  630TMC3    C3 9380   3.519   1.701  16.478 -0.1176  0.8671 -0.4377
  630TMC3    C4 9381   3.411   1.510  16.635  0.4171  0.4204 -0.2268
  630TMC3    C5 9382   3.526   1.570  16.671 -0.3786 -0.1279  0.2619
  630TMC3    C6 9383   3.585   1.662  16.589  0.3900  1.1471 -0.4166
  630TMC3     C 9384   3.204   1.507  16.495  0.3163  0.3076  0.2693
  630TMC3     O 9385   3.160   1.435  16.583 -0.0303  0.3104  0.2824
  630TMC3     H 9386   3.358   1.676  16.354 -0.9228 -1.6751  0.0319
  630TMC3    H1 9387   3.353   1.452  16.706 -0.9023 -0.2539 -1.8292
  630TMC3    H2 9388   3.678   1.709  16.620  0.2746 -0.0302  1.6726
  630TMC3    C7 9389   3.552   1.570  16.811 -0.5203  0.3608 -0.2597
  630TMC3    C8 9390   3.572   1.821  16.407  0.2748 -0.4957  0.2635
  630TMC3    O1 9391   3.497   1.480  16.872  0.1746 -0.0789 -0.0466
  630TMC3    O2 9392   3.672   1.871  16.455 -0.1323 -0.5508  0.0541
  631MPD2     C 9393   1.251   1.887  15.726  0.3336 -0.0776 -0.2429
  631MPD2    C1 9394   1.340   1.926  15.629 -0.0271 -0.8582 -0.2523
  631MPD2    C2 9395   1.467   1.867  15.627 -0.0137  0.2200  0.9356
  631MPD2    C3 9396   1.503   1.771  15.722  0.8976 -0.3456 -0.2883
  631MPD2    C4 9397   1.414   1.734  15.816 -0.2547  0.1314  0.3662
  631MPD2    C5 9398   1.292   1.801  15.823 -0.7610  0.0171  0.8160
  631MPD2     H 9399   1.528   1.895  15.541  0.4345 -0.2565  1.0995
  631MPD2    H1 9400   1.444   1.663  15.893 -1.4279 -3.0958 -2.1584
  631MPD2    H2 9401   1.151   1.929  15.736  0.6795  1.4807 -3.2544
  631MPD2    H3 9402   1.229   1.784  15.910 -3.2757 -1.5367 -1.2871
  631MPD2     N 9403   1.630   1.705  15.704 -0.6140  0.3465  0.6297
  631MPD2    H5 9404   1.705   1.748  15.651  1.2468 -2.8820  0.6569
  631MPD2    N1 9405   1.280   2.014  15.534 -0.6071  0.1531 -0.4712
  631MPD2    H7 9406   1.187   2.050  15.555 -0.5746  0.7452 -1.3174
  632TMC3    C1 9407   1.260   2.151  15.351  0.5765  0.3026  0.2016
  632TMC3    C2 9408   1.153   2.221  15.406  0.3543 -0.2397  0.6661
  632TMC3    C3 9409   1.068   2.288  15.318 -0.1858 -0.5556  0.0073
  632TMC3    C4 9410   1.284   2.155  15.214 -0.4208 -0.2770  0.5643
  632TMC3    C5 9411   1.199   2.227  15.137 -0.4111 -0.3814  1.3042
  632TMC3    C6 9412   1.085   2.288  15.186 -0.3356  0.9037  0.5453
  632TMC3     C 9413   1.345   2.058  15.425  0.2691  0.0660  0.2941
  632TMC3     O 9414   1.457   2.024  15.383 -0.2295  0.4383 -0.9410
  632TMC3     H 9415   1.121   2.224  15.509  0.9265 -0.3805  0.8442
  632TMC3    H1 9416   1.369   2.099  15.174 -0.2626  0.2940  0.1089
  632TMC3    H2 9417   1.021   2.341  15.116 -1.1584  1.8823  2.0458
  632TMC3    C7 9418   1.228   2.223  14.997  0.3429  0.1272  0.4115
  632TMC3    C8 9419   0.952   2.362  15.376  0.0678 -0.4965  0.5559
  632TMC3    O1 9420   1.137   2.250  14.919 -0.2362  0.4815  0.1900
  632TMC3    O2 9421   0.859   2.378  15.300  0.0701  0.1101 -0.7069
  633MPD2     C 9422   0.978   4.412  17.385  0.5288  0.3627 -0.0044
  633MPD2    C1 9423   0.938   4.412  17.256  0.3514 -0.1413 -0.3277
  633MPD2    C2 9424   0.902   4.287  17.194 -0.5885  0.1676  0.1992
  633MPD2    C3 9425   0.886   4.169  17.265 -0.2519  0.5403  0.4619
  633MPD2    C4 9426   0.936   4.167  17.393  0.1297 -0.4564  0.8019
  633MPD2    C5 9427   0.980   4.287  17.447 -0.1061  0.3899  0.8645
  633MPD2     H 9428   0.862   4.297  17.093  0.3918  0.8059 -0.1274
  633MPD2    H1 9429   0.932   4.068  17.438  2.8107 -0.2260  1.5174
  633MPD2    H2 9430   1.005   4.500  17.442 -0.6038  0.3849  0.4945
  633MPD2    H3 9431   1.008   4.281  17.551  0.3264 -0.2983  0.7124
  633MPD2     N 9432   0.830   4.052  17.206  0.1016  0.3336  0.3995
  633MPD2    H5 9433   0.830   3.967  17.262 -2.7294  0.9692  1.3508
  633MPD2    N1 9434   0.935   4.523  17.168  0.0831 -0.2070  0.0573
  633MPD2    H7 9435   0.923   4.496  17.072  1.2795  0.5187 -0.3034
  634TMC3    C1 9436   1.017   4.729  17.088 -0.6521  0.0559 -0.2256
  634TMC3    C2 9437   1.078   4.662  16.985 -0.2621 -0.8733 -0.1651
  634TMC3    C3 9438   1.138   4.729  16.876 -0.4637 -0.0505 -0.1501
  634TMC3    C4 9439   1.022   0.131  17.094 -0.3037  0.6037 -0.1313
  634TMC3    C5 9440   1.069   0.193  16.980  0.0530  0.4897  0.6899
  634TMC3    C6 9441   1.130   0.126  16.880 -0.0539  0.1473 -0.2747
  634TMC3     C 9442   0.968   4.658  17.200  0.3333  0.0177 -0.5650
  634TMC3     O 9443   0.973   4.709  17.311 -0.0090  0.0830  0.1567
  634TMC3     H 9444   1.076   4.554  16.989 -0.5527 -0.8722 -0.2177
  634TMC3    H1 9445   0.987   0.182  17.183  0.2580 -1.5585  1.3366
  634TMC3    H2 9446   1.165   0.174  16.790 -0.4274 -0.0578 -0.5326
  634TMC3    C7 9447   1.045   0.334  16.948 -0.3313  0.3528 -0.0880
  634TMC3    C8 9448   1.148   4.655  16.749 -0.2031 -0.7278 -0.0342
  634TMC3    O1 9449   1.095   0.367  16.843  0.1496  0.4344  0.1332
  634TMC3    O2 9450   1.098   4.544  16.738 -0.1997  0.2472 -0.6453
  635TMC3    C1 9451   1.117   1.155   0.903 -0.1560 -0.0185  0.6075
  635TMC3    C2 9452   1.142   1.032   0.960  0.0791  1.3136 -0.1446
  635TMC3    C3 9453   1.035   0.975   1.019  0.3315  0.0061  0.5458
  635TMC3    C4 9454   0.990   1.212   0.908 -0.7164 -0.1677  0.4665
  635TMC3    C5 9455   0.894   1.151   0.982  0.0082  0.0747  0.2340
  635TMC3    C6 9456   0.911   1.030   1.044  0.5347 -0.4688  0.2088
  635TMC3     C 9457   1.226   1.241   0.866  0.0317 -0.1848  0.4704
  635TMC3     O 9458   1.339   1.193   0.866 -0.5007 -0.8538  0.3893
  635TMC3     H 9459   1.236   0.978   0.951  0.0894  1.6041 -1.8712
  635TMC3    H1 9460   0.965   1.287   0.833 -1.6771  1.8573  2.7821
  635TMC3    H2 9461   0.826   0.981   1.090 -0.7082  1.2994 -0.1965
  635TMC3    C7 9462   0.791   1.246   1.027  0.0265  0.2305 -0.2411
  635TMC3    C8 9463   1.031   0.836   1.045  0.1664  0.0850 -0.1214
  635TMC3    O1 9464   0.788   1.361   0.984  0.2354  0.5160 -1.1715
  635TMC3    O2 9465   0.936   0.794   1.111  0.0312  0.3832 -0.1728
  636MPD2     C 9466   1.978   0.462  16.461 -0.8210 -0.5971 -0.2178
  636MPD2    C1 9467   2.003   0.485  16.593  0.1376  0.0328  0.3930
  636MPD2    C2 9468   2.071   0.385  16.656  0.1231  0.1151 -0.0763
  636MPD2    C3 9469   2.109   0.269  16.594  0.0414  0.1343  0.1049
  636MPD2    C4 9470   2.078   0.239  16.463 -0.1923 -0.0188  0.7910
  636MPD2    C5 9471   2.012   0.337  16.399  0.0001 -0.1863  0.3774
  636MPD2     H 9472   2.102   0.406  16.758 -1.7340 -0.3018  0.5790
  636MPD2    H1 9473   2.102   0.148  16.410 -0.7210  0.2218  0.1429
  636MPD2    H2 9474   1.918   0.528  16.400  0.3750 -0.4141 -1.1982
  636MPD2    H3 9475   1.986   0.322  16.295 -0.3091 -1.0962  0.5916
  636MPD2     N 9476   2.171   0.175  16.679 -0.0493 -1.0884 -0.3229
  636MPD2    H5 9477   2.189   0.205  16.774  1.8757 -0.1828 -0.9630
  636MPD2    N1 9478   1.975   0.609  16.650 -0.5898 -0.1817  0.2971
  636MPD2    H7 9479   2.004   0.621  16.746 -1.6165  1.7116  0.3829
  637TMC3    C1 9480   2.256   4.712  16.767  0.9132 -0.1459 -0.6425
  637TMC3    C2 9481   2.289   0.044  16.880  0.1966  0.4386 -0.4829
  637TMC3    C3 9482   2.348   4.713  16.978 -0.5800 -0.0625 -0.0068
  637TMC3    C4 9483   2.283   4.582  16.750  0.4325  0.1652  0.1325
  637TMC3    C5 9484   2.346   4.514  16.852  0.4007 -0.3057  0.4172
  637TMC3    C6 9485   2.364   4.575  16.968  0.3486  0.6508 -0.4033
  637TMC3     C 9486   2.219   0.048  16.652 -0.0134 -0.0487 -0.2138
  637TMC3     O 9487   2.226   4.714  16.552  0.3897  0.3890  0.4249
  637TMC3     H 9488   2.281   0.151  16.895  0.8491  0.8369 -3.0624
  637TMC3    H1 9489   2.266   4.519  16.663  2.3684  0.1678 -0.2459
  637TMC3    H2 9490   2.386   4.519  17.058  2.3999  1.0228 -0.6556
  637TMC3    C7 9491   2.365   4.369  16.849 -0.2692  0.2465 -0.0275
  637TMC3    C8 9492   2.419   0.046  17.087  0.3263  1.0028 -0.1242
  637TMC3    O1 9493   2.274   4.311  16.785  0.3504 -0.0987  0.5006
  637TMC3    O2 9494   2.426   0.168  17.070 -0.7222  0.1515  0.0531
  638MPD2     C 9495   2.485   3.923  14.689 -0.0609 -0.5284  0.2423
  638MPD2    C1 9496   2.458   3.804  14.626 -0.6874 -0.4981 -0.1112
  638MPD2    C2 9497   2.361   3.714  14.675 -0.2697  0.2317  0.8413
  638MPD2    C3 9498   2.297   3.733  14.797  0.1740  1.1387  0.0635
  638MPD2    C4 9499   2.325   3.854  14.862  0.2996  0.4096  0.7404
  638MPD2    C5 9500   2.412   3.943  14.802  0.0119 -0.2097 -0.4738
  638MPD2     H 9501   2.364   3.624  14.613 -3.6449 -0.0601  1.0988
  638MPD2    H1 9502   2.289   3.892  14.957 -2.3446  0.6483 -0.3784
  638MPD2    H2 9503   2.550   4.005  14.659 -1.3122  0.0276 -0.9473
  638MPD2    H3 9504   2.431   4.037  14.853 -0.5845  0.2955 -1.1599
  638MPD2     N 9505   2.214   3.631  14.842  0.5831 -0.0954 -0.6478
  638MPD2    H5 9506   2.220   3.547  14.785  1.7536 -0.3260 -0.1873
  638MPD2    N1 9507   2.523   3.764  14.508 -0.4063 -0.5838 -0.0593
  638MPD2    H7 9508   2.520   3.667  14.478 -1.0522 -1.0674  1.5840
  639TMC3    C1 9509   2.068   3.494  14.958 -0.1461  0.1246 -0.3030
  639TMC3    C2 9510   1.930   3.478  14.948 -0.6022 -0.4109 -0.6797
  639TMC3    C3 9511   1.872   3.351  14.925  0.3651  0.2451 -0.3889
  639TMC3    C4 9512   2.149   3.385  14.939  0.0992 -0.5554 -0.1220
  639TMC3    C5 9513   2.090   3.262  14.912 -0.1651  0.5577  0.3687
  639TMC3    C6 9514   1.952   3.235  14.918  0.3982 -0.0282 -1.1424
  639TMC3     C 9515   2.123   3.630  14.941  0.1345  0.1729  0.0005
  639TMC3     O 9516   2.073   3.718  15.002  0.1512  0.2420 -0.3133
  639TMC3     H 9517   1.872   3.568  14.930 -1.3575 -1.0480 -1.4429
  639TMC3    H1 9518   2.256   3.402  14.939 -0.1493  1.0147 -1.3029
  639TMC3    H2 9519   1.915   3.137  14.892  0.2576 -0.6934  1.5544
  639TMC3    C7 9520   2.170   3.142  14.897  0.4664  0.1381  0.4887
  639TMC3    C8 9521   1.731   3.335  14.898  0.0673  0.1750  0.2974
  639TMC3    O1 9522   2.106   3.040  14.914 -0.2255 -0.3099  0.3068
  639TMC3    O2 9523   1.649   3.418  14.926 -0.0238 -0.2964 -0.2961
  640MPD2     C 9524   3.090   2.180  10.093  0.0536 -0.2726  0.5886
  640MPD2    C1 9525   3.082   2.292  10.010 -0.1091  0.1499 -0.0941
  640MPD2    C2 9526   2.991   2.391  10.044 -0.5306  0.1867  0.1556
  640MPD2    C3 9527   2.907   2.377  10.157 -0.4791  0.0465 -0.2372
  640MPD2    C4 9528   2.912   2.257  10.226  0.6783 -0.2910 -0.0560
  640MPD2    C5 9529   3.003   2.161  10.191 -0.4987  0.3321  0.3075
  640MPD2     H 9530   2.980   2.479   9.981 -0.3527  0.3507  0.3543
  640MPD2    H1 9531   2.842   2.243  10.309  0.9203  1.3586  0.4192
  640MPD2    H2 9532   3.162   2.100  10.074  0.6883  0.5131 -0.3326
  640MPD2    H3 9533   3.006   2.070  10.250  0.8141  0.2028  0.0292
  640MPD2     N 9534   2.820   2.480  10.201 -0.3134 -0.6393  0.3348
  640MPD2    H5 9535   2.755   2.468  10.278 -1.7751  1.8919 -0.5079
  640MPD2    N1 9536   3.165   2.304   9.895 -0.0143 -0.5913  0.5163
  640MPD2    H7 9537   3.246   2.244   9.903 -1.2856 -1.9252  3.2961
  641TMC3    C1 9538   3.272   2.426   9.730  0.1337 -0.2809 -0.2758
  641TMC3    C2 9539   3.387   2.347   9.755  0.5673 -0.0312 -0.6788
  641TMC3    C3 9540   3.502   2.399   9.700  0.0775  0.4173 -0.4537
  641TMC3    C4 9541   3.277   2.542   9.667  0.0178  0.2832 -0.1122
  641TMC3    C5 9542   3.400   2.596   9.647  0.5518 -0.3143  0.1480
  641TMC3    C6 9543   3.517   2.529   9.664  0.1995  0.3608  0.3774
  641TMC3     C 9544   3.153   2.398   9.799  0.0724 -0.3363  0.5528
  641TMC3     O 9545   3.059   2.471   9.776  0.6458 -0.3285  0.1849
  641TMC3     H 9546   3.384   2.243   9.787  0.7345  0.7639  1.9430
  641TMC3    H1 9547   3.183   2.589   9.638 -0.2265 -1.0011 -1.4015
  641TMC3    H2 9548   3.608   2.573   9.624  0.9300  0.8292  2.6025
  641TMC3    C7 9549   3.404   2.735   9.597 -0.4093 -0.6287 -0.3672
  641TMC3    C8 9550   3.624   2.320   9.683  0.8512  0.2704 -0.0062
  641TMC3    O1 9551   3.292   2.782   9.584 -0.3899  0.0107  0.2341
  641TMC3    O2 9552   3.720   2.378   9.630 -0.6875  0.1127  0.7476
  642TMC3    C1 9553   3.453   3.373  12.981 -0.4446 -0.6451  0.2485
  642TMC3    C2 9554   3.588   3.350  12.990 -0.3895  0.0393  0.5640
  642TMC3    C3 9555   3.636   3.225  12.970 -0.3980 -0.7332 -0.3422
  642TMC3    C4 9556   3.368   3.273  12.933  0.6551 -0.4622 -0.1396
  642TMC3    C5 9557   3.418   3.147  12.913 -0.1113  0.5512  0.2912
  642TMC3    C6 9558   3.547   3.120  12.951  0.1184  0.1248  0.3605
  642TMC3     C 9559   3.402   3.499  13.033 -0.0272 -0.1846  0.5660
  642TMC3     O 9560   3.449   3.545  13.135  0.0215 -0.5885  0.1425
  642TMC3     H 9561   3.651   3.427  13.034 -0.0262  1.2549 -2.0418
  642TMC3    H1 9562   3.265   3.307  12.928  1.0397  0.5664 -0.9864
  642TMC3    H2 9563   3.592   3.026  12.922 -1.5504 -1.1830  2.0683
  642TMC3    C7 9564   3.341   3.028  12.885  1.0750  0.5258  0.9221
  642TMC3    C8 9565   3.765   3.184  13.020 -0.3953  0.1682  0.1028
  642TMC3    O1 9566   3.411   2.927  12.874 -0.3370  0.6224  0.7877
  642TMC3    O2 9567   3.783   3.062  13.032 -0.1839  0.4541  0.1430
  643TMC3    C1 9568   2.845   2.479   0.625  0.2060 -0.1396  0.6525
  643TMC3    C2 9569   2.831   2.614   0.657  0.1919  0.6385  0.3810
  643TMC3    C3 9570   2.855   2.714   0.568 -0.8931  0.4596 -0.0713
  643TMC3    C4 9571   2.898   2.450   0.498  0.7850  0.1640  0.0365
  643TMC3    C5 9572   2.929   2.550   0.416 -0.1609  0.0928  0.7054
  643TMC3    C6 9573   2.893   2.681   0.442 -0.4044 -0.4089 -0.3880
  643TMC3     C 9574   2.859   2.397   0.743 -0.1960  0.1190  0.5045
  643TMC3     O 9575   2.805   2.436   0.842  0.0746  0.0642  0.0524
  643TMC3     H 9576   2.799   2.638   0.758  0.8296  1.8739  0.2861
  643TMC3    H1 9577   2.921   2.348   0.469 -1.4816 -0.4511  0.4713
  643TMC3    H2 9578   2.904   2.748   0.357 -2.6492 -1.2614 -1.3438
  643TMC3    C7 9579   2.972   2.535   0.274 -0.4341  0.4279 -0.3636
  643TMC3    C8 9580   2.818   2.855   0.601 -0.1415 -0.4308  0.4770
  643TMC3    O1 9581   3.052   2.618   0.234  0.6218 -0.2516  0.5945
  643TMC3    O2 9582   2.729   2.865   0.685 -0.4269 -0.1211  0.0222
  644MPD2     C 9583   2.963   3.015   9.558 -0.0244  0.2448  0.2699
  644MPD2    C1 9584   3.036   3.118   9.601  1.0114  0.3853  0.0691
  644MPD2    C2 9585   2.997   3.248   9.567  0.0756  1.1666 -0.0021
  644MPD2    C3 9586   2.864   3.263   9.522 -0.8178  0.1235  0.4197
  644MPD2    C4 9587   2.787   3.150   9.488 -0.2262 -0.0245 -0.7183
  644MPD2    C5 9588   2.839   3.023   9.501  0.6008  0.3421 -0.0800
  644MPD2     H 9589   3.062   3.333   9.585  1.1103  0.1291  1.1530
  644MPD2    H1 9590   2.686   3.157   9.450  0.5374 -0.4839 -2.8321
  644MPD2    H2 9591   2.996   2.914   9.580 -0.1132 -0.0033 -0.7420
  644MPD2    H3 9592   2.782   2.935   9.473  1.7214 -0.4649  0.1907
  644MPD2     N 9593   2.812   3.390   9.504  0.2409 -0.1671 -0.4794
  644MPD2    H5 9594   2.861   3.471   9.541 -2.7803  0.9356  1.0404
  644MPD2    N1 9595   3.157   3.080   9.666 -0.1893  0.2659  0.5469
  644MPD2    H7 9596   3.185   2.983   9.664 -0.7591  0.0992  0.7901
  645TMC3    C1 9597   2.661   3.557   9.441  0.2111 -0.3277 -0.5598
  645TMC3    C2 9598   2.716   3.639   9.540 -0.3910  0.6670 -0.1301
  645TMC3    C3 9599   2.710   3.776   9.520  0.0597 -0.3259 -0.2426
  645TMC3    C4 9600   2.607   3.602   9.319  0.3033  0.3978 -0.1227
  645TMC3    C5 9601   2.609   3.737   9.306 -0.3327  0.4211  0.1658
  645TMC3    C6 9602   2.645   3.826   9.404 -0.4237 -0.5314  0.5944
  645TMC3     C 9603   2.696   3.419   9.439  0.5266  0.8331 -0.4828
  645TMC3     O 9604   2.629   3.353   9.362  0.4047 -0.1559  0.2469
  645TMC3     H 9605   2.755   3.599   9.633 -1.2131 -0.6123 -0.3438
  645TMC3    H1 9606   2.563   3.534   9.247 -0.6899  0.5225  0.3618
  645TMC3    H2 9607   2.629   3.932   9.394 -0.2949 -0.6608 -1.0108
  645TMC3    C7 9608   2.576   3.784   9.169 -0.1402 -0.0581  0.0019
  645TMC3    C8 9609   2.691   3.862   9.634  0.0226  0.4354  0.3487
  645TMC3    O1 9610   2.504   3.717   9.097 -0.0901  0.4879  0.1836
  645TMC3    O2 9611   2.602   3.949   9.628  0.1972 -0.0187 -0.2349
  646MPD2     C 9612   2.287   2.331  14.412  0.7857 -0.5640  0.5892
  646MPD2    C1 9613   2.189   2.340  14.508 -0.3041  0.8212  0.0880
  646MPD2    C2 9614   2.067   2.396  14.473 -0.3430  0.1041  0.3375
  646MPD2    C3 9615   2.040   2.455  14.350  0.4068  0.5516  0.7845
  646MPD2    C4 9616   2.142   2.449  14.255  0.2696 -0.2378 -0.5048
  646MPD2    C5 9617   2.260   2.380  14.283  0.3820 -0.3379 -0.1924
  646MPD2     H 9618   1.987   2.381  14.545 -0.4364 -1.1863 -0.0291
  646MPD2    H1 9619   2.133   2.502  14.161 -1.4927  1.9456  0.9125
  646MPD2    H2 9620   2.378   2.273  14.423  1.4290  0.2848 -0.2378
  646MPD2    H3 9621   2.335   2.363  14.207 -0.0061  2.1561 -1.1317
  646MPD2     N 9622   1.911   2.511  14.334  0.0817 -0.6663  0.9319
  646MPD2    H5 9623   1.846   2.515  14.412  0.1972 -1.7889  1.0891
  646MPD2    N1 9624   2.229   2.278  14.628 -0.2537 -0.3219  0.2691
  646MPD2    H7 9625   2.324   2.242  14.637  0.5316  1.7658  0.5028
  647TMC3    C1 9626   2.196   2.163  14.833  0.4826  0.5899 -0.1651
  647TMC3    C2 9627   2.109   2.080  14.895  0.5904 -0.1123  0.5188
  647TMC3    C3 9628   2.147   2.003  15.004  0.0846  0.0712 -0.3536
  647TMC3    C4 9629   2.327   2.166  14.872 -0.3613 -0.1079 -0.1854
  647TMC3    C5 9630   2.365   2.075  14.969 -0.0028 -0.2905 -0.0386
  647TMC3    C6 9631   2.276   2.004  15.041 -0.3662  0.6258  0.1643
  647TMC3     C 9632   2.140   2.251  14.725  0.0263 -0.3386 -0.0551
  647TMC3     O 9633   2.018   2.259  14.723 -0.3093  0.1799 -0.2485
  647TMC3     H 9634   2.004   2.083  14.872  0.5012 -1.5204  0.7835
  647TMC3    H1 9635   2.384   2.248  14.830  0.6858 -0.0954  1.2629
  647TMC3    H2 9636   2.309   1.962  15.135 -0.1458  2.6946  1.0072
  647TMC3    C7 9637   2.505   2.064  15.010  0.1884 -0.3007 -0.0812
  647TMC3    C8 9638   2.055   1.912  15.069 -0.2236  0.1166  0.0348
  647TMC3    O1 9639   2.523   1.987  15.101  0.4566  0.5691  0.1904
  647TMC3    O2 9640   1.940   1.914  15.028  0.0875 -0.4498 -0.2830
  648TMC3    C1 9641   1.508   4.709  16.227  0.0301  0.3731 -0.2018
  648TMC3    C2 9642   1.523   4.595  16.157  0.4298 -0.0625 -0.0866
  648TMC3    C3 9643   1.490   4.596  16.029  1.0373 -0.0975  0.3213
  648TMC3    C4 9644   1.463   0.086  16.166  0.0907 -0.7498  0.1228
  648TMC3    C5 9645   1.429   0.085  16.036 -1.2363 -0.0103 -0.4976
  648TMC3    C6 9646   1.447   4.705  15.961 -0.7829 -0.2599  0.7983
  648TMC3     C 9647   1.511   4.708  16.378 -0.0024  1.2919  0.3278
  648TMC3     O 9648   1.489   0.077  16.436  0.3719  0.2065 -0.3982
  648TMC3     H 9649   1.533   4.501  16.211  2.6484  0.4698  0.4034
  648TMC3    H1 9650   1.460   0.182  16.216 -1.0600 -1.2091  0.9502
  648TMC3    H2 9651   1.412   4.700  15.858  1.4089 -2.6294  0.1587
  648TMC3    C7 9652   1.394   0.199  15.962  0.2232 -0.3545  0.2549
  648TMC3    C8 9653   1.462   4.472  15.957 -0.3692 -0.6434  0.5596
  648TMC3    O1 9654   1.386   0.192  15.839  0.2429 -0.0390 -0.5938
  648TMC3    O2 9655   1.408   4.465  15.848  0.0507  0.5430 -0.2926
  649TMC3    C1 9656   0.626   0.873  13.161 -0.2218  0.1635  0.6590
  649TMC3    C2 9657   0.749   0.820  13.131  0.4077  0.4784 -0.4895
  649TMC3    C3 9658   0.798   0.736  13.228 -0.0657 -0.1104  0.3108
  649TMC3    C4 9659   0.559   0.843  13.275 -0.5225 -0.0097 -0.1862
  649TMC3    C5 9660   0.600   0.748  13.359  0.4452 -0.0005  0.3252
  649TMC3    C6 9661   0.720   0.686  13.334 -0.1143 -0.2938 -0.5121
  649TMC3     C 9662   0.549   0.938  13.056  0.5417 -0.8686  0.0002
  649TMC3     O 9663   0.442   0.988  13.083 -1.2025 -0.2071 -0.7287
  649TMC3     H 9664   0.813   0.861  13.054  0.1644 -0.3885 -1.1467
  649TMC3    H1 9665   0.461   0.889  13.289 -0.3537  0.1911  0.3209
  649TMC3    H2 9666   0.773   0.623  13.405 -3.1789 -2.9672 -0.6090
  649TMC3    C7 9667   0.502   0.704  13.455  0.8283  0.3189 -0.8837
  649TMC3    C8 9668   0.938   0.716  13.241  0.7802 -0.3089  0.3072
  649TMC3    O1 9669   0.399   0.771  13.476  0.5127 -0.2118  0.2056
  649TMC3    O2 9670   0.965   0.609  13.297  0.0784  0.5185  0.3909
  650TMC3    C1 9671   2.604   2.706  12.655 -0.4110  0.1448  0.2997
  650TMC3    C2 9672   2.539   2.825  12.625 -0.5484  0.1675  0.2541
  650TMC3    C3 9673   2.597   2.916  12.543  0.7297 -0.0320 -0.3897
  650TMC3    C4 9674   2.722   2.666  12.597  0.4807  0.2257  0.0452
  650TMC3    C5 9675   2.771   2.760  12.508 -0.4027 -0.0060  0.2466
  650TMC3    C6 9676   2.712   2.886  12.479  0.6211  0.3595 -0.3738
  650TMC3     C 9677   2.589   2.657  12.792 -1.0735 -0.3775 -0.3037
  650TMC3     O 9678   2.552   2.735  12.879 -0.1254 -0.3411 -0.0681
  650TMC3     H 9679   2.456   2.854  12.687 -1.4585 -0.5526 -0.6381
  650TMC3    H1 9680   2.787   2.583  12.622 -0.7953 -1.5006 -2.2989
  650TMC3    H2 9681   2.750   2.948  12.399 -2.6278  0.3755 -1.8895
  650TMC3    C7 9682   2.915   2.757  12.495 -0.5040  0.3672  0.5666
  650TMC3    C8 9683   2.581   3.056  12.569 -0.2347 -0.1884 -0.2719
  650TMC3    O1 9684   2.982   2.659  12.496  0.5625  0.0587  0.0110
  650TMC3    O2 9685   2.682   3.126  12.555 -0.6101 -0.3410 -0.4083
  651MPD2     C 9686   1.710   4.612  10.070 -0.0807  1.1985 -0.0530
  651MPD2    C1 9687   1.703   4.730  10.144 -0.7990  0.4343 -0.1845
  651MPD2    C2 9688   1.820   0.067  10.151 -0.1421  0.2296 -0.4348
  651MPD2    C3 9689   1.948   0.018  10.116 -0.3447 -0.3716  0.2697
  651MPD2    C4 9690   1.950   4.639  10.038  0.0775 -0.1284  0.2798
  651MPD2    C5 9691   1.830   4.574  10.005  0.2704  0.0518  0.0991
  651MPD2     H 9692   1.811   0.159  10.207 -0.9041 -0.4989  0.6369
  651MPD2    H1 9693   2.039   4.601   9.988  0.6345  0.1140  1.0766
  651MPD2    H2 9694   1.623   4.551  10.047  0.3346  0.4652  0.3035
  651MPD2    H3 9695   1.826   4.494   9.932  0.1994  0.3265 -0.2013
  651MPD2     N 9696   2.062   0.092  10.152 -0.1673  0.7638  0.4489
  651MPD2    H5 9697   2.047   0.176  10.207  2.0453  1.7101 -0.3901
  651MPD2    N1 9698   1.583   0.042  10.211 -0.2801 -0.5164  1.1140
  651MPD2    H7 9699   1.589   0.129  10.263  1.2753 -0.3316  0.6111
  652TMC3    C1 9700   2.505   0.148  10.286  1.2519  0.6539  0.3028
  652TMC3    C2 9701   2.410   0.075  10.219  0.0236  0.3162 -0.4148
  652TMC3    C3 9702   2.290   0.136  10.191 -0.3817 -0.1215 -0.4727
  652TMC3    C4 9703   2.481   0.282  10.312 -0.4939 -0.4619  0.6857
  652TMC3    C5 9704   2.370   0.345  10.262  0.2204  0.6396  0.3372
  652TMC3    C6 9705   2.270   0.272  10.201 -0.1962 -0.4052  0.5140
  652TMC3     C 9706   2.634   0.098  10.299  0.3850  0.6572 -0.0739
  652TMC3     O 9707   2.684   0.132  10.407  0.0374  0.0204 -0.3525
  652TMC3     H 9708   2.428   4.706  10.198  0.5818  0.0215  1.5597
  652TMC3    H1 9709   2.553   0.343  10.366 -0.3848  0.0625 -0.0527
  652TMC3    H2 9710   2.177   0.318  10.168  0.1365 -1.4075 -1.8286
  652TMC3    C7 9711   2.348   0.495  10.264  0.9063 -0.5013 -0.2720
  652TMC3    C8 9712   2.193   0.058  10.121  0.1831 -0.8797 -0.0189
  652TMC3    O1 9713   2.236   0.530  10.220  0.0578 -0.7474 -0.0209
  652TMC3    O2 9714   2.243   4.697  10.064  0.0060  0.0150 -0.1801
  653MPD2     C 9715   0.865   4.533   0.163  0.4546 -0.6977 -0.2839
  653MPD2    C1 9716   0.780   4.620   0.090 -0.2599 -0.2062 -0.0601
  653MPD2    C2 9717   0.708   4.568  17.721  0.1459 -1.0784  0.4123
  653MPD2    C3 9718   0.720   4.441  17.671  0.3477 -0.2571 -0.4337
  653MPD2    C4 9719   0.808   4.358  17.738 -0.3517 -0.2290 -0.7348
  653MPD2    C5 9720   0.879   4.404   0.112  0.5260  0.6498 -0.2049
  653MPD2     H 9721   0.631   4.629  17.675  1.9512 -0.5243 -1.8389
  653MPD2    H1 9722   0.834   4.261  17.698  0.8809 -0.8532  1.6162
  653MPD2    H2 9723   0.930   4.573   0.240 -1.9598  1.6079  0.5491
  653MPD2    H3 9724   0.935   4.334   0.172 -0.4883 -1.7615 -2.0620
  653MPD2     N 9725   0.644   4.408  17.555 -0.1144 -0.1231  0.4068
  653MPD2    H5 9726   0.599   4.485  17.507 -2.1486 -1.9179 -0.5687
  653MPD2    N1 9727   0.764   0.024   0.120  0.3532 -0.3990  0.1204
  653MPD2    H7 9728   0.722   0.076   0.044  1.2705  1.3994  0.8447
  654TMC3    C1 9729   0.559   4.270  17.375 -0.3667  0.4094 -0.2782
  654TMC3    C2 9730   0.572   4.371  17.283 -0.3963  0.4279 -0.3479
  654TMC3    C3 9731   0.523   4.350  17.165 -0.4133  0.7963  0.0546
  654TMC3    C4 9732   0.509   4.149  17.349 -0.3833 -0.0559 -0.0019
  654TMC3    C5 9733   0.452   4.137  17.223  0.1675  0.3577  0.0274
  654TMC3    C6 9734   0.452   4.237  17.135  0.9230  0.1105 -0.1886
  654TMC3     C 9735   0.636   4.280  17.496 -0.1818 -0.3064  0.3608
  654TMC3     O 9736   0.666   4.175  17.551  0.1299 -0.0489 -0.1079
  654TMC3     H 9737   0.631   4.460  17.303 -0.9571  0.7727 -0.2265
  654TMC3    H1 9738   0.496   4.075  17.427  1.0123  0.7172  0.9647
  654TMC3    H2 9739   0.420   4.231  17.032  2.9192 -0.3600 -0.7969
  654TMC3    C7 9740   0.414   4.008  17.170 -0.4569  0.4587 -0.0287
  654TMC3    C8 9741   0.520   4.470  17.087 -0.7742  0.6090 -0.1057
  654TMC3    O1 9742   0.339   4.011  17.071  0.5718 -0.7417  0.2223
  654TMC3    O2 9743   0.611   4.553  17.088 -0.0030 -0.1100 -0.1408
  655MPD2     C 9744   1.974   0.106  15.760 -0.0049 -0.5017  0.0244
  655MPD2    C1 9745   1.930   0.236  15.728 -0.5950 -0.3901  0.1631
  655MPD2    C2 9746   1.930   0.278  15.598  0.7313 -0.2427  0.1911
  655MPD2    C3 9747   1.988   0.210  15.494  0.3189  1.4237 -0.3093
  655MPD2    C4 9748   2.044   0.090  15.529 -0.1513 -0.6783  0.3494
  655MPD2    C5 9749   2.030   0.039  15.654 -0.0042 -0.5650 -0.3396
  655MPD2     H 9750   1.890   0.376  15.576  2.8914  0.8957  1.3338
  655MPD2    H1 9751   2.095   0.034  15.451  0.1165  0.8147 -0.5480
  655MPD2    H2 9752   1.966   0.058  15.856  0.8932  3.3334  2.0124
  655MPD2    H3 9753   2.057   4.671  15.669 -1.4504 -0.3907  3.5466
  655MPD2     N 9754   1.972   0.248  15.362  0.1677 -0.4221  0.3185
  655MPD2    H5 9755   2.006   0.180  15.295 -1.4248 -2.1428  1.2648
  655MPD2    N1 9756   1.894   0.330  15.828  0.0164  0.6633  0.1511
  655MPD2    H7 9757   1.860   0.421  15.801  0.0447 -0.0717 -2.4281
  656TMC3    C1 9758   1.833   0.421  16.027 -0.0960  0.7492 -0.4795
  656TMC3    C2 9759   1.747   0.404  16.137  0.0239 -0.4597  0.9164
  656TMC3    C3 9760   1.690   0.514  16.189 -0.0851 -0.0633  0.5737
  656TMC3    C4 9761   1.858   0.546  15.974 -0.3118  0.2148 -0.2892
  656TMC3    C5 9762   1.796   0.653  16.030 -0.5515  0.3444 -0.0332
  656TMC3    C6 9763   1.709   0.638  16.136  0.1150  0.7844 -0.1871
  656TMC3     C 9764   1.878   0.306  15.963  0.1405 -0.5001 -0.7317
  656TMC3     O 9765   1.883   0.204  16.029  0.1902  0.2661 -0.6692
  656TMC3     H 9766   1.710   0.306  16.163  1.4243 -0.7522  1.8346
  656TMC3    H1 9767   1.929   0.554  15.893  1.1196 -1.4470  0.7746
  656TMC3    H2 9768   1.681   0.727  16.191 -0.6551  0.3958  0.0413
  656TMC3    C7 9769   1.753   0.741  15.927 -0.7954  0.6191 -0.8736
  656TMC3    C8 9770   1.591   0.496  16.294  0.4651 -0.0361 -0.7416
  656TMC3    O1 9771   1.831   0.764  15.839  0.1230 -0.4012  0.2442
  656TMC3    O2 9772   1.530   0.386  16.296  0.3024  0.5519  0.2158
  657TMC3    C1 9773   0.761   4.399  14.751 -0.0420  0.0219 -0.1217
  657TMC3    C2 9774   0.815   4.385  14.879 -0.3243 -0.1766 -0.9261
  657TMC3    C3 9775   0.772   4.463  14.989  0.2765  0.1704  0.4523
  657TMC3    C4 9776   0.679   4.510  14.723  0.4581  0.6198 -0.0563
  657TMC3    C5 9777   0.646   4.591  14.827 -0.5603  0.6098  0.0896
  657TMC3    C6 9778   0.690   4.570  14.960 -0.1999 -0.1389 -0.6213
  657TMC3     C 9779   0.832   4.351  14.638 -0.7843 -0.4624  0.6957
  657TMC3     O 9780   0.843   4.438  14.553 -0.1000 -0.4893  0.6841
  657TMC3     H 9781   0.878   4.300  14.903  1.3033  1.9555  2.2911
  657TMC3    H1 9782   0.640   4.536  14.626 -1.0577  0.2490  0.4571
  657TMC3    H2 9783   0.646   4.620  15.046 -0.2059 -0.2786 -0.5428
  657TMC3    C7 9784   0.532   4.677  14.817 -0.3402 -0.0088  0.2919
  657TMC3    C8 9785   0.816   4.418  15.118 -0.1347  0.2551 -0.0744
  657TMC3    O1 9786   0.454   4.676  14.909  0.3940  0.1720  0.6493
  657TMC3    O2 9787   0.919   4.355  15.120 -0.9520  0.6671  0.2838
  658MPD2     C 9788   2.004   0.183  14.490  0.0870  0.2024 -0.1280
  658MPD2    C1 9789   2.033   0.130  14.616 -0.4432  0.0535 -0.5910
  658MPD2    C2 9790   2.112   0.011  14.630 -0.3465  0.3437  0.2900
  658MPD2    C3 9791   2.159   4.682  14.515  0.8134 -0.0927 -0.4982
  658MPD2    C4 9792   2.111   4.724  14.396 -0.0651 -0.3922  0.5130
  658MPD2    C5 9793   2.043   0.107  14.377  0.3266  0.0209  0.3506
  658MPD2     H 9794   2.118   4.698  14.727 -0.1530  0.2490  0.2299
  658MPD2    H1 9795   2.141   4.667  14.308 -0.7577  1.5048 -0.9473
  658MPD2    H2 9796   1.960   0.280  14.468  2.5883  1.4464  0.2856
  658MPD2    H3 9797   2.011   0.137  14.278  0.2835 -0.7554  0.1267
  658MPD2     N 9798   2.236   4.569  14.531  0.7049 -0.4052  0.3876
  658MPD2    H5 9799   2.234   4.531  14.626 -1.1667  2.9330  1.6779
  658MPD2    N1 9800   1.969   0.202  14.729 -0.6429 -0.2496 -0.1261
  658MPD2    H7 9801   1.900   0.273  14.708  1.2594  1.8934  0.8299
  659TMC3    C1 9802   1.923   0.273  14.959 -0.5182  0.6142  0.3910
  659TMC3    C2 9803   1.962   0.287  15.086  0.2949 -0.0382  0.4630
  659TMC3    C3 9804   1.885   0.361  15.171 -0.5584  0.1344  0.1591
  659TMC3    C4 9805   1.803   0.330  14.914  0.1144 -0.6631 -0.1002
  659TMC3    C5 9806   1.723   0.391  15.005 -0.2879  0.0957 -0.1990
  659TMC3    C6 9807   1.762   0.406  15.134 -0.1117 -0.0956  0.5518
  659TMC3     C 9808   2.002   0.190  14.866 -0.1245  0.6121  0.9068
  659TMC3     O 9809   2.092   0.118  14.915  0.0654 -0.4292  0.4909
  659TMC3     H 9810   2.061   0.263  15.124 -0.4420 -3.4125  0.1810
  659TMC3    H1 9811   1.776   0.313  14.810 -1.0623 -2.6737  0.5481
  659TMC3    H2 9812   1.704   0.449  15.215 -1.2931 -0.9440  0.1517
  659TMC3    C7 9813   1.587   0.419  14.969 -0.3497 -0.7491  0.1327
  659TMC3    C8 9814   1.909   0.363  15.313  0.2722  0.3720 -0.3868
  659TMC3    O1 9815   1.508   0.455  15.061 -0.3042 -0.1722  0.6544
  659TMC3    O2 9816   1.870   0.457  15.374  0.0876  0.1140 -0.3691
  660MPD2     C 9817   0.399   3.560  12.847 -0.3081  0.3073  0.6723
  660MPD2    C1 9818   0.286   3.488  12.820 -0.4471  0.2657  0.3909
  660MPD2    C2 9819   0.247   3.395  12.916 -0.4907 -0.0153 -0.3764
  660MPD2    C3 9820   0.300   3.401  13.044 -0.1675 -0.0856  0.1711
  660MPD2    C4 9821   0.414   3.483  13.070  0.2929  0.2189 -0.3655
  660MPD2    C5 9822   0.454   3.565  12.970 -0.0969  0.3612 -0.0488
  660MPD2     H 9823   0.156   3.337  12.901  0.1258 -1.4555  1.4390
  660MPD2    H1 9824   0.458   3.481  13.169 -0.5883  0.7043  0.0337
  660MPD2    H2 9825   0.431   3.638  12.780  0.5851 -1.2428 -0.7021
  660MPD2    H3 9826   0.536   3.633  12.992 -0.6989  1.2286 -0.4921
  660MPD2     N 9827   0.256   3.321  13.150  0.0671 -0.2013  0.0652
  660MPD2    H5 9828   0.286   3.344  13.245 -1.1685  0.2470  0.3514
  660MPD2    N1 9829   0.227   3.517  12.696 -0.2942  0.3899 -0.2993
  660MPD2    H7 9830   0.277   3.571  12.626 -0.0521 -1.8119 -1.8345
  661TMC3    C1 9831   0.030   3.542  12.548 -0.2822 -0.6868 -0.5690
  661TMC3    C2 9832   0.105   3.580  12.439  0.4794 -0.0354 -0.0858
  661TMC3    C3 9833   0.052   3.608  12.320  0.6948  0.2437  0.3628
  661TMC3    C4 9834   4.633   3.547  12.544 -0.1937  0.5696 -0.5061
  661TMC3    C5 9835   4.584   3.573  12.421 -0.0903  0.0544 -0.0179
  661TMC3    C6 9836   4.650   3.608  12.308 -0.1170  0.2369  0.2409
  661TMC3     C 9837   0.099   3.484  12.667  0.8766 -0.0956 -0.0265
  661TMC3     O 9838   0.021   3.418  12.736  0.0253 -0.2491 -0.3931
  661TMC3     H 9839   0.213   3.580  12.449  0.6303  1.2598 -1.7208
  661TMC3    H1 9840   4.576   3.498  12.622  0.7198 -0.8037 -0.6890
  661TMC3    H2 9841   4.602   3.644  12.218  0.5844  0.5721 -0.0057
  661TMC3    C7 9842   4.441   3.542  12.398 -0.3033  0.7482  0.0264
  661TMC3    C8 9843   0.128   3.668  12.213  0.5739  0.4541 -0.1364
  661TMC3    O1 9844   4.416   3.526  12.277  0.5649  0.7785  0.0235
  661TMC3    O2 9845   0.062   3.701  12.116  0.1165  0.4175  0.8312
  662MPD2     C 9846   0.208   3.327  16.918 -0.0384  0.2995 -0.7412
  662MPD2    C1 9847   0.279   3.260  17.012 -0.4426 -0.0607  0.1014
  662MPD2    C2 9848   0.272   3.317  17.137  0.1097 -0.3020  0.5685
  662MPD2    C3 9849   0.191   3.429  17.163 -0.5316  0.4701 -0.5937
  662MPD2    C4 9850   0.122   3.486  17.066  0.8867 -0.3011  0.3979
  662MPD2    C5 9851   0.137   3.437  16.943  0.8296 -1.1441  0.1106
  662MPD2     H 9852   0.334   3.279  17.217  1.9921 -2.1252 -1.7513
  662MPD2    H1 9853   0.041   3.556  17.082  0.7114 -0.1082 -1.3193
  662MPD2    H2 9854   0.202   3.279  16.821 -0.0687  0.0516 -0.6164
  662MPD2    H3 9855   0.065   3.470  16.869 -0.1551 -0.5036  1.3543
  662MPD2     N 9856   0.178   3.489  17.288 -0.2351  0.8434  0.4188
  662MPD2    H5 9857   0.112   3.566  17.291 -2.4685 -1.0113 -1.5775
  662MPD2    N1 9858   0.360   3.145  16.996  0.5313  0.1327  0.2865
  662MPD2    H7 9859   0.401   3.102  17.079 -0.4321 -0.1659  0.6138
  663TMC3    C1 9860   0.413   2.930  16.898 -0.3739  0.1103 -0.8383
  663TMC3    C2 9861   0.518   2.914  16.990  0.3990 -0.2216  0.3714
  663TMC3    C3 9862   0.592   2.797  16.981 -0.6461 -0.9098 -0.5006
  663TMC3    C4 9863   0.357   2.825  16.837 -0.6106 -0.5407  0.5630
  663TMC3    C5 9864   0.416   2.708  16.859  0.4235 -0.1934 -0.0870
  663TMC3    C6 9865   0.518   2.690  16.948  0.3116 -0.0610  0.0571
  663TMC3     C 9866   0.351   3.060  16.886 -0.2521  0.5766 -0.0310
  663TMC3     O 9867   0.283   3.069  16.781  0.2545 -0.1518 -0.0106
  663TMC3     H 9868   0.562   3.004  17.031  0.9881 -1.1556  1.7849
  663TMC3    H1 9869   0.273   2.836  16.769  0.2692  0.9540 -0.2879
  663TMC3    H2 9870   0.560   2.592  16.967 -0.0766 -0.2073  0.1648
  663TMC3    C7 9871   0.338   2.594  16.806  0.6898  0.0516 -0.4366
  663TMC3    C8 9872   0.665   2.762  17.095  0.1491  0.1074 -0.1590
  663TMC3    O1 9873   0.265   2.620  16.713  0.5008 -0.0166 -0.4350
  663TMC3    O2 9874   0.753   2.677  17.091 -0.5816 -0.5466 -1.0529
  664MPD2     C 9875   2.981   1.355  17.737  0.2899 -0.4609  0.0642
  664MPD2    C1 9876   3.094   1.425   0.026  0.2950  0.1152  0.7545
  664MPD2    C2 9877   3.138   1.442   0.156  0.1843  0.1156 -0.4165
  664MPD2    C3 9878   3.077   1.384   0.258 -0.1792 -0.7613 -0.5001
  664MPD2    C4 9879   2.968   1.302   0.228  0.3230  0.1974 -0.3984
  664MPD2    C5 9880   2.922   1.284   0.098  0.0729 -0.3474  0.5042
  664MPD2     H 9881   3.228   1.500   0.173 -0.6475  1.6564 -1.2319
  664MPD2    H1 9882   2.911   1.256   0.308  0.9437 -1.7668 -1.0860
  664MPD2    H2 9883   2.967   1.340  17.631  1.5040  2.2655 -0.4827
  664MPD2    H3 9884   2.838   1.217   0.080 -0.1501  0.0771 -0.0141
  664MPD2     N 9885   3.120   1.427   0.387  0.1707  0.1185  0.0587
  664MPD2    H5 9886   3.201   1.488   0.394  1.3796 -1.2784 -1.5418
  664MPD2    N1 9887   3.175   1.490  17.670 -0.5348 -0.2893 -0.0341
  664MPD2    H7 9888   3.258   1.533  17.709 -0.4525 -0.9806  0.5435
  665TMC3    C1 9889   3.113   1.467   0.621 -0.3604 -0.4282 -0.2771
  665TMC3    C2 9890   3.032   1.496   0.727  0.3549  0.6077 -0.5195
  665TMC3    C3 9891   3.084   1.551   0.838 -0.0813  0.6474  0.4536
  665TMC3    C4 9892   3.244   1.504   0.624 -0.1165  0.5793 -0.4399
  665TMC3    C5 9893   3.298   1.565   0.739 -0.0745  0.9703  0.2124
  665TMC3    C6 9894   3.219   1.587   0.848  0.7330  0.6991 -0.4076
  665TMC3     C 9895   3.050   1.403   0.502 -0.0786 -0.0285  0.6973
  665TMC3     O 9896   2.951   1.335   0.518  0.4072  0.2140 -0.4632
  665TMC3     H 9897   2.928   1.468   0.713  0.5795  0.6111 -2.1803
  665TMC3    H1 9898   3.315   1.469   0.550 -1.7032 -0.1291 -1.6350
  665TMC3    H2 9899   3.256   1.626   0.942  3.3683 -0.5724 -0.8967
  665TMC3    C7 9900   3.420   1.637   0.713  0.4470 -0.4403 -0.0038
  665TMC3    C8 9901   2.991   1.598   0.939  0.2370 -0.6555 -0.0261
  665TMC3    O1 9902   3.465   1.632   0.599  0.4754  0.6626  0.4402
  665TMC3    O2 9903   3.043   1.656   1.030  0.1417 -0.3406 -0.2230
  666TMC3    C1 9904   2.618   0.917   9.891 -0.1433  0.3779  0.2402
  666TMC3    C2 9905   2.660   0.913   9.760  0.5428  0.2921 -0.3773
  666TMC3    C3 9906   2.710   1.029   9.699 -0.6863  0.3175 -0.1611
  666TMC3    C4 9907   2.647   1.031   9.962 -0.0506  0.5855 -0.5961
  666TMC3    C5 9908   2.706   1.141   9.901  0.4217  0.4828 -0.6100
  666TMC3    C6 9909   2.732   1.148   9.765  0.4013 -0.0922 -0.2913
  666TMC3     C 9910   2.616   0.793   9.961 -0.1006  1.1423  0.2701
  666TMC3     O 9911   2.707   0.779  10.043 -0.0090  0.1904  0.0079
  666TMC3     H 9912   2.631   0.824   9.706  0.6333 -1.5185  2.5654
  666TMC3    H1 9913   2.629   1.030  10.069  0.4521  0.3362 -0.5142
  666TMC3    H2 9914   2.773   1.233   9.713 -3.1234  2.6195  1.3781
  666TMC3    C7 9915   2.707   1.257   9.983 -0.6977  0.2272 -0.3320
  666TMC3    C8 9916   2.769   0.993   9.570 -0.2991  0.0300 -0.2345
  666TMC3    O1 9917   2.638   1.260  10.082  0.1109 -0.4834  0.7940
  666TMC3    O2 9918   2.726   0.903   9.499  0.3798  0.1568 -0.0360
  667MPD2     C 9919   3.946   1.139  14.756 -0.3935 -0.1593  0.1933
  667MPD2    C1 9920   3.868   1.196  14.860  0.9161  0.5226 -0.6814
  667MPD2    C2 9921   3.756   1.126  14.908  0.5233 -0.1948  0.1116
  667MPD2    C3 9922   3.726   1.009  14.842 -0.3221  0.1125  0.1959
  667MPD2    C4 9923   3.794   0.965  14.727 -0.3245  0.0235 -0.2361
  667MPD2    C5 9924   3.906   1.035  14.689 -0.1575  0.4556 -0.2768
  667MPD2     H 9925   3.702   1.167  14.992 -0.7233  0.1028 -0.8270
  667MPD2    H1 9926   3.760   0.873  14.681 -4.1274 -0.2625  3.1556
  667MPD2    H2 9927   4.028   1.200  14.719  0.1724  0.2141  2.0599
  667MPD2    H3 9928   3.948   1.016  14.592 -0.0127  2.1215 -0.5402
  667MPD2     N 9929   3.621   0.927  14.891  0.0350 -0.4007 -0.3758
  667MPD2    H5 9930   3.595   0.849  14.831 -0.1796  1.6165 -2.9176
  667MPD2    N1 9931   3.903   1.314  14.933  0.0437  0.0690 -0.4945
  667MPD2    H7 9932   3.844   1.346  15.010  2.0600 -0.4865  1.2758
  668TMC3    C1 9933   4.010   1.503  15.011 -1.0410  0.1329  0.4655
  668TMC3    C2 9934   4.103   1.598  14.980  0.9018  0.1474  0.2219
  668TMC3    C3 9935   4.173   1.657  15.082  0.2533 -0.2156  0.5443
  668TMC3    C4 9936   3.977   1.472  15.138  0.7128  0.4536 -0.7410
  668TMC3    C5 9937   4.049   1.521  15.242 -0.4447  0.3606 -0.6401
  668TMC3    C6 9938   4.149   1.611  15.215 -0.1437 -0.0485 -0.5391
  668TMC3     C 9939   4.008   1.400  14.912 -0.6728  1.2839 -0.0343
  668TMC3     O 9940   4.094   1.393  14.825  0.2450 -0.0737  0.1301
  668TMC3     H 9941   4.128   1.617  14.876 -2.3619  0.3682 -0.5442
  668TMC3    H1 9942   3.921   1.383  15.168  1.0109 -0.2109 -2.1637
  668TMC3    H2 9943   4.188   1.661  15.303 -1.8386  0.5997 -0.1584
  668TMC3    C7 9944   4.000   1.512  15.377 -0.8611 -0.4025  0.2829
  668TMC3    C8 9945   4.259   1.780  15.078 -0.6396 -0.3843  0.2563
  668TMC3    O1 9946   4.080   1.529  15.465 -0.4653  0.1048 -0.0233
  668TMC3    O2 9947   4.279   1.840  15.182  0.3661 -0.2822  0.1268
  669TMC3    C1 9948   1.743   1.485  14.975  0.5269 -0.2262  0.5747
  669TMC3    C2 9949   1.656   1.540  14.890 -0.3202 -0.2430 -0.3314
  669TMC3    C3 9950   1.707   1.602  14.776  0.0213  0.7593 -0.2333
  669TMC3    C4 9951   1.880   1.503  14.968 -0.6803  0.0480 -0.5501
  669TMC3    C5 9952   1.922   1.589  14.867  0.8482  1.0153 -0.3066
  669TMC3    C6 9953   1.841   1.620  14.764 -0.1806  0.4709 -1.0307
  669TMC3     C 9954   1.685   1.423  15.095  0.2945  0.0016  0.2724
  669TMC3     O 9955   1.602   1.492  15.151 -0.4218 -0.8988 -0.4957
  669TMC3     H 9956   1.553   1.549  14.922 -0.6160  2.9602 -2.1881
  669TMC3    H1 9957   1.928   1.476  15.061 -0.5784  1.5133 -0.1723
  669TMC3    H2 9958   1.873   1.665  14.670 -0.1180 -0.6969 -1.5641
  669TMC3    C7 9959   2.059   1.632  14.863  0.3618 -0.7899  0.4485
  669TMC3    C8 9960   1.616   1.637  14.667 -0.0235  0.4958  0.4912
  669TMC3    O1 9961   2.076   1.721  14.785  0.0735  0.6504  0.1599
  669TMC3    O2 9962   1.497   1.604  14.667 -0.4109 -0.1636 -0.4082
  670MPD2     C 9963   0.152   4.245  13.587 -0.5646  0.1350  0.4538
  670MPD2    C1 9964   0.263   4.172  13.622 -0.1539 -0.0795 -0.3718
  670MPD2    C2 9965   0.280   4.141  13.759 -0.1295  0.3105 -0.2664
  670MPD2    C3 9966   0.181   4.169  13.856  0.3514  0.0135  0.4998
  670MPD2    C4 9967   0.073   4.241  13.812  0.0092 -0.2681 -0.0234
  670MPD2    C5 9968   0.053   4.279  13.681 -0.2499  0.1332 -0.8105
  670MPD2     H 9969   0.361   4.082  13.800 -0.5221 -2.0386 -2.9130
  670MPD2    H1 9970   4.734   4.278  13.882  0.0239  0.4730 -0.3974
  670MPD2    H2 9971   0.150   4.277  13.483 -0.6620  0.9576  0.7110
  670MPD2    H3 9972   4.698   4.324  13.644 -0.8498  0.1291  0.6720
  670MPD2     N 9973   0.184   4.110  13.983 -0.6454 -0.1444  0.3124
  670MPD2    H5 9974   0.274   4.070  14.009 -0.2230  0.2372 -0.5723
  670MPD2    N1 9975   0.368   4.146  13.533  0.6101  0.4171  0.4784
  670MPD2    H7 9976   0.447   4.106  13.582  1.4253  0.9425 -0.4227
  671TMC3    C1 9977   0.095   3.989  14.168  0.2059 -0.2157  0.5355
  671TMC3    C2 9978   0.218   3.972  14.218 -0.4387  0.2576 -0.3626
  671TMC3    C3 9979   0.245   3.851  14.272  0.3009 -0.4383 -0.1539
  671TMC3    C4 9980   0.010   3.881  14.153  0.0664  0.1261  0.0643
  671TMC3    C5 9981   0.039   3.761  14.203 -0.1769 -0.5527 -0.3112
  671TMC3    C6 9982   0.162   3.746  14.264  0.7084 -0.2462 -1.0341
  671TMC3     C 9983   0.074   4.094  14.074 -0.8793 -0.0917 -0.1084
  671TMC3     O 9984   4.694   4.128  14.063 -0.5126 -0.5948 -0.2247
  671TMC3     H 9985   0.282   4.055  14.246  0.5047 -0.1631 -1.2818
  671TMC3    H1 9986   4.661   3.898  14.088 -1.6738 -0.3743  2.2185
  671TMC3    H2 9987   0.196   3.649  14.298 -0.1911 -0.1717  0.0459
  671TMC3    C7 9988   0.003   3.650  14.112 -0.1785  0.4148  0.3504
  671TMC3    C8 9989   0.382   3.820  14.287 -0.9252 -0.6070  0.1168
  671TMC3    O1 9990   0.095   3.587  14.061 -0.1469  0.2736 -0.5660
  671TMC3    O2 9991   0.461   3.905  14.243  0.7608 -0.7905 -0.6451
  672MPD2     C 9992   0.552   3.873   1.195 -0.2482  0.6175 -0.2405
  672MPD2    C1 9993   0.642   3.932   1.103 -0.1841 -0.4446  0.2859
  672MPD2    C2 9994   0.747   4.014   1.142  0.1976 -0.3603  0.1319
  672MPD2    C3 9995   0.755   4.044   1.276  0.2878  0.0629  0.7433
  672MPD2    C4 9996   0.683   3.973   1.371 -0.4265 -0.5433  0.0380
  672MPD2    C5 9997   0.577   3.892   1.327  0.2278 -0.2597  0.4695
  672MPD2     H 9998   0.817   4.054   1.070 -0.6329  2.9667  1.1984
  672MPD2    H1 9999   0.710   3.971   1.476  2.6065  0.5243 -0.7251
  672MPD2    H210000   0.477   3.798   1.174  0.1545 -0.3029  1.5598
  672MPD2    H310001   0.523   3.839   1.404 -0.7004 -0.3474 -0.2329
  672MPD2     N10002   0.857   4.138   1.312  0.1648 -0.5339  0.1727
  672MPD2    H510003   0.881   4.136   1.411  1.4901 -2.5022 -0.1918
  672MPD2    N110004   0.643   3.899   0.964 -0.8391 -0.1793  0.3127
  672MPD2    H710005   0.730   3.912   0.912 -0.2106  0.6183  1.5756
  673TMC3    C110006   0.554   3.839   0.753 -0.4037  0.3211 -0.4297
  673TMC3    C210007   0.657   3.757   0.720  0.5112  0.1577 -0.2186
  673TMC3    C310008   0.648   3.722   0.588 -0.3127 -0.6297 -0.2178
  673TMC3    C410009   0.459   3.897   0.670  0.3161  0.3569 -0.0642
  673TMC3    C510010   0.464   3.862   0.540 -0.7766  0.4387  0.5156
  673TMC3    C610011   0.554   3.766   0.495  0.0182  0.0849 -0.1837
  673TMC3     C10012   0.530   3.849   0.895  0.1607  0.6689  0.6105
  673TMC3     O10013   0.414   3.834   0.935  0.6297 -0.3570 -0.1917
  673TMC3     H10014   0.718   3.710   0.796  1.2697 -0.5325 -1.2461
  673TMC3    H110015   0.391   3.969   0.713 -0.6178 -2.5485  3.2497
  673TMC3    H210016   0.557   3.735   0.391  2.2872  0.0650 -0.1145
  673TMC3    C710017   0.383   3.918   0.437 -0.0886 -0.8932 -0.2161
  673TMC3    C810018   0.759   3.641   0.532 -0.2672  0.7579 -0.0031
  673TMC3    O110019   0.374   3.852   0.333  0.7778  0.0276  0.3537
  673TMC3    O210020   0.745   3.596   0.416 -0.4260 -0.7518 -0.1045
  674MPD2     C10021   0.293   4.455  17.570  0.1685  1.3630  0.5396
  674MPD2    C110022   0.237   4.330  17.585 -0.0784 -0.0455 -0.2225
  674MPD2    C210023   0.100   4.314  17.593  0.2589  0.8307  0.1769
  674MPD2    C310024   0.021   4.428  17.609  0.7796  0.2884 -0.0272
  674MPD2    C410025   0.072   4.550  17.578  0.3629  0.2880 -0.0248
  674MPD2    C510026   0.209   4.560  17.562  0.6015  0.1464  0.8551
  674MPD2     H10027   0.064   4.213  17.606  0.2700  0.8314  0.2134
  674MPD2    H110028   0.014   4.642  17.577 -2.0115 -1.2839 -4.7782
  674MPD2    H210029   0.399   4.475  17.572  0.5576 -0.6134 -0.4518
  674MPD2    H310030   0.243   4.662  17.547 -0.3231  0.3893  0.4263
  674MPD2     N10031   4.622   4.406  17.650 -0.9332 -0.0090  0.0229
  674MPD2    H510032   4.595   4.309  17.659  2.8008 -1.0835 -0.0745
  674MPD2    N110033   0.324   4.225  17.618 -0.0118 -0.4429 -0.1378
  674MPD2    H710034   0.419   4.253  17.638 -0.0766 -2.0818  2.4655
  675TMC3    C110035   0.403   4.015  17.683  0.3487 -0.1116 -0.5522
  675TMC3    C210036   0.385   3.880  17.672 -0.3761  0.4001 -0.1946
  675TMC3    C310037   0.460   3.799   0.004 -0.2678 -0.6373  0.8747
  675TMC3    C410038   0.491   4.071   0.030 -1.2832  0.5026  0.5173
  675TMC3    C510039   0.570   3.989   0.099  0.3490 -0.0759 -0.8128
  675TMC3    C610040   0.555   3.854   0.093  0.0066  0.3287 -0.2940
  675TMC3     C10041   0.295   4.094  17.628  0.4841 -0.2487  0.1488
  675TMC3     O10042   0.193   4.037  17.594  0.3352 -0.0009 -0.1088
  675TMC3     H10043   0.306   3.834  17.613 -1.1448  1.5651 -0.0945
  675TMC3    H110044   0.515   4.177   0.030 -2.2294  0.7229  0.0759
  675TMC3    H210045   0.606   3.790   0.163  1.0515  0.2400 -1.1306
  675TMC3    C710046   0.661   4.026   0.209  0.5350  0.2024  0.2600
  675TMC3    C810047   0.416   3.665   0.015 -0.6363  0.2458  0.4815
  675TMC3    O110048   0.740   3.946   0.245  0.0538  0.3540  0.2326
  675TMC3    O210049   0.405   3.601  17.653  0.2434  0.4627  0.3918
  676MPD2     C10050   3.075   2.134  11.180  0.7663 -1.0376  0.3129
  676MPD2    C110051   2.959   2.108  11.236  0.0506  0.3514 -0.0539
  676MPD2    C210052   2.890   1.991  11.212  0.1763  0.1999  0.0367
  676MPD2    C310053   2.947   1.899  11.122 -0.5493 -0.2272  0.3429
  676MPD2    C410054   3.065   1.928  11.058  0.3403  0.2385  0.6490
  676MPD2    C510055   3.130   2.048  11.086 -0.1630  0.4501  0.4569
  676MPD2     H10056   2.789   1.986  11.253  0.1632 -0.7855 -0.1228
  676MPD2    H110057   3.105   1.867  10.978 -1.5024  2.0788 -1.6788
  676MPD2    H210058   3.138   2.217  11.211  2.0522 -2.3709  1.2099
  676MPD2    H310059   3.224   2.077  11.040  0.7578  2.8147  3.7847
  676MPD2     N10060   2.884   1.780  11.078 -0.0882 -0.4360 -0.0283
  676MPD2    H510061   2.925   1.727  11.001 -2.4408 -0.4461 -1.2782
  676MPD2    N110062   2.894   2.199  11.326  0.5108 -0.9775 -0.8623
  676MPD2    H710063   2.810   2.167  11.374  0.0617  1.7483  0.1801
  677TMC3    C110064   2.894   2.355  11.509 -0.3195  0.1436 -0.2254
  677TMC3    C210065   2.827   2.271  11.596  0.0074 -0.0020 -0.0402
  677TMC3    C310066   2.815   2.301  11.728  0.3528  0.5105 -0.7820
  677TMC3    C410067   2.942   2.475  11.561  0.1543 -0.1664  0.3893
  677TMC3    C510068   2.931   2.494  11.699 -0.5787  0.1476 -0.6842
  677TMC3    C610069   2.866   2.415  11.784  0.4621 -0.3272  0.0438
  677TMC3     C10070   2.950   2.318  11.379 -0.0294  0.2914  0.2251
  677TMC3     O10071   3.049   2.384  11.344 -0.3236 -0.0945  0.5150
  677TMC3     H10072   2.795   2.171  11.571 -1.3657  0.5069 -0.2926
  677TMC3    H110073   2.982   2.551  11.495 -0.9163 -1.2363 -1.4946
  677TMC3    H210074   2.857   2.434  11.891 -1.0476 -0.6096 -0.0383
  677TMC3    C710075   2.970   2.618  11.751 -0.5293 -0.0787 -0.3136
  677TMC3    C810076   2.790   2.194  11.819  0.4047  1.2166 -0.8504
  677TMC3    O110077   2.912   2.655  11.851  0.0841  0.1563  0.3339
  677TMC3    O210078   2.727   2.100  11.777  0.1808  0.1261  0.0306
  678MPD2     C10079   0.083   2.684   1.385 -0.5335  0.0221  0.7718
  678MPD2    C110080   0.077   2.576   1.291 -0.1222  0.5360  0.0398
  678MPD2    C210081   4.687   2.516   1.265 -0.6100 -0.1459  0.6484
  678MPD2    C310082   4.575   2.555   1.328  0.2359  0.6965 -0.6770
  678MPD2    C410083   4.586   2.644   1.440  0.2727 -0.0742  0.5279
  678MPD2    C510084   4.705   2.705   1.464  0.7622  0.1176 -0.6874
  678MPD2     H10085   4.673   2.432   1.198  1.3037 -0.7951  1.0539
  678MPD2    H110086   4.498   2.659   1.501 -1.3586 -2.6265 -1.1903
  678MPD2    H210087   0.176   2.739   1.391  0.0059 -1.2479  3.7157
  678MPD2    H310088   4.729   2.770   1.548 -2.3721  0.9418 -0.4444
  678MPD2     N10089   4.454   2.502   1.271  0.9798  0.2112  0.2148
  678MPD2    H510090   4.463   2.445   1.188  1.3873  1.0638 -0.3294
  678MPD2    N110091   0.199   2.547   1.229  0.3702  0.4863  0.2950
  678MPD2    H710092   0.276   2.598   1.269  2.2258 -1.5004 -0.7507
  679TMC3    C110093   0.539   2.341   1.004 -0.1978 -0.7091  0.4490
  679TMC3    C210094   0.415   2.337   1.051  0.4017  0.1665  0.0651
  679TMC3    C310095   0.361   2.449   1.095 -0.3894  0.5893  0.0525
  679TMC3    C410096   0.606   2.463   0.991 -0.1500  0.2985  0.1930
  679TMC3    C510097   0.542   2.577   1.028 -0.3747 -0.1133  0.2639
  679TMC3    C610098   0.414   2.571   1.074 -0.6615  0.4717  0.0978
  679TMC3     C10099   0.582   2.220   0.942 -1.0309 -0.7648  0.5528
  679TMC3     O10100   0.491   2.158   0.894  0.4533 -0.0653 -0.2399
  679TMC3     H10101   0.354   2.248   1.049  0.0999  0.2670  4.3044
  679TMC3    H110102   0.699   2.463   0.934 -1.1768  0.8562 -1.4839
  679TMC3    H210103   0.374   2.668   1.101  2.4593  1.8402 -0.2582
  679TMC3    C710104   0.560   2.680   0.928  0.5845 -0.2362 -1.0720
  679TMC3    C810105   0.229   2.440   1.145 -0.2155  0.2901 -0.2208
  679TMC3    O110106   0.464   2.757   0.912 -0.7634 -0.5782 -0.4312
  679TMC3    O210107   0.151   2.353   1.107  0.6503  0.7117 -0.2456
  680MPD2     C10108   4.443   0.980  13.565 -0.3114 -0.5001 -0.5288
  680MPD2    C110109   4.501   0.959  13.689 -0.1720 -0.5268  0.1737
  680MPD2    C210110   4.553   1.066  13.745 -0.2572 -1.0678  0.5122
  680MPD2    C310111   4.563   1.194  13.689  0.4090 -0.2951  0.2568
  680MPD2    C410112   4.510   1.214  13.564  1.0182  0.4567  0.6673
  680MPD2    C510113   4.463   1.106  13.504 -0.1622 -0.4891 -0.2954
  680MPD2     H10114   4.598   1.043  13.841 -1.2544 -1.6281  0.8461
  680MPD2    H110115   4.519   1.309  13.512 -2.0319  0.0575 -0.6298
  680MPD2    H210116   4.395   0.905  13.504  2.9327 -1.8645 -1.4344
  680MPD2    H310117   4.422   1.121  13.406 -0.2092 -0.1708 -0.2260
  680MPD2     N10118   4.634   1.300  13.739  0.0777 -0.1520  0.1159
  680MPD2    H510119   4.637   1.386  13.685 -4.4662  0.6961  1.2492
  680MPD2    N110120   4.500   0.832  13.754 -0.1214 -0.4427 -0.6301
  680MPD2    H710121   4.552   0.823  13.841  3.4970  0.6591 -2.6647
  681TMC3    C110122   4.482   0.607  13.781  0.4384 -0.0159 -0.1035
  681TMC3    C210123   4.406   0.584  13.893  0.7274  0.1666 -0.8921
  681TMC3    C310124   4.462   0.551  14.012  0.2904  0.2256  0.6703
  681TMC3    C410125   4.615   0.589  13.784  0.3654  0.2178 -0.9248
  681TMC3    C510126   4.677   0.553  13.900  0.5070  0.6204  0.4439
  681TMC3    C610127   4.596   0.533  14.013  0.4704 -0.0465 -0.2696
  681TMC3     C10128   4.438   0.723  13.706  0.4310 -0.3197  0.5110
  681TMC3     O10129   4.375   0.699  13.604  0.1128  0.1121 -1.2976
  681TMC3     H10130   4.302   0.614  13.885  1.1499  1.6966 -0.6555
  681TMC3    H110131   4.670   0.596  13.691  1.7446  1.4853 -0.0222
  681TMC3    H210132   4.652   0.517  14.104 -0.8424  3.8317  1.2237
  681TMC3    C710133   0.065   0.486  13.888  0.2484  0.4513  0.3008
  681TMC3    C810134   4.396   0.596  14.133  0.4256  0.4532 -0.2110
  681TMC3    O110135   0.086   0.399  13.970  0.1625 -0.3115 -0.1136
  681TMC3    O210136   4.274   0.593  14.138  0.5367 -0.0021 -0.0703
  682MPD2     C10137   2.447   2.337  10.797 -0.1075 -0.5378 -0.2969
  682MPD2    C110138   2.390   2.216  10.787 -0.5292 -0.2092  0.5078
  682MPD2    C210139   2.291   2.180  10.879 -0.5556 -0.1916 -0.2024
  682MPD2    C310140   2.253   2.264  10.980 -0.3907 -0.1334 -0.4424
  682MPD2    C410141   2.295   2.397  10.981 -0.0669  0.4860  0.0670
  682MPD2    C510142   2.401   2.430  10.895  0.0740  0.0101  0.0136
  682MPD2     H10143   2.237   2.086  10.877  1.2077 -1.2505  1.0136
  682MPD2    H110144   2.253   2.459  11.059  3.7981  0.9698  1.7634
  682MPD2    H210145   2.532   2.353  10.732 -1.5505  2.0439 -1.5609
  682MPD2    H310146   2.444   2.529  10.888 -0.0218  0.0656  0.2074
  682MPD2     N10147   2.150   2.228  11.069 -0.3690 -0.1431 -0.5298
  682MPD2    H510148   2.133   2.293  11.145 -2.2672 -1.3035  0.0319
  682MPD2    N110149   2.425   2.121  10.696 -0.2215  0.1801  0.2473
  682MPD2    H710150   2.391   2.027  10.715 -2.1781  0.9271  0.3772
  683TMC3    C110151   1.883   2.105  11.396  0.0479 -0.0884 -0.1170
  683TMC3    C210152   1.826   1.981  11.391  0.0684  0.7115 -0.2339
  683TMC3    C310153   1.832   1.922  11.268 -0.1193  0.5970 -0.1979
  683TMC3    C410154   1.966   2.155  11.294 -0.1178  0.1510 -0.6777
  683TMC3    C510155   1.994   2.070  11.188  0.2290  0.1457 -0.0501
  683TMC3    C610156   1.919   1.957  11.173 -0.1552  0.2725  0.0283
  683TMC3     C10157   1.848   2.203  11.498  0.4291 -0.1192  0.1774
  683TMC3     O10158   1.927   2.299  11.511  0.0558  0.1989 -0.3627
  683TMC3     H10159   1.760   1.946  11.470  1.6446  0.1461  0.8292
  683TMC3    H110160   2.032   2.241  11.305  1.4282 -0.7937 -2.4895
  683TMC3    H210161   1.929   1.891  11.087  0.8341  0.9164 -0.3399
  683TMC3    C710162   2.070   2.111  11.068 -0.5816  0.4243  0.2638
  683TMC3    C810163   1.776   1.791  11.248 -0.8259  0.7952 -0.1555
  683TMC3    O110164   2.060   2.025  10.980  0.0513  0.4928 -0.0057
  683TMC3    O210165   1.753   1.757  11.131 -0.4353 -0.7549  0.2432
  684MPD2     C10166   0.603   1.560  16.360 -0.1726 -0.4055  0.4222
  684MPD2    C110167   0.521   1.611  16.261  0.8603 -0.3200 -0.3926
  684MPD2    C210168   0.425   1.707  16.292  0.3494 -0.1021  0.0316
  684MPD2    C310169   0.406   1.751  16.423 -0.2044  0.6573 -0.3479
  684MPD2    C410170   0.480   1.693  16.522 -0.3224 -0.3344 -0.6168
  684MPD2    C510171   0.571   1.600  16.492  0.2486  0.1477 -0.0936
  684MPD2     H10172   0.355   1.749  16.220  1.5137 -1.0934 -1.6718
  684MPD2    H110173   0.462   1.725  16.624  0.6070 -0.4243 -0.4180
  684MPD2    H210174   0.673   1.478  16.357  0.1774 -0.1821  2.5187
  684MPD2    H310175   0.636   1.572  16.575  1.4780 -0.9331 -1.4233
  684MPD2     N10176   0.321   1.861  16.465 -0.4992  0.2037  0.3593
  684MPD2    H510177   0.339   1.891  16.560  0.7490 -0.0507  0.2064
  684MPD2    N110178   0.526   1.584  16.121 -0.0459  0.5343  0.2781
  684MPD2    H710179   0.462   1.639  16.065 -1.0509  2.6893  3.5205
  685TMC3    C110180   0.640   1.533  15.911 -0.6061 -0.3401 -0.2833
  685TMC3    C210181   0.527   1.569  15.846 -0.3373  0.6971 -0.7895
  685TMC3    C310182   0.532   1.674  15.758  0.9028  0.2901  0.0429
  685TMC3    C410183   0.759   1.595  15.887 -0.3593 -0.6794 -0.0697
  685TMC3    C510184   0.761   1.700  15.794 -0.5165 -0.5825  0.2696
  685TMC3    C610185   0.644   1.744  15.730  0.0411  0.7513 -0.1442
  685TMC3     C10186   0.618   1.510  16.054  0.5929  0.1079  0.0682
  685TMC3     O10187   0.712   1.454  16.107 -0.3915 -0.4985 -0.7696
  685TMC3     H10188   0.435   1.517  15.873  0.5612 -1.3895 -1.7023
  685TMC3    H110189   0.844   1.564  15.947 -0.3050 -1.5950 -0.6312
  685TMC3    H210190   0.644   1.839  15.678  2.1778  2.1070  2.3582
  685TMC3    C710191   0.837   1.815  15.842 -0.7295 -0.0270 -0.0232
  685TMC3    C810192   0.417   1.681  15.666  0.2343 -1.2448  0.8367
  685TMC3    O110193   0.850   1.902  15.758  0.3919  0.3303 -0.0081
  685TMC3    O210194   0.435   1.743  15.561  0.3170 -0.1932  0.1164
  686MPD2     C10195   1.698   2.117  15.687  0.1760  0.6912 -0.2536
  686MPD2    C110196   1.755   2.037  15.778  0.3448 -0.4475  0.7432
  686MPD2    C210197   1.881   1.976  15.755  0.4698 -0.0533 -0.2073
  686MPD2    C310198   1.933   1.978  15.626  0.1312 -0.1267  0.4034
  686MPD2    C410199   1.872   2.046  15.524 -0.1535  0.8231  0.0230
  686MPD2    C510200   1.757   2.109  15.557  0.2035 -0.1197  0.0958
  686MPD2     H10201   1.924   1.921  15.837  0.8303  0.5882  0.0320
  686MPD2    H110202   1.904   2.044  15.421 -1.3875 -0.2805 -0.3465
  686MPD2    H210203   1.606   2.172  15.701  1.3154  2.6635 -0.4985
  686MPD2    H310204   1.707   2.173  15.485 -0.3000 -0.8356 -0.1860
  686MPD2     N10205   2.043   1.897  15.598 -0.2771  0.1090 -0.0486
  686MPD2    H510206   2.097   1.928  15.518 -0.8442 -0.3229 -0.6008
  686MPD2    N110207   1.685   2.024  15.895  0.3512 -0.4116 -0.4246
  686MPD2    H710208   1.596   2.073  15.891  0.8632  0.7263  2.3617
  687TMC3    C110209   2.020   1.695  15.736  0.6201  0.0840  0.0629
  687TMC3    C210210   1.896   1.665  15.688  0.7677  0.2283 -0.2747
  687TMC3    C310211   1.817   1.574  15.757 -0.0837  0.1671 -0.1750
  687TMC3    C410212   2.078   1.625  15.833 -0.0176  0.4595  0.2405
  687TMC3    C510213   2.007   1.520  15.886  0.7144 -0.7377 -0.1051
  687TMC3    C610214   1.875   1.496  15.849  0.2065 -0.0696 -0.3049
  687TMC3     C10215   2.101   1.792  15.672 -0.5059  0.1137  0.2255
  687TMC3     O10216   2.223   1.770  15.683 -0.0466  0.0024  0.4099
  687TMC3     H10217   1.862   1.721  15.601 -0.1416  0.1387  0.0247
  687TMC3    H110218   2.179   1.648  15.864  0.1537  0.2911 -0.1913
  687TMC3    H210219   1.813   1.424  15.901  1.8947  0.3339  2.2709
  687TMC3    C710220   2.070   1.438  15.989  0.0368 -0.0227 -0.0666
  687TMC3    C810221   1.679   1.604  15.785 -0.5022  0.4268  0.5329
  687TMC3    O110222   2.180   1.481  16.022 -0.1174  0.1484 -0.2988
  687TMC3    O210223   1.627   1.551  15.884 -0.1905 -0.0413 -0.2523
  688MPD2     C10224   0.922   0.634  17.540 -0.3574  0.3003 -0.6251
  688MPD2    C110225   0.927   0.498  17.564  0.5567  0.0140  0.0561
  688MPD2    C210226   1.019   0.429  17.495 -0.2525 -0.3491 -0.4463
  688MPD2    C310227   1.108   0.494  17.417  0.2768 -0.2910 -0.3413
  688MPD2    C410228   1.110   0.633  17.401  0.1051  0.1790 -0.1711
  688MPD2    C510229   1.009   0.700  17.461  0.3991 -0.5864 -0.7592
  688MPD2     H10230   1.022   0.320  17.500 -0.3861 -0.3036  0.5847
  688MPD2    H110231   1.182   0.686  17.339  1.0167  0.6376  1.2926
  688MPD2    H210232   0.854   0.709  17.580 -1.5279 -1.6900  1.1245
  688MPD2    H310233   0.993   0.806  17.444  1.0107 -0.1751  1.1898
  688MPD2     N10234   1.207   0.420  17.346 -0.2845 -0.3985 -0.5865
  688MPD2    H510235   1.258   0.472  17.275  0.2093 -0.9409 -0.6290
  688MPD2    N110236   0.846   0.438  17.664 -0.7447  0.1603  0.2944
  688MPD2    H710237   0.852   0.337  17.674 -0.0989  0.0940 -0.7127
  689TMC3    C110238   0.763   0.427   0.142  0.2764  0.4790 -0.3266
  689TMC3    C210239   0.754   0.495   0.263 -0.3193 -0.1801  0.2242
  689TMC3    C310240   0.751   0.419   0.375  0.2263  0.0878  0.5181
  689TMC3    C410241   0.773   0.293   0.136  0.2835  0.1485  0.0923
  689TMC3    C510242   0.756   0.222   0.252  0.0035 -0.3393 -0.2135
  689TMC3    C610243   0.750   0.284   0.373 -1.2402  0.5524 -0.2224
  689TMC3     C10244   0.791   0.507   0.023  0.2298  0.0667  0.5548
  689TMC3     O10245   0.790   0.625   0.049 -0.0594  0.1789  0.4373
  689TMC3     H10246   0.736   0.602   0.266 -4.4576 -0.7621 -2.6508
  689TMC3    H110247   0.785   0.238   0.043  2.2405  0.2405  0.2911
  689TMC3    H210248   0.737   0.235   0.468 -0.6653  0.2390 -0.3032
  689TMC3    C710249   0.786   0.081   0.244 -0.5113  0.1047 -0.6110
  689TMC3    C810250   0.757   0.469   0.510 -0.1296  0.5929 -0.1424
  689TMC3    O110251   0.801   0.011   0.342 -0.0355  0.3036  0.1660
  689TMC3    O210252   0.710   0.408   0.610 -0.2701  0.5547 -0.2398
  690MPD2     C10253   3.378   2.330  15.693  0.1355 -0.6011 -0.3806
  690MPD2    C110254   3.338   2.342  15.559 -0.0275 -0.4741 -0.1270
  690MPD2    C210255   3.421   2.402  15.466  0.5693  0.6655 -0.0075
  690MPD2    C310256   3.536   2.468  15.511 -0.0800  0.2469  0.4723
  690MPD2    C410257   3.576   2.460  15.642 -0.3122 -0.1119 -0.0607
  690MPD2    C510258   3.488   2.400  15.730  0.2135  0.0511  0.3204
  690MPD2     H10259   3.407   2.392  15.359  0.2118 -0.9911  0.1985
  690MPD2    H110260   3.667   2.505  15.681 -0.4446  1.2158 -1.2946
  690MPD2    H210261   3.318   2.278  15.767 -0.1642  2.1192  1.2932
  690MPD2    H310262   3.507   2.400  15.836 -2.6337  3.2990  0.8268
  690MPD2     N10263   3.600   2.542  15.412 -0.0505 -0.2313 -0.0404
  690MPD2    H510264   3.562   2.541  15.318 -0.2421  1.3710  0.0266
  690MPD2    N110265   3.229   2.270  15.505  0.1833  0.1193 -0.2490
  690MPD2    H710266   3.205   2.299  15.411  1.5813  0.3056 -0.5469
  691TMC3    C110267   3.045   2.123  15.473 -0.3908 -0.2580 -0.2992
  691TMC3    C210268   3.031   2.186  15.352 -0.2485 -0.0429  0.1679
  691TMC3    C310269   2.907   2.173  15.292  0.4775  0.3610  0.3020
  691TMC3    C410270   2.950   2.051  15.537 -0.7025 -0.0673  0.2063
  691TMC3    C510271   2.828   2.046  15.473 -0.4084 -0.0426 -0.1289
  691TMC3    C610272   2.803   2.116  15.358  0.3862  0.6198 -0.0147
  691TMC3     C10273   3.146   2.176  15.567  0.5505  0.0177 -0.3586
  691TMC3     O10274   3.160   2.136  15.679  0.2089  0.0846 -0.4421
  691TMC3     H10275   3.116   2.232  15.304 -0.1205  0.8605  1.2412
  691TMC3    H110276   2.964   2.011  15.637  0.5928  0.8702  0.4059
  691TMC3    H210277   2.701   2.104  15.321  0.7748 -0.4646 -0.7114
  691TMC3    C710278   2.721   1.985  15.529  0.5678  0.2529  0.0822
  691TMC3    C810279   2.867   2.283  15.198 -0.1822  0.2886 -0.5701
  691TMC3    O110280   2.669   1.900  15.456  0.1071  0.2737  0.2464
  691TMC3    O210281   2.965   2.341  15.155  0.1399  0.5771  0.4415
  692TMC3    C110282   4.687   3.070  15.612  0.0801 -0.0134  0.9416
  692TMC3    C210283   0.070   3.105  15.660  0.1885 -0.2657  0.4537
  692TMC3    C310284   0.165   3.012  15.696  0.0675 -0.2599  0.3508
  692TMC3    C410285   4.646   2.939  15.632  0.0845  0.5195  0.2250
  692TMC3    C510286   4.733   2.846  15.685 -0.1531 -0.5660 -0.7636
  692TMC3    C610287   0.126   2.885  15.722  0.3428  0.7835  0.1259
  692TMC3     C10288   4.574   3.168  15.612  0.8560  0.6565 -0.2722
  692TMC3     O10289   4.460   3.115  15.618 -0.1177 -0.1742  0.4082
  692TMC3     H10290   0.108   3.191  15.607 -1.7069 -0.0844 -0.6216
  692TMC3    H110291   4.552   2.905  15.589 -0.7714 -1.6780  3.8458
  692TMC3    H210292   0.205   2.813  15.739 -0.4348 -0.2094 -0.4874
  692TMC3    C710293   4.703   2.705  15.679 -0.4027 -1.0313  0.0180
  692TMC3    C810294   0.238   3.054  15.815 -0.3710  0.6374 -0.0310
  692TMC3    O110295   4.634   2.666  15.585  0.0545  0.0691 -0.2903
  692TMC3    O210296   0.280   2.969  15.895 -0.4168 -0.8766 -0.2782
  693MPD2     C10297   4.177   1.478  10.491 -0.3555  0.1541 -1.3711
  693MPD2    C110298   4.160   1.393  10.596  0.7629 -0.2801  0.4915
  693MPD2    C210299   4.270   1.336  10.654 -0.1617 -0.2343 -0.4997
  693MPD2    C310300   4.397   1.353  10.608  0.0943  0.0153 -0.1359
  693MPD2    C410301   4.418   1.449  10.508  0.1587 -0.0968 -0.2852
  693MPD2    C510302   4.306   1.508  10.445 -0.2133 -0.3381  0.6758
  693MPD2     H10303   4.249   1.273  10.739 -2.6770  1.5660  0.2294
  693MPD2    H110304   4.511   1.472  10.458 -0.6276 -0.7866 -2.0693
  693MPD2    H210305   4.096   1.543  10.462 -0.1239  0.5574 -1.1117
  693MPD2    H310306   4.317   1.587  10.371  0.8081  2.0882  3.4121
  693MPD2     N10307   4.497   1.286  10.679 -0.1198 -0.2933 -0.1912
  693MPD2    H510308   4.461   1.214  10.741  0.7820 -0.2598  0.3757
  693MPD2    N110309   4.028   1.372  10.646 -0.2754  0.0429  0.2251
  693MPD2    H710310   3.954   1.381  10.577 -0.8276 -0.5615  0.7439
  694TMC3    C110311   3.859   1.284  10.781  0.3351  0.2948  0.3252
  694TMC3    C210312   3.791   1.229  10.677  0.5289  0.5226  0.0036
  694TMC3    C310313   3.684   1.154  10.711 -0.1034 -0.4423 -0.4949
  694TMC3    C410314   3.816   1.264  10.913 -0.4797  0.0368 -0.3899
  694TMC3    C510315   3.699   1.201  10.944 -0.1541  0.4032 -0.2324
  694TMC3    C610316   3.629   1.137  10.838 -0.3459 -0.6586 -0.0795
  694TMC3     C10317   3.997   1.322  10.769  0.5813  0.7038  0.4692
  694TMC3     O10318   4.064   1.325  10.866  0.1431 -0.4730  0.1567
  694TMC3     H10319   3.829   1.234  10.576 -0.5744  0.0443 -0.4338
  694TMC3    H110320   3.877   1.318  10.986  0.4996  1.3040 -2.1408
  694TMC3    H210321   3.531   1.091  10.848  0.9040 -3.1465  0.7986
  694TMC3    C710322   3.667   1.177  11.086  0.1125  0.4121  0.7365
  694TMC3    C810323   3.602   1.097  10.600 -0.1025 -0.3568 -0.4170
  694TMC3    O110324   3.729   1.243  11.168 -0.0932 -0.1233  0.6097
  694TMC3    O210325   3.500   1.038  10.632 -0.1785  0.0431  0.1667
  695MPD2     C10326   0.741   3.649  13.371 -0.9649  0.3869 -0.4987
  695MPD2    C110327   0.667   3.602  13.476  0.6864 -0.2215 -0.8094
  695MPD2    C210328   0.532   3.627  13.474 -0.2713 -0.9465  0.4640
  695MPD2    C310329   0.475   3.692  13.369  0.3654  0.1865  0.0961
  695MPD2    C410330   0.550   3.742  13.265  0.2446 -0.1917 -0.9477
  695MPD2    C510331   0.683   3.718  13.265 -0.0643  0.5897  0.3034
  695MPD2     H10332   0.465   3.598  13.553 -0.8451 -1.1018 -0.0784
  695MPD2    H110333   0.511   3.785  13.174  0.3250 -1.6520 -1.6741
  695MPD2    H210334   0.849   3.642  13.373 -0.8516  2.3836  0.3537
  695MPD2    H310335   0.750   3.753  13.187 -0.3137  0.3039 -0.0384
  695MPD2     N10336   0.334   3.714  13.373  0.6205 -0.7050  0.2055
  695MPD2    H510337   0.286   3.683  13.457  2.3849 -0.8819  1.1319
  695MPD2    N110338   0.714   3.527  13.585 -0.2199  0.4004 -0.1782
  695MPD2    H710339   0.659   3.505  13.667  3.0148 -0.4836  1.7563
  696TMC3    C110340   0.112   3.761  13.320  0.1545 -0.1114  0.8723
  696TMC3    C210341   0.079   3.655  13.394 -0.5320  0.2347 -0.4714
  696TMC3    C310342   4.681   3.646  13.443 -0.5479  0.3859 -0.6347
  696TMC3    C410343   0.034   3.868  13.305  0.8467  0.9332  0.1839
  696TMC3    C510344   4.645   3.863  13.350 -0.2077 -0.3848 -0.3237
  696TMC3    C610345   4.595   3.750  13.418 -0.5633 -0.0472 -0.3351
  696TMC3     C10346   0.251   3.769  13.280  0.4656  0.3358 -0.5828
  696TMC3     O10347   0.276   3.841  13.181 -0.0458  0.4207  0.6100
  696TMC3     H10348   0.146   3.569  13.397  0.8879  1.3164 -1.3431
  696TMC3    H110349   0.077   3.953  13.254 -3.1316  1.0768 -2.9724
  696TMC3    H210350   4.495   3.756  13.458 -0.2166  0.8444  0.4045
  696TMC3    C710351   4.581   3.989  13.373 -0.4796 -0.3604  0.4733
  696TMC3    C810352   4.679   3.590  13.570  0.1619  0.0053  0.1457
  696TMC3    O110353   4.505   4.036  13.289  0.4905 -0.2781 -0.2687
  696TMC3    O210354   0.049   3.580  13.623  0.4730 -0.3123 -0.1272
  697MPD2     C10355   4.324   4.632  15.718 -0.3492 -0.6074 -0.1206
  697MPD2    C110356   4.270   4.634  15.592 -0.3560  0.0478 -0.0105
  697MPD2    C210357   4.295   0.010  15.516  0.3569 -0.1445  0.6408
  697MPD2    C310358   4.389   0.103  15.559 -0.3635  0.3171 -0.1164
  697MPD2    C410359   4.438   0.102  15.685 -0.0247 -0.4314 -0.9190
  697MPD2    C510360   4.400   0.003  15.767  0.4080  0.2796  0.1810
  697MPD2     H10361   4.268   0.009  15.412 -3.1125 -3.9646  1.5906
  697MPD2    H110362   4.495   0.181  15.733 -2.3031 -0.4317  1.7903
  697MPD2    H210363   4.310   4.558  15.796 -2.4899  0.0853  0.1356
  697MPD2    H310364   4.434   0.013  15.869 -0.7687  0.8625  0.5035
  697MPD2     N10365   4.425   0.199  15.470  0.0999 -0.2252  0.2232
  697MPD2    H510366   4.366   0.228  15.393 -1.4362  1.0938  1.8860
  697MPD2    N110367   4.186   4.529  15.544 -0.0126  0.1655 -0.1376
  697MPD2    H710368   4.148   4.560  15.455 -0.1628 -0.0265 -0.1418
  698TMC3    C110369   4.543   0.403  15.403  0.5203 -0.4739  0.0669
  698TMC3    C210370   4.633   0.496  15.444  0.3493 -0.2857  0.7376
  698TMC3    C310371   4.683   0.585  15.352 -0.0212 -0.2674  0.0095
  698TMC3    C410372   4.492   0.403  15.281  0.8837  0.2150  0.4098
  698TMC3    C510373   4.551   0.485  15.187 -0.9013  0.5725  0.6270
  698TMC3    C610374   4.644   0.582  15.221 -0.4601  0.0820 -1.0663
  698TMC3     C10375   4.530   0.286  15.491 -0.4207 -0.6499 -0.2288
  698TMC3     O10376   4.622   0.280  15.568 -0.2360 -0.2160 -0.0703
  698TMC3     H10377   4.670   0.498  15.545 -0.2133 -3.0547  0.9804
  698TMC3    H110378   4.435   0.316  15.249  3.2516 -0.0551 -3.0480
  698TMC3    H210379   4.663   0.659  15.147 -1.1011 -0.8112 -2.1473
  698TMC3    C710380   4.492   0.489  15.053 -0.2270  0.6300 -0.1371
  698TMC3    C810381   0.037   0.686  15.407 -0.4708  0.1919 -0.2688
  698TMC3    O110382   4.371   0.469  15.049 -0.4847  0.3514 -0.4521
  698TMC3    O210383   0.043   0.697  15.527 -0.2376 -0.5658 -0.4457
  699TMC3    C110384   0.126   3.153  13.249 -0.0841  0.0844  0.2308
  699TMC3    C210385   0.095   3.022  13.264 -0.7720 -0.4371  1.0175
  699TMC3    C310386   4.730   2.996  13.346 -0.4769  0.6285  0.4704
  699TMC3    C410387   0.053   3.255  13.316  0.4046 -0.3494  0.7911
  699TMC3    C510388   4.674   3.218  13.372  0.2843  0.7726  0.0349
  699TMC3    C610389   4.638   3.088  13.392  0.3804  0.4457 -0.3895
  699TMC3     C10390   0.192   3.203  13.131 -0.2347 -0.1395 -0.1120
  699TMC3     O10391   0.197   3.133  13.034 -0.0050 -0.6234 -0.0138
  699TMC3     H10392   0.142   2.945  13.203  0.2304  1.4635 -0.6223
  699TMC3    H110393   0.061   3.361  13.297 -0.7021 -0.8378 -2.4674
  699TMC3    H210394   4.554   3.069  13.458  0.5753 -1.7032 -0.7582
  699TMC3    C710395   4.555   3.302  13.383  0.1841 -0.7134  1.1676
  699TMC3    C810396   4.715   2.870  13.409 -0.4166 -0.3901  0.9773
  699TMC3    O110397   4.478   3.275  13.475  0.3456  0.4967 -0.4260
  699TMC3    O210398   4.621   2.863  13.492 -0.3084 -0.6391  0.0181
  700TMC3    C110399   3.620   0.607  17.428 -0.4640 -0.3678  0.5887
  700TMC3    C210400   3.680   0.485  17.394 -0.5075  0.2409  0.2699
  700TMC3    C310401   3.799   0.459  17.451  0.6758  1.1052 -0.2022
  700TMC3    C410402   3.672   0.696  17.519 -0.2911 -0.9577  0.2303
  700TMC3    C510403   3.790   0.661  17.580  1.0357 -0.3048 -0.2596
  700TMC3    C610404   3.859   0.549  17.541 -0.0448  0.0840  0.2728
  700TMC3     C10405   3.544   0.681  17.330 -0.3361  0.0071 -0.4935
  700TMC3     O10406   3.449   0.623  17.280 -0.6728 -0.7154  0.7640
  700TMC3     H10407   3.646   0.435  17.304 -1.0797 -0.5443  0.9261
  700TMC3    H110408   3.629   0.795  17.523  0.7419 -0.6547  3.5483
  700TMC3    H210409   3.946   0.528  17.601 -0.3799 -2.4626 -0.1396
  700TMC3    C710410   3.848   0.742  17.684  0.1723  1.0467  0.7620
  700TMC3    C810411   3.882   0.347  17.395  0.4985  0.6135  0.4555
  700TMC3    O110412   3.969   0.738  17.710 -0.1849 -0.5571  0.2331
  700TMC3    O210413   4.003   0.349  17.417 -0.3156  0.1917 -0.5165
  701TMC3    C110414   3.614   3.914  15.802 -0.3487 -0.2106 -0.6654
  701TMC3    C210415   3.657   3.824  15.711  0.0358 -0.0346 -0.4362
  701TMC3    C310416   3.701   3.874  15.593 -0.2393 -0.1617  0.3540
  701TMC3    C410417   3.639   4.051  15.780 -0.1400 -0.2822  0.3354
  701TMC3    C510418   3.697   4.095  15.670  0.4360  0.6624 -0.2609
  701TMC3    C610419   3.729   4.006  15.570 -0.0540  0.3701 -0.8275
  701TMC3     C10420   3.538   3.885  15.920  0.3928 -0.1009 -0.7143
  701TMC3     O10421   3.527   3.973  16.006  0.5132 -0.0249 -0.2107
  701TMC3     H10422   3.637   3.718  15.723  0.1975 -0.2426 -1.9796
  701TMC3    H110423   3.616   4.122  15.858 -1.8526 -0.2206 -0.2256
  701TMC3    H210424   3.773   4.035  15.475 -0.4550  1.2768 -0.7360
  701TMC3    C710425   3.740   4.235  15.651 -0.2299  0.2876 -0.0062
  701TMC3    C810426   3.678   3.778  15.481  0.2172  0.5201 -0.3819
  701TMC3    O110427   3.753   4.278  15.537  0.0625 -0.7428 -0.0501
  701TMC3    O210428   3.622   3.670  15.492  0.3609  0.6154 -0.0284
  702MPD2     C10429   3.129   1.269  10.663  0.6898 -0.3337 -0.9337
  702MPD2    C110430   3.106   1.391  10.705 -0.1524  0.7717 -0.6254
  702MPD2    C210431   3.191   1.490  10.670 -0.4213  0.3361 -0.0039
  702MPD2    C310432   3.311   1.472  10.605 -0.4351 -0.0574  0.0832
  702MPD2    C410433   3.341   1.344  10.568 -0.0717  0.6375  0.0315
  702MPD2    C510434   3.247   1.243  10.593 -0.0876  0.7498  0.1862
  702MPD2     H10435   3.165   1.595  10.683  0.2628  0.5496 -0.3396
  702MPD2    H110436   3.413   1.324  10.490  2.3821  1.1263  2.1905
  702MPD2    H210437   3.062   1.189  10.691  1.4579  0.2621  2.6806
  702MPD2    H310438   3.268   1.143  10.556  0.1414  0.0839  2.1386
  702MPD2     N10439   3.384   1.588  10.570 -0.2191  0.8944 -0.1230
  702MPD2    H510440   3.341   1.679  10.581 -0.6539  0.6666  0.0527
  702MPD2    N110441   2.998   1.428  10.786  0.1142 -0.4303  0.1561
  702MPD2    H710442   2.984   1.528  10.797 -0.4517 -0.4349 -0.5186
  703TMC3    C110443   3.584   1.713  10.541 -0.0535  0.3735  0.7679
  703TMC3    C210444   3.502   1.827  10.549  0.2446 -0.9180  0.5205
  703TMC3    C310445   3.564   1.952  10.518  0.5566  0.2287 -0.1497
  703TMC3    C410446   3.714   1.714  10.517  0.2535  0.2448 -0.1668
  703TMC3    C510447   3.769   1.834  10.480 -0.4958  0.3338  0.4285
  703TMC3    C610448   3.697   1.956  10.484  0.1981 -0.1028  0.0411
  703TMC3     C10449   3.523   1.577  10.553 -0.3359 -0.0289 -0.2137
  703TMC3     O10450   3.597   1.483  10.561 -0.8679 -0.6593 -0.0569
  703TMC3     H10451   3.394   1.825  10.558  0.3086  0.7124  1.7182
  703TMC3    H110452   3.776   1.626  10.524  0.9808  0.8802  1.3589
  703TMC3    H210453   3.736   2.048  10.442 -1.1648  1.5081  2.3042
  703TMC3    C710454   3.904   1.846  10.425  0.6277  0.5263 -0.6026
  703TMC3    C810455   3.487   2.078  10.500  0.7224 -0.3177  0.2347
  703TMC3    O110456   3.956   1.958  10.426 -0.2258  0.1620  0.1279
  703TMC3    O210457   3.550   2.173  10.453 -0.1927 -0.1044 -0.3143
  704TMC3    C110458   0.797   0.223  11.797  0.1621 -0.5607 -0.7950
  704TMC3    C210459   0.848   0.241  11.671 -0.2913 -1.1167  0.3189
  704TMC3    C310460   0.876   0.132  11.592 -0.3835  0.9448 -0.8467
  704TMC3    C410461   0.781   0.096  11.844  0.7379  0.2745 -1.0926
  704TMC3    C510462   0.822   4.726  11.764 -0.7734  0.1836  0.8367
  704TMC3    C610463   0.863   0.005  11.636 -0.3337 -0.5814 -0.0662
  704TMC3     C10464   0.720   0.330  11.865  0.2839  0.0400  1.4667
  704TMC3     O10465   0.685   0.306  11.979  0.1110 -0.2168  1.2139
  704TMC3     H10466   0.855   0.340  11.627 -1.0792 -1.5367 -0.7481
  704TMC3    H110467   0.726   0.080  11.936 -0.2042  0.4391 -1.6299
  704TMC3    H210468   0.894   4.655  11.578 -0.0869 -0.9534  0.6165
  704TMC3    C710469   0.831   4.589  11.810 -0.0384 -0.7571 -0.1508
  704TMC3    C810470   0.962   0.138  11.478 -0.3639  0.1873  0.3631
  704TMC3    O110471   0.831   4.492  11.734 -0.2427 -0.0097  0.5238
  704TMC3    O210472   1.006   0.038  11.424 -0.0727  1.4319  0.0803
  705MPD2     C10473   0.532   2.722  16.177 -0.5698 -0.1013 -0.1071
  705MPD2    C110474   0.538   2.857  16.201 -0.1415  0.6914  0.1784
  705MPD2    C210475   0.445   2.913  16.286  0.2991  0.1598  0.2217
  705MPD2    C310476   0.331   2.851  16.322  0.3890 -0.8564  0.3585
  705MPD2    C410477   0.324   2.719  16.294 -0.1472 -1.1418 -0.3647
  705MPD2    C510478   0.427   2.651  16.234 -0.0495 -0.8427 -0.6227
  705MPD2     H10479   0.458   3.020  16.304 -1.3810  0.5304 -0.7197
  705MPD2    H110480   0.234   2.663  16.321 -0.5927  1.2818  3.1944
  705MPD2    H210481   0.600   2.667  16.113  0.5840  1.5837 -0.3381
  705MPD2    H310482   0.415   2.544  16.218  1.2277 -1.0584 -0.2033
  705MPD2     N10483   0.224   2.905  16.395  0.3277  0.3864 -0.2366
  705MPD2    H510484   0.160   2.834  16.429  1.8029 -2.1531 -2.7862
  705MPD2    N110485   0.631   2.942  16.138 -0.5627 -0.1231  0.4689
  705MPD2    H710486   0.633   3.040  16.165  1.5383 -0.2112  0.6269
  706TMC3    C110487   0.913   3.090  15.787  0.4397  0.5168  0.5894
  706TMC3    C210488   0.861   3.216  15.794  0.0423  0.2472  0.1765
  706TMC3    C310489   0.758   3.245  15.884  0.6707  0.4746 -0.1110
  706TMC3    C410490   0.876   3.000  15.884  0.0262 -0.3486 -0.4120
  706TMC3    C510491   0.778   3.028  15.973 -0.1689 -0.8025  0.1717
  706TMC3    C610492   0.713   3.147  15.975 -0.0406  0.0228  0.2980
  706TMC3     C10493   1.014   3.055  15.695  0.2074 -0.0434  0.2263
  706TMC3     O10494   1.096   3.142  15.675 -0.0907  0.1971 -0.4169
  706TMC3     H10495   0.884   3.284  15.713  0.3985 -0.1478 -0.0549
  706TMC3    H110496   0.931   2.907  15.887  0.4604 -0.2090 -4.0840
  706TMC3    H210497   0.634   3.179  16.042 -1.0109 -2.4322  0.3229
  706TMC3    C710498   0.732   2.911  16.053 -0.1739 -0.4325 -0.2379
  706TMC3    C810499   0.688   3.366  15.859  0.3906  0.5221 -0.8149
  706TMC3    O110500   0.766   2.801  16.019 -0.4065 -0.1254 -0.5581
  706TMC3    O210501   0.661   3.404  15.746  0.3219  0.0057  0.2062
  707TMC3    C110502   1.749   1.884   1.359  0.8985 -0.7064 -0.1362
  707TMC3    C210503   1.764   1.972   1.457  0.2284 -0.3997 -0.1034
  707TMC3    C310504   1.697   1.949   1.569 -0.0199  0.6111 -0.4426
  707TMC3    C410505   1.682   1.763   1.362 -0.6787 -1.1287 -0.1101
  707TMC3    C510506   1.614   1.747   1.479 -0.2897  0.1548 -0.2237
  707TMC3    C610507   1.616   1.840   1.579  0.1885 -0.3813 -0.2091
  707TMC3     C10508   1.874   1.863   1.290 -0.6674 -0.0238 -0.6704
  707TMC3     O10509   1.972   1.914   1.344  0.0566  0.4511  0.5942
  707TMC3     H10510   1.823   2.062   1.438 -0.5330  0.2486  0.6049
  707TMC3    H110511   1.676   1.691   1.281  0.6731 -1.8978  0.4654
  707TMC3    H210512   1.572   1.822   1.676  0.6468  0.6122  0.1907
  707TMC3    C710513   1.543   1.623   1.489  0.2104  0.4475  0.0737
  707TMC3    C810514   1.766   1.976   1.694  0.1784 -0.4927  0.3645
  707TMC3    O110515   1.588   1.537   1.413 -0.0206 -0.6104  0.0022
  707TMC3    O210516   1.725   1.937   1.803  0.5338 -0.6290  0.0569
  708MPD2     C10517   3.463   1.718  13.947 -0.2405 -0.6090 -0.6009
  708MPD2    C110518   3.363   1.666  14.025  0.9611 -0.4220  0.0231
  708MPD2    C210519   3.393   1.584  14.125 -0.6870 -0.9134 -0.8413
  708MPD2    C310520   3.517   1.525  14.146 -0.5904 -0.5444 -0.2994
  708MPD2    C410521   3.611   1.557  14.053  0.0301 -0.4499  0.0405
  708MPD2    C510522   3.579   1.653  13.959 -0.0349 -0.1213  0.6087
  708MPD2     H10523   3.319   1.562  14.201  1.3174 -0.8562  1.1386
  708MPD2    H110524   3.711   1.516  14.046 -0.1574 -1.0279  0.7274
  708MPD2    H210525   3.444   1.787  13.866 -1.7988 -0.9515 -0.5211
  708MPD2    H310526   3.650   1.684  13.884  0.0351  2.3742  1.7162
  708MPD2     N10527   3.560   1.437  14.251 -0.5800  0.0800 -0.5953
  708MPD2    H510528   3.659   1.416  14.254 -0.7045 -0.5524 -1.1289
  708MPD2    N110529   3.228   1.713  14.031 -0.6009  0.3111 -0.0506
  708MPD2    H710530   3.173   1.686  14.112  2.2728  1.6579  2.3547
  709TMC3    C110531   3.033   1.833  13.977  0.1073  0.3702 -0.8110
  709TMC3    C210532   2.949   1.766  13.891 -0.9882 -0.4002 -0.0342
  709TMC3    C310533   2.837   1.697  13.943 -0.0153  0.0844  0.2439
  709TMC3    C410534   2.987   1.831  14.108  0.0200 -0.3574  0.1679
  709TMC3    C510535   2.899   1.748  14.157 -1.0022 -1.0533  0.2615
  709TMC3    C610536   2.818   1.675  14.079  0.3100 -1.0359  0.3991
  709TMC3     C10537   3.168   1.800  13.948  0.2706 -0.2475  0.7869
  709TMC3     O10538   3.221   1.823  13.841 -0.3414  1.0212 -0.1472
  709TMC3     H10539   2.973   1.768  13.785  1.1962 -0.8236  0.4619
  709TMC3    H110540   3.046   1.893  14.176  1.2437 -1.5522  0.1923
  709TMC3    H210541   2.739   1.615  14.124  0.0881 -0.6116  0.5759
  709TMC3    C710542   2.976   1.675  14.257 -0.0043  0.1857  0.0669
  709TMC3    C810543   2.770   1.610  13.853 -0.0938 -0.7303 -0.0583
  709TMC3    O110544   3.101   1.678  14.251 -0.1228  0.0265  0.1948
  709TMC3    O210545   2.703   1.522  13.910  0.3034 -0.3902 -0.4782
  710TMC3    C110546   0.215   2.938   0.224 -0.7034  0.6642  0.1164
  710TMC3    C210547   0.272   2.903   0.112  0.7718 -0.4147 -0.1123
  710TMC3    C310548   0.406   2.900   0.091 -0.1152  0.5037  1.0464
  710TMC3    C410549   0.292   2.943   0.333 -0.3393  0.7065  0.3057
  710TMC3    C510550   0.429   2.933   0.312  0.5123 -0.7227  0.2470
  710TMC3    C610551   0.493   2.922   0.196  0.3677 -0.0780  0.2340
  710TMC3     C10552   0.073   2.925   0.232 -0.2434 -0.5870 -0.3407
  710TMC3     O10553   0.014   2.845   0.158 -0.7719  0.1714 -0.4303
  710TMC3     H10554   0.203   2.887   0.030 -0.6500 -1.1101  1.2221
  710TMC3    H110555   0.250   2.987   0.422  0.5715  0.0868  1.0513
  710TMC3    H210556   0.600   2.932   0.191  0.5129 -1.4559  0.5886
  710TMC3    C710557   0.509   2.928   0.440  0.5595  0.6777  0.2191
  710TMC3    C810558   0.450   2.859  17.699 -0.3871  0.0745 -0.0193
  710TMC3    O110559   0.462   2.968   0.542 -0.2908  0.2416  0.7416
  710TMC3    O210560   0.355   2.842  17.620 -0.0139  0.4030  0.1724
  711TMC3    C110561   4.077   3.829  14.724  0.6372 -0.0982  0.4828
  711TMC3    C210562   4.065   3.813  14.859  0.6128 -0.2320  0.9887
  711TMC3    C310563   4.166   3.868  14.929 -0.4578 -0.2638 -0.3665
  711TMC3    C410564   4.187   3.885  14.667 -0.1394 -0.2080 -0.5792
  711TMC3    C510565   4.287   3.937  14.742 -0.6473 -0.0655  0.1003
  711TMC3    C610566   4.272   3.934  14.876  0.1818  0.6464  0.1467
  711TMC3     C10567   4.059   3.705  14.659  0.6613  0.3595 -0.1274
  711TMC3     O10568   4.047   3.707  14.537  0.1841  0.1130  0.3348
  711TMC3     H10569   3.975   3.783  14.910 -0.3757 -1.3683 -1.4311
  711TMC3    H110570   4.198   3.879  14.559 -1.1779  2.7812 -0.8371
  711TMC3    H210571   4.346   3.971  14.946 -1.9387  0.1194  2.7015
  711TMC3    C710572   4.411   3.868  14.718  0.4640  0.3931  0.0920
  711TMC3    C810573   4.215   3.775  15.031  0.5083  0.7722  0.1057
  711TMC3    O110574   4.506   3.899  14.783 -0.2504  0.3389 -0.1916
  711TMC3    O210575   4.167   3.662  15.026 -0.2813 -0.5843  0.0257
  712MPD2     C10576   1.494   0.346  13.390  0.0982  0.3207  0.0988
  712MPD2    C110577   1.362   0.361  13.422  0.0883  0.7412  0.4115
  712MPD2    C210578   1.323   0.449  13.524  0.0737 -0.0453 -0.4562
  712MPD2    C310579   1.417   0.542  13.573 -0.1243  0.4246  0.0768
  712MPD2    C410580   1.544   0.534  13.516  0.1914 -0.0811  0.1837
  712MPD2    C510581   1.585   0.441  13.427 -0.4183  0.1274  0.4007
  712MPD2     H10582   1.219   0.445  13.557 -0.4444  0.4367 -2.0134
  712MPD2    H110583   1.619   0.590  13.571 -1.3109  1.0901  1.0589
  712MPD2    H210584   1.524   0.268  13.321 -0.8325 -0.0048  0.0743
  712MPD2    H310585   1.691   0.436  13.402 -0.6606 -0.7362 -0.4771
  712MPD2     N10586   1.384   0.636  13.674  0.1092  0.5477  0.0899
  712MPD2    H510587   1.457   0.703  13.697 -0.1029  0.9517 -0.4058
  712MPD2    N110588   1.261   0.273  13.384 -0.2324 -0.0101  0.1301
  712MPD2    H710589   1.170   0.283  13.428 -0.6735 -1.6271 -0.3860
  713TMC3    C110590   1.231   0.757  13.817  0.5104  0.0986  0.8122
  713TMC3    C210591   1.320   0.859  13.834  0.0764 -0.3620 -0.6584
  713TMC3    C310592   1.272   0.981  13.866  0.7771 -0.8230 -0.5933
  713TMC3    C410593   1.094   0.769  13.846  0.3703 -0.7756  0.4363
  713TMC3    C510594   1.056   0.887  13.902  0.0210 -0.9183 -0.0608
  713TMC3    C610595   1.139   0.998  13.900  0.6591  0.9194 -0.5923
  713TMC3     C10596   1.268   0.636  13.751 -0.4541  0.2357 -0.2958
  713TMC3     O10597   1.181   0.548  13.747 -0.0338 -0.4450  1.2049
  713TMC3     H10598   1.422   0.850  13.800 -0.4735 -1.4542 -2.0070
  713TMC3    H110599   1.028   0.683  13.842 -1.5721  0.7235  0.1319
  713TMC3    H210600   1.109   1.095  13.936  0.2647  0.5739  0.0095
  713TMC3    C710601   0.916   0.906  13.926 -0.0190  0.2035 -1.2405
  713TMC3    C810602   1.343   1.108  13.832 -0.5002 -0.2643  1.0426
  713TMC3    O110603   0.846   0.818  13.880 -0.7832 -0.3181  0.4130
  713TMC3    O210604   1.264   1.201  13.818 -0.1016  0.3348 -0.4853
  714MPD2     C10605   3.208   3.599   0.954 -0.4161 -0.2082  0.0242
  714MPD2    C110606   3.181   3.479   1.019 -0.2537 -0.1605  0.6762
  714MPD2    C210607   3.048   3.439   1.030  0.3052 -0.2849  0.3658
  714MPD2    C310608   2.949   3.516   0.981  0.5705  0.0810 -0.2118
  714MPD2    C410609   2.983   3.633   0.911 -0.0494  0.0102  0.1243
  714MPD2    C510610   3.110   3.671   0.896  0.4386  0.1169 -0.1202
  714MPD2     H10611   3.024   3.349   1.086  0.9996 -2.7082 -3.1757
  714MPD2    H110612   2.909   3.693   0.861  1.0200 -0.4261 -1.9595
  714MPD2    H210613   3.308   3.640   0.955 -1.3216  2.0251 -0.4914
  714MPD2    H310614   3.132   3.770   0.856  0.4158 -0.0967 -0.6622
  714MPD2     N10615   2.811   3.483   1.005 -0.3326  0.1136 -0.3950
  714MPD2    H510616   2.803   3.404   1.068  2.8407  0.1388  0.0551
  714MPD2    N110617   3.285   3.407   1.068 -0.5781  0.3414 -0.4425
  714MPD2    H710618   3.376   3.450   1.083  0.5137 -2.2298  0.3447
  715TMC3    C110619   3.395   3.214   1.167 -0.3817 -0.2816 -0.4979
  715TMC3    C210620   3.425   3.082   1.144 -0.3838 -0.0203  0.7077
  715TMC3    C310621   3.529   3.028   1.217  1.0623 -0.8542  0.7482
  715TMC3    C410622   3.476   3.285   1.251  1.0337  0.9037 -0.5739
  715TMC3    C510623   3.582   3.227   1.308 -0.5393  0.0007  0.1746
  715TMC3    C610624   3.623   3.099   1.289 -0.1104  0.8285 -0.4889
  715TMC3     C10625   3.272   3.275   1.115 -0.6435 -0.3451  0.7405
  715TMC3     O10626   3.189   3.197   1.071 -0.1209  0.1177 -0.5675
  715TMC3     H10627   3.350   3.018   1.100 -0.0582 -0.0031  0.1234
  715TMC3    H110628   3.456   3.389   1.272 -0.3437  0.5643 -0.1751
  715TMC3    H210629   3.693   3.052   1.357 -0.0869  0.2953 -0.8805
  715TMC3    C710630   3.635   3.299   1.419  0.2508  0.1927 -0.6453
  715TMC3    C810631   3.576   2.904   1.162  0.4055 -0.7088 -0.4124
  715TMC3    O110632   3.749   3.273   1.455 -0.3117 -0.2208 -0.3844
  715TMC3    O210633   3.502   2.830   1.098 -0.4219 -0.3279 -0.2879
  716MPD2     C10634   3.631   1.953   9.720  0.0996 -0.0324 -0.3245
  716MPD2    C110635   3.678   2.079   9.696  0.1308 -0.3409 -0.3702
  716MPD2    C210636   3.805   2.100   9.653  0.2501  0.6041  0.1218
  716MPD2    C310637   3.879   1.998   9.600 -0.2525  0.1259  0.3936
  716MPD2    C410638   3.834   1.868   9.617 -0.1227  0.7920 -0.3504
  716MPD2    C510639   3.713   1.847   9.681  0.1938 -0.1263 -0.3062
  716MPD2     H10640   3.851   2.196   9.632  1.7685  0.0336  0.8188
  716MPD2    H110641   3.882   1.781   9.573 -0.9737 -0.2399  0.7448
  716MPD2    H210642   3.530   1.937   9.756 -0.2869 -1.5800 -2.1308
  716MPD2    H310643   3.675   1.748   9.703  1.2182 -0.6552 -0.9240
  716MPD2     N10644   3.999   2.032   9.529 -0.5120 -0.4509 -0.3558
  716MPD2    H510645   4.014   2.132   9.518  1.3196 -0.4834  1.7821
  716MPD2    N110646   3.595   2.191   9.710  0.2897  0.5570  0.7112
  716MPD2    H710647   3.503   2.165   9.743  0.4097  1.3383  1.6450
  717TMC3    C110648   4.165   2.017   9.369  0.3375  0.1111 -0.4503
  717TMC3    C210649   4.090   2.115   9.312  0.1249  0.2604 -0.3501
  717TMC3    C310650   4.155   2.225   9.275  0.3703  0.1787 -0.8079
  717TMC3    C410651   4.299   2.022   9.390 -0.0071 -0.8592  0.2523
  717TMC3    C510652   4.363   2.135   9.349  0.3042 -0.2480 -0.1996
  717TMC3    C610653   4.290   2.237   9.292  0.3908  0.0526  0.2031
  717TMC3     C10654   4.086   1.945   9.463  0.2419 -0.5381 -0.3169
  717TMC3     O10655   4.111   1.826   9.482 -0.1073 -0.5230 -0.1198
  717TMC3     H10656   3.986   2.095   9.291 -0.1148 -0.2967  1.3034
  717TMC3    H110657   4.353   1.944   9.442  0.8445 -0.3629  0.1273
  717TMC3    H210658   4.342   2.322   9.250 -1.3140  0.8503 -0.3206
  717TMC3    C710659   4.508   2.136   9.328  0.6468 -0.1408 -0.4276
  717TMC3    C810660   4.065   2.340   9.267 -0.3020  0.2128 -0.2679
  717TMC3    O110661   4.570   2.031   9.315  0.0601  0.1277 -0.1639
  717TMC3    O210662   3.946   2.309   9.268  0.7811  0.2688 -0.0144
  718MPD2     C10663   2.751   0.547  13.249  0.3655  0.4775 -0.3744
  718MPD2    C110664   2.797   0.537  13.121  0.0656 -0.3043  0.3415
  718MPD2    C210665   2.712   0.494  13.019  0.0460 -0.6056  0.0798
  718MPD2    C310666   2.583   0.458  13.051  0.0554 -0.4341 -0.4925
  718MPD2    C410667   2.547   0.441  13.178  0.3938  0.8725 -0.0324
  718MPD2    C510668   2.626   0.489  13.275 -0.6500  0.1426  0.3236
  718MPD2     H10669   2.745   0.493  12.916 -0.1968  0.6626 -0.0089
  718MPD2    H110670   2.451   0.409  13.216  1.2276  0.2487  1.5770
  718MPD2    H210671   2.800   0.610  13.322 -0.9222  0.6886  0.3057
  718MPD2    H310672   2.594   0.492  13.379 -1.6345  2.1864 -0.0470
  718MPD2     N10673   2.502   0.450  12.930 -0.5539 -0.0733  0.0956
  718MPD2    H510674   2.546   0.468  12.841 -1.1538 -2.5414 -0.6939
  718MPD2    N110675   2.927   0.582  13.097  0.1651 -0.2156  0.3274
  718MPD2    H710676   2.979   0.650  13.151  1.7618 -0.8331 -0.4250
  719TMC3    C110677   3.087   0.637  12.924 -0.8119 -1.0835 -0.1457
  719TMC3    C210678   3.068   0.774  12.939 -0.0046 -0.8072 -0.5145
  719TMC3    C310679   3.137   0.854  12.855 -0.3415  0.6211 -0.4319
  719TMC3    C410680   3.180   0.580  12.846  0.7499 -0.0831  0.2164
  719TMC3    C510681   3.256   0.665  12.778 -0.1662  0.0925  0.0992
  719TMC3    C610682   3.236   0.801  12.774 -0.5658 -0.8960  0.2549
  719TMC3     C10683   2.990   0.542  12.983  0.0938  0.2011  0.1723
  719TMC3     O10684   2.983   0.426  12.946 -0.1389  0.4046 -0.3923
  719TMC3     H10685   3.003   0.826  13.008  1.6351  1.7773 -0.9137
  719TMC3    H110686   3.181   0.472  12.838 -0.4468 -0.0946  0.2518
  719TMC3    H210687   3.301   0.867  12.717  0.9669 -1.2143  1.6422
  719TMC3    C710688   3.305   0.612  12.656 -0.0725 -0.4789  0.0202
  719TMC3    C810689   3.045   0.936  12.777 -0.6531 -0.4952  0.5040
  719TMC3    O110690   3.334   0.693  12.568  0.1343  0.2348  0.0423
  719TMC3    O210691   3.084   1.022  12.702  0.4306  0.1360 -0.1587
  720MPD2     C10692   0.635   2.006  13.994  0.0409 -0.4048  0.3748
  720MPD2    C110693   0.718   2.040  13.887  0.6476  0.0119  0.0831
  720MPD2    C210694   0.854   2.044  13.910 -0.0662 -0.7724 -1.0238
  720MPD2    C310695   0.913   2.012  14.027 -0.7770  0.7215 -0.1911
  720MPD2    C410696   0.834   1.974  14.131 -0.3348 -0.2501  0.5755
  720MPD2    C510697   0.700   1.975  14.109  0.0233 -0.0527  0.2618
  720MPD2     H10698   0.918   2.057  13.823  1.6048  0.1425  0.3489
  720MPD2    H110699   0.876   1.955  14.229 -0.4187  0.9425  0.8388
  720MPD2    H210700   0.528   2.018  13.983 -0.4034 -3.4173  1.4808
  720MPD2    H310701   0.638   1.961  14.197  0.1530 -2.3010  0.0103
  720MPD2     N10702   1.055   2.020  14.043  0.7709  0.1311  0.4676
  720MPD2    H510703   1.104   2.066  13.966  1.9068  0.3861  1.3421
  720MPD2    N110704   0.676   2.078  13.760  0.3350 -0.1220  0.0129
  720MPD2    H710705   0.740   2.108  13.687 -0.2884 -0.9520 -0.8669
  721TMC3    C110706   1.232   2.107  14.147  0.3646 -0.4502  0.2408
  721TMC3    C210707   1.245   2.183  14.258 -0.1482 -0.4812  0.1594
  721TMC3    C310708   1.340   2.278  14.259  0.3644  0.2313 -0.3661
  721TMC3    C410709   1.309   2.126  14.034  0.1714  0.6584 -0.1094
  721TMC3    C510710   1.411   2.218  14.036  0.2425 -0.4660  0.2837
  721TMC3    C610711   1.414   2.305  14.144  0.2704 -0.3749  0.0068
  721TMC3     C10712   1.127   2.008  14.158 -0.4027  0.8245  0.7820
  721TMC3     O10713   1.095   1.963  14.269  0.0440 -0.5805  0.4440
  721TMC3     H10714   1.180   2.169  14.344 -1.7587 -0.1398 -1.0133
  721TMC3    H110715   1.308   2.053  13.954 -1.3884  1.9417 -1.2482
  721TMC3    H210716   1.488   2.384  14.154 -1.5703  1.1827  1.1384
  721TMC3    C710717   1.545   2.173  13.992 -0.6880  0.4774  0.2232
  721TMC3    C810718   1.432   2.279  14.376 -0.1167 -0.1382  0.0165
  721TMC3    O110719   1.545   2.096  13.896  0.4902  0.4435 -0.1548
  721TMC3    O210720   1.552   2.315  14.355 -0.0227  0.2979 -0.1137
  722MPD2     C10721   0.016   0.618  13.459  0.3985 -0.0986 -0.5305
  722MPD2    C110722   4.703   0.735  13.411  0.5954 -0.4231  0.3177
  722MPD2    C210723   4.603   0.738  13.316  0.0298  0.1310  0.4666
  722MPD2    C310724   4.540   0.616  13.287  0.2133 -0.5964 -0.2024
  722MPD2    C410725   4.572   0.494  13.349  0.1664  0.2684  0.9188
  722MPD2    C510726   4.681   0.499  13.435 -0.5847  0.2886 -0.0247
  722MPD2     H10727   4.584   0.827  13.257  3.4033  0.4567 -0.1279
  722MPD2    H110728   4.522   0.400  13.328 -3.0544  1.5986  2.6076
  722MPD2    H210729   0.102   0.608  13.523  0.5990  1.5321 -0.5394
  722MPD2    H310730   4.712   0.407  13.483  0.0058  0.3984 -0.1928
  722MPD2     N10731   4.424   0.614  13.203  0.3242 -0.3010  0.8113
  722MPD2    H510732   4.355   0.540  13.214  0.0026 -0.0928  0.1661
  722MPD2    N110733   0.023   0.856  13.456 -0.5351  0.3645  0.2437
  722MPD2    H710734   0.002   0.942  13.406 -0.1738  0.6746  0.6241
  723TMC3    C110735   4.250   0.693  13.064  0.1073  0.3493 -0.2822
  723TMC3    C210736   4.154   0.660  13.154  0.2941 -0.8643 -0.0174
  723TMC3    C310737   4.029   0.649  13.098  0.9270  0.1206 -0.6874
  723TMC3    C410738   4.221   0.728  12.936  0.5379  0.0636 -0.3396
  723TMC3    C510739   4.095   0.712  12.884 -0.4338  0.1553  0.0117
  723TMC3    C610740   4.004   0.667  12.968 -0.8083 -0.8965  0.2387
  723TMC3     C10741   4.381   0.720  13.114  0.7854 -0.5922  0.5749
  723TMC3     O10742   4.447   0.818  13.078  0.0026 -0.1441  0.4477
  723TMC3     H10743   4.182   0.629  13.254 -0.1130 -0.1549  0.3123
  723TMC3    H110744   4.300   0.777  12.880  2.4129 -0.9244  1.4616
  723TMC3    H210745   3.902   0.645  12.939 -1.3517 -0.8766  2.2128
  723TMC3    C710746   4.059   0.814  12.781 -0.0993  0.2862 -0.5324
  723TMC3    C810747   3.973   0.522  13.145  0.7283 -0.7646 -0.8125
  723TMC3    O110748   3.955   0.871  12.798 -0.0082  0.0143  0.0754
  723TMC3    O210749   3.991   0.496  13.265 -0.2031  0.8870  0.8507
  724TMC3    C110750   0.070   3.501  10.380 -1.1009 -0.1068 -0.7533
  724TMC3    C210751   0.084   3.577  10.267 -0.7397  0.3134 -0.1115
  724TMC3    C310752   0.088   3.716  10.287  0.1403  0.1527  0.0458
  724TMC3    C410753   0.055   3.553  10.509 -0.6250 -0.3554  0.6370
  724TMC3    C510754   0.048   3.692  10.521  0.0849 -1.2306  0.5267
  724TMC3    C610755   0.056   3.770  10.411  0.0710  0.7880 -0.0353
  724TMC3     C10756   0.065   3.357  10.366 -0.1231  0.7205  0.4861
  724TMC3     O10757   0.092   3.294  10.469 -0.9784 -0.0081  0.1056
  724TMC3     H10758   0.126   3.527  10.180 -1.9214 -2.8423  1.1068
  724TMC3    H110759   0.051   3.488  10.596 -0.6051  2.0001  2.3809
  724TMC3    H210760   0.036   3.876  10.426  0.5596  0.8402  0.2249
  724TMC3    C710761   0.069   3.763  10.648  0.1398 -0.3929  0.0314
  724TMC3    C810762   0.108   3.797  10.169 -0.2497 -0.3141 -0.1507
  724TMC3    O110763   0.109   3.879  10.639 -0.5936 -0.3808 -0.3660
  724TMC3    O210764   0.114   3.732  10.068  0.4015 -0.1746  0.3657
  725TMC3    C110765   1.394   2.871  13.043 -0.1627  0.2434 -0.6738
  725TMC3    C210766   1.373   2.951  12.929  0.0520 -0.0956  0.0591
  725TMC3    C310767   1.379   2.892  12.807  0.4175  0.1787 -0.0488
  725TMC3    C410768   1.406   2.734  13.025  0.1183 -0.5063  0.0216
  725TMC3    C510769   1.398   2.683  12.901 -0.3584 -0.0222 -0.2751
  725TMC3    C610770   1.392   2.756  12.792 -0.0387 -0.0331 -0.0583
  725TMC3     C10771   1.500   2.930  13.119  0.3104  0.4832 -0.4876
  725TMC3     O10772   1.510   3.049  13.117  0.0852 -0.0331  0.3285
  725TMC3     H10773   1.375   3.060  12.935  0.8358 -0.1618  1.1370
  725TMC3    H110774   1.427   2.672  13.111 -0.4322 -1.9352 -0.8899
  725TMC3    H210775   1.375   2.713  12.694  0.4296 -2.3639  0.8875
  725TMC3    C710776   1.436   2.545  12.872 -0.0162  0.3281 -0.3118
  725TMC3    C810777   1.395   2.969  12.683 -0.1551  0.6414 -0.3135
  725TMC3    O110778   1.482   2.511  12.763  0.4801 -0.2176 -0.3400
  725TMC3    O210779   1.425   2.908  12.580 -0.2834  0.4834  0.3512
  726MPD2     C10780   4.110   3.923  10.089  0.4955 -0.1950 -1.0042
  726MPD2    C110781   3.988   3.979  10.054  0.2194 -0.6565 -0.1359
  726MPD2    C210782   3.879   3.907  10.058  0.5041  0.4291  0.2935
  726MPD2    C310783   3.888   3.774  10.097 -0.4411  0.5804 -1.1335
  726MPD2    C410784   4.012   3.713  10.109 -0.4925  0.7253 -0.5075
  726MPD2    C510785   4.126   3.785  10.105 -0.9721 -0.4767  0.7124
  726MPD2     H10786   3.784   3.952  10.034 -0.2984 -0.8653  1.0727
  726MPD2    H110787   4.010   3.605  10.117  1.3039  0.5858 -1.9556
  726MPD2    H210788   4.202   3.978  10.072 -0.4566  2.1385  1.5412
  726MPD2    H310789   4.222   3.736  10.120 -0.3772 -0.1794 -2.2468
  726MPD2     N10790   3.778   3.688  10.102 -0.0956 -0.1355 -0.2697
  726MPD2    H510791   3.803   3.592  10.122  0.8696  0.2390  0.3219
  726MPD2    N110792   3.975   4.117  10.018 -0.4740  0.0871  0.0672
  726MPD2    H710793   3.882   4.148   9.993  0.2068  1.1261 -1.1784
  727TMC3    C110794   4.025   4.341   9.946  0.2433 -0.0244  1.0803
  727TMC3    C210795   4.078   4.451   9.997  0.3536  0.5218 -0.2100
  727TMC3    C310796   4.024   4.574   9.962 -0.0580  0.6529 -0.4145
  727TMC3    C410797   3.930   4.343   9.848  0.2682  0.5117  0.4523
  727TMC3    C510798   3.883   4.464   9.805  1.2062  0.1305 -0.4664
  727TMC3    C610799   3.927   4.580   9.862 -1.0580 -0.4723 -0.4042
  727TMC3     C10800   4.074   4.215  10.001 -0.5498 -0.5683  0.9461
  727TMC3     O10801   4.187   4.220  10.043  0.1754  0.4849  0.2544
  727TMC3     H10802   4.143   4.461  10.083  1.3752 -2.9165 -0.6005
  727TMC3    H110803   3.888   4.249   9.814 -0.4210  1.2007 -0.6023
  727TMC3    H210804   3.882   4.676   9.842  0.1538 -0.2248 -1.8715
  727TMC3    C710805   3.754   4.470   9.739  0.5212 -0.2881  0.0792
  727TMC3    C810806   4.075   4.698  10.034  0.7043 -0.6553  0.1733
  727TMC3    O110807   3.690   4.366   9.750  0.1154  0.2264  0.4808
  727TMC3    O210808   4.176   4.677  10.101 -0.2614  0.4399  0.5056
  728TMC3    C110809   3.761   2.645  15.298  0.4230  0.5081 -0.5155
  728TMC3    C210810   3.869   2.725  15.291 -0.1892 -0.2880  0.1770
  728TMC3    C310811   3.904   2.782  15.178  0.9254 -0.0612 -0.7272
  728TMC3    C410812   3.694   2.606  15.186  0.2233 -0.5763 -0.1191
  728TMC3    C510813   3.712   2.687  15.080 -0.6348  0.5140 -0.0962
  728TMC3    C610814   3.816   2.776  15.067 -0.0005 -0.7142  0.0558
  728TMC3     C10815   3.718   2.601  15.429  0.2728 -0.2521  0.3621
  728TMC3     O10816   3.808   2.605  15.507 -0.1396  0.2397  0.1269
  728TMC3     H10817   3.924   2.748  15.382 -1.2150 -0.8757  0.9441
  728TMC3    H110818   3.620   2.527  15.184 -2.0461  1.5642 -1.3097
  728TMC3    H210819   3.841   2.836  14.981 -1.5587  0.9469  0.7737
  728TMC3    C710820   3.630   2.649  14.962  0.0702  0.1513 -0.0228
  728TMC3    C810821   4.029   2.856  15.166 -0.1867  0.6618 -0.0395
  728TMC3    O110822   3.526   2.594  14.985  0.5531 -0.1048  0.0031
  728TMC3    O210823   4.020   2.966  15.114  0.5760  0.3256  0.3850
  729MPD2     C10824   0.649   4.048  16.273  0.4366  0.1628 -0.4620
  729MPD2    C110825   0.764   3.982  16.320 -0.3906  0.5400 -0.4261
  729MPD2    C210826   0.772   3.939  16.448 -0.4683  0.2490  0.2175
  729MPD2    C310827   0.663   3.946  16.534  0.0051  0.0267 -0.2511
  729MPD2    C410828   0.557   4.018  16.493  0.0271 -0.8939 -0.2330
  729MPD2    C510829   0.553   4.066  16.366 -0.5645 -0.0448 -0.5350
  729MPD2     H10830   0.869   3.917  16.492  0.0841 -0.0621 -1.1648
  729MPD2    H110831   0.467   4.022  16.554 -1.8158 -0.9804 -2.9743
  729MPD2    H210832   0.629   4.090  16.175 -0.3169 -0.7684 -0.7140
  729MPD2    H310833   0.462   4.119  16.341 -1.6323 -1.1882  0.9643
  729MPD2     N10834   0.672   3.900  16.666 -0.6402  0.7091  0.3206
  729MPD2    H510835   0.607   3.926  16.739 -0.5276 -0.3293  0.7977
  729MPD2    N110836   0.875   3.984  16.233  0.2911  0.0846  0.3368
  729MPD2    H710837   0.870   4.041  16.149 -1.2373  0.2616  0.5560
  730TMC3    C110838   0.784   3.784  16.845 -0.8256 -0.1691  0.0842
  730TMC3    C210839   0.900   3.715  16.877 -0.2416  0.2250  0.5392
  730TMC3    C310840   0.966   3.745  16.993 -0.2627 -0.3608 -0.0529
  730TMC3    C410841   0.721   3.867  16.933 -0.4540  0.3289  0.0093
  730TMC3    C510842   0.788   3.896  17.051  0.4689 -0.0607 -0.1056
  730TMC3    C610843   0.916   3.837  17.079 -0.3693 -0.2377  0.1750
  730TMC3     C10844   0.765   3.800  16.702 -0.4206 -0.2538  0.0328
  730TMC3     O10845   0.819   3.721  16.626  0.2597  0.0223  0.5346
  730TMC3     H10846   0.942   3.640  16.811 -0.1916 -0.0432  0.8750
  730TMC3    H110847   0.627   3.915  16.908 -0.3060  0.6210  0.0133
  730TMC3    H210848   0.964   3.834  17.176  1.9763 -0.4091 -0.9956
  730TMC3    C710849   0.780   4.037  17.086  0.0254  0.2681 -0.0681
  730TMC3    C810850   1.105   3.758  16.969  0.0031 -0.5808 -0.3409
  730TMC3    O110851   0.769   4.115  16.992 -0.2845  0.4799  0.0418
  730TMC3    O210852   1.145   3.729  16.856  0.0722 -0.1578 -0.6802
  731MPD2     C10853   1.409   1.416  12.269  0.3816  0.2374  0.7423
  731MPD2    C110854   1.343   1.485  12.171 -0.4849 -0.0745  0.5039
  731MPD2    C210855   1.223   1.553  12.207  0.3050  0.4227  0.0436
  731MPD2    C310856   1.170   1.543  12.330  0.1390 -0.0926 -0.2852
  731MPD2    C410857   1.232   1.474  12.432 -0.3170  0.6665  0.1390
  731MPD2    C510858   1.346   1.412  12.394 -0.3968  0.3437  0.3936
  731MPD2     H10859   1.184   1.633  12.145 -0.2915  0.7703  0.8734
  731MPD2    H110860   1.197   1.464  12.533 -2.2397 -0.5184 -0.6510
  731MPD2    H210861   1.504   1.365  12.260  0.6616  1.4635 -3.1496
  731MPD2    H310862   1.388   1.355  12.476 -0.3222  0.5123  0.4721
  731MPD2     N10863   1.046   1.613  12.354  0.3204  0.5269  0.0100
  731MPD2    H510864   1.020   1.675  12.278  2.0217 -0.2786 -1.2439
  731MPD2    N110865   1.406   1.501  12.038  0.5516  0.0100 -0.3262
  731MPD2    H710866   1.496   1.456  12.027  1.7652  1.9037  1.7651
  732TMC3    C110867   1.443   1.588  11.831  0.3982 -0.9107  0.3893
  732TMC3    C210868   1.379   1.612  11.718 -0.0195  0.5678  0.7090
  732TMC3    C310869   1.430   1.699  11.632 -0.3616  0.0472  0.7037
  732TMC3    C410870   1.561   1.650  11.865 -0.1423  0.3877 -0.1004
  732TMC3    C510871   1.607   1.742  11.772 -0.2308  0.5154  0.3638
  732TMC3    C610872   1.550   1.760  11.650  0.4503  0.8642  0.3602
  732TMC3     C10873   1.344   1.569  11.930 -0.9693 -0.4488 -0.1331
  732TMC3     O10874   1.231   1.609  11.907 -0.0796 -0.0677 -0.1337
  732TMC3     H10875   1.293   1.554  11.686  1.8547 -1.5720 -0.4792
  732TMC3    H110876   1.611   1.632  11.960 -0.9105 -0.2923  0.1795
  732TMC3    H210877   1.580   1.835  11.577  0.2916  1.3384  0.7809
  732TMC3    C710878   1.709   1.833  11.791 -0.5034  0.1038 -0.6937
  732TMC3    C810879   1.333   1.773  11.554  0.4639 -0.4755  0.9189
  732TMC3    O110880   1.768   1.870  11.691 -0.4965 -0.2961  0.2789
  732TMC3    O210881   1.379   1.828  11.454  0.6496 -0.2004  0.7074
  733TMC3    C110882   2.219   0.385  12.610 -1.6121  0.6522 -0.4741
  733TMC3    C210883   2.234   0.372  12.746 -0.1813  0.6094  0.0059
  733TMC3    C310884   2.300   0.470  12.814 -0.5026 -0.0760 -0.6523
  733TMC3    C410885   2.256   0.499  12.546  0.2887 -0.3862  0.3382
  733TMC3    C510886   2.315   0.597  12.618  0.5232 -0.0204  0.1979
  733TMC3    C610887   2.358   0.582  12.751 -0.3620 -0.2128  0.2666
  733TMC3     C10888   2.137   0.286  12.540  0.0195 -0.0697 -0.3270
  733TMC3     O10889   2.070   0.325  12.445  0.3769 -0.1816  0.3615
  733TMC3     H10890   2.194   0.287  12.801  1.9701  1.2751  2.6196
  733TMC3    H110891   2.247   0.505  12.438  0.7018 -0.9102  0.2738
  733TMC3    H210892   2.373   0.668  12.815  0.1310  0.5477 -0.8822
  733TMC3    C710893   2.400   0.688  12.544 -0.1192  0.4278  1.0095
  733TMC3    C810894   2.362   0.429  12.935  0.7951  0.2398 -0.3579
  733TMC3    O110895   2.361   0.735  12.436  0.6540  0.0934  0.1515
  733TMC3    O210896   2.297   0.371  13.019 -0.3640 -0.0749  0.1020
  734MPD2     C10897   3.953   2.800  12.234  0.5678  0.3236 -0.2768
  734MPD2    C110898   3.917   2.709  12.142 -0.3012  0.1553 -0.2202
  734MPD2    C210899   3.962   2.731  12.015 -0.3970  0.3964 -0.4236
  734MPD2    C310900   4.037   2.838  11.981  0.1664 -0.2801 -0.7948
  734MPD2    C410901   4.072   2.930  12.077 -0.7610 -0.0598 -0.3523
  734MPD2    C510902   4.031   2.906  12.208 -0.0510  0.3089  0.0617
  734MPD2     H10903   3.943   2.652  11.943  2.0764 -0.5715 -0.0346
  734MPD2    H110904   4.136   3.012  12.047 -3.1193  1.1285 -2.1718
  734MPD2    H210905   3.903   2.800  12.330  0.7852 -1.3175 -0.1689
  734MPD2    H310906   4.056   2.976  12.286  0.4172 -0.1714  0.3442
  734MPD2     N10907   4.081   2.840  11.850  0.1105 -0.6800  0.2879
  734MPD2    H510908   4.060   2.759  11.792  0.5016 -0.4735 -0.1421
  734MPD2    N110909   3.834   2.603  12.180 -0.3256 -0.1652  0.4393
  734MPD2    H710910   3.841   2.568  12.275  1.3537  3.9529  1.8405
  735TMC3    C110911   3.699   2.413  12.145 -0.1959 -0.2235  0.1685
  735TMC3    C210912   3.604   2.375  12.053  0.7902 -0.7655  0.2740
  735TMC3    C310913   3.616   2.248  11.998 -0.4430 -0.2944 -0.5296
  735TMC3    C410914   3.800   2.330  12.192 -1.2287  0.0585  0.3832
  735TMC3    C510915   3.798   2.200  12.150 -0.0195  0.1592 -0.3439
  735TMC3    C610916   3.704   2.162  12.057  0.2451 -0.1084 -0.3618
  735TMC3     C10917   3.758   2.533  12.088 -0.2418 -0.0531  0.7385
  735TMC3     O10918   3.743   2.553  11.969 -0.5139  0.0447 -0.1572
  735TMC3     H10919   3.530   2.447  12.019  0.2398 -0.8496  1.2951
  735TMC3    H110920   3.864   2.364  12.272 -0.5978 -0.8797  0.2758
  735TMC3    H210921   3.725   2.068  12.008  2.6252  1.4951 -2.4367
  735TMC3    C710922   3.924   2.131  12.167 -0.3398  0.4360 -0.2258
  735TMC3    C810923   3.607   2.239  11.856  0.2207 -0.0727 -0.2929
  735TMC3    O110924   4.024   2.197  12.198  0.9425 -0.5502  0.7588
  735TMC3    O210925   3.592   2.131  11.803 -0.7395 -0.5128  0.2928
  736MPD2     C10926   4.033   1.802  12.035 -0.2348 -0.3241  0.0970
  736MPD2    C110927   4.046   1.938  12.067 -0.6078  0.5351 -0.2064
  736MPD2    C210928   4.174   2.002  12.047 -1.1673  0.8465 -0.3574
  736MPD2    C310929   4.286   1.933  11.997 -0.2518  1.0678  0.4344
  736MPD2    C410930   4.264   1.795  11.977 -0.3898 -0.1021 -0.3653
  736MPD2    C510931   4.145   1.734  12.001  0.4301 -0.1985 -0.1667
  736MPD2     H10932   4.193   2.106  12.069  0.1875  0.1474  1.7163
  736MPD2    H110933   4.343   1.746  11.921 -1.2904 -0.1491 -1.5918
  736MPD2    H210934   3.941   1.746  12.045 -1.1212  0.7093 -2.2854
  736MPD2    H310935   4.141   1.626  11.991 -0.2417  0.1519 -3.6808
  736MPD2     N10936   4.402   1.990  11.948  0.2831  0.2410  0.1934
  736MPD2    H510937   4.467   1.934  11.894 -0.3825 -2.3301  2.0964
  736MPD2    N110938   3.932   2.002  12.116  0.1096  0.2024  0.1549
  736MPD2    H710939   3.845   1.952  12.104  0.8394 -1.2040  0.6831
  737TMC3    C110940   4.560   2.155  11.889 -0.1102  0.2643  0.5282
  737TMC3    C210941   4.590   2.291  11.893 -0.1689  0.3870  0.5111
  737TMC3    C310942   4.687   2.323  11.807  0.0350 -0.1817  1.0599
  737TMC3    C410943   4.619   2.063  11.800  0.1158  0.4881  0.3007
  737TMC3    C510944   4.721   2.109  11.727 -0.2606  0.7690  0.7411
  737TMC3    C610945   0.026   2.238  11.727 -0.1995  0.3245  0.2306
  737TMC3     C10946   4.447   2.117  11.972 -0.3752 -0.6271 -0.0654
  737TMC3     O10947   4.404   2.189  12.062 -0.1655  0.1815 -0.3252
  737TMC3     H10948   4.538   2.360  11.959  0.5818  1.4007  0.0490
  737TMC3    H110949   4.597   1.957  11.793 -1.4773  0.8579 -0.2403
  737TMC3    H210950   0.113   2.282  11.679  1.2457 -2.4886  0.3020
  737TMC3    C710951   0.067   2.007  11.657  0.5041  0.3216 -0.3305
  737TMC3    C810952   4.677   2.459  11.751  0.1752 -0.0211  0.5720
  737TMC3    O110953   0.073   1.889  11.707 -0.1615  1.0508  0.3249
  737TMC3    O210954   0.053   2.520  11.759  0.6474 -0.0762 -0.3110
  738MPD2     C10955   0.209   0.923  15.469 -0.1149 -0.2624  0.4068
  738MPD2    C110956   0.170   0.888  15.343  0.4033  0.2758  0.5555
  738MPD2    C210957   0.221   0.960  15.231 -0.1784 -0.4067  0.2281
  738MPD2    C310958   0.311   1.062  15.259 -0.2349 -0.6036 -1.1256
  738MPD2    C410959   0.351   1.091  15.386  0.7091  0.8554  0.0019
  738MPD2    C510960   0.300   1.017  15.494 -0.4995  0.0591 -0.3539
  738MPD2     H10961   0.199   0.935  15.128 -1.6262  0.7000  0.2628
  738MPD2    H110962   0.417   1.176  15.399  0.2823  1.5486 -2.2378
  738MPD2    H210963   0.175   0.870  15.557  1.8914  0.0527  1.3542
  738MPD2    H310964   0.338   1.037  15.594  0.1137  0.8766 -0.7506
  738MPD2     N10965   0.378   1.130  15.150 -0.6625 -0.1283 -0.0114
  738MPD2    H510966   0.430   1.211  15.184 -0.4054 -0.0425 -0.6123
  738MPD2    N110967   0.094   0.774  15.312 -0.0773 -0.2705 -0.4794
  738MPD2    H710968   0.081   0.752  15.214 -2.8402  3.4478 -0.9312
  739TMC3    C110969   0.465   1.183  14.936  0.1349 -0.3121  0.3693
  739TMC3    C210970   0.451   1.217  14.806  0.6000 -0.0732 -0.4094
  739TMC3    C310971   0.551   1.283  14.747  0.3339 -0.4582  0.7036
  739TMC3    C410972   0.573   1.216  15.008 -1.0681 -0.3111  0.1753
  739TMC3    C510973   0.675   1.281  14.947  0.7503  0.4356 -0.5075
  739TMC3    C610974   0.666   1.320  14.816  0.3679  0.0610  0.3855
  739TMC3     C10975   0.366   1.112  15.012  0.6037 -0.0902 -0.0825
  739TMC3     O10976   0.275   1.051  14.955  0.3210 -0.2758 -0.1845
  739TMC3     H10977   0.360   1.206  14.747  1.2677 -1.1290 -1.2539
  739TMC3    H110978   0.601   1.182  15.107  0.8999 -0.7303 -0.5176
  739TMC3    H210979   0.737   1.390  14.775  0.8994 -1.5271 -1.3864
  739TMC3    C710980   0.787   1.322  15.022  0.1973  0.3134 -0.2970
  739TMC3    C810981   0.519   1.348  14.622  0.2751  0.0687 -0.4595
  739TMC3    O110982   0.786   1.307  15.141 -0.2208  1.0911  0.8176
  739TMC3    O210983   0.401   1.356  14.598  0.2472  0.2224  0.6620
  740TMC3    C110984   0.752   2.612  14.306 -0.0985  0.2337  0.6137
  740TMC3    C210985   0.858   2.614  14.396 -0.1412  0.1810  0.0354
  740TMC3    C310986   0.982   2.579  14.345 -0.2984 -0.1406  0.4845
  740TMC3    C410987   0.764   2.580  14.181 -0.2124  0.2070  0.1430
  740TMC3    C510988   0.888   2.553  14.139  0.0220  0.6265  0.6647
  740TMC3    C610989   0.998   2.548  14.215  0.1268 -0.7016  0.7060
  740TMC3     C10990   0.623   2.639  14.361  0.0278 -0.5394 -0.1886
  740TMC3     O10991   0.547   2.698  14.285 -0.2037 -0.1734  0.2547
  740TMC3     H10992   0.848   2.622  14.504 -0.1183 -0.5310  0.0938
  740TMC3    H110993   0.673   2.580  14.122 -0.0272  1.6560 -0.1477
  740TMC3    H210994   1.093   2.510  14.181  0.7207  0.6661  0.8720
  740TMC3    C710995   0.894   2.515  14.002 -0.0151  0.4458  0.2399
  740TMC3    C810996   1.096   2.560  14.429 -0.1381  0.3061  0.2470
  740TMC3    O110997   0.962   2.416  13.975  0.1068 -0.0429  0.4310
  740TMC3    O210998   1.178   2.474  14.398  0.3894 -0.2111  0.3950
  741TMC3    C110999   0.165   1.365  15.017 -0.4104 -0.7763  0.1123
  741TMC3    C211000   0.158   1.350  14.884 -0.6758  0.0173 -0.1021
  741TMC3    C311001   0.060   1.266  14.834  0.0587 -0.1280 -0.8409
  741TMC3    C411002   0.085   1.301  15.104 -0.1620  0.1605  0.0516
  741TMC3    C511003   4.717   1.224  15.054  0.3526  1.0678 -0.3567
  741TMC3    C611004   4.707   1.201  14.919  0.0340  0.2897  0.0694
  741TMC3     C11005   0.288   1.431  15.076  0.1350  1.0752 -0.6455
  741TMC3     O11006   0.312   1.414  15.196 -0.3924 -0.4683  0.0586
  741TMC3     H11007   0.235   1.385  14.816  0.0389 -0.5227  0.4326
  741TMC3    H111008   0.086   1.324  15.210  0.0049  1.3891 -0.2117
  741TMC3    H211009   4.615   1.162  14.875  0.2193 -0.3798  0.2729
  741TMC3    C711010   4.639   1.146  15.150 -0.0942 -0.3131  0.4188
  741TMC3    C811011   0.020   1.279  14.696  1.1101  0.1651  0.1459
  741TMC3    O111012   4.637   1.178  15.266  0.0526  0.1436 -0.0724
  741TMC3    O211013   4.669   1.205  14.648 -0.2699 -0.6390 -0.2356
  742TMC3    C111014   0.027   4.618  15.586 -1.2523  0.4444  0.3438
  742TMC3    C211015   4.686   4.649  15.473 -0.3017  0.0764 -0.2132
  742TMC3    C311016   0.007   0.006  15.392  0.2127 -0.1990  0.0118
  742TMC3    C411017   0.160   4.647  15.601 -0.1126 -0.0960 -0.2157
  742TMC3    C511018   0.222   4.723  15.504 -0.3649 -0.0044  0.3458
  742TMC3    C611019   0.141   0.036  15.402 -0.5399  0.0046  0.0041
  742TMC3     C11020   4.704   4.539  15.690 -0.3781 -0.0727  0.1478
  742TMC3     O11021   4.606   4.474  15.656  0.4867  0.4378 -0.0290
  742TMC3     H11022   4.578   4.635  15.471 -0.7789  3.4752  1.4732
  742TMC3    H111023   0.228   4.596  15.668 -1.5804  0.0032  1.3344
  742TMC3    H211024   0.189   0.098  15.327 -2.2306 -0.6771 -1.6583
  742TMC3    C711025   0.363   0.002  15.490 -0.1609  0.0061  0.0605
  742TMC3    C811026   4.690   0.026  15.260  0.6425 -0.2054 -0.0790
  742TMC3    O111027   0.406   0.018  15.375  0.5193  0.1422 -0.0050
  742TMC3    O211028   0.021   0.096  15.185  0.2133  0.0450  0.8504
  743MPD2     C11029   2.910   2.287   1.979  0.3862 -0.1150  0.6851
  743MPD2    C111030   2.953   2.158   1.939  0.9203  0.8051  0.5865
  743MPD2    C211031   3.088   2.135   1.936  1.5692  0.3482 -0.0061
  743MPD2    C311032   3.184   2.227   1.966 -0.4664  0.5738 -0.1435
  743MPD2    C411033   3.143   2.352   2.003  0.2223  0.3494 -0.0831
  743MPD2    C511034   3.005   2.375   2.014 -0.0101  0.2986 -0.7230
  743MPD2     H11035   3.117   2.041   1.890  0.3554  0.0243 -0.0956
  743MPD2    H111036   3.217   2.428   2.024  0.5195 -0.5321  1.9503
  743MPD2    H211037   2.809   2.324   1.998 -0.0672  0.8111 -3.6328
  743MPD2    H311038   2.968   2.471   2.047 -1.5006 -0.2316 -0.8716
  743MPD2     N11039   3.323   2.199   1.950 -0.4663  0.3352  0.3027
  743MPD2    H511040   3.349   2.102   1.938  0.9469  0.4350  2.6863
  743MPD2    N111041   2.855   2.075   1.877  0.0144 -0.5640 -0.3321
  743MPD2    H711042   2.759   2.106   1.891 -0.3343 -2.8377  2.3434
  744TMC3    C111043   2.777   1.916   1.712 -0.5137 -0.1437 -0.0660
  744TMC3    C211044   2.647   1.960   1.733 -0.2681 -0.0622  0.6012
  744TMC3    C311045   2.565   1.960   1.622 -0.1660  0.7240 -0.3595
  744TMC3    C411046   2.824   1.856   1.602 -0.3005 -0.6943  0.4425
  744TMC3    C511047   2.728   1.852   1.504 -0.4611 -0.0249  0.0214
  744TMC3    C611048   2.608   1.914   1.507 -0.3439  0.7169  0.7630
  744TMC3     C11049   2.884   1.959   1.803 -0.7264 -0.6117 -0.0417
  744TMC3     O11050   2.984   1.893   1.805 -0.2039 -0.6279  0.1943
  744TMC3     H11051   2.619   1.995   1.832 -1.6409 -0.5011  0.3733
  744TMC3    H111052   2.931   1.839   1.590 -0.7416 -3.2491  0.2278
  744TMC3    H211053   2.539   1.914   1.423 -0.7954 -0.0040  1.1331
  744TMC3    C711054   2.760   1.761   1.395  0.4107  0.2272 -0.4954
  744TMC3    C811055   2.419   1.977   1.628  0.9399 -1.1382  0.2593
  744TMC3    O111056   2.877   1.726   1.383  0.4455  0.3041  0.2716
  744TMC3    O211057   2.348   1.954   1.529  0.0399  0.2510 -0.0885
  745TMC3    C111058   1.149   0.101  13.272  0.1342 -0.3632  0.0808
  745TMC3    C211059   1.077   0.097  13.390 -0.0437  0.0399  0.2261
  745TMC3    C311060   0.956   0.050  13.380  0.2472 -1.0580 -0.2469
  745TMC3    C411061   1.109   0.047  13.149  0.7028 -0.4248  0.1807
  745TMC3    C511062   0.986   4.729  13.146 -0.4042 -0.8297 -0.2688
  745TMC3    C611063   0.903   0.011  13.258  0.6644  0.0547  0.4852
  745TMC3     C11064   1.262   0.194  13.267  0.3800  0.6034  0.1892
  745TMC3     O11065   1.346   0.187  13.174  0.2347  1.0104  0.2615
  745TMC3     H11066   1.126   0.099  13.487 -2.3375  0.9735  1.3751
  745TMC3    H111067   1.177   0.052  13.064  0.8041  0.6015  0.3154
  745TMC3    H211068   0.811   4.691  13.262  0.8404 -0.3613 -1.0606
  745TMC3    C711069   0.918   4.722  13.021  0.9441  0.0058 -0.6760
  745TMC3    C811070   0.873   0.017  13.500 -0.0362  0.2813  0.2722
  745TMC3    O111071   0.801   4.694  13.027  0.3325  0.2736  0.5235
  745TMC3    O211072   0.767   4.694  13.480  0.3760 -0.3416  0.0948
  746TMC3    C111073   2.774   1.568  11.098  0.0907  0.0064  0.3300
  746TMC3    C211074   2.861   1.515  11.000 -0.4036 -0.5127 -0.0085
  746TMC3    C311075   2.828   1.397  10.950 -0.6255 -0.4240 -0.4374
  746TMC3    C411076   2.656   1.506  11.128 -0.3869  0.3615 -0.0131
  746TMC3    C511077   2.630   1.386  11.072  0.0769 -0.2547 -0.7653
  746TMC3    C611078   2.714   1.334  10.984  0.0575 -0.2976  0.3853
  746TMC3     C11079   2.785   1.709  11.142 -0.3936  0.5642  0.5958
  746TMC3     O11080   2.712   1.746  11.235 -0.1933 -0.4193  0.0217
  746TMC3     H11081   2.966   1.542  10.998 -0.2230 -1.2017  0.1794
  746TMC3    H111082   2.585   1.561  11.189 -1.7181  0.2559 -1.4634
  746TMC3    H211083   2.689   1.237  10.942  1.4990 -0.2597 -0.5399
  746TMC3    C711084   2.487   1.341  11.043  0.1671 -0.0296  0.4429
  746TMC3    C811085   2.912   1.341  10.849 -0.0443  0.5134  0.4110
  746TMC3    O111086   2.467   1.280  10.942  0.7715  0.1627  0.4799
  746TMC3    O211087   2.917   1.222  10.857 -0.1530  0.1593  0.6588
  747TMC3    C111088   0.663   2.219  10.799 -0.0360 -0.0008 -0.2411
  747TMC3    C211089   0.606   2.117  10.872 -0.2549 -0.5110  0.0629
  747TMC3    C311090   0.585   2.133  11.007 -0.4098 -0.4554 -0.8532
  747TMC3    C411091   0.696   2.335  10.858 -0.2784  0.1824 -0.1056
  747TMC3    C511092   0.692   2.340  10.989 -0.1184 -0.4388  0.1718
  747TMC3    C611093   0.634   2.242  11.070 -0.1924 -0.0039  0.0535
  747TMC3     C11094   0.661   2.223  10.658  0.2525  0.1131  0.7126
  747TMC3     O11095   0.643   2.330  10.604 -0.1500  0.0569 -0.2044
  747TMC3     H11096   0.570   2.025  10.828 -0.0655 -1.0268  0.9729
  747TMC3    H111097   0.771   2.397  10.811  1.5515 -0.6068  1.7975
  747TMC3    H211098   0.629   2.238  11.178  2.0637 -2.6198  0.0560
  747TMC3    C711099   0.709   2.467  11.057 -0.7599 -1.0611 -0.2763
  747TMC3    C811100   0.507   2.033  11.080  0.0303 -0.5194  0.0703
  747TMC3    O111101   0.735   2.458  11.180 -0.1591  0.5544 -0.2293
  747TMC3    O211102   0.493   1.927  11.018 -0.0451 -0.5572  0.5387
  748MPD2     C11103   2.354   2.311   1.508  0.5339 -0.0412  0.8760
  748MPD2    C111104   2.397   2.370   1.393 -0.0842 -0.2393  0.1619
  748MPD2    C211105   2.508   2.451   1.404 -0.1907  0.6775  0.3810
  748MPD2    C311106   2.580   2.467   1.519 -0.3322 -0.1703 -0.8916
  748MPD2    C411107   2.524   2.408   1.634 -0.1335 -0.1376  0.5226
  748MPD2    C511108   2.417   2.330   1.626  0.7738 -0.2876  0.5831
  748MPD2     H11109   2.537   2.496   1.311  1.3630 -1.5183 -0.1987
  748MPD2    H111110   2.565   2.412   1.734  0.3935  1.2316  0.2516
  748MPD2    H211111   2.281   2.231   1.503  1.4234 -0.7871 -0.2969
  748MPD2    H311112   2.389   2.268   1.711  0.2452  1.4241  1.6552
  748MPD2     N11113   2.703   2.542   1.519  0.3796 -0.2176  1.0690
  748MPD2    H511114   2.734   2.587   1.433 -0.3978 -1.7918 -0.0361
  748MPD2    N111115   2.339   2.324   1.272  0.3648 -0.1548  0.0454
  748MPD2    H711116   2.277   2.245   1.286 -1.7148  1.9574  2.7085
  749TMC3    C111117   2.903   2.645   1.592 -0.5716 -0.2460 -0.1796
  749TMC3    C211118   2.963   2.688   1.710 -0.2511  0.0385  0.6606
  749TMC3    C311119   3.071   2.777   1.698  0.7241  0.2914  1.1793
  749TMC3    C411120   2.920   2.711   1.477 -0.2237  0.2780  0.1602
  749TMC3    C511121   3.010   2.813   1.473 -0.2503  0.1210  0.3319
  749TMC3    C611122   3.092   2.834   1.579  0.7794  0.1345  0.0507
  749TMC3     C11123   2.789   2.554   1.625 -0.6518  0.4772  0.4427
  749TMC3     O11124   2.772   2.518   1.740 -0.0145  0.2372 -0.2248
  749TMC3     H11125   2.953   2.642   1.808 -3.0949 -1.1860 -0.2058
  749TMC3    H111126   2.860   2.688   1.390  0.0055  0.5461 -0.0674
  749TMC3    H211127   3.178   2.897   1.560  1.4660 -0.7180  0.3382
  749TMC3    C711128   3.067   2.850   1.348 -0.4372  0.8692  0.3672
  749TMC3    C811129   3.197   2.745   1.764 -0.0528 -0.5917 -0.2916
  749TMC3    O111130   3.117   2.963   1.339  0.1767 -0.0644  0.4483
  749TMC3    O211131   3.213   2.769   1.887 -0.1318 -0.5248  0.3320
  750MPD2     C11132   2.741   3.738  11.058  0.5397 -0.0862  0.2211
  750MPD2    C111133   2.763   3.690  11.183 -0.3891 -0.3960 -0.6976
  750MPD2    C211134   2.811   3.565  11.204  0.1012  0.1197 -0.0935
  750MPD2    C311135   2.833   3.484  11.086  0.6325 -0.1866  0.0051
  750MPD2    C411136   2.826   3.535  10.959  0.2342  0.0708 -0.2721
  750MPD2    C511137   2.781   3.663  10.950  0.7824 -0.0050 -0.2601
  750MPD2     H11138   2.820   3.529  11.306  0.4204  2.3364  0.6622
  750MPD2    H111139   2.845   3.475  10.871  2.0089  0.3152 -0.0619
  750MPD2    H211140   2.693   3.832  11.033  2.3692  0.7370 -0.2135
  750MPD2    H311141   2.785   3.707  10.851  1.2324  1.9395  0.6282
  750MPD2     N11142   2.869   3.347  11.094  0.6497  1.1107 -0.3768
  750MPD2    H511143   2.891   3.302  11.006  2.0061  1.0892 -0.0318
  750MPD2    N111144   2.722   3.787  11.291  0.6499  0.1359 -0.1720
  750MPD2    H711145   2.692   3.879  11.259 -0.8282  0.3116  1.7228
  751TMC3    C111146   2.924   3.139  11.191 -0.1716 -0.3193 -0.2567
  751TMC3    C211147   2.876   3.053  11.287  0.4248  0.1486 -0.3606
  751TMC3    C311148   2.963   2.956  11.332  0.0678 -0.0522  1.1003
  751TMC3    C411149   3.040   3.116  11.127 -0.0040  0.5147  0.2342
  751TMC3    C511150   3.119   3.012  11.164  0.2118 -0.1063  0.3893
  751TMC3    C611151   3.083   2.938  11.277 -0.5420  0.1503 -0.4013
  751TMC3     C11152   2.875   3.274  11.210  0.0963 -0.4910 -0.8327
  751TMC3     O11153   2.830   3.295  11.323 -0.7793  0.1102  0.3983
  751TMC3     H11154   2.775   3.062  11.325  1.5726 -0.5075  2.9091
  751TMC3    H111155   3.061   3.170  11.035  0.8184  0.0422  0.1424
  751TMC3    H211156   3.146   2.856  11.309  0.2698  1.4091  1.2270
  751TMC3    C711157   3.182   2.928  11.063  0.2734 -0.3074  0.2194
  751TMC3    C811158   2.902   2.823  11.336  0.0296  0.1213  0.4915
  751TMC3    O111159   3.254   2.989  10.984  0.7128 -0.1937  0.5719
  751TMC3    O211160   2.966   2.745  11.268  0.2017 -0.4189 -0.7000
  752TMC3    C111161   1.625   3.465  16.937  0.0084  0.0231  0.4416
  752TMC3    C211162   1.716   3.400  17.012  0.2221 -0.4568  0.2195
  752TMC3    C311163   1.692   3.386  17.150  0.1513 -0.2602 -0.2781
  752TMC3    C411164   1.509   3.509  16.983 -0.4877 -0.0308  0.4059
  752TMC3    C511165   1.483   3.486  17.113  0.0929 -0.1505 -0.0759
  752TMC3    C611166   1.572   3.423  17.198 -0.3422 -0.4598  0.1265
  752TMC3     C11167   1.683   3.499  16.807 -0.4209 -0.2673 -0.8408
  752TMC3     O11168   1.798   3.465  16.779  0.5547 -0.1624  0.4461
  752TMC3     H11169   1.807   3.360  16.968  0.0662 -3.2846  2.5428
  752TMC3    H111170   1.426   3.544  16.923  1.4563  2.9704 -0.5604
  752TMC3    H211171   1.552   3.383  17.297  0.5754 -0.4986  0.2935
  752TMC3    C711172   1.344   3.498  17.158  0.2162 -0.5731  0.5454
  752TMC3    C811173   1.762   3.278  17.211 -0.2165 -0.4558 -0.4303
  752TMC3    O111174   1.265   3.523  17.067  0.6014 -0.5376 -0.2271
  752TMC3    O211175   1.816   3.192  17.143 -0.9452 -0.2402  0.8053
  753TMC3    C111176   3.539   4.674  13.472 -0.0444  0.4261 -0.0222
  753TMC3    C211177   3.633   4.653  13.569 -0.7002  0.3251  0.3974
  753TMC3    C311178   3.668   4.519  13.584  0.8698 -0.1753  0.5767
  753TMC3    C411179   3.477   4.575  13.399  0.4396  0.1216  0.6560
  753TMC3    C511180   3.517   4.446  13.430  0.0465  0.1811  0.2229
  753TMC3    C611181   3.607   4.415  13.522  0.2095 -0.3861 -0.3512
  753TMC3     C11182   3.520   0.073  13.429  0.9167  0.1057 -0.0488
  753TMC3     O11183   3.479   0.085  13.312  0.0953  0.4814 -0.0028
  753TMC3     H11184   3.695   4.731  13.611 -1.0334  0.7598  0.0825
  753TMC3    H111185   3.406   4.596  13.319  0.9230 -0.7020  0.0106
  753TMC3    H211186   3.636   4.313  13.544  2.1453  0.6505  1.9469
  753TMC3    C711187   3.454   4.347  13.332 -0.5097  0.6109  0.0402
  753TMC3    C811188   3.764   4.481  13.680  0.2161 -0.0339  0.4356
  753TMC3    O111189   3.354   4.383  13.270  0.5808 -0.0407 -0.2520
  753TMC3    O211190   3.811   4.370  13.670  1.0053 -0.1142  0.7121
  754MPD2     C11191   2.603   3.540  13.474 -0.3568 -0.5934  0.7620
  754MPD2    C111192   2.570   3.414  13.426  0.0224 -0.3932  0.4654
  754MPD2    C211193   2.546   3.400  13.293 -0.5997 -0.3962  0.4873
  754MPD2    C311194   2.531   3.513  13.213 -0.4718 -0.4382  0.0520
  754MPD2    C411195   2.563   3.637  13.260 -0.2245  0.7468  0.7429
  754MPD2    C511196   2.594   3.650  13.393 -0.0932  0.7404 -0.1913
  754MPD2     H11197   2.504   3.312  13.246  0.8960  1.0862 -3.6033
  754MPD2    H111198   2.562   3.730  13.204 -3.0264  0.6048  0.5517
  754MPD2    H211199   2.604   3.569  13.578 -1.1570  0.5616  0.4473
  754MPD2    H311200   2.616   3.747  13.437  0.6955  0.3848  0.2021
  754MPD2     N11201   2.446   3.521  13.102 -0.0497  0.1317  0.3475
  754MPD2    H511202   2.406   3.615  13.100 -0.1207  0.1031  0.3979
  754MPD2    N111203   2.561   3.310  13.524 -0.6176 -0.3349 -0.3135
  754MPD2    H711204   2.559   3.343  13.620 -1.8225 -0.2198 -0.3825
  755MPD2     C11205   2.059   4.225  13.150  0.6820  0.5218 -0.0593
  755MPD2    C111206   1.951   4.146  13.122 -0.0521 -0.3029 -0.4895
  755MPD2    C211207   1.971   4.016  13.087  0.3477 -0.3447  0.1254
  755MPD2    C311208   2.099   3.966  13.081  0.5437 -0.2624 -1.2367
  755MPD2    C411209   2.213   4.049  13.088 -0.2940 -0.0068 -0.0089
  755MPD2    C511210   2.190   4.176  13.133 -0.1039  0.1490 -0.4526
  755MPD2     H11211   1.885   3.956  13.062  0.2054  0.1222 -0.5000
  755MPD2    H111212   2.315   4.019  13.068  1.5727  3.7770  3.8372
  755MPD2    H211213   2.056   4.331  13.172 -1.7105  0.7767 -1.6000
  755MPD2    H311214   2.276   4.241  13.139 -0.7197  0.8198  1.1441
  755MPD2     N11215   2.125   3.826  13.076 -0.0283  0.0517  0.2613
  755MPD2    H511216   2.216   3.794  13.044 -0.7859 -2.4526  0.6138
  755MPD2    N111217   1.818   4.198  13.116 -0.3365  0.2132  0.6257
  755MPD2    H711218   1.755   4.127  13.078  0.3436  0.9686 -1.9038
  756MPD2     C11219   2.876   4.399   9.647  0.7915 -0.1596  0.4739
  756MPD2    C111220   2.772   4.341   9.712 -0.1479  0.1655 -0.5248
  756MPD2    C211221   2.665   4.285   9.642  0.0595  0.1007 -0.0454
  756MPD2    C311222   2.662   4.295   9.503  0.6187  0.0727  0.3587
  756MPD2    C411223   2.774   4.344   9.439 -0.0555 -0.1874 -0.6573
  756MPD2    C511224   2.882   4.400   9.509 -1.2341  0.3693  0.4757
  756MPD2     H11225   2.584   4.241   9.698  0.7268 -1.3655 -0.2298
  756MPD2    H111226   2.788   4.334   9.332  0.4831  0.1916 -0.6250
  756MPD2    H211227   2.961   4.448   9.694  1.8951  0.1261 -1.8159
  756MPD2    H311228   2.974   4.438   9.466 -0.5455 -1.1302  0.6165
  756MPD2     N11229   2.553   4.250   9.426  0.3024 -0.2789 -0.2080
  756MPD2    H511230   2.494   4.184   9.475  0.3775 -0.7565 -0.7632
  756MPD2    N111231   2.768   4.339   9.856 -0.2014  0.0189  0.1806
  756MPD2    H711232   2.683   4.309   9.901  0.6597 -2.4810  0.1480
  757MPD2     C11233   2.298   3.487   9.542  0.8676 -0.3430 -0.2352
  757MPD2    C111234   2.327   3.601   9.612  0.2572  0.0218 -0.1008
  757MPD2    C211235   2.319   3.722   9.544 -0.1849 -0.0934  0.1840
  757MPD2    C311236   2.269   3.727   9.417  0.5334  0.4739 -0.4624
  757MPD2    C411237   2.238   3.616   9.346 -0.4394 -0.4155 -0.5053
  757MPD2    C511238   2.252   3.495   9.411 -0.2140  0.0172 -0.3868
  757MPD2     H11239   2.352   3.811   9.595 -3.5898  0.5714  1.2217
  757MPD2    H111240   2.208   3.613   9.243  1.4083 -1.1233 -1.0322
  757MPD2    H211241   2.318   3.389   9.583 -0.4184 -1.2376 -1.7468
  757MPD2    H311242   2.223   3.400   9.367  0.5448 -0.1700 -0.4933
  757MPD2     N11243   2.276   3.855   9.360 -0.3236  0.2625  0.5735
  757MPD2    H511244   2.310   3.930   9.419  0.9657 -0.1413  0.3358
  757MPD2    N111245   2.371   3.597   9.749 -0.4539  0.2253 -0.4637
  757MPD2    H711246   2.360   3.505   9.791 -0.2735  2.1047  3.7437
  758MPD2     C11247   2.526   3.006  15.827 -0.3396 -0.2995  0.4015
  758MPD2    C111248   2.625   2.946  15.895  0.6656 -0.3404 -0.4015
  758MPD2    C211249   2.628   2.946  16.033 -0.0820 -0.7930 -0.4261
  758MPD2    C311250   2.521   3.001  16.108  0.0767  0.6070 -0.0228
  758MPD2    C411251   2.422   3.070  16.030 -0.1104 -0.3788 -0.1685
  758MPD2    C511252   2.427   3.073  15.891 -0.4762  0.6926 -0.6805
  758MPD2     H11253   2.707   2.885  16.075  0.0291  0.6806  1.4878
  758MPD2    H111254   2.337   3.127  16.066 -0.6623 -0.5935 -1.1485
  758MPD2    H211255   2.531   3.001  15.719 -0.9117  0.1324  0.3558
  758MPD2    H311256   2.346   3.118  15.835 -0.1656  0.1165 -1.5838
  758MPD2     N11257   2.514   3.008  16.251  0.1083  0.1979 -0.7789
  758MPD2    H511258   2.437   3.064  16.288  1.2545  0.9097  0.5264
  758MPD2    N111259   2.731   2.891  15.814  0.6408 -0.1302  0.0933
  758MPD2    H711260   2.725   2.913  15.715  0.5631 -0.1893  0.0850
  759MPD2     C11261   2.355   1.272   9.795 -1.1754  0.3538 -0.5970
  759MPD2    C111262   2.308   1.356   9.897 -0.1687  0.0221  0.5365
  759MPD2    C211263   2.365   1.482   9.915 -1.0241 -0.8509 -0.4403
  759MPD2    C311264   2.465   1.525   9.828 -1.1963 -0.1054  0.2068
  759MPD2    C411265   2.497   1.442   9.720 -0.1674 -0.3341  0.0934
  759MPD2    C511266   2.446   1.320   9.700 -0.4456 -0.4969 -0.4624
  759MPD2     H11267   2.338   1.540  10.003  1.1479  1.0389 -1.0055
  759MPD2    H111268   2.572   1.481   9.653 -1.4117  0.5869 -0.7504
  759MPD2    H211269   2.330   1.167   9.785 -3.0181  0.6063  1.4497
  759MPD2    H311270   2.493   1.250   9.632 -2.1570 -0.5952 -1.5340
  759MPD2     N11271   2.518   1.659   9.848  0.6113 -0.4914  0.1313
  759MPD2    H511272   2.477   1.705   9.928 -3.3499 -3.6455 -0.0906
  759MPD2    N111273   2.211   1.318   9.990  0.7204  0.3700  0.0726
  759MPD2    H711274   2.184   1.393  10.053  1.0305  0.2267  0.3749
  760MPD2     C11275   1.946   3.534  11.326 -0.6309 -0.1800  0.1184
  760MPD2    C111276   1.851   3.605  11.398  0.8701  0.4084  0.3047
  760MPD2    C211277   1.775   3.539  11.496 -0.3938 -0.0438  0.2531
  760MPD2    C311278   1.789   3.403  11.524  0.5171 -0.1036 -0.5795
  760MPD2    C411279   1.881   3.334  11.451  0.4779 -0.2316 -0.3434
  760MPD2    C511280   1.949   3.397  11.354  0.2024 -0.8905  0.2919
  760MPD2     H11281   1.704   3.602  11.548 -1.8194 -1.9980  0.7046
  760MPD2    H111282   1.906   3.232  11.477 -0.6464  0.0269  1.7712
  760MPD2    H211283   2.014   3.572  11.250  1.0905 -1.4365  1.0265
  760MPD2    H311284   2.029   3.338  11.311  0.4488 -0.4381  0.1310
  760MPD2     N11285   1.721   3.340  11.633 -0.1756  0.3392  0.2304
  760MPD2    H511286   1.745   3.244  11.655 -1.7798  0.2339  1.5021
  760MPD2    N111287   1.837   3.742  11.399 -0.8439  0.4005  0.2388
  760MPD2    H711288   1.778   3.778  11.473 -2.3110  1.4491 -1.4474
  761MPD2     C11289   2.438   2.631  11.265  0.4007  0.1242 -0.9952
  761MPD2    C111290   2.561   2.576  11.247 -0.0322  0.4678  0.4679
  761MPD2    C211291   2.683   2.633  11.287 -0.2639  0.7122  0.9324
  761MPD2    C311292   2.669   2.752  11.355 -0.0438  0.0586 -0.6847
  761MPD2    C411293   2.547   2.807  11.386 -0.3946  0.1592 -1.3254
  761MPD2    C511294   2.436   2.755  11.330  0.7234 -0.6185 -0.6199
  761MPD2     H11295   2.776   2.580  11.273 -1.4164 -0.4078 -2.5256
  761MPD2    H111296   2.539   2.905  11.431 -1.2123 -1.3308  1.7220
  761MPD2    H211297   2.350   2.579  11.230 -1.2324  1.9759  0.4249
  761MPD2    H311298   2.337   2.799  11.327  1.1218  0.1888 -1.6336
  761MPD2     N11299   2.785   2.825  11.398  0.6167 -0.8803 -0.2414
  761MPD2    H511300   2.761   2.904  11.458  0.0112 -1.4391  0.2597
  761MPD2    N111301   2.575   2.451  11.176 -0.2251  0.5338  0.0862
  761MPD2    H711302   2.486   2.404  11.162  0.3665 -0.2524 -1.0045
  762MPD2     C11303   3.053   2.357  10.548 -0.2262  0.5758  0.0565
  762MPD2    C111304   3.050   2.244  10.624  0.1653  0.5885 -0.4376
  762MPD2    C211305   3.146   2.146  10.613 -0.3681  0.3838  0.1075
  762MPD2    C311306   3.259   2.169  10.539  0.3182  0.2598  0.2517
  762MPD2    C411307   3.272   2.289  10.473 -0.8415 -0.0188  0.5075
  762MPD2    C511308   3.167   2.384  10.473  0.5521  0.2941  0.1770
  762MPD2     H11309   3.140   2.058  10.676  0.9590  0.5602  0.4768
  762MPD2    H111310   3.368   2.305  10.424 -1.1792 -0.9843 -0.4534
  762MPD2    H211311   2.983   2.440  10.550  1.0431  1.7010 -3.2186
  762MPD2    H311312   3.166   2.479  10.421  0.8246  0.4472  0.4521
  762MPD2     N11313   3.358   2.066  10.540 -0.0757  0.4731  0.3101
  762MPD2    H511314   3.329   1.980  10.585 -0.9769  0.8414  0.4217
  762MPD2    N111315   2.939   2.238  10.713  0.2157 -0.5821 -0.2125
  762MPD2    H711316   2.885   2.324  10.728 -0.2560 -0.7422 -1.0096
  763MPD2     C11317   4.654   3.017  16.073  0.1410 -0.5134 -0.2696
  763MPD2    C111318   4.541   3.082  16.031  0.3933 -0.3556  0.6181
  763MPD2    C211319   4.525   3.212  16.061 -0.1072  0.3112  0.3678
  763MPD2    C311320   4.621   3.275  16.137 -0.8968 -0.0113 -0.3037
  763MPD2    C411321   0.001   3.219  16.169 -0.0346  0.1719 -0.6372
  763MPD2    C511322   0.016   3.088  16.130  0.8022 -0.0894  0.2924
  763MPD2     H11323   4.433   3.265  16.039 -0.2013  0.7837  1.9240
  763MPD2    H111324   0.068   3.282  16.225 -1.4149 -0.7632  2.0648
  763MPD2    H211325   4.678   2.914  16.049 -0.3313 -0.7338  0.2345
  763MPD2    H311326   0.096   3.024  16.165 -0.1667 -1.4479  0.0445
  763MPD2     N11327   4.611   3.411  16.178  0.5375 -0.6665 -0.0793
  763MPD2    H511328   4.694   3.441  16.228 -0.2469  1.2546  0.0576
  763MPD2    N111329   4.439   3.022  15.951 -0.1929  0.0364  0.4357
  763MPD2    H711330   4.362   3.086  15.934 -0.2625  0.2005  1.3407
  764MPD2     C11331   2.392   4.631  17.618 -0.0288 -0.7899  0.3386
  764MPD2    C111332   2.271   4.566  17.623 -0.9039 -0.0452 -0.0817
  764MPD2    C211333   2.215   4.507  17.737 -0.1711  0.0919  0.1606
  764MPD2    C311334   2.278   4.526   0.112  0.6970 -0.2412  0.3798
  764MPD2    C411335   2.402   4.591   0.116  0.4657 -0.4133 -0.5292
  764MPD2    C511336   2.455   4.635   0.003 -0.0010 -0.0061 -0.6806
  764MPD2     H11337   2.116   4.462  17.737  1.9590 -4.6159  1.7388
  764MPD2    H111338   2.471   4.603   0.199  0.1710  1.5005 -0.5679
  764MPD2    H211339   2.435   4.675  17.529 -3.3472  2.8504  0.5179
  764MPD2    H311340   2.544   4.697   0.010 -0.1908  0.2881 -0.8676
  764MPD2     N11341   2.223   4.463   0.233  0.6766 -0.1905  0.2039
  764MPD2    H511342   2.133   4.417   0.218  0.9401 -0.6355 -0.0159
  764MPD2    N111343   2.186   4.561  17.507  1.1008  0.3085  0.6304
  764MPD2    H711344   2.104   4.502  17.508 -0.7960  2.9637  1.8132
  765MPD2     C11345   2.660   2.721  15.080  0.2173 -0.0743  0.2540
  765MPD2    C111346   2.594   2.666  15.188 -0.5551  0.3693 -0.3314
  765MPD2    C211347   2.603   2.532  15.217 -0.4299  0.0969  1.0833
  765MPD2    C311348   2.705   2.458  15.159 -0.4168  0.7304 -0.1417
  765MPD2    C411349   2.776   2.512  15.052  0.2778  0.7565  0.6043
  765MPD2    C511350   2.747   2.640  15.014  0.2683 -0.5564 -0.3315
  765MPD2     H11351   2.540   2.483  15.291 -1.2155 -0.2286  0.1881
  765MPD2    H111352   2.861   2.474  14.998 -1.5582 -1.5451 -0.6315
  765MPD2    H211353   2.637   2.820  15.043  0.2978 -0.7895 -1.6951
  765MPD2    H311354   2.803   2.683  14.932 -0.1486 -0.0308 -0.3345
  765MPD2     N11355   2.736   2.330  15.213 -0.3636 -0.1959 -0.0100
  765MPD2    H511356   2.673   2.281  15.277 -1.4866  1.3056  0.0398
  765MPD2    N111357   2.508   2.748  15.270 -0.9448  0.7117  0.3773
  765MPD2    H711358   2.462   2.701  15.347 -1.2524  0.0001 -0.2321
  766MPD2     C11359   1.760   2.960  15.106  0.9907 -0.2233 -0.1491
  766MPD2    C111360   1.879   2.889  15.101 -0.1424 -0.6004  0.7792
  766MPD2    C211361   1.918   2.826  14.989 -0.3318 -0.0774  0.0060
  766MPD2    C311362   1.842   2.827  14.880 -0.0733  0.1852 -0.5231
  766MPD2    C411363   1.712   2.879  14.887  0.5867 -0.4850 -0.8144
  766MPD2    C511364   1.678   2.950  14.999 -0.0212 -0.8656 -0.7802
  766MPD2     H11365   2.018   2.787  14.980  0.1508  0.4448  2.9489
  766MPD2    H111366   1.639   2.858  14.810  1.7061  0.7998 -2.2123
  766MPD2    H211367   1.728   3.026  15.187 -0.9150 -1.5669  0.1873
  766MPD2    H311368   1.579   2.993  15.008 -0.5733 -1.4785 -3.6829
  766MPD2     N11369   1.884   2.789  14.752 -0.2387  0.3184  0.1202
  766MPD2    H511370   1.814   2.799  14.679  0.4836  2.0817 -0.3283
  766MPD2    N111371   1.953   2.896  15.219  0.3229 -0.0064 -0.1511
  766MPD2    H711372   1.924   2.956  15.296  1.4471 -1.3623  1.3224
  767MPD2     C11373   1.468   3.243  14.793 -0.1756  0.0222 -0.2534
  767MPD2    C111374   1.594   3.196  14.740 -0.1340  0.3622  0.3128
  767MPD2    C211375   1.612   3.101  14.647  0.4958 -0.5313 -0.6882
  767MPD2    C311376   1.500   3.052  14.583  0.8940  0.2429 -0.0489
  767MPD2    C411377   1.381   3.113  14.613 -0.0332  0.1194 -0.4257
  767MPD2    C511378   1.357   3.204  14.714  0.2138 -0.5825 -0.0802
  767MPD2     H11379   1.712   3.065  14.628  0.6733  0.3649 -1.4569
  767MPD2    H111380   1.289   3.076  14.570  0.9687 -1.5974 -1.0765
  767MPD2    H211381   1.452   3.303  14.882  2.2162 -0.1516  0.2864
  767MPD2    H311382   1.257   3.232  14.744 -1.0633 -2.7471 -2.3130
  767MPD2     N11383   1.500   2.955  14.479  0.2629  0.3726 -0.1378
  767MPD2    H511384   1.413   2.944  14.429 -1.3997  0.7540  2.6474
  767MPD2    N111385   1.713   3.237  14.805  0.1914  0.3254  0.2830
  767MPD2    H711386   1.801   3.207  14.763 -1.1568 -1.2504 -1.4277
  768MPD2     C11387   2.390   0.981  10.677 -0.7298 -0.1767  0.4298
  768MPD2    C111388   2.286   0.977  10.763 -0.0915  0.1405 -0.0042
  768MPD2    C211389   2.309   0.968  10.900 -0.5376  0.2825  0.6753
  768MPD2    C311390   2.437   0.949  10.951 -0.2521  0.4530 -0.6357
  768MPD2    C411391   2.538   0.965  10.860  0.6950  0.5249 -0.3408
  768MPD2    C511392   2.514   0.969  10.725  0.7624  0.1384  0.6674
  768MPD2     H11393   2.219   0.951  10.959  0.3221  2.1580  2.5357
  768MPD2    H111394   2.640   0.972  10.896  0.8690 -2.5435 -0.2677
  768MPD2    H211395   2.363   0.993  10.573 -1.0751  1.5043  0.7136
  768MPD2    H311396   2.601   0.973  10.662  0.6939 -1.6185  0.4627
  768MPD2     N11397   2.471   0.959  11.089  0.0602  0.1350 -0.5232
  768MPD2    H511398   2.570   0.957  11.112  0.1427 -0.9546 -0.9917
  768MPD2    N111399   2.151   0.977  10.728  0.0033 -0.2904 -0.2322
  768MPD2    H711400   2.089   0.968  10.808 -0.5452 -2.1844 -0.8693
  769MPD2     C11401   3.786   3.640  15.014  0.3333 -0.3401 -0.0806
  769MPD2    C111402   3.726   3.759  15.003  0.3844 -0.5822  0.0382
  769MPD2    C211403   3.704   3.830  15.117 -0.4658 -0.1800 -0.1887
  769MPD2    C311404   3.731   3.774  15.243  0.1248  0.7296  0.6445
  769MPD2    C411405   3.786   3.647  15.249 -0.7641 -0.0579 -0.0541
  769MPD2    C511406   3.819   3.581  15.131 -0.7582  0.3120 -0.8304
  769MPD2     H11407   3.672   3.933  15.128  0.4549  0.0848  0.0690
  769MPD2    H111408   3.797   3.585  15.336  0.5066 -0.9497 -0.8634
  769MPD2    H211409   3.813   3.585  14.924 -0.3685 -0.6495 -0.0977
  769MPD2    H311410   3.861   3.482  15.144 -0.2422  0.5989 -0.3713
  769MPD2     N11411   3.684   3.841  15.358  0.0886 -0.0914 -0.0483
  769MPD2    H511412   3.666   3.940  15.344 -0.0815  0.0291  1.0250
  769MPD2    N111413   3.691   3.807  14.872  0.0776 -0.3144 -0.0211
  769MPD2    H711414   3.706   3.751  14.789  0.2513 -0.3125  0.0088
  770MPD2     C11415   2.900   3.631  14.640 -0.2587  0.8077 -0.1248
  770MPD2    C111416   3.019   3.572  14.617 -0.4322 -0.2449  0.3779
  770MPD2    C211417   3.123   3.654  14.584  0.7923  0.0526  1.0895
  770MPD2    C311418   3.110   3.789  14.583  0.1145 -0.5090 -0.3442
  770MPD2    C411419   2.988   3.847  14.625 -0.0094  0.6156  0.8243
  770MPD2    C511420   2.882   3.769  14.646 -0.2162 -0.2482 -0.1394
  770MPD2     H11421   3.210   3.610  14.538 -1.1333 -1.5042 -1.0753
  770MPD2    H111422   2.968   3.953  14.635  0.9544  0.9745 -1.1116
  770MPD2    H211423   2.817   3.566  14.665  0.7488  0.2627  1.7497
  770MPD2    H311424   2.787   3.813  14.675 -0.0551  0.5458 -0.8007
  770MPD2     N11425   3.228   3.858  14.558 -0.3052  0.1174  0.2383
  770MPD2    H511426   3.306   3.807  14.519 -0.5651  0.3932 -0.6559
  770MPD2    N111427   3.026   3.436  14.637  0.2574  0.8261  0.9913
  770MPD2    H711428   2.934   3.392  14.637 -0.4135  2.2464  1.3229
  771MPD2     C11429   4.207   1.645  13.516 -0.8670 -0.2524 -0.0783
  771MPD2    C111430   4.243   1.760  13.451  0.3618 -0.0182 -0.6369
  771MPD2    C211431   4.252   1.761  13.316 -0.7125  0.9037 -0.6854
  771MPD2    C311432   4.208   1.654  13.236  0.1000 -0.0879 -0.2878
  771MPD2    C411433   4.170   1.537  13.303  0.0028 -0.2907  0.2849
  771MPD2    C511434   4.167   1.533  13.442  0.0805  0.4400 -0.9248
  771MPD2     H11435   4.292   1.850  13.269  0.0865  0.8533 -0.0912
  771MPD2    H111436   4.128   1.448  13.256  0.0239  1.4090 -2.9269
  771MPD2    H211437   4.196   1.637  13.623 -1.1803 -2.0755 -0.2477
  771MPD2    H311438   4.131   1.439  13.483  0.6328  1.0022  0.8662
  771MPD2     N11439   4.216   1.671  13.097 -0.3524  1.0504 -0.5839
  771MPD2    H511440   4.226   1.764  13.059  1.0570  0.6214 -1.2468
  771MPD2    N111441   4.269   1.879  13.527 -0.2062  0.0421  0.5042
  771MPD2    H711442   4.314   1.959  13.484 -1.8163 -0.0367 -1.3193
  772MPD2     C11443   3.885   2.542  13.804  0.2934  0.1404  0.0672
  772MPD2    C111444   3.890   2.411  13.773  0.3411 -0.5568  0.0760
  772MPD2    C211445   3.767   2.348  13.747  0.0467  1.0217  0.0212
  772MPD2    C311446   3.646   2.411  13.758 -0.4639 -0.5873  0.9048
  772MPD2    C411447   3.645   2.543  13.800  0.1348 -0.5199  0.6434
  772MPD2    C511448   3.763   2.604  13.827  0.3911  0.0949 -0.6314
  772MPD2     H11449   3.758   2.244  13.718 -0.9493  1.2816 -0.5925
  772MPD2    H111450   3.555   2.602  13.816 -0.1195 -0.6420 -0.3509
  772MPD2    H211451   3.974   2.601  13.822  0.4324  0.3731 -1.3767
  772MPD2    H311452   3.758   2.712  13.831  2.2922  0.1707 -0.3265
  772MPD2     N11453   3.521   2.351  13.719  0.0923 -0.2159 -0.2928
  772MPD2    H511454   3.436   2.399  13.746 -0.1022 -0.4020 -0.5706
  772MPD2    N111455   4.005   2.330  13.760 -0.6401  0.8727  0.5793
  772MPD2    H711456   3.992   2.236  13.725  0.7099  0.2578  1.7443
  773MPD2     C11457   3.597   3.413   0.462 -0.6147  0.2707  0.4409
  773MPD2    C111458   3.497   3.328   0.414 -0.4126  0.0770  0.7187
  773MPD2    C211459   3.502   3.196   0.460 -0.4598  0.1688 -0.3482
  773MPD2    C311460   3.605   3.146   0.535 -0.0217 -0.1475  0.0953
  773MPD2    C411461   3.698   3.238   0.585  0.6241 -0.2684  0.4286
  773MPD2    C511462   3.695   3.367   0.550  0.0051  0.1069  0.4150
  773MPD2     H11463   3.429   3.132   0.413 -0.8949 -1.5724  2.6912
  773MPD2    H111464   3.786   3.210   0.641  0.8749 -0.1502  0.0927
  773MPD2    H211465   3.594   3.516   0.427  0.2126  0.5048  1.0338
  773MPD2    H311466   3.781   3.429   0.576 -1.5676  2.6292 -0.3522
  773MPD2     N11467   3.613   3.004   0.560  0.3302 -0.4583 -0.1121
  773MPD2    H511468   3.543   2.946   0.516 -0.7242  0.3294  0.5136
  773MPD2    N111469   3.393   3.375   0.329  0.0253 -0.1999 -0.0040
  773MPD2    H711470   3.310   3.319   0.312 -0.2882  0.8948 -2.0214
  774MPD2     C11471   2.640   2.289  13.492 -0.0479  0.0161 -0.2132
  774MPD2    C111472   2.503   2.319  13.494 -0.2773 -0.2927 -0.8277
  774MPD2    C211473   2.460   2.440  13.531 -0.6583 -0.5127  0.3942
  774MPD2    C311474   2.549   2.530  13.571 -0.6101 -0.2179 -0.2965
  774MPD2    C411475   2.681   2.506  13.567 -0.4797  0.0485 -0.5303
  774MPD2    C511476   2.730   2.382  13.539 -1.1906  0.4204  0.2291
  774MPD2     H11477   2.356   2.472  13.537 -0.3883  0.3019  0.8061
  774MPD2    H111478   2.746   2.582  13.608  0.6962 -0.9686 -0.5361
  774MPD2    H211479   2.673   2.191  13.459  1.6276  0.4682  0.0968
  774MPD2    H311480   2.834   2.356  13.559 -0.9496  0.2417 -1.2310
  774MPD2     N11481   2.492   2.655  13.613 -0.3700  0.4616  0.6241
  774MPD2    H511482   2.394   2.666  13.590 -0.4899  0.3665  1.0860
  774MPD2    N111483   2.419   2.214  13.454  0.2534  0.0521 -0.3452
  774MPD2    H711484   2.459   2.122  13.435 -1.9260 -0.8914 -0.3571
  775MPD2     C11485   3.892   3.523  15.699  0.3936 -0.2814  0.1938
  775MPD2    C111486   3.922   3.633  15.781 -0.7262  0.0564  0.0083
  775MPD2    C211487   3.993   3.737  15.730  0.2360 -0.0459  0.8467
  775MPD2    C311488   4.042   3.738  15.603  0.6578 -0.6856  0.1590
  775MPD2    C411489   4.004   3.637  15.515  0.4880 -0.3681 -0.2418
  775MPD2    C511490   3.924   3.543  15.568  0.0591  0.5123  0.2587
  775MPD2     H11491   4.006   3.822  15.796  0.8289  0.2009  0.4168
  775MPD2    H111492   4.033   3.633  15.411  2.1041 -0.7047  0.2295
  775MPD2    H211493   3.834   3.440  15.738  0.6774 -0.1618  0.8824
  775MPD2    H311494   3.895   3.458  15.508 -0.0724  1.4550 -0.9978
  775MPD2     N11495   4.102   3.854  15.549 -0.3640 -0.0252 -0.2616
  775MPD2    H511496   4.116   3.857  15.449  2.6000 -1.3807  0.1016
  775MPD2    N111497   3.877   3.628  15.917  0.0127 -0.7263 -0.0987
  775MPD2    H711498   3.819   3.548  15.939  0.8993 -1.2083  0.5000
  776MPD2     C11499   2.504   4.545  11.581  0.1830 -0.0312  0.2587
  776MPD2    C111500   2.597   4.455  11.541  0.6761  0.2837 -0.2240
  776MPD2    C211501   2.707   4.496  11.467  0.0768  0.6823 -0.3328
  776MPD2    C311502   2.708   4.633  11.426  0.1279  0.2487  0.4935
  776MPD2    C411503   2.604   4.719  11.450 -0.0481 -0.4264  0.1456
  776MPD2    C511504   2.506   4.675  11.535 -0.4449 -0.1468  0.2057
  776MPD2     H11505   2.800   4.441  11.471  0.5022  1.2112 -2.9918
  776MPD2    H111506   2.596   0.088  11.423  0.0820 -0.9034 -1.6955
  776MPD2    H211507   2.423   4.509  11.645 -0.2269 -1.5329 -1.1019
  776MPD2    H311508   2.418   0.002  11.548  0.3428  1.0955 -0.4094
  776MPD2     N11509   2.816   4.684  11.356  0.0052 -0.1911  0.7735
  776MPD2    H511510   2.799   0.032  11.301  2.2215  1.3241  2.3658
  776MPD2    N111511   2.578   4.322  11.573  0.6698 -0.2341 -0.2149
  776MPD2    H711512   2.496   4.298  11.627 -1.2009  1.6324 -2.2357
  777MPD2     C11513   3.835   1.893   0.868  0.3426 -1.1149 -0.2695
  777MPD2    C111514   3.740   1.908   0.970 -0.2630 -0.0447  0.1406
  777MPD2    C211515   3.621   1.836   0.947  0.4010  0.2661  0.4613
  777MPD2    C311516   3.593   1.761   0.838  0.0865 -0.3088 -0.4213
  777MPD2    C411517   3.692   1.763   0.737 -0.1172  0.1735  0.6611
  777MPD2    C511518   3.817   1.815   0.757 -0.1393 -0.4257 -0.2913
  777MPD2     H11519   3.539   1.854   1.016  0.5753 -0.1844  0.7844
  777MPD2    H111520   3.680   1.705   0.646 -1.4143 -1.5880  1.9605
  777MPD2    H211521   3.932   1.937   0.887 -0.4382  0.1867  0.7627
  777MPD2    H311522   3.897   1.800   0.685  0.3862 -0.0708  0.2261
  777MPD2     N11523   3.472   1.697   0.830  0.1913  0.2626 -0.0949
  777MPD2    H511524   3.421   1.699   0.918  0.5800  0.2077  0.1314
  777MPD2    N111525   3.761   1.992   1.079  0.0122  0.4312  0.6158
  777MPD2    H711526   3.851   2.038   1.090 -1.0045  2.6037 -0.1536
  778MPD2     C11527   4.392   2.031  14.993 -0.0876 -0.6659 -0.5569
  778MPD2    C111528   4.374   1.921  14.911 -0.5732 -0.3066  0.1906
  778MPD2    C211529   4.427   1.933  14.781  0.0950  0.0685  0.3452
  778MPD2    C311530   4.474   2.056  14.726 -0.0310 -0.1102 -0.3064
  778MPD2    C411531   4.479   2.164  14.810 -0.4055 -0.6869  0.4384
  778MPD2    C511532   4.449   2.141  14.938 -0.5115 -0.1580  0.8864
  778MPD2     H11533   4.422   1.844  14.720 -1.2652  1.3951 -1.4607
  778MPD2    H111534   4.521   2.261  14.785 -4.2310  0.6626 -0.8126
  778MPD2    H211535   4.359   2.038  15.096  1.1107 -0.9908 -0.1489
  778MPD2    H311536   4.470   2.225  15.003  3.2218 -0.8120  0.5396
  778MPD2     N11537   4.509   2.056  14.589 -0.6200  1.0231  0.1349
  778MPD2    H511538   4.515   1.965  14.545 -0.0392  1.6629 -1.0897
  778MPD2    N111539   4.309   1.807  14.950  0.1622  0.1736  0.4999
  778MPD2    H711540   4.293   1.734  14.881  1.1471  0.5274 -0.1140
  779MPD2     C11541   3.725   0.826  14.371  0.0500  0.1282 -0.3456
  779MPD2    C111542   3.860   0.812  14.360  0.3751 -0.0902 -0.0465
  779MPD2    C211543   3.934   0.923  14.331  0.2615  0.1214 -0.4574
  779MPD2    C311544   3.879   1.052  14.312  0.0032  0.4638  0.4057
  779MPD2    C411545   3.740   1.066  14.333  0.3690 -0.4672 -0.0352
  779MPD2    C511546   3.669   0.952  14.359  0.4243 -0.7149  0.6488
  779MPD2     H11547   4.042   0.912  14.329  0.1951 -0.3886 -1.4710
  779MPD2    H111548   3.695   1.159  14.300  0.2546 -0.6251 -0.3303
  779MPD2    H211549   3.655   0.745  14.386  0.7731 -0.6827 -1.2204
  779MPD2    H311550   3.561   0.947  14.363  0.4588 -1.7915  0.2584
  779MPD2     N11551   3.969   1.154  14.277 -0.3609 -0.1441 -0.1082
  779MPD2    H511552   4.065   1.126  14.291  0.1049  2.6032  2.2272
  779MPD2    N111553   3.928   0.697  14.370  0.0265  0.1959  1.2596
  779MPD2    H711554   4.029   0.707  14.367 -0.2315  2.3649 -0.4338
  780MPD2     C11555   3.053   0.722   0.857 -0.5042  1.0906 -0.0679
  780MPD2    C111556   3.085   0.705   0.723 -0.2892 -0.2075 -0.6867
  780MPD2    C211557   3.204   0.736   0.674  0.6089  0.4592  0.0144
  780MPD2    C311558   3.303   0.792   0.755  0.7063  1.2735 -0.0498
  780MPD2    C411559   3.270   0.819   0.886  0.4879 -0.4512  0.6279
  780MPD2    C511560   3.153   0.774   0.939  0.5005  0.2970  0.1823
  780MPD2     H11561   3.237   0.724   0.571 -1.9482  1.0741 -0.8921
  780MPD2    H111562   3.334   0.866   0.960  1.0557 -0.5255  0.1909
  780MPD2    H211563   2.954   0.693   0.891 -0.5553  2.6406  1.1211
  780MPD2    H311564   3.129   0.783   1.044  2.9033 -0.7622  0.8400
  780MPD2     N11565   3.428   0.826   0.700  0.7535 -0.2606  0.0686
  780MPD2    H511566   3.434   0.805   0.601 -0.6891 -1.2484  0.1861
  780MPD2    N111567   2.984   0.655   0.635 -0.0622 -0.7309 -0.0737
  780MPD2    H711568   2.892   0.625   0.666 -0.1835 -0.0832  0.1854
  781MPD2     C11569   0.353   3.070  11.873 -0.3739 -1.0587 -0.1781
  781MPD2    C111570   0.460   3.024  11.954 -0.1966  0.0055 -0.0713
  781MPD2    C211571   0.583   3.034  11.896  0.2910  0.5935 -0.1687
  781MPD2    C311572   0.608   3.085  11.770  0.3058  0.5314  0.2370
  781MPD2    C411573   0.503   3.132  11.696  0.6416  0.0951  0.0821
  781MPD2    C511574   0.373   3.129  11.751  0.2928  0.0458  0.0627
  781MPD2     H11575   0.662   2.991  11.957 -1.3300  0.1132  1.5573
  781MPD2    H111576   0.516   3.181  11.600  2.7051 -0.4552  0.0874
  781MPD2    H211577   0.251   3.073  11.909 -0.8521  1.3286 -1.7211
  781MPD2    H311578   0.287   3.162  11.694  1.1742 -0.5550 -1.6380
  781MPD2     N11579   0.737   3.083  11.707 -0.5294 -0.3447  0.1772
  781MPD2    H511580   0.745   3.129  11.617 -0.2219  0.4537  0.6113
  781MPD2    N111581   0.453   2.982  12.090 -0.3840  0.2000  0.5475
  781MPD2    H711582   0.539   2.945  12.130 -1.2477 -2.5706 -0.1664
  782MPD2     C11583   3.964   2.902  10.349  0.4984 -1.4162  0.4911
  782MPD2    C111584   3.831   2.873  10.327  0.3011 -0.3813  0.1972
  782MPD2    C211585   3.755   2.964  10.263  0.3684  0.4526  0.2428
  782MPD2    C311586   3.796   3.098  10.243  0.4438  0.2132  0.1865
  782MPD2    C411587   3.929   3.130  10.275  0.6615  0.3961 -0.4065
  782MPD2    C511588   4.007   3.030  10.326  0.7237  0.2458 -0.2141
  782MPD2     H11589   3.659   2.940  10.220 -0.1595  1.2096  1.0069
  782MPD2    H111590   3.962   3.233  10.270 -2.1435  1.2699 -0.9252
  782MPD2    H211591   4.038   2.837  10.393  1.5911 -2.6481 -3.1725
  782MPD2    H311592   4.111   3.041  10.353  0.9953 -1.1894 -0.7147
  782MPD2     N11593   3.706   3.192  10.196 -0.5210 -0.0492 -0.1150
  782MPD2    H511594   3.607   3.171  10.189  0.0014 -1.7379 -2.3659
  782MPD2    N111595   3.793   2.742  10.364  0.1899 -0.2706  0.4966
  782MPD2    H711596   3.871   2.693  10.408 -1.3935 -3.0410  0.2191
  783MPD2     C11597   3.123   2.574  11.015 -0.8341  0.0757  0.0004
  783MPD2    C111598   3.191   2.689  10.988  0.0429 -0.4808  0.7937
  783MPD2    C211599   3.300   2.692  10.903  0.0530  0.2068 -0.4363
  783MPD2    C311600   3.334   2.576  10.838 -0.2100  0.1024 -0.1246
  783MPD2    C411601   3.258   2.460  10.855 -0.0204 -0.7208  0.0354
  783MPD2    C511602   3.147   2.462  10.938  0.0150 -0.1945 -0.1616
  783MPD2     H11603   3.356   2.784  10.887 -2.2949  1.4915 -1.4203
  783MPD2    H111604   3.272   2.374  10.790  2.1331 -1.6134  1.6704
  783MPD2    H211605   3.054   2.563  11.098 -0.0989  2.5922  0.9357
  783MPD2    H311606   3.102   2.364  10.949  1.5655 -0.7081  1.4540
  783MPD2     N11607   3.445   2.559  10.753  0.3291 -0.1370  0.3850
  783MPD2    H511608   3.475   2.651  10.720 -1.1541  0.3157  0.3040
  783MPD2    N111609   3.148   2.797  11.068 -0.0560  0.3784  0.2161
  783MPD2    H711610   3.073   2.777  11.134  0.1114 -3.3827 -0.7138
  784MPD2     C11611   1.248   3.490   0.502 -0.6222 -0.1370  0.5210
  784MPD2    C111612   1.236   3.572   0.612  0.7021 -0.4518  1.0872
  784MPD2    C211613   1.112   3.629   0.636 -0.1086 -0.9428  0.2240
  784MPD2    C311614   0.999   3.608   0.553 -0.3285  0.3774  0.1191
  784MPD2    C411615   1.019   3.530   0.445  0.4755  0.3521 -0.5363
  784MPD2    C511616   1.144   3.473   0.416 -0.1538 -0.2621 -0.0199
  784MPD2     H11617   1.094   3.687   0.726  1.7006 -1.3639  0.8599
  784MPD2    H111618   0.935   3.510   0.380  0.3323  0.9126 -0.5219
  784MPD2    H211619   1.338   3.431   0.492  1.1318  2.6599 -0.3204
  784MPD2    H311620   1.153   3.400   0.337  2.5186  0.6027 -0.4956
  784MPD2     N11621   0.872   3.650   0.603 -0.4922  0.1847 -0.5659
  784MPD2    H511622   0.882   3.712   0.684 -0.8582 -0.6016  0.0738
  784MPD2    N111623   1.340   3.599   0.709  0.4224 -0.3243  0.3661
  784MPD2    H711624   1.327   3.677   0.773 -1.9686 -1.3351  1.1224
  785MPD2     C11625   1.408   2.063  10.400 -0.3926 -0.7483 -0.5150
  785MPD2    C111626   1.358   2.126  10.284 -0.2034 -0.0061  0.2023
  785MPD2    C211627   1.346   2.042  10.168 -0.0818  0.3771  0.8547
  785MPD2    C311628   1.369   1.905  10.180 -0.0000 -0.2383 -0.2272
  785MPD2    C411629   1.409   1.847  10.300  0.0471 -0.3122 -0.5231
  785MPD2    C511630   1.436   1.928  10.406  0.1846  0.1806 -0.3376
  785MPD2     H11631   1.301   2.081  10.077 -0.4649  4.4496  2.7863
  785MPD2    H111632   1.436   1.742  10.303  0.8450 -0.0612  0.9619
  785MPD2    H211633   1.409   2.117  10.494 -0.4481 -1.6168 -0.0180
  785MPD2    H311634   1.467   1.900  10.506  0.4793  0.4299 -0.3589
  785MPD2     N11635   1.363   1.842  10.052  0.8291  0.1530 -0.3104
  785MPD2    H511636   1.332   1.896   9.972 -1.1440  1.6662  1.4674
  785MPD2    N111637   1.314   2.257  10.270 -0.5680  0.2899  0.4357
  785MPD2    H711638   1.267   2.278  10.182  1.6398  1.4159 -0.4844
  786MPD2     C11639   4.341   4.702  14.883 -0.4479 -0.4237  0.8890
  786MPD2    C111640   4.469   0.024  14.873  0.7525 -0.2037  0.3900
  786MPD2    C211641   4.546   0.024  14.987 -0.4978  0.1824  0.5128
  786MPD2    C311642   4.495   4.718  15.114 -0.3959  0.3006 -0.2214
  786MPD2    C411643   4.366   4.683  15.115  0.5372  0.3270  0.3391
  786MPD2    C511644   4.283   4.674  15.001 -0.0469  0.6645 -0.8411
  786MPD2     H11645   4.648   0.058  14.973 -0.3026 -0.9299 -0.7877
  786MPD2    H111646   4.328   4.640  15.206  0.3717 -1.0249 -0.3722
  786MPD2    H211647   4.285   4.686  14.792  0.7784  2.3810 -0.3616
  786MPD2    H311648   4.188   4.623  15.012 -0.1450  1.5511  2.5109
  786MPD2     N11649   4.566   4.707  15.232  0.6643 -0.3313 -0.2976
  786MPD2    H511650   4.519   4.658  15.308 -1.3618 -0.0802 -1.3940
  786MPD2    N111651   4.534   0.056  14.749 -0.6145 -0.1945 -0.1264
  786MPD2    H711652   4.627   0.094  14.759 -0.5371 -0.3627 -0.2089
  787MPD2     C11653   0.291   4.435  14.761  0.3635 -0.1571  0.2144
  787MPD2    C111654   0.282   4.466  14.627 -0.5416  0.1430  0.0438
  787MPD2    C211655   0.356   4.394  14.539  0.1391 -0.0399 -0.6491
  787MPD2    C311656   0.445   4.291  14.575  0.1671 -0.2882  0.6072
  787MPD2    C411657   0.446   4.253  14.712 -0.4790  0.2703  0.2006
  787MPD2    C511658   0.371   4.326  14.796  0.1930  0.6449 -0.2874
  787MPD2     H11659   0.346   4.418  14.433 -0.0474  0.1735 -0.5817
  787MPD2    H111660   0.507   4.172  14.751 -0.9119  0.2301  0.8099
  787MPD2    H211661   0.226   4.480  14.835  0.9161 -2.3835  2.0447
  787MPD2    H311662   0.381   4.311  14.903 -1.3925 -1.5489 -0.4509
  787MPD2     N11663   0.532   4.231  14.475  0.0194 -0.1610  0.0269
  787MPD2    H511664   0.525   4.267  14.380  0.1007  1.9909  0.8483
  787MPD2    N111665   0.177   4.556  14.590 -0.1986 -0.1146 -0.0760
  787MPD2    H711666   0.118   4.595  14.663 -0.8276 -1.9915  0.4469
  788MPD2     C11667   2.453   3.229   0.757 -0.6305  0.6731 -0.1749
  788MPD2    C111668   2.324   3.200   0.786 -0.0725  0.3492  0.0134
  788MPD2    C211669   2.227   3.284   0.735 -0.1674 -0.6138 -1.0942
  788MPD2    C311670   2.256   3.391   0.668  0.3976 -0.2802  0.3125
  788MPD2    C411671   2.383   3.418   0.644  0.2994 -0.0207  0.4811
  788MPD2    C511672   2.485   3.336   0.682  0.2678 -0.1500  0.5629
  788MPD2     H11673   2.124   3.252   0.749  0.1623 -0.8998  0.7508
  788MPD2    H111674   2.410   3.508   0.590  1.1195 -1.6345 -1.7648
  788MPD2    H211675   2.536   3.168   0.792 -0.1534  3.5404  3.7305
  788MPD2    H311676   2.586   3.359   0.652 -0.0497 -1.5827 -1.5966
  788MPD2     N11677   2.161   3.485   0.623  0.1644  0.4109 -0.0968
  788MPD2    H511678   2.208   3.571   0.596 -0.2130 -0.0404 -2.1585
  788MPD2    N111679   2.288   3.079   0.853 -0.2927  0.2478 -0.4000
  788MPD2    H711680   2.194   3.043   0.839  0.7482 -2.0003 -1.6471
  789MPD2     C11681   2.231   2.838  16.346 -0.1555  0.0550 -0.4467
  789MPD2    C111682   2.132   2.845  16.248 -0.1088  0.2433  0.0874
  789MPD2    C211683   2.015   2.903  16.286 -0.2289 -0.1584  0.0848
  789MPD2    C311684   2.003   2.957  16.412  0.3147  0.2225  0.0612
  789MPD2    C411685   2.101   2.946  16.511 -0.0372 -0.0190 -0.5624
  789MPD2    C511686   2.217   2.877  16.478  0.5939  0.4292  0.6076
  789MPD2     H11687   1.932   2.908  16.216 -1.0907 -0.0523  1.1098
  789MPD2    H111688   2.075   2.987  16.608  2.8789  0.1464  0.1568
  789MPD2    H211689   2.326   2.792  16.320  0.9125  2.0676 -0.0580
  789MPD2    H311690   2.282   2.851  16.560  0.0277  0.2480  1.0019
  789MPD2     N11691   1.881   3.014  16.455  0.0772 -0.2918  0.3951
  789MPD2    H511692   1.870   3.058  16.546  2.3580  1.4844 -0.1836
  789MPD2    N111693   2.153   2.799  16.113  0.4640  0.2518  0.3516
  789MPD2    H711694   2.079   2.833  16.053  0.2908 -1.1663 -0.2227
  790MPD2     C11695   2.747   0.108  13.610  1.0123  0.6155  0.2194
  790MPD2    C111696   2.793   4.712  13.600 -0.2865 -0.1320 -0.1882
  790MPD2    C211697   2.834   4.663  13.472 -0.1385 -0.0492  0.2085
  790MPD2    C311698   2.825   0.008  13.352 -0.3652 -0.7152  0.5772
  790MPD2    C411699   2.782   0.139  13.366  0.1583 -0.5530 -0.1529
  790MPD2    C511700   2.747   0.182  13.498 -0.1327 -0.0696  0.0994
  790MPD2     H11701   2.844   4.555  13.462 -1.3231 -0.1977  0.6478
  790MPD2    H111702   2.779   0.207  13.282 -0.5593 -1.4143 -0.8192
  790MPD2    H211703   2.727   0.162  13.702 -0.3247 -2.3936  1.6874
  790MPD2    H311704   2.712   0.284  13.498 -0.9310 -0.3388  1.9889
  790MPD2     N11705   2.839   4.681  13.226  0.1335 -0.4648 -0.1197
  790MPD2    H511706   2.854   4.581  13.231 -3.8188 -1.1726 -3.2598
  790MPD2    N111707   2.812   4.634  13.715  0.1214  0.4405  0.1145
  790MPD2    H711708   2.787   4.684  13.800  0.3585  1.1869 -0.2524
  791MPD2     C11709   2.172   4.579  12.943  0.2725 -0.6131  0.1970
  791MPD2    C111710   2.262   4.477  12.910  0.5063 -0.6913 -0.1239
  791MPD2    C211711   2.213   4.359  12.855  0.4603 -0.4206  0.2640
  791MPD2    C311712   2.074   4.340  12.834 -0.1945  0.1284  0.1578
  791MPD2    C411713   1.990   4.443  12.871 -0.0974 -0.2509  0.8363
  791MPD2    C511714   2.038   4.563  12.912  0.1144  0.0726 -0.8102
  791MPD2     H11715   2.270   4.269  12.835  1.0485  0.0714 -0.2458
  791MPD2    H111716   1.882   4.442  12.858 -0.0229  1.2243  0.0560
  791MPD2    H211717   2.214   4.672  12.980  0.3260 -0.9798  1.0603
  791MPD2    H311718   1.971   4.647  12.925 -0.3646 -0.6605  1.3738
  791MPD2     N11719   2.027   4.221  12.772  0.0391 -0.0612 -0.1076
  791MPD2    H511720   2.100   4.151  12.766 -1.1741 -1.3903  0.5434
  791MPD2    N111721   2.401   4.505  12.931  0.6238 -0.1995 -0.5283
  791MPD2    H711722   2.427   4.576  12.999 -1.0366 -0.4618  0.3949
  792MPD2     C11723   3.207   4.333  11.149 -0.0856 -0.0157 -0.7909
  792MPD2    C111724   3.140   4.397  11.046 -0.4160 -0.1505  0.0998
  792MPD2    C211725   3.003   4.404  11.052  0.4291  0.1411 -0.1894
  792MPD2    C311726   2.927   4.350  11.155 -0.4573 -0.7620 -0.1600
  792MPD2    C411727   2.999   4.263  11.245 -0.2066  0.1844 -0.8887
  792MPD2    C511728   3.133   4.255  11.237  0.2443 -0.8186 -0.2241
  792MPD2     H11729   2.950   4.457  10.974  0.2003  0.2463  0.0404
  792MPD2    H111730   2.947   4.213  11.326  2.0136  0.2805  0.5901
  792MPD2    H211731   3.315   4.337  11.148 -0.0396 -1.1107  1.2974
  792MPD2    H311732   3.191   4.192  11.303 -1.3986 -0.0132  2.0214
  792MPD2     N11733   2.782   4.363  11.174 -0.0865 -0.1994 -0.0473
  792MPD2    H511734   2.738   4.307  11.247  1.3429  0.9993  1.7073
  792MPD2    N111735   3.223   4.448  10.943 -0.5262  0.6981 -0.2326
  792MPD2    H711736   3.323   4.433  10.951 -1.1239 -2.3417  1.5005
  793MPD2     C11737   2.318   4.326  10.482 -0.0196 -0.1117 -0.3908
  793MPD2    C111738   2.434   4.394  10.514 -0.7731  0.5295 -0.8538
  793MPD2    C211739   2.441   4.455  10.639 -0.6454 -0.7486  0.4097
  793MPD2    C311740   2.343   4.441  10.732  0.0831 -0.3403 -0.7906
  793MPD2    C411741   2.228   4.373  10.703 -0.3171  0.5542 -0.0924
  793MPD2    C511742   2.224   4.319  10.577 -0.1284  0.1739 -0.3751
  793MPD2     H11743   2.530   4.515  10.657 -0.3230 -1.8107  2.4551
  793MPD2    H111744   2.137   4.370  10.761 -0.4703  0.1785 -0.3500
  793MPD2    H211745   2.312   4.287  10.381 -0.3019  0.4819 -0.6017
  793MPD2    H311746   2.127   4.276  10.552 -0.3922  0.2679  0.5122
  793MPD2     N11747   2.366   4.509  10.854  0.1287 -0.1256 -0.5963
  793MPD2    H511748   2.459   4.534  10.884  1.3988 -2.9925 -2.1549
  793MPD2    N111749   2.547   4.412  10.431  0.1665  0.2738 -0.4062
  793MPD2    H711750   2.613   4.476  10.473  1.3498  0.2768 -2.2856
  794MPD2     C11751   3.200   3.562  17.238  0.6243  0.5711  0.5160
  794MPD2    C111752   3.089   3.561  17.315 -0.0671 -0.0484 -0.0695
  794MPD2    C211753   2.969   3.570  17.259  0.4359 -0.1520  0.3269
  794MPD2    C311754   2.957   3.586  17.120 -0.0323  0.2376 -0.4190
  794MPD2    C411755   3.072   3.588  17.041 -0.4548  0.6318  0.3454
  794MPD2    C511756   3.193   3.585  17.105 -0.8263 -0.0530  0.8697
  794MPD2     H11757   2.879   3.570  17.321  1.1648 -0.0548  1.3789
  794MPD2    H111758   3.076   3.585  16.933 -1.0262  2.5505  0.2751
  794MPD2    H211759   3.300   3.568  17.279 -0.1764  3.1347  2.1004
  794MPD2    H311760   3.284   3.577  17.048  0.1186 -2.2661  2.6731
  794MPD2     N11761   2.837   3.592  17.048  0.3361  0.3657  0.3842
  794MPD2    H511762   2.841   3.629  16.954  2.7147 -1.3886 -0.1978
  794MPD2    N111763   3.102   3.545  17.456 -0.4214  0.2518 -0.0064
  794MPD2    H711764   3.013   3.544  17.506 -0.7895 -0.7790 -0.6907
  795MPD2     C11765   0.528   1.220  14.044  0.5795  0.2501 -0.1162
  795MPD2    C111766   0.541   1.124  13.944  0.6204 -0.2590 -0.7394
  795MPD2    C211767   0.657   1.045  13.940  0.1843  0.3131 -0.1149
  795MPD2    C311768   0.765   1.075  14.020  0.1859 -0.6224  0.5224
  795MPD2    C411769   0.745   1.163  14.124  0.0140  0.1889  0.4493
  795MPD2    C511770   0.629   1.230  14.135 -0.4607 -0.0162 -0.0080
  795MPD2     H11771   0.673   0.978  13.856  1.5163  2.9465 -1.9400
  795MPD2    H111772   0.822   1.194  14.193  0.2143  0.0210  0.3002
  795MPD2    H211773   0.445   1.290  14.046  0.1278 -0.2937  0.3816
  795MPD2    H311774   0.614   1.304  14.213 -2.6548 -0.2255 -0.2359
  795MPD2     N11775   0.887   1.018  13.997 -0.5972 -0.3916 -0.1506
  795MPD2    H511776   0.971   1.064  14.031  0.1107 -1.9618  0.2207
  795MPD2    N111777   0.446   1.112  13.843 -0.2895 -0.1156 -0.4370
  795MPD2    H711778   0.452   1.034  13.779  0.9494  0.1175 -0.5957
  796MPD2     C11779   4.643   2.257  15.924  0.0643 -0.7057 -0.8356
  796MPD2    C111780   4.715   2.336  16.006 -0.3502 -0.6969  0.2357
  796MPD2    C211781   4.734   2.469  15.966 -0.0233  0.3723 -0.4104
  796MPD2    C311782   4.695   2.519  15.842  0.9303  0.2382 -0.0472
  796MPD2    C411783   4.640   2.430  15.753  0.4785  0.3392 -0.2246
  796MPD2    C511784   4.602   2.302  15.801  0.2506 -1.1765  0.3843
  796MPD2     H11785   0.061   2.538  16.021  0.1604 -0.8584  0.9284
  796MPD2    H111786   4.605   2.465  15.656  0.3258  1.4251  0.2243
  796MPD2    H211787   4.600   2.158  15.941 -0.4621 -0.6675 -1.9255
  796MPD2    H311788   4.536   2.246  15.736 -2.9997  3.2582 -0.1344
  796MPD2     N11789   0.006   2.646  15.802  0.8779  0.2885 -0.5537
  796MPD2    H511790   0.050   2.696  15.878 -0.6827  0.3170  0.3367
  796MPD2    N111791   0.024   2.286  16.128 -0.0477  0.3018  0.0652
  796MPD2    H711792   4.733   2.189  16.144  0.7795  0.2131  0.8897
  797MPD2     C11793   1.298   2.035  17.400  0.0664 -0.1388  0.3445
  797MPD2    C111794   1.393   2.119  17.349 -0.5778  0.3716 -0.0962
  797MPD2    C211795   1.391   2.156  17.216 -0.2775  0.0945 -0.1249
  797MPD2    C311796   1.294   2.102  17.138 -0.0480  0.0538  0.6466
  797MPD2    C411797   1.200   2.012  17.188 -0.4601  0.8289  0.6939
  797MPD2    C511798   1.198   1.980  17.318  0.1046  0.0286 -0.4465
  797MPD2     H11799   1.455   2.238  17.186  1.2600 -0.3310  2.0105
  797MPD2    H111800   1.120   1.973  17.125 -0.6026 -0.2335  1.5389
  797MPD2    H211801   1.293   2.007  17.505  2.2582  2.8653  1.2262
  797MPD2    H311802   1.122   1.913  17.358  0.9057 -0.6385 -0.0471
  797MPD2     N11803   1.283   2.160  17.012 -0.3654  0.3736  0.1934
  797MPD2    H511804   1.354   2.232  17.001  0.0180  0.4676  3.2997
  797MPD2    N111805   1.485   2.177  17.435 -0.8874 -0.3219  0.1715
  797MPD2    H711806   1.530   2.259  17.394  0.0569 -1.1344 -0.4159
  798MPD2     C11807   1.614   2.749  17.031  0.2345 -0.1906 -0.2167
  798MPD2    C111808   1.552   2.629  17.042 -0.3017  0.4720 -0.8027
  798MPD2    C211809   1.590   2.553  17.150 -0.0220 -0.3236 -0.2137
  798MPD2    C311810   1.672   2.597  17.250  0.3590 -0.1272 -0.4401
  798MPD2    C411811   1.743   2.717  17.231 -0.0530 -0.0900  0.3715
  798MPD2    C511812   1.712   2.785  17.123 -0.1447  0.0395 -0.1375
  798MPD2     H11813   1.536   2.464  17.182 -0.6609 -0.1202 -0.7295
  798MPD2    H111814   1.819   2.752  17.300 -0.9400 -0.0254  1.3158
  798MPD2    H211815   1.607   2.809  16.942 -0.1300  0.0885  0.0034
  798MPD2    H311816   1.767   2.875  17.098 -0.7934  0.7560  1.0090
  798MPD2     N11817   1.679   2.508  17.359 -0.7588  0.9552  0.0229
  798MPD2    H511818   1.624   2.424  17.346  0.3118  0.1566  0.6061
  798MPD2    N111819   1.467   2.587  16.936  0.6934  0.3555  0.2892
  798MPD2    H711820   1.446   2.658  16.866  2.9071 -1.2603 -2.0195
  799MPD2     C11821   0.162   3.898  14.685 -0.4075  0.1832 -0.6205
  799MPD2    C111822   0.059   3.867  14.591 -0.0216  0.1405  0.6693
  799MPD2    C211823   4.718   3.975  14.531 -0.5755 -0.6144  0.2730
  799MPD2    C311824   0.029   4.104  14.540 -1.0442  0.8114  0.0341
  799MPD2    C411825   0.126   4.136  14.628 -0.4091 -0.1836  0.3739
  799MPD2    C511826   0.191   4.031  14.696  0.5074 -0.3271  0.3421
  799MPD2     H11827   4.633   3.957  14.466 -0.4948  0.6747 -0.1870
  799MPD2    H111828   0.156   4.238  14.645 -1.4713  0.0999  0.5435
  799MPD2    H211829   0.214   3.825  14.748  0.6910  1.2134 -0.3298
  799MPD2    H311830   0.270   4.056  14.766  0.8594  0.5809 -0.3844
  799MPD2     N11831   4.719   4.203  14.457 -0.0295  0.0684 -0.4700
  799MPD2    H511832   0.040   4.287  14.454  2.0229 -1.2714  0.0366
  799MPD2    N111833   0.028   3.737  14.552 -0.6756  0.4970  0.5060
  799MPD2    H711834   4.677   3.718  14.504 -0.7025  0.8408  0.4148
  800MPD2     C11835   0.721   0.163  13.974  0.0653  1.0281  0.8764
  800MPD2    C111836   0.840   0.218  13.943  0.4252 -0.1015  1.0246
  800MPD2    C211837   0.897   0.196  13.818  0.0485 -0.1368  0.1060
  800MPD2    C311838   0.833   0.115  13.727  0.2521 -0.8824  0.2293
  800MPD2    C411839   0.720   0.050  13.764  0.4308 -0.2385 -0.4255
  800MPD2    C511840   0.665   0.074  13.889 -0.7758  0.1197 -0.0663
  800MPD2     H11841   0.984   0.254  13.786 -1.3573  1.0889 -1.5244
  800MPD2    H111842   0.662   4.729  13.692 -0.9963  0.5495  0.0896
  800MPD2    H211843   0.667   0.185  14.065  0.0552 -1.0636  1.3861
  800MPD2    H311844   0.563   0.045  13.910 -0.8526  0.7111  0.3734
  800MPD2     N11845   0.895   0.104  13.602  0.0080 -0.2347  0.0663
  800MPD2    H511846   0.970   0.170  13.586  0.1075 -0.4056 -0.1825
  800MPD2    N111847   0.892   0.318  14.027  0.4018  0.7323  0.5348
  800MPD2    H711848   0.828   0.345  14.102 -0.8591  1.0179 -0.6386
  801MPD2     C11849   0.496   0.792  14.071  0.2654  0.4127  0.7542
  801MPD2    C111850   0.582   0.789  14.182 -0.5039  0.6499 -0.1631
  801MPD2    C211851   0.527   0.811  14.312 -0.0865  0.6053  0.1393
  801MPD2    C311852   0.392   0.835  14.328 -0.3729  0.2748 -0.8261
  801MPD2    C411853   0.311   0.839  14.220 -0.3255 -0.5330 -0.1808
  801MPD2    C511854   0.363   0.815  14.094 -0.2078 -0.2066  0.2100
  801MPD2     H11855   0.595   0.814  14.396 -1.3183 -0.5665  1.1820
  801MPD2    H111856   0.204   0.849  14.235 -0.1071  0.4377  0.7015
  801MPD2    H211857   0.536   0.771  13.972  1.1158  0.2262  1.1328
  801MPD2    H311858   0.294   0.825  14.010  0.1647  2.8554  0.2490
  801MPD2     N11859   0.333   0.835  14.461 -0.1822  0.2593 -0.7194
  801MPD2    H511860   0.237   0.867  14.452  1.2179  4.4238 -0.8830
  801MPD2    N111861   0.718   0.753  14.157  0.5502  0.2124 -0.3074
  801MPD2    H711862   0.744   0.726  14.062  1.2322  0.0734 -0.0817
  802MPD2     C11863   4.433   0.951   0.297  0.6193 -0.2379  0.6237
  802MPD2    C111864   4.550   1.018   0.284 -0.3313  0.4273 -0.5449
  802MPD2    C211865   4.649   0.986   0.192  0.1251  0.2556  0.2224
  802MPD2    C311866   4.624   0.882   0.106 -0.3640  0.3311  0.0705
  802MPD2    C411867   4.502   0.827   0.106 -0.0035 -0.0479 -1.0679
  802MPD2    C511868   4.405   0.858   0.199  0.5588  0.2489 -0.0820
  802MPD2     H11869   0.006   1.041   0.178  0.7746 -0.7132  0.6600
  802MPD2    H111870   4.484   0.748   0.034  0.8111 -2.6358  1.5475
  802MPD2    H211871   4.360   0.991   0.366 -1.0012 -2.6411  0.3264
  802MPD2    H311872   4.306   0.813   0.201  0.5804  0.2505  1.5754
  802MPD2     N11873   4.727   0.857   0.012  0.3842  0.0564 -0.0074
  802MPD2    H511874   0.076   0.908   0.032  0.3073  0.4806 -0.7743
  802MPD2    N111875   4.567   1.131   0.368  0.0162 -0.4611  0.1236
  802MPD2    H711876   4.506   1.132   0.449 -3.5813  1.2348 -2.5884
  803MPD2     C11877   1.423   4.269  10.924  0.9699 -0.0388 -0.3071
  803MPD2    C111878   1.444   4.365  11.024  0.2305  0.6262  0.0267
  803MPD2    C211879   1.455   4.318  11.152  0.2697  0.0868  0.2484
  803MPD2    C311880   1.457   4.187  11.179 -0.2881 -0.0721  0.2791
  803MPD2    C411881   1.454   4.098  11.077  0.1129 -0.1465 -0.4473
  803MPD2    C511882   1.434   4.133  10.945  0.3967 -0.0446 -0.0089
  803MPD2     H11883   1.453   4.386  11.236 -0.2714  2.2599 -1.4943
  803MPD2    H111884   1.459   3.992  11.103  2.1852  0.2539  0.7890
  803MPD2    H211885   1.407   4.285  10.818  0.3019  1.4058  0.0134
  803MPD2    H311886   1.434   4.064  10.862 -1.2360  0.0292 -0.0726
  803MPD2     N11887   1.458   4.136  11.312  0.2985 -0.1098 -0.2562
  803MPD2    H511888   1.466   4.036  11.329  0.7270  0.0025  0.1878
  803MPD2    N111889   1.452   4.498  10.984  0.1094 -0.6291  0.1726
  803MPD2    H711890   1.478   4.565  11.056 -2.0290  0.1731  0.2029
  804MPD2     C11891   0.578   1.262  17.254 -0.1785 -0.1406 -0.3128
  804MPD2    C111892   0.623   1.213  17.376 -0.2058  0.0777  0.0318
  804MPD2    C211893   0.680   1.294  17.466 -0.2043 -0.1014  0.1293
  804MPD2    C311894   0.726   1.414  17.436 -0.0170 -0.2343 -0.3784
  804MPD2    C411895   0.700   1.467  17.313 -0.2721 -0.4280 -0.0871
  804MPD2    C511896   0.619   1.387  17.234  0.5432 -0.3286 -0.2484
  804MPD2     H11897   0.693   1.242  17.560  0.7772  0.8784  0.5352
  804MPD2    H111898   0.722   1.567  17.278 -1.1501  0.5691  2.2062
  804MPD2    H211899   0.519   1.208  17.181 -0.9233  1.1347 -0.6536
  804MPD2    H311900   0.593   1.425  17.136 -0.6133 -0.5241 -0.0192
  804MPD2     N11901   0.788   1.488  17.535 -0.1643  0.0178 -0.2921
  804MPD2    H511902   0.787   1.455  17.631 -2.3176  1.8830  0.3307
  804MPD2    N111903   0.580   1.086  17.426 -1.0083  0.1815  0.2712
  804MPD2    H711904   0.622   1.050  17.512 -1.8032 -2.0271 -0.2665
  805MPD2     C11905   4.392   3.621  15.199 -0.6328 -0.5776 -0.0408
  805MPD2    C111906   4.389   3.757  15.203 -1.0794  0.4140 -0.7196
  805MPD2    C211907   4.479   3.819  15.290  0.0984  0.0508  0.4680
  805MPD2    C311908   4.574   3.741  15.354  0.2080  0.3700  0.4034
  805MPD2    C411909   4.578   3.607  15.346  0.4010  0.3083  0.5836
  805MPD2    C511910   4.485   3.550  15.266  0.3866  0.8471 -0.5376
  805MPD2     H11911   4.484   3.926  15.298  1.0009  0.0596 -0.2241
  805MPD2    H111912   4.650   3.539  15.391 -1.3259 -1.5528  0.5471
  805MPD2    H211913   4.338   3.566  15.122 -2.7592  0.4002  0.7616
  805MPD2    H311914   4.493   3.442  15.260  0.1600  0.7520  0.7972
  805MPD2     N11915   4.647   3.817  15.447  0.1180 -0.1752 -0.4377
  805MPD2    H511916   4.606   3.908  15.461  1.1449 -0.1397  2.2117
  805MPD2    N111917   4.303   3.831  15.118  0.1861  0.0805  0.7202
  805MPD2    H711918   4.320   3.931  15.118  3.0960 -0.3990  0.4949
  806MPD2     C11919   0.254   3.284   0.317  0.3075 -0.1697  0.7995
  806MPD2    C111920   0.275   3.395   0.392 -0.4561 -0.0205 -0.5697
  806MPD2    C211921   0.312   3.511   0.329 -0.2362  0.2962  0.1325
  806MPD2    C311922   0.342   3.517   0.196 -0.1917  0.6350 -0.4049
  806MPD2    C411923   0.314   3.407   0.118 -0.0444  0.2512  0.2013
  806MPD2    C511924   0.279   3.293   0.184  0.2479 -0.6366 -0.7004
  806MPD2     H11925   0.317   3.599   0.392 -2.6273  0.4049  0.1878
  806MPD2    H111926   0.342   3.409   0.013  1.1790 -2.1189  0.4854
  806MPD2    H211927   0.231   3.189   0.363 -0.4171  0.2411  1.2876
  806MPD2    H311928   0.280   3.203   0.124 -2.5475 -0.8989 -0.3634
  806MPD2     N11929   0.386   3.639   0.143 -0.2657  0.6391  0.2616
  806MPD2    H511930   0.392   3.712   0.213  0.3524  1.8048 -1.0148
  806MPD2    N111931   0.244   3.401   0.532  0.3277  0.3502  0.8279
  806MPD2    H711932   0.253   3.493   0.574  1.0833 -0.7790  3.1521
  807MPD2     C11933   4.599   3.198   1.313  0.0396 -0.3013 -0.1280
  807MPD2    C111934   4.731   3.183   1.284  0.4927 -0.3810 -0.0032
  807MPD2    C211935   0.071   3.108   1.375 -0.0809  0.0969 -0.0854
  807MPD2    C311936   0.022   3.075   1.495 -0.2482  0.2394 -0.4098
  807MPD2    C411937   4.623   3.080   1.514  0.6944  0.6517 -0.5140
  807MPD2    C511938   4.542   3.135   1.421 -0.3257  0.0172  0.0056
  807MPD2     H11939   0.177   3.111   1.355  0.8355  1.4672  4.9023
  807MPD2    H111940   4.576   3.047   1.606  1.1230  0.0293 -0.5186
  807MPD2    H211941   4.535   3.264   1.255 -0.9865 -0.3012  0.9930
  807MPD2    H311942   4.435   3.134   1.438  0.0508 -1.2538  2.3181
  807MPD2     N11943   0.110   3.040   1.605  0.0535 -0.1769 -0.0262
  807MPD2    H511944   0.208   3.055   1.581  0.4012 -2.4210  0.0089
  807MPD2    N111945   0.054   3.243   1.173  0.2253  0.2848 -0.6064
  807MPD2    H711946   0.155   3.248   1.174  0.2111 -0.6792  2.8197
  808MPD2     C11947   0.798   0.127  10.046 -0.4867 -0.7509 -1.0110
  808MPD2    C111948   0.696   0.220  10.009 -0.0951  0.1198 -0.2372
  808MPD2    C211949   0.734   0.354   9.982 -0.5748  0.0465  1.1046
  808MPD2    C311950   0.866   0.394  10.000  0.3306 -0.1949  0.1510
  808MPD2    C411951   0.958   0.302  10.034 -0.3794  0.2082  0.0800
  808MPD2    C511952   0.925   0.172  10.051 -0.2028  0.4881 -0.3239
  808MPD2     H11953   0.654   0.425   9.962 -0.8738 -0.9494 -1.3004
  808MPD2    H111954   1.060   0.338  10.042 -0.1730 -0.7727  1.9430
  808MPD2    H211955   0.783   0.031  10.093 -1.9873 -0.2795 -0.5327
  808MPD2    H311956   0.998   0.096  10.077 -0.7016  0.2037  0.2525
  808MPD2     N11957   0.921   0.522   9.965  0.0953  0.1907 -0.6446
  808MPD2    H511958   1.020   0.530   9.946  0.6320 -0.8060  1.7826
  808MPD2    N111959   0.562   0.181  10.028  0.8413  0.6873  0.1570
  808MPD2    H711960   0.497   0.258  10.011 -0.3919 -0.3656  0.1141
  809MPD2     C11961   0.821   0.478   9.108 -0.0812 -0.1004  0.2099
  809MPD2    C111962   0.949   0.478   9.162  0.9559  0.1199  0.2711
  809MPD2    C211963   0.975   0.548   9.279  1.0134  0.0957 -0.8387
  809MPD2    C311964   0.869   0.619   9.338 -0.0496  0.1530  0.0932
  809MPD2    C411965   0.736   0.622   9.278 -0.1064  0.1643 -0.0246
  809MPD2    C511966   0.720   0.546   9.168 -0.3336 -0.2100  0.2688
  809MPD2     H11967   1.072   0.550   9.326  1.2021 -1.4257 -1.1620
  809MPD2    H111968   0.654   0.674   9.325 -1.2213  0.4166 -2.2587
  809MPD2    H211969   0.791   0.433   9.014 -0.3832  0.5675 -0.0153
  809MPD2    H311970   0.625   0.548   9.115 -0.9111  1.6665  1.3876
  809MPD2     N11971   0.880   0.702   9.453 -0.3256  0.3043 -0.4387
  809MPD2    H511972   0.794   0.736   9.495 -0.9508 -1.3084 -0.3828
  809MPD2    N111973   1.056   0.401   9.116 -0.2537  0.1989 -0.2440
  809MPD2    H711974   1.147   0.430   9.149  0.2967  0.5438 -2.1372
  810MPD2     C11975   0.016   4.601  10.637  0.0749 -0.4887  0.1621
  810MPD2    C111976   4.645   4.616  10.549  0.3783  0.4854 -0.3639
  810MPD2    C211977   4.596   0.008  10.521  0.1880  0.4896  0.0462
  810MPD2    C311978   4.646   0.120  10.589 -1.4517  0.0874 -0.6383
  810MPD2    C411979   0.018   0.102  10.676  1.0260 -0.5677  0.4935
  810MPD2    C511980   0.065   4.714  10.701 -0.1732 -0.3508 -0.3906
  810MPD2     H11981   4.519   0.007  10.445  2.1861 -0.7993 -1.9667
  810MPD2    H111982   0.055   0.191  10.725 -0.4920  0.1055  0.4094
  810MPD2    H211983   0.044   4.504  10.676 -0.1186 -0.8389 -0.5703
  810MPD2    H311984   0.142   4.696  10.775 -1.2629  1.4656  1.2091
  810MPD2     N11985   4.583   0.241  10.550 -0.1304  0.4229 -0.1329
  810MPD2    H511986   4.504   0.239  10.487  0.4410 -0.9803 -0.8213
  810MPD2    N111987   4.595   4.516  10.467 -0.1380 -0.6652 -0.9552
  810MPD2    H711988   4.521   4.543  10.403 -0.9740  0.8102  0.6740
  811MPD2     C11989   4.321   4.357   9.729  0.8233  0.2004 -0.0071
  811MPD2    C111990   4.407   4.406   9.824  0.3505 -0.0568  0.2969
  811MPD2    C211991   4.413   4.543   9.836  0.7628 -0.5201  0.0417
  811MPD2    C311992   4.337   4.628   9.759  0.0400 -0.1312  0.0963
  811MPD2    C411993   4.249   4.576   9.672 -0.5575 -0.0985  0.1342
  811MPD2    C511994   4.239   4.443   9.653 -0.5847 -0.0608 -0.2917
  811MPD2     H11995   4.480   4.584   9.910  0.7906  0.5479 -0.5774
  811MPD2    H111996   4.192   4.629   9.596  0.8585 -1.2056 -1.6958
  811MPD2    H211997   4.316   4.251   9.707  0.7722 -0.3089  2.4331
  811MPD2    H311998   4.172   4.397   9.581  0.9709 -0.4079 -1.5281
  811MPD2     N11999   4.336   0.032   9.785  0.5523  0.7310  0.1537
  811MPD2    H512000   4.414   0.057   9.845 -1.8233 -0.1749  3.6405
  811MPD2    N112001   4.465   4.311   9.914  0.0985 -0.3029  0.3427
  811MPD2    H712002   4.430   4.217   9.900  1.8471 -0.7640 -0.9804
  812MPD2     C12003   3.217   4.039  12.342  0.0681 -0.6955  0.0942
  812MPD2    C112004   3.327   4.116  12.333 -0.0925  0.4083 -0.0845
  812MPD2    C212005   3.446   4.079  12.399  0.1226 -0.1765  0.1743
  812MPD2    C312006   3.451   3.958  12.472 -0.6275 -0.2231  0.6774
  812MPD2    C412007   3.329   3.884  12.482  0.0695  0.1922 -0.7426
  812MPD2    C512008   3.211   3.930  12.427  0.3394  0.2973  0.2513
  812MPD2     H12009   3.543   4.127  12.391  0.7270 -1.4279 -0.1405
  812MPD2    H112010   3.314   3.791  12.536  1.3944 -0.6121 -1.7607
  812MPD2    H212011   3.124   4.072  12.297  0.2933  0.7798  0.7220
  812MPD2    H312012   3.117   3.878  12.443  0.2831  0.2347 -0.2980
  812MPD2     N12013   3.561   3.922  12.539 -0.0628  0.1529  0.0019
  812MPD2    H512014   3.640   3.986  12.536  1.5679 -1.9794 -1.8112
  812MPD2    N112015   3.326   4.236  12.248  0.0834 -0.1339 -0.3015
  812MPD2    H712016   3.234   4.260  12.213  0.5786  1.2187 -0.6696
  813MPD2     C12017   2.612   1.263  13.078 -0.6359 -0.3736 -0.0699
  813MPD2    C112018   2.555   1.382  13.046 -0.0397 -0.1994 -0.6242
  813MPD2    C212019   2.432   1.415  13.098 -1.2304 -0.0229  0.1561
  813MPD2    C312020   2.374   1.327  13.192 -0.0021  0.3275 -0.7446
  813MPD2    C412021   2.437   1.207  13.225  0.2107  0.7103 -0.5612
  813MPD2    C512022   2.555   1.177  13.167  0.3787  0.6507  0.1787
  813MPD2     H12023   2.383   1.511  13.087 -0.7684  0.2220  0.2247
  813MPD2    H112024   2.397   1.140  13.301  3.0848  0.0778  0.3723
  813MPD2    H212025   2.698   1.228  13.021 -0.3703  0.1955 -0.0269
  813MPD2    H312026   2.606   1.083  13.187  1.0891  1.1072  0.5363
  813MPD2     N12027   2.265   1.383  13.263  0.1645 -0.0099  0.2179
  813MPD2    H512028   2.236   1.476  13.234  0.3231 -0.3682 -1.0785
  813MPD2    N112029   2.637   1.453  12.962 -0.2821  0.6814  0.1072
  813MPD2    H712030   2.730   1.413  12.959  0.2144  1.8689 -0.2377
  814MPD2     C12031   2.910   2.735  12.886 -0.0928  0.2207  0.1017
  814MPD2    C112032   3.041   2.710  12.849 -0.0698  0.4149  0.0370
  814MPD2    C212033   3.139   2.807  12.856 -0.7651 -0.4219 -0.3723
  814MPD2    C312034   3.111   2.938  12.893  0.3324  0.3889  0.9793
  814MPD2    C412035   2.979   2.958  12.936  0.7418 -0.4328 -0.1798
  814MPD2    C512036   2.881   2.863  12.931  0.1516 -0.0286  0.0267
  814MPD2     H12037   3.236   2.770  12.826  0.8597  2.2500  1.5244
  814MPD2    H112038   2.950   3.057  12.969  1.0992  0.1756 -1.6729
  814MPD2    H212039   2.832   2.665  12.860  1.2502 -1.1553 -0.2597
  814MPD2    H312040   2.781   2.879  12.968  0.2785 -1.0481  0.8349
  814MPD2     N12041   3.200   3.043  12.899  0.1716 -0.7707 -0.1467
  814MPD2    H512042   3.162   3.133  12.927  0.6301 -0.6417  0.0655
  814MPD2    N112043   3.094   2.586  12.793 -0.1846 -0.1291 -0.5810
  814MPD2    H712044   3.190   2.585  12.759  0.1865 -1.0056  0.4848
  815MPD2     C12045   3.731   1.148  11.521  0.0337 -0.7946 -0.0312
  815MPD2    C112046   3.744   1.012  11.507  0.4959 -0.1040 -0.2072
  815MPD2    C212047   3.673   0.933  11.595  0.7123  1.0753 -0.0975
  815MPD2    C312048   3.585   0.980  11.696  0.1253  0.2236  0.7074
  815MPD2    C412049   3.587   1.115  11.711  0.9930  0.6501 -0.0731
  815MPD2    C512050   3.645   1.201  11.616  0.7049 -0.7365  0.0702
  815MPD2     H12051   3.681   0.825  11.592 -2.4091  0.8477 -0.0660
  815MPD2    H112052   3.540   1.173  11.789  0.5290 -0.8320  0.7467
  815MPD2    H212053   3.779   1.213  11.449  1.4194 -0.3983  1.2475
  815MPD2    H312054   3.644   1.310  11.621  1.0028 -0.6423 -2.0461
  815MPD2     N12055   3.509   0.905  11.785  0.1691 -0.0610 -0.1513
  815MPD2    H512056   3.440   0.957  11.838  0.6246  1.2179 -0.8253
  815MPD2    N112057   3.819   0.961  11.398 -0.0566  0.8431  0.1926
  815MPD2    H712058   3.849   1.027  11.327  0.8588 -0.6991 -0.8468
  816MPD2     C12059   3.758   0.019  17.272  0.7164 -0.2632 -0.7498
  816MPD2    C112060   3.844   0.118  17.294 -0.1169  0.3711 -0.4586
  816MPD2    C212061   3.981   0.095  17.277 -0.1421  0.1853  0.1345
  816MPD2    C312062   4.024   4.712  17.224  0.1235 -0.0572 -0.0486
  816MPD2    C412063   3.944   4.601  17.212 -0.7346 -0.2578  0.0299
  816MPD2    C512064   3.809   4.631  17.244 -0.5397 -0.3609 -0.9398
  816MPD2     H12065   4.053   0.176  17.284 -0.3339  0.3898 -0.2799
  816MPD2    H112066   3.975   4.505  17.172  0.7329 -0.7691  2.3320
  816MPD2    H212067   3.653   0.032  17.297  0.1184 -0.7159 -3.0800
  816MPD2    H312068   3.739   4.548  17.241 -1.8175  0.6859  0.3488
  816MPD2     N12069   4.147   4.719  17.156  0.8228  0.2069 -0.6287
  816MPD2    H512070   4.180   0.079  17.146 -1.6211  1.0436 -0.5638
  816MPD2    N112071   3.800   0.245  17.346  0.1932  0.4325 -0.9744
  816MPD2    H712072   3.700   0.248  17.362  0.3955 -0.3866  0.4812
  817MPD2     C12073   3.466   2.295  10.149  0.0508  0.5157  0.5319
  817MPD2    C112074   3.581   2.327  10.083 -0.9756  0.0214  0.7007
  817MPD2    C212075   3.588   2.460  10.030  0.4111  0.9721 -0.6050
  817MPD2    C312076   3.482   2.548  10.033 -0.8192 -0.3905  0.2328
  817MPD2    C412077   3.362   2.495  10.076 -0.0719  0.2161 -0.6499
  817MPD2    C512078   3.362   2.377  10.147 -0.4412 -0.0414 -0.9746
  817MPD2     H12079   3.678   2.489   9.977 -0.5231 -0.8358 -3.1676
  817MPD2    H112080   3.266   2.545  10.080  0.6131  1.5542 -0.9547
  817MPD2    H212081   3.459   2.206  10.211 -0.3758  0.3659  0.2690
  817MPD2    H312082   3.269   2.348  10.196  0.3538 -0.1350  0.4767
  817MPD2     N12083   3.501   2.673   9.979 -0.4933  0.6227 -0.2192
  817MPD2    H512084   3.597   2.703   9.962  0.0107 -0.7295  0.2728
  817MPD2    N112085   3.698   2.248  10.090 -0.4648 -0.3097 -0.0804
  817MPD2    H712086   3.781   2.297  10.058 -1.3747  1.2151 -0.1203
  818MPD2     C12087   2.908   1.728  10.064  0.2317 -0.1235 -0.0257
  818MPD2    C112088   2.799   1.664  10.112 -0.2801 -0.0198 -0.6182
  818MPD2    C212089   2.766   1.535  10.078 -0.1178  1.1694  0.2957
  818MPD2    C312090   2.840   1.475   9.981 -0.6751  0.2903  0.4336
  818MPD2    C412091   2.943   1.544   9.923  0.5561 -0.6692 -0.2887
  818MPD2    C512092   2.973   1.670   9.965 -0.4641  0.4865 -0.0779
  818MPD2     H12093   2.685   1.485  10.130  1.9109  0.5600  2.8966
  818MPD2    H112094   3.004   1.501   9.844 -0.3794 -1.3257 -0.6589
  818MPD2    H212095   2.936   1.828  10.095 -1.1491  0.7325 -1.5278
  818MPD2    H312096   3.062   1.719   9.927 -1.0143  1.5597  0.0420
  818MPD2     N12097   2.801   1.344   9.933  0.0555  0.6001 -0.3427
  818MPD2    H512098   2.854   1.299   9.858  1.0667  0.4753  0.4520
  818MPD2    N112099   2.710   1.728  10.207 -0.5643 -0.1333  0.3887
  818MPD2    H712100   2.619   1.684  10.218 -0.3750 -1.3966 -3.1784
  819MPD2     C12101   0.412   3.899  15.431 -0.4215  0.0866  0.0485
  819MPD2    C112102   0.431   3.761  15.410  0.4205  0.6858 -0.4179
  819MPD2    C212103   0.538   3.700  15.468  0.6528 -0.0517  0.2582
  819MPD2    C312104   0.616   3.765  15.557 -0.2534 -0.0003 -0.4031
  819MPD2    C412105   0.616   3.901  15.564 -0.2321 -0.1177 -0.0858
  819MPD2    C512106   0.514   3.965  15.496  0.2221 -0.4106  0.6296
  819MPD2     H12107   0.568   3.598  15.446  2.2322  0.7957 -1.5724
  819MPD2    H112108   0.696   3.952  15.616 -1.9868  0.4307  2.0499
  819MPD2    H212109   0.327   3.954  15.393 -0.2807  0.8621  0.8465
  819MPD2    H312110   0.505   4.072  15.501  0.9446 -0.4306  2.3071
  819MPD2     N12111   0.718   3.693  15.617 -0.6137 -0.4344 -0.6633
  819MPD2    H512112   0.718   3.595  15.592 -2.6153 -0.9514  1.3094
  819MPD2    N112113   0.351   3.696  15.322  0.3059  0.2508 -0.3115
  819MPD2    H712114   0.275   3.748  15.281 -1.2766 -0.7555  1.3757
  820MPD2     C12115   4.385   3.522  14.590 -0.8353  0.2609 -0.7016
  820MPD2    C112116   4.438   3.626  14.666 -0.2186  0.2172  0.2881
  820MPD2    C212117   4.539   3.596  14.761 -0.6333 -0.1683 -0.0073
  820MPD2    C312118   4.596   3.470  14.775 -0.7593 -0.0198 -0.1681
  820MPD2    C412119   4.558   3.374  14.686  0.4472 -0.1063  0.4512
  820MPD2    C512120   4.447   3.401  14.606 -0.1678 -0.7325 -0.4106
  820MPD2     H12121   4.586   3.674  14.821 -0.7675  0.6673 -0.9856
  820MPD2    H112122   4.608   3.278  14.690  2.1586  0.6971 -1.8325
  820MPD2    H212123   4.295   3.532  14.529 -0.3263  0.0068 -1.4912
  820MPD2    H312124   4.402   3.319  14.551 -2.3101  0.0175  0.2189
  820MPD2     N12125   4.694   3.445  14.878  0.1611 -0.4730  0.2315
  820MPD2    H512126   4.705   3.345  14.886  1.9464 -0.1254  1.8823
  820MPD2    N112127   4.383   3.754  14.652 -0.2793 -0.2253 -0.5302
  820MPD2    H712128   4.303   3.759  14.591 -0.9653 -0.2277  0.3716
  821MPD2     C12129   0.827   0.026  12.734  0.1467 -0.3097 -0.4184
  821MPD2    C112130   0.960   0.002  12.774  0.5252  0.1880 -0.5278
  821MPD2    C212131   1.059   0.006  12.676  0.3513  0.3294  0.4783
  821MPD2    C312132   1.037   0.038  12.544  0.2931  0.5914 -0.5102
  821MPD2    C412133   0.906   0.049  12.503 -0.4523 -0.0348 -0.0940
  821MPD2    C512134   0.807   0.036  12.594 -0.1195  0.4760 -0.5981
  821MPD2     H12135   1.156   4.725  12.721  0.5451  0.0328 -0.0609
  821MPD2    H112136   0.883   0.083  12.403  3.4022  0.2293 -0.9000
  821MPD2    H212137   0.742   0.025  12.801  0.2485  0.8222 -0.2621
  821MPD2    H312138   0.706   0.047  12.557 -0.1981  0.3225 -0.4305
  821MPD2     N12139   1.136   0.085  12.454 -0.2144 -0.3504  0.5400
  821MPD2    H512140   1.100   0.114  12.363  1.4284 -0.8129 -0.2583
  821MPD2    N112141   1.001   4.726  12.912  0.3065  0.2485 -0.4011
  821MPD2    H712142   1.101   4.733  12.926 -0.2289  0.8581  3.0217
  822MPD2     C12143   1.313   0.487  15.881  0.5171  0.2488  0.1154
  822MPD2    C112144   1.314   0.428  16.008  0.5449 -0.7639  0.1706
  822MPD2    C212145   1.255   0.503  16.103 -0.3066 -0.7782 -0.0283
  822MPD2    C312146   1.210   0.634  16.087  0.1533 -0.2551 -0.2205
  822MPD2    C412147   1.224   0.698  15.965 -0.1999 -0.0760  0.3724
  822MPD2    C512148   1.275   0.620  15.860 -0.1840  0.1193  0.1460
  822MPD2     H12149   1.253   0.456  16.200  1.3291  2.1123  1.4185
  822MPD2    H112150   1.193   0.798  15.938  1.4831  0.5502  0.7487
  822MPD2    H212151   1.342   0.431  15.792  0.4057  1.4848 -0.6977
  822MPD2    H312152   1.250   0.655  15.760 -0.5503  0.4988  0.3675
  822MPD2     N12153   1.184   0.699  16.208 -0.0217  0.4191  0.4769
  822MPD2    H512154   1.162   0.633  16.282 -0.6807  0.4486  0.3046
  822MPD2    N112155   1.362   0.306  16.044  0.2011  0.3554 -0.0765
  822MPD2    H712156   1.348   0.278  16.141 -0.7710 -1.4751 -0.7496
  823MPD2     C12157   0.879   0.812  17.004  0.1572 -0.2306 -0.3823
  823MPD2    C112158   0.917   0.754  16.890 -0.2071 -0.3491  0.0669
  823MPD2    C212159   0.947   0.617  16.902  1.1441  0.4412 -0.0696
  823MPD2    C312160   0.933   0.544  17.019  0.1609 -0.0959  0.3266
  823MPD2    C412161   0.880   0.603  17.133  0.1120 -0.1565  0.2819
  823MPD2    C512162   0.858   0.737  17.122 -0.2786  0.0573  0.9940
  823MPD2     H12163   0.983   0.573  16.809  2.3261 -0.0562  0.6198
  823MPD2    H112164   0.859   0.556  17.229  3.5199  1.2041  1.6695
  823MPD2    H212165   0.856   0.918  17.012  0.1672 -0.0415 -2.9552
  823MPD2    H312166   0.835   0.793  17.211  3.3956 -0.0476  2.0267
  823MPD2     N12167   0.973   0.408  17.038  0.3586  0.7609  0.3547
  823MPD2    H512168   0.944   0.362  17.124  0.2956 -1.2608 -0.7428
  823MPD2    N112169   0.915   0.826  16.766  0.6148 -0.0105 -0.1826
  823MPD2    H712170   0.912   0.928  16.770  4.8048 -0.0208  3.2278
  824MPD2     C12171   1.453   4.186  15.878  0.0143 -0.3344  0.0036
  824MPD2    C112172   1.556   4.249  15.935  0.2837  0.2724 -1.2572
  824MPD2    C212173   1.672   4.183  15.946  1.1446  0.1143  0.1568
  824MPD2    C312174   1.701   4.072  15.878 -0.1068 -0.6489  0.6013
  824MPD2    C412175   1.605   4.011  15.815  0.0324  0.6810  0.3761
  824MPD2    C512176   1.482   4.069  15.811  0.6201 -0.0026  0.3239
  824MPD2     H12177   1.749   4.231  16.005  0.7820  0.5464  0.2798
  824MPD2    H112178   1.625   3.920  15.761 -2.1810 -0.3183  1.2036
  824MPD2    H212179   1.352   4.224  15.877 -0.3422 -1.2069  2.1811
  824MPD2    H312180   1.397   4.022  15.764  0.9424 -1.0640  0.7964
  824MPD2     N12181   1.841   4.028  15.879 -0.1511 -0.4929  0.6836
  824MPD2    H512182   1.908   4.094  15.916 -1.0687  0.7184  0.1712
  824MPD2    N112183   1.540   4.370  16.009 -0.0113  0.7030 -0.3678
  824MPD2    H712184   1.600   4.389  16.088 -0.7572  0.3619  0.2816
  825MPD2     C12185   2.234   4.283  16.276 -0.5174  0.3235 -0.2141
  825MPD2    C112186   2.252   4.286  16.137 -0.0430  0.0167  0.4415
  825MPD2    C212187   2.271   4.412  16.075  0.9863 -0.3456 -0.1509
  825MPD2    C312188   2.260   4.531  16.149  0.1383  0.3957 -0.5294
  825MPD2    C412189   2.238   4.521  16.288 -0.2208  0.1608  0.4655
  825MPD2    C512190   2.224   4.394  16.349  0.2927 -0.9623  1.1684
  825MPD2     H12191   2.283   4.414  15.967  1.2402 -0.9194 -0.1321
  825MPD2    H112192   2.223   4.612  16.347 -0.1047  0.5813 -0.1578
  825MPD2    H212193   2.218   4.190  16.329 -1.3980  1.2858  1.1900
  825MPD2    H312194   2.204   4.385  16.455  2.0435  1.1701  1.6747
  825MPD2     N12195   2.265   4.657  16.091 -0.4140  0.5670 -0.0737
  825MPD2    H512196   2.239   4.729  16.158 -3.4496  0.7861 -1.4998
  825MPD2    N112197   2.242   4.160  16.069  0.1543 -0.5303  0.1721
  825MPD2    H712198   2.220   4.077  16.123  0.0890 -0.6852 -0.0932
  826MPD2     C12199   1.215   3.754  13.593 -0.3068 -0.2643 -0.0131
  826MPD2    C112200   1.319   3.837  13.616  0.3000 -0.5679 -0.2955
  826MPD2    C212201   1.330   3.899  13.738  0.2631  0.8786 -0.3305
  826MPD2    C312202   1.229   3.882  13.835 -0.9678 -0.2144  0.6322
  826MPD2    C412203   1.130   3.793  13.812  0.1031 -0.4770  0.9108
  826MPD2    C512204   1.116   3.735  13.688 -0.5062 -0.2509 -0.4447
  826MPD2     H12205   1.410   3.967  13.762  0.9158 -0.0265  0.0455
  826MPD2    H112206   1.055   3.772  13.888 -0.6288 -0.8770  0.0732
  826MPD2    H212207   1.194   3.715  13.494  0.1644  1.8600 -0.9438
  826MPD2    H312208   1.037   3.669  13.652  0.6944 -1.0212 -1.6469
  826MPD2     N12209   1.227   3.958  13.958  0.0148 -0.0680 -0.8897
  826MPD2    H512210   1.181   3.918  14.039 -2.8393  3.7714 -0.6262
  826MPD2    N112211   1.419   3.837  13.518 -0.1215 -0.3730 -0.3157
  826MPD2    H712212   1.417   3.776  13.437  0.3598 -0.5937 -0.1630
  827MPD2     C12213   3.098   0.805   9.631 -0.2163 -0.0421  0.5020
  827MPD2    C112214   3.022   0.717   9.697  0.2395  0.7287  0.0337
  827MPD2    C212215   2.957   0.616   9.630  0.0055 -0.1452 -0.3011
  827MPD2    C312216   2.968   0.604   9.500 -0.1090  0.5695  0.1840
  827MPD2    C412217   3.039   0.701   9.428 -0.0522 -0.3667 -0.4254
  827MPD2    C512218   3.098   0.805   9.494  0.6583 -0.5114  0.1897
  827MPD2     H12219   2.893   0.546   9.683  0.5305  2.0475  3.2405
  827MPD2    H112220   3.041   0.708   9.319 -1.4159 -0.3503 -0.4456
  827MPD2    H212221   3.151   0.882   9.686  1.1548 -1.0340  0.5842
  827MPD2    H312222   3.146   0.881   9.434 -2.0939  1.1492  0.0560
  827MPD2     N12223   2.883   0.508   9.438 -0.1929  0.1481 -0.4478
  827MPD2    H512224   2.843   0.432   9.491 -0.5853 -0.7102 -1.9647
  827MPD2    N112225   3.007   0.733   9.841  0.0771  0.0961 -0.0669
  827MPD2    H712226   3.020   0.825   9.882  1.8581 -0.0861 -0.2351
  828MPD2     C12227   1.131   0.125  11.993 -0.7535  0.2652 -0.3383
  828MPD2    C112228   1.107   0.253  11.962  0.1681  0.0401  0.3240
  828MPD2    C212229   1.166   0.306  11.849  0.3220 -0.5943  0.7646
  828MPD2    C312230   1.239   0.234  11.758  0.3104  0.0299 -0.0685
  828MPD2    C412231   1.266   0.103  11.796  0.6327 -0.2136 -0.4616
  828MPD2    C512232   1.221   0.055  11.915  0.3379 -0.3665  1.3381
  828MPD2     H12233   1.155   0.414  11.839 -1.4886 -0.9435 -0.8538
  828MPD2    H112234   1.315   0.032  11.730 -1.4729 -2.1306  0.0334
  828MPD2    H212235   1.100   0.072  12.083  0.2910 -1.2515 -0.8691
  828MPD2    H312236   1.252   4.693  11.951 -1.4688 -1.8602 -1.1972
  828MPD2     N12237   1.299   0.287  11.645 -0.0516  0.3964 -0.1969
  828MPD2    H512238   1.349   0.214  11.595 -3.2847 -1.0308 -1.3161
  828MPD2    N112239   1.024   0.343  12.034  0.2372  0.5850 -0.1601
  828MPD2    H712240   1.030   0.441  12.006  0.0850  0.9757  1.1420
  829MPD2     C12241   0.798   1.129  11.804  0.0393 -0.0912  0.3956
  829MPD2    C112242   0.706   1.094  11.890 -0.2325  0.3449 -0.2250
  829MPD2    C212243   0.721   0.984  11.965 -0.6030 -0.3871  0.5382
  829MPD2    C312244   0.835   0.903  11.951  1.4042 -0.4596 -0.0624
  829MPD2    C412245   0.923   0.931  11.851  0.1371 -0.0609 -0.2337
  829MPD2    C512246   0.893   1.028  11.766 -0.1868  1.2560  0.8245
  829MPD2     H12247   0.644   0.958  12.036 -0.1911 -1.6930  0.5140
  829MPD2    H112248   1.000   0.862  11.818  0.6096  0.2675  0.1977
  829MPD2    H212249   0.787   1.221  11.747 -2.0532 -1.1845 -0.9583
  829MPD2    H312250   0.952   1.044  11.676 -0.8836  1.3342  0.3804
  829MPD2     N12251   0.860   0.797  12.043  0.4297  0.3286  0.6150
  829MPD2    H512252   0.930   0.727  12.021 -1.1847 -0.5495 -1.7557
  829MPD2    N112253   0.593   1.174  11.907  0.3908 -0.0310  0.0815
  829MPD2    H712254   0.575   1.244  11.836  4.3116  0.2960 -0.5710
  830MPD2     C12255   1.397   3.227  15.459  0.3381 -0.5227 -0.0378
  830MPD2    C112256   1.307   3.332  15.428  0.2250 -0.4918 -0.0571
  830MPD2    C212257   1.320   3.401  15.313 -0.2476  0.1921  0.2931
  830MPD2    C312258   1.426   3.376  15.229 -0.1676 -0.3723  0.1461
  830MPD2    C412259   1.518   3.274  15.255  0.0394  0.0160 -0.8933
  830MPD2    C512260   1.501   3.202  15.368  0.7301 -0.7351 -0.1197
  830MPD2     H12261   1.256   3.486  15.295 -3.0563 -1.7362  1.2531
  830MPD2    H112262   1.600   3.247  15.190 -0.4795  0.7015 -1.8260
  830MPD2    H212263   1.379   3.154  15.537 -2.6739  1.8650  1.4809
  830MPD2    H312264   1.563   3.115  15.386 -1.7732 -2.1300  1.7449
  830MPD2     N12265   1.449   3.467  15.119  0.2600  0.4611 -0.3057
  830MPD2    H512266   1.544   3.471  15.083  0.8263  0.8064  1.2690
  830MPD2    N112267   1.205   3.352  15.521  0.1005 -0.4684 -0.1861
  830MPD2    H712268   1.211   3.306  15.612 -1.4209  0.5484  0.4284
  831MPD2     C12269   1.501   0.651  16.603 -0.7724 -0.6175  0.2826
  831MPD2    C112270   1.470   0.592  16.487 -0.1648 -0.5988 -0.1659
  831MPD2    C212271   1.344   0.527  16.474  0.1399  0.2858 -0.2466
  831MPD2    C312272   1.252   0.523  16.573  0.2376 -0.0519  0.1072
  831MPD2    C412273   1.289   0.584  16.689  0.3993 -0.1513 -0.7582
  831MPD2    C512274   1.415   0.643  16.704 -0.0344 -0.1630  0.3955
  831MPD2     H12275   1.330   0.460  16.390  0.0496  1.1883 -0.9507
  831MPD2    H112276   1.215   0.579  16.769 -1.0214  0.9132 -2.0119
  831MPD2    H212277   1.589   0.711  16.625 -1.3616  0.1581  0.5166
  831MPD2    H312278   1.432   0.688  16.801  0.0724 -0.5159  0.5417
  831MPD2     N12279   1.127   0.452  16.575 -0.1826  0.0790 -0.1351
  831MPD2    H512280   1.090   0.436  16.669  1.6950 -1.2361  0.3755
  831MPD2    N112281   1.578   0.595  16.391  0.1840 -0.5323 -0.2947
  831MPD2    H712282   1.657   0.656  16.408 -0.7915  0.4426  0.7807
  832MPD2     C12283   4.613   1.375  17.406  0.5014  0.4172  0.5250
  832MPD2    C112284   4.572   1.495  17.359  1.0214 -0.3935  0.1179
  832MPD2    C212285   4.468   1.499  17.265  0.4324  0.4163 -0.1771
  832MPD2    C312286   4.394   1.387  17.237 -0.0529  0.0032 -0.6522
  832MPD2    C412287   4.420   1.269  17.303  0.2129 -0.6141 -0.4666
  832MPD2    C512288   4.537   1.264  17.376  0.0107 -0.5827  0.7627
  832MPD2     H12289   4.436   1.595  17.225  0.0551  0.7008  0.8038
  832MPD2    H112290   4.370   1.176  17.279 -0.1081  0.2709 -3.3268
  832MPD2    H212291   4.699   1.350  17.467 -0.9087 -2.6520  1.2766
  832MPD2    H312292   4.568   1.161  17.393 -0.1172 -1.1065 -2.1747
  832MPD2     N12293   4.272   1.389  17.160  0.0493  0.4088  0.7108
  832MPD2    H512294   4.219   1.303  17.164  0.9669 -0.2025 -0.2852
  832MPD2    N112295   4.654   1.603  17.395  0.0474 -0.0416  0.0250
  832MPD2    H712296   4.735   1.593  17.456 -0.5606  0.6830  0.9480
  833MPD2     C12297   1.753   2.777  12.876 -0.0183 -0.4331  0.3602
  833MPD2    C112298   1.791   2.880  12.786 -0.0530 -0.1590 -0.2793
  833MPD2    C212299   1.849   2.837  12.666 -0.1657  0.4441  0.5917
  833MPD2    C312300   1.865   2.698  12.631  0.4720 -0.5574 -0.6539
  833MPD2    C412301   1.823   2.604  12.720 -0.3819  0.2939 -0.0053
  833MPD2    C512302   1.766   2.640  12.841  1.0004  0.2740 -0.3332
  833MPD2     H12303   1.876   2.918  12.599 -1.6971  0.7688  0.3811
  833MPD2    H112304   1.830   2.500  12.693 -1.1969  0.0583  0.6928
  833MPD2    H212305   1.701   2.808  12.966  0.0269 -1.9715  0.9168
  833MPD2    H312306   1.731   2.561  12.906 -0.2751 -2.1015 -3.9092
  833MPD2     N12307   1.914   2.657  12.499 -0.1269 -0.9852 -0.2662
  833MPD2    H512308   1.906   2.559  12.474  4.1799 -1.4265  0.1125
  833MPD2    N112309   1.770   3.015  12.830  0.6926 -0.0677 -0.0520
  833MPD2    H712310   1.726   3.027  12.921  0.8573  3.0629 -0.3928
  834MPD2     C12311   1.536   2.208  11.701  0.1524 -0.5941 -0.4096
  834MPD2    C112312   1.660   2.247  11.658 -0.4041 -0.1015 -0.1902
  834MPD2    C212313   1.728   2.338  11.736  0.2830  0.0693 -0.1658
  834MPD2    C312314   1.668   2.390  11.854  0.6843 -0.9043 -0.6143
  834MPD2    C412315   1.541   2.361  11.892 -0.0686  0.0582 -0.7067
  834MPD2    C512316   1.474   2.267  11.808 -0.2475  0.2527 -0.1609
  834MPD2     H12317   1.832   2.357  11.713  0.6921 -2.1130 -0.1245
  834MPD2    H112318   1.493   2.394  11.984 -1.4887 -3.5831 -0.1530
  834MPD2    H212319   1.482   2.122  11.662  2.5425 -1.6630 -1.3693
  834MPD2    H312320   1.377   2.223  11.829 -1.6997  2.0629 -2.9282
  834MPD2     N12321   1.751   2.474  11.935 -0.0857  1.0879 -0.5375
  834MPD2    H512322   1.847   2.488  11.905  0.7269  0.2788  1.6254
  834MPD2    N112323   1.725   2.171  11.554  0.0577  0.4832 -0.0439
  834MPD2    H712324   1.668   2.105  11.502  1.3055 -1.4306  1.0250
  835MPD2     C12325   1.567   0.914  10.461 -0.4074 -0.2948  0.1524
  835MPD2    C112326   1.485   1.006  10.521  0.5448  0.3202 -0.2183
  835MPD2    C212327   1.490   1.023  10.659 -0.7153 -0.1573  0.1474
  835MPD2    C312328   1.577   0.945  10.736 -0.3326  0.2320  0.1691
  835MPD2    C412329   1.664   0.860  10.670 -0.8131 -0.5088 -0.8890
  835MPD2    C512330   1.662   0.848  10.530  0.2814 -0.6220  0.5380
  835MPD2     H12331   1.422   1.088  10.713 -1.3769 -0.7889  0.0841
  835MPD2    H112332   1.744   0.811  10.725  0.2631  0.7372 -1.3399
  835MPD2    H212333   1.546   0.895  10.356  1.0985  1.3075 -0.4491
  835MPD2    H312334   1.731   0.781  10.479 -0.1265 -0.8871  0.3399
  835MPD2     N12335   1.583   0.946  10.880  0.4483 -1.0428  0.7616
  835MPD2    H512336   1.635   0.873  10.928 -1.2426 -1.9493  1.2162
  835MPD2    N112337   1.381   1.069  10.448 -0.1418  0.4158 -0.3984
  835MPD2    H712338   1.307   1.117  10.498 -0.3531  0.4193 -0.7134
  836MPD2     C12339   1.106   1.322  11.399  0.6962 -0.3254 -0.8428
  836MPD2    C112340   1.181   1.226  11.460 -0.5539  0.1857 -1.3213
  836MPD2    C212341   1.162   1.217  11.597  0.2240 -0.4206 -0.8158
  836MPD2    C312342   1.090   1.311  11.665 -0.2548  0.3102 -0.4189
  836MPD2    C412343   1.014   1.402  11.598  0.1809 -0.6290 -0.5016
  836MPD2    C512344   1.024   1.406  11.463  0.0408 -0.5517  0.5463
  836MPD2     H12345   1.207   1.135  11.653 -1.4395 -0.4251  0.5220
  836MPD2    H112346   0.937   1.464  11.644  0.6699 -0.3172 -0.1105
  836MPD2    H212347   1.111   1.342  11.293 -0.3396 -2.9729 -1.3909
  836MPD2    H312348   0.980   1.486  11.405  0.5145 -1.1419 -0.6376
  836MPD2     N12349   1.077   1.317  11.802  0.1121 -0.1853  0.5386
  836MPD2    H512350   0.997   1.366  11.839  0.8603  1.2829  0.1881
  836MPD2    N112351   1.270   1.153  11.379  0.7568  0.1858  0.3066
  836MPD2    H712352   1.279   1.188  11.284  3.0026 -0.8502  0.1159
  837MPD2     C12353   4.727   0.527  10.220  0.8537 -0.0538 -0.1989
  837MPD2    C112354   4.646   0.593  10.134  0.1796  0.3904  0.2616
  837MPD2    C212355   4.637   0.732  10.131 -0.3475 -0.4490  0.0134
  837MPD2    C312356   4.714   0.807  10.218  0.0070  0.4357 -0.1094
  837MPD2    C412357   0.073   0.740  10.294 -0.0072 -0.2673  0.1559
  837MPD2    C512358   0.078   0.602  10.294 -0.2502 -0.2003  0.0187
  837MPD2     H12359   4.568   0.795  10.075 -0.8117 -1.7368 -0.8663
  837MPD2    H112360   0.153   0.792  10.345 -1.3148  0.1923  1.7402
  837MPD2    H212361   0.028   0.426  10.204  0.0984 -0.4845  0.7743
  837MPD2    H312362   0.164   0.553  10.337  0.3719  2.1718  1.4822
  837MPD2     N12363   4.696   0.949  10.217  0.5022 -0.3467 -0.4466
  837MPD2    H512364   4.632   0.973  10.142  0.2519  0.4941  0.0350
  837MPD2    N112365   4.552   0.527  10.050  0.0961 -0.5486  0.1733
  837MPD2    H712366   4.506   0.585   9.981  2.5743  0.1181 -0.9371
  838MPD2     C12367   3.748   3.565  11.737  0.7397 -0.1568  0.2261
  838MPD2    C112368   3.619   3.518  11.722 -0.4754 -0.5409 -0.4770
  838MPD2    C212369   3.525   3.526  11.826 -0.0421 -0.3628 -0.6205
  838MPD2    C312370   3.570   3.568  11.953  0.0011  0.2607 -0.0925
  838MPD2    C412371   3.694   3.605  11.972 -0.2167 -0.3093  0.5177
  838MPD2    C512372   3.784   3.600  11.865  0.4705 -0.3842 -0.4035
  838MPD2     H12373   3.425   3.490  11.805 -0.2892  0.2354 -0.4656
  838MPD2    H112374   3.742   3.624  12.067  0.1077  0.7141  0.1501
  838MPD2    H212375   3.815   3.571  11.652 -1.0126  1.2272 -1.0677
  838MPD2    H312376   3.885   3.638  11.877 -0.1000  1.3115 -0.9864
  838MPD2     N12377   3.468   3.573  12.056 -0.2197  0.2860  0.2142
  838MPD2    H512378   3.370   3.555  12.038  0.5594 -2.4258 -1.2896
  838MPD2    N112379   3.569   3.471  11.595  0.3255 -0.2633 -0.1728
  838MPD2    H712380   3.474   3.434  11.595  0.8972 -1.7138 -0.3520
  839MPD2     C12381   3.073   2.905  11.822  0.5670 -0.0548  0.0463
  839MPD2    C112382   3.107   2.832  11.710  0.2550  1.0311 -0.1836
  839MPD2    C212383   3.197   2.889  11.624  0.0480 -0.3504 -0.0671
  839MPD2    C312384   3.243   3.023  11.639 -0.0077  0.5183 -0.0424
  839MPD2    C412385   3.196   3.092  11.747  0.2631 -0.2078  0.1443
  839MPD2    C512386   3.112   3.031  11.838  0.4024 -1.0356 -0.0317
  839MPD2     H12387   3.233   2.830  11.541 -1.8298 -5.1050  2.4853
  839MPD2    H112388   3.223   3.197  11.757 -0.7622  0.1814 -1.2847
  839MPD2    H212389   2.993   2.868  11.885  0.4433  1.7096  0.9386
  839MPD2    H312390   3.075   3.094  11.918 -2.3632 -0.4535 -1.8040
  839MPD2     N12391   3.322   3.096  11.544 -0.1219 -0.0486 -0.9459
  839MPD2    H512392   3.339   3.191  11.573 -0.3490 -0.2135 -0.2695
  839MPD2    N112393   3.060   2.697  11.680  0.2195  0.1084  0.0502
  839MPD2    H712394   3.101   2.656  11.597  2.2276 -0.0014  1.1142
  840MPD2     C12395   3.404   1.110  10.131  0.2617  0.4303  0.0673
  840MPD2    C112396   3.388   1.012  10.227 -0.2614 -0.7901  0.9487
  840MPD2    C212397   3.459   1.033  10.346 -0.1475  0.0089 -0.1652
  840MPD2    C312398   3.551   1.130  10.363  0.8879  0.2040 -0.4359
  840MPD2    C412399   3.570   1.218  10.260  0.2517  0.1557 -0.2553
  840MPD2    C512400   3.502   1.207  10.142 -0.5198  0.4506 -0.5819
  840MPD2     H12401   3.431   0.973  10.431  1.4743  0.2225  0.5117
  840MPD2    H112402   3.645   1.294  10.278 -1.0681  0.7332  2.7650
  840MPD2    H212403   3.346   1.097  10.041  0.3627 -1.9323  0.3268
  840MPD2    H312404   3.522   1.275  10.060  1.2927  1.2856  0.5635
  840MPD2     N12405   3.625   1.160  10.476 -0.3016  0.4791  0.3230
  840MPD2    H512406   3.690   1.237  10.485 -1.0086  1.3368 -2.0302
  840MPD2    N112407   3.284   0.913  10.208 -0.5541 -0.1850  0.3650
  840MPD2    H712408   3.257   0.904  10.111  1.4834  0.0306 -0.2130
  841MPD2     C12409   2.716   0.799  14.545 -0.6230  0.0905 -0.0334
  841MPD2    C112410   2.776   0.673  14.555 -0.0782 -0.4228 -0.3089
  841MPD2    C212411   2.892   0.662  14.630  0.0058  0.1114 -0.4929
  841MPD2    C312412   2.940   0.776  14.695 -0.0299 -0.2537  0.0565
  841MPD2    C412413   2.886   0.902  14.674 -0.8163 -0.5715 -0.3987
  841MPD2    C512414   2.777   0.916  14.593 -0.0691  0.4828  0.6857
  841MPD2     H12415   2.953   0.573  14.641  1.0818  1.0877  1.3755
  841MPD2    H112416   2.928   0.992  14.716  1.2001 -1.9683  0.6024
  841MPD2    H212417   2.631   0.812  14.478  0.1930  2.4718 -0.6288
  841MPD2    H312418   2.719   1.008  14.588  0.5618  0.7468 -1.8109
  841MPD2     N12419   3.049   0.760  14.780  0.3196  0.4851 -0.6946
  841MPD2    H512420   3.070   0.667  14.815  1.0636  1.3651  1.2134
  841MPD2    N112421   2.742   0.575  14.459 -0.3364 -0.6526 -0.0265
  841MPD2    H712422   2.665   0.593  14.396 -0.0343 -2.4920 -0.9170
  842MPD2     C12423   3.814   1.759  17.013  0.2234 -0.6461  0.0078
  842MPD2    C112424   3.704   1.672  16.983  0.1328 -0.1834  0.2646
  842MPD2    C212425   3.645   1.609  17.092  0.8755  0.1144  0.2053
  842MPD2    C312426   3.683   1.633  17.226  0.2798  0.2744  0.0990
  842MPD2    C412427   3.793   1.715  17.241 -0.6607 -0.2679  0.3800
  842MPD2    C512428   3.867   1.767  17.143 -0.2555 -0.6929 -0.0950
  842MPD2     H12429   3.548   1.564  17.076  0.1616  1.9137 -0.4909
  842MPD2    H112430   3.821   1.745  17.341  0.4850 -0.3126  0.0666
  842MPD2    H212431   3.858   1.815  16.931  0.8194 -3.4263 -1.5953
  842MPD2    H312432   3.948   1.836  17.164  0.1387 -2.0412  2.7573
  842MPD2     N12433   3.592   1.598  17.331 -0.2789 -0.0398 -0.0928
  842MPD2    H512434   3.509   1.553  17.295  1.1589 -1.4228 -1.7020
  842MPD2    N112435   3.644   1.664  16.851 -0.3257  0.1544 -0.3270
  842MPD2    H712436   3.678   1.734  16.786 -0.9918 -1.0094 -1.9599
  843MPD2     C12437   1.095   2.634  17.133 -0.6024 -0.3246 -0.2362
  843MPD2    C112438   1.106   2.567  17.251  0.3292  0.4611 -0.0431
  843MPD2    C212439   1.203   2.610  17.342  0.5736  0.5072  0.6332
  843MPD2    C312440   1.296   2.707  17.300  0.4935  0.0145  0.4201
  843MPD2    C412441   1.285   2.769  17.182 -0.5304  0.5178  0.0916
  843MPD2    C512442   1.184   2.733  17.095  1.0806 -0.3149 -0.2988
  843MPD2     H12443   1.205   2.565  17.441  0.4469 -0.6741  0.1051
  843MPD2    H112444   1.361   2.842  17.157  2.6643 -2.3978  1.3452
  843MPD2    H212445   1.021   2.602  17.061 -0.4438  0.4920 -0.7587
  843MPD2    H312446   1.181   2.774  16.994 -0.6564  0.7567  0.1954
  843MPD2     N12447   1.391   2.760  17.395  0.0915  0.0015 -0.2800
  843MPD2    H512448   1.440   2.845  17.370  1.2655 -0.5900  0.0347
  843MPD2    N112449   1.002   2.474  17.276 -0.0251 -0.3017 -0.3044
  843MPD2    H712450   0.927   2.467  17.207 -0.3335  1.2752 -0.1224
  844MPD2     C12451   3.948   0.817  16.580  0.5598 -0.1768  0.2098
  844MPD2    C112452   4.014   0.884  16.479 -0.3870 -0.4656  0.3219
  844MPD2    C212453   4.058   1.017  16.503  0.1267 -0.8123 -0.3275
  844MPD2    C312454   4.039   1.067  16.631 -0.2898 -0.4504 -0.2875
  844MPD2    C412455   3.974   0.996  16.727  0.2808 -0.3180 -0.8143
  844MPD2    C512456   3.920   0.876  16.703  0.1384  0.0541  0.8323
  844MPD2     H12457   4.112   1.064  16.421  1.3334  1.0641  1.5687
  844MPD2    H112458   3.956   1.043  16.823 -1.9778 -0.9500 -0.9160
  844MPD2    H212459   3.902   0.720  16.564  0.5189 -0.2306  0.6629
  844MPD2    H312460   3.877   0.816  16.782  0.0486 -1.5610 -0.4373
  844MPD2     N12461   4.110   1.183  16.672 -0.1547 -0.2710  0.5093
  844MPD2    H512462   4.132   1.177  16.771  1.2812  0.7176  0.2443
  844MPD2    N112463   4.047   0.817  16.366 -0.0958 -0.1422  0.3903
  844MPD2    H712464   4.086   0.863  16.285  0.0357  1.7244  1.5048
  845MPD2     C12465   4.477   2.201  16.741  0.3003 -0.4780  0.4382
  845MPD2    C112466   4.472   2.130  16.855 -0.4736 -0.5247  0.6347
  845MPD2    C212467   4.451   1.991  16.854  1.0276 -0.2540  0.2923
  845MPD2    C312468   4.430   1.925  16.731  0.5122  0.8166 -0.4125
  845MPD2    C412469   4.427   2.008  16.618  0.0487 -0.0838 -0.0107
  845MPD2    C512470   4.440   2.142  16.625 -0.6318 -0.3144 -0.6118
  845MPD2     H12471   4.458   1.927  16.941 -0.7190  0.9027  1.2618
  845MPD2    H112472   4.409   1.961  16.521 -0.3028  0.7875 -0.3626
  845MPD2    H212473   4.519   2.301  16.735  3.0046 -1.7820 -2.2290
  845MPD2    H312474   4.429   2.198  16.533 -0.1359  0.1972 -0.3573
  845MPD2     N12475   4.412   1.788  16.730  0.4768 -0.0399  0.0193
  845MPD2    H512476   4.428   1.740  16.819  0.3995  1.0840  0.6372
  845MPD2    N112477   4.506   2.194  16.982  0.1383 -0.6291 -0.6951
  845MPD2    H712478   4.527   2.293  16.979 -0.4112 -0.5203 -0.8925
  846MPD2     C12479   0.835   2.584  13.512  0.0714  0.1081  0.1225
  846MPD2    C112480   0.787   2.703  13.572  0.5553 -0.4133  0.0585
  846MPD2    C212481   0.774   2.702  13.708 -0.6553  0.1988  0.1010
  846MPD2    C312482   0.827   2.599  13.787  0.1760 -0.3447  0.4835
  846MPD2    C412483   0.858   2.476  13.721  0.0893 -0.1578 -0.1749
  846MPD2    C512484   0.851   2.469  13.590  1.2717 -0.3173  0.1208
  846MPD2     H12485   0.739   2.790  13.760 -0.6449 -0.4404  1.2004
  846MPD2    H112486   0.874   2.380  13.767 -0.4953 -0.9582 -1.6201
  846MPD2    H212487   0.837   2.563  13.405 -1.6943  0.6569 -0.0131
  846MPD2    H312488   0.870   2.370  13.550  1.4766 -0.3598  0.3220
  846MPD2     N12489   0.835   2.610  13.927 -0.4945 -0.2123 -0.1835
  846MPD2    H512490   0.801   2.694  13.974 -1.8053 -0.7547 -0.1676
  846MPD2    N112491   0.782   2.825  13.504  0.5431  0.1061  0.0601
  846MPD2    H712492   0.767   2.901  13.571 -2.0476 -1.3050  1.0788
  847MPD2     C12493   1.691   4.046  14.647 -0.6203 -0.1403 -0.0128
  847MPD2    C112494   1.745   4.160  14.698 -0.5151  0.8879 -0.1398
  847MPD2    C212495   1.856   4.152  14.776  0.5465 -0.8769  0.1544
  847MPD2    C312496   1.924   4.038  14.801  0.5568  0.7123 -0.3260
  847MPD2    C412497   1.872   3.921  14.752 -0.0853 -0.4449  0.5850
  847MPD2    C512498   1.762   3.926  14.666 -0.1186 -0.4165 -0.1865
  847MPD2     H12499   1.886   4.248  14.816 -1.3577 -0.9077  1.6997
  847MPD2    H112500   1.915   3.824  14.775  1.8930  0.0136 -1.1449
  847MPD2    H212501   1.600   4.047  14.588 -1.4559 -2.0739  1.2437
  847MPD2    H312502   1.713   3.837  14.628 -2.0903  0.1645  0.9936
  847MPD2     N12503   2.037   4.034  14.887 -0.6871 -0.1346 -0.7273
  847MPD2    H512504   2.056   3.944  14.929  1.5572  0.9630  0.5778
  847MPD2    N112505   1.685   4.283  14.696  0.2438  0.4450  0.2968
  847MPD2    H712506   1.725   4.360  14.749 -1.1651  1.6090 -0.3234
  848MPD2     C12507   3.954   1.584  16.416  0.6847  0.4496  0.3846
  848MPD2    C112508   3.996   1.664  16.523  0.3567 -0.5388  0.0244
  848MPD2    C212509   4.035   1.794  16.498  0.0233  0.5161 -0.8004
  848MPD2    C312510   4.024   1.836  16.368 -0.2486 -0.4474  0.5672
  848MPD2    C412511   3.985   1.758  16.265 -0.3207  0.0726  0.0707
  848MPD2    C512512   3.949   1.633  16.292  0.8687  0.2754  0.1379
  848MPD2     H12513   4.070   1.852  16.583  0.2446 -0.5380 -0.1629
  848MPD2    H112514   3.971   1.808  16.170  0.2349  1.7038  0.8570
  848MPD2    H212515   3.927   1.480  16.434  0.0680  0.2812 -1.5826
  848MPD2    H312516   3.921   1.572  16.207  1.1927 -0.6327  0.6745
  848MPD2     N12517   4.061   1.973  16.332 -0.3882 -0.3993  0.0040
  848MPD2    H512518   4.065   1.982  16.231  0.8419 -2.3714 -0.1090
  848MPD2    N112519   4.001   1.610  16.653  0.4472 -0.5701  0.1465
  848MPD2    H712520   4.053   1.660  16.724  1.1964 -1.1675  0.0150
  849MPD2     C12521   2.830   1.504  14.548  0.3279  0.5334 -0.4077
  849MPD2    C112522   2.925   1.537  14.454  0.2991  0.5928  0.1930
  849MPD2    C212523   3.056   1.481  14.464  0.2544  0.2158 -0.5850
  849MPD2    C312524   3.087   1.415  14.578  0.5174  0.8576 -0.1965
  849MPD2    C412525   2.995   1.383  14.674 -0.3743  0.2063 -0.1896
  849MPD2    C512526   2.866   1.419  14.655  0.0961 -0.8843 -0.1712
  849MPD2     H12527   3.115   1.486  14.373 -0.6922  1.5115 -1.1352
  849MPD2    H112528   3.019   1.320  14.759  0.9254  0.6114 -0.2444
  849MPD2    H212529   2.731   1.547  14.539 -0.2673 -1.1842 -2.2221
  849MPD2    H312530   2.795   1.384  14.730  0.3090 -0.7714  0.0823
  849MPD2     N12531   3.223   1.372  14.591  0.5515  0.0906  0.6985
  849MPD2    H512532   3.271   1.362  14.502  0.1255  0.2383  0.4536
  849MPD2    N112533   2.890   1.620  14.349 -0.5350 -0.4710 -0.3026
  849MPD2    H712534   2.793   1.649  14.347 -0.8759 -1.6219 -0.6235
  850MPD2     C12535   1.191   0.257  14.695  0.2912  0.4877  0.3631
  850MPD2    C112536   1.223   0.249  14.832  0.2718 -0.2836  0.6228
  850MPD2    C212537   1.332   0.307  14.883  0.4910  0.0013 -0.5003
  850MPD2    C312538   1.426   0.361  14.792 -0.4279 -0.6888 -0.0688
  850MPD2    C412539   1.401   0.353  14.657  0.3721  0.1610  0.7562
  850MPD2    C512540   1.279   0.323  14.610 -0.1939  0.0896  0.8778
  850MPD2     H12541   1.354   0.295  14.988  1.8680 -0.0953 -0.8074
  850MPD2    H112542   1.480   0.368  14.585 -0.8981  3.4098  0.0515
  850MPD2    H212543   1.100   0.208  14.665  0.8314 -0.2030 -0.1399
  850MPD2    H312544   1.270   0.329  14.502  1.9106 -0.2645  0.6934
  850MPD2     N12545   1.558   0.388  14.837 -0.4686 -0.0873 -0.4192
  850MPD2    H512546   1.637   0.398  14.773 -0.0560 -0.3615  0.0503
  850MPD2    N112547   1.147   0.163  14.908  0.0912  0.5096 -0.0400
  850MPD2    H712548   1.086   0.101  14.855 -1.7813  0.6402  1.9895
  851MPD2     C12549   1.630   4.366  15.227  0.7112 -0.4238 -0.3588
  851MPD2    C112550   1.506   4.360  15.167  0.2911  0.0084 -0.0561
  851MPD2    C212551   1.487   4.252  15.082  0.0895 -0.3782 -0.5389
  851MPD2    C312552   1.577   4.152  15.058 -0.3788 -0.3241  0.0106
  851MPD2    C412553   1.694   4.156  15.123 -0.1909  0.6870 -0.1396
  851MPD2    C512554   1.724   4.271  15.197  0.1319 -0.8214 -0.1137
  851MPD2     H12555   1.388   4.246  15.039  0.3552  2.4542 -1.5453
  851MPD2    H112556   1.774   4.085  15.109  1.0125  2.4676 -2.2813
  851MPD2    H212557   1.666   4.453  15.281 -1.3357  1.1053 -1.4736
  851MPD2    H312558   1.825   4.276  15.238  0.0624  0.8244 -0.1603
  851MPD2     N12559   1.547   4.047  14.970 -0.2007  0.3890 -0.3259
  851MPD2    H512560   1.474   4.077  14.905 -1.1078 -1.0063  0.0515
  851MPD2    N112561   1.406   4.458  15.197 -0.1528  0.8560  0.7677
  851MPD2    H712562   1.420   4.521  15.276  0.6606  1.2385  0.3128
  852MPD2     C12563   2.064   1.828   9.750  0.4419  0.5634  0.5208
  852MPD2    C112564   1.969   1.929   9.750  0.1262 -0.3335  0.8180
  852MPD2    C212565   2.009   2.060   9.773 -0.2375 -0.4781 -0.5619
  852MPD2    C312566   2.149   2.096   9.790 -0.1848 -0.3554  0.1276
  852MPD2    C412567   2.240   1.993   9.777  0.3320  0.0679  0.6068
  852MPD2    C512568   2.196   1.861   9.749  0.3120  0.4729  0.1113
  852MPD2     H12569   1.933   2.137   9.786  0.7111  0.1045  1.4667
  852MPD2    H112570   2.348   2.007   9.783  0.6530 -2.0082 -0.1815
  852MPD2    H212571   2.039   1.724   9.731 -0.3458  1.1674 -1.7366
  852MPD2    H312572   2.265   1.777   9.755  1.6039  1.6012  1.0560
  852MPD2     N12573   2.183   2.228   9.843  0.4234 -0.0472 -0.4264
  852MPD2    H512574   2.110   2.297   9.852  0.6636  0.1989 -0.3946
  852MPD2    N112575   1.831   1.898   9.753 -0.1370  0.1074  0.5530
  852MPD2    H712576   1.770   1.979   9.753 -0.9202 -0.4781  0.9337
  853MPD2     C12577   2.428   1.837  12.573  0.1060 -1.4370  0.6751
  853MPD2    C112578   2.392   1.960  12.520 -0.6330  0.1564  0.5608
  853MPD2    C212579   2.358   1.977  12.383 -0.0700  0.0676  0.0732
  853MPD2    C312580   2.391   1.875  12.295 -0.7649 -0.4240  0.2692
  853MPD2    C412581   2.465   1.769  12.349  0.0565  0.3402  0.4513
  853MPD2    C512582   2.474   1.744  12.483  0.1191  0.4703 -0.3017
  853MPD2     H12583   2.313   2.070  12.352 -0.3145  0.0559  0.3919
  853MPD2    H112584   2.507   1.693  12.285 -0.4053 -1.0049  1.7399
  853MPD2    H212585   2.432   1.812  12.679  1.6101  0.9078  1.1851
  853MPD2    H312586   2.509   1.648  12.521 -2.1964 -1.4009 -2.9260
  853MPD2     N12587   2.366   1.870  12.158 -0.8185 -0.0811 -0.3291
  853MPD2    H512588   2.372   1.783  12.106  1.0476  1.9702 -3.4474
  853MPD2    N112589   2.358   2.063  12.612  0.1443  0.0040 -0.5970
  853MPD2    H712590   2.379   2.044  12.709 -1.1285  1.4334 -0.0306
  854MPD2     C12591   4.230   1.879  12.385 -0.9109 -0.0151 -0.7795
  854MPD2    C112592   4.301   1.974  12.453  0.5740 -0.5885  0.2860
  854MPD2    C212593   4.402   1.929  12.539  0.0935 -0.2557  0.0656
  854MPD2    C312594   4.441   1.793  12.543  0.4671 -0.1915 -0.0117
  854MPD2    C412595   4.378   1.703  12.462  0.2979  0.0487 -0.3375
  854MPD2    C512596   4.275   1.750  12.385  0.6346 -0.3481  0.0241
  854MPD2     H12597   4.457   2.002  12.597 -0.0324  0.0684 -0.2294
  854MPD2    H112598   4.396   1.596  12.461 -1.0748 -0.1844  0.7819
  854MPD2    H212599   4.155   1.900  12.309 -1.6489  0.7596  0.1523
  854MPD2    H312600   4.223   1.679  12.321  0.8088 -0.6668  0.2379
  854MPD2     N12601   4.547   1.742  12.628  0.4072 -0.2748  0.0620
  854MPD2    H512602   4.582   1.648  12.613  0.8010 -0.2171  0.6777
  854MPD2    N112603   4.264   2.108  12.437 -0.0819 -0.2522 -0.2866
  854MPD2    H712604   4.185   2.117  12.374  0.1025 -0.8266 -0.6055
  855MPD2     C12605   0.183   1.956  13.563  0.3968 -0.3213  0.1768
  855MPD2    C112606   0.157   1.824  13.540 -0.7106 -0.0223  0.5154
  855MPD2    C212607   0.134   1.781  13.413  0.9507  0.3754  0.2032
  855MPD2    C312608   0.154   1.868  13.308 -0.1391 -0.3844 -0.0346
  855MPD2    C412609   0.194   1.992  13.330  0.4717 -0.4455  0.2136
  855MPD2    C512610   0.210   2.035  13.454 -0.3498 -0.1986 -0.9322
  855MPD2     H12611   0.104   1.679  13.392 -1.4420  0.8778  1.0951
  855MPD2    H112612   0.225   2.053  13.245  1.1717 -2.1731 -0.7677
  855MPD2    H212613   0.191   2.001  13.661  0.3381  1.9948 -0.8762
  855MPD2    H312614   0.234   2.140  13.462 -2.0029  0.0069  1.6734
  855MPD2     N12615   0.130   1.832  13.172  0.4591 -0.3275 -0.1700
  855MPD2    H512616   0.113   1.916  13.117 -0.4495  0.3035  1.0627
  855MPD2    N112617   0.126   1.731  13.643  0.3531  0.0118 -0.3428
  855MPD2    H712618   0.108   1.634  13.620 -1.4462 -0.2469  2.1444
  856MPD2     C12619   2.447   2.494  13.925  0.1024 -0.2907 -0.1962
  856MPD2    C112620   2.457   2.618  13.971  0.1702  0.1861  0.0097
  856MPD2    C212621   2.342   2.693  13.981 -0.4668 -0.3696 -0.1242
  856MPD2    C312622   2.217   2.638  13.950 -0.3009  0.0865 -0.3944
  856MPD2    C412623   2.212   2.507  13.914  1.4104 -0.6167 -0.7849
  856MPD2    C512624   2.327   2.435  13.896 -0.4553 -0.0020 -0.5548
  856MPD2     H12625   2.349   2.794  14.019 -1.4852  0.3368 -1.8250
  856MPD2    H112626   2.118   2.458  13.892  0.2616  1.1641  0.1565
  856MPD2    H212627   2.541   2.444  13.905  1.1389  1.7080 -0.3543
  856MPD2    H312628   2.321   2.334  13.855 -1.3808  0.3363 -1.2470
  856MPD2     N12629   2.094   2.706  13.951  0.1623 -0.2999 -0.1929
  856MPD2    H512630   2.012   2.649  13.934  0.2016 -0.5015  0.2897
  856MPD2    N112631   2.585   2.677  14.012 -0.0843  0.6721 -0.6646
  856MPD2    H712632   2.581   2.770  14.053 -1.1332  0.0515  0.6693
  857MPD2     C12633   3.842   0.041  13.034 -0.1960 -0.0198  0.4265
  857MPD2    C112634   3.869   0.110  12.917 -0.4765 -0.5120  0.8069
  857MPD2    C212635   3.895   0.248  12.922 -0.8480 -0.1029 -0.0915
  857MPD2    C312636   3.894   0.311  13.042 -0.0694  0.5769 -0.0997
  857MPD2    C412637   3.862   0.242  13.159 -0.6018 -0.7922  0.1627
  857MPD2    C512638   3.839   0.103  13.159 -0.1694  0.3191  0.1142
  857MPD2     H12639   3.914   0.305  12.832 -0.5385 -0.1365 -0.0494
  857MPD2    H112640   3.851   0.293  13.254  1.1151  4.1306 -2.2673
  857MPD2    H212641   3.835   4.669  13.034  1.8086 -0.1379  1.0608
  857MPD2    H312642   3.818   0.043  13.247  0.6084 -0.6579 -0.3706
  857MPD2     N12643   3.933   0.443  13.035 -0.2752 -0.0166  0.0500
  857MPD2    H512644   3.944   0.485  12.944  0.6255 -1.2782 -0.4356
  857MPD2    N112645   3.850   0.036  12.796 -0.1888 -0.4146 -0.1290
  857MPD2    H712646   3.809   4.682  12.820 -1.5153  0.0199 -0.7857
  858MPD2     C12647   0.075   4.195  16.433  0.0554 -0.5056  0.1310
  858MPD2    C112648   0.051   4.071  16.472 -0.2989 -0.3711 -0.0874
  858MPD2    C212649   0.025   4.058  16.608  0.2223 -0.4054  0.2132
  858MPD2    C312650   0.031   4.166  16.701 -0.9195 -0.3369  0.8685
  858MPD2    C412651   0.048   4.293  16.654 -0.2895  1.0590  0.7200
  858MPD2    C512652   0.073   4.304  16.518 -0.3713  0.1023  0.5318
  858MPD2     H12653   0.003   3.956  16.639  1.6583 -1.1592 -1.2634
  858MPD2    H112654   0.050   4.385  16.711 -1.0235  0.6367  1.4250
  858MPD2    H212655   0.077   4.220  16.327 -1.6910  2.9444  0.9058
  858MPD2    H312656   0.100   4.402  16.478 -0.4165 -0.1298 -0.0701
  858MPD2     N12657   0.024   4.147  16.842 -0.2232 -0.0346  0.1633
  858MPD2    H512658   0.021   4.225  16.907 -2.7201  0.2685 -0.3192
  858MPD2    N112659   0.041   3.973  16.376  0.2675  0.3520 -0.0002
  858MPD2    H712660   0.077   3.998  16.285 -0.4792 -2.3733 -1.0396
  859MPD2     C12661   2.809   1.314  15.225  0.1497  0.1929  0.4638
  859MPD2    C112662   2.910   1.355  15.307 -0.6442 -0.3691  0.5283
  859MPD2    C212663   2.908   1.321  15.442 -0.4723 -0.1815 -0.4008
  859MPD2    C312664   2.817   1.226  15.489 -0.3447 -0.0711  0.2175
  859MPD2    C412665   2.728   1.173  15.402  0.2415  0.7092  0.6981
  859MPD2    C512666   2.722   1.222  15.276  0.1771  0.8662  0.6285
  859MPD2     H12667   2.983   1.364  15.507 -0.4646  0.2664 -0.7063
  859MPD2    H112668   2.661   1.092  15.432  1.3860 -0.0790  1.1170
  859MPD2    H212669   2.794   1.353  15.125 -2.7198  1.4048  1.3440
  859MPD2    H312670   2.633   1.196  15.220  1.3575  1.2182 -1.3938
  859MPD2     N12671   2.811   1.184  15.618  0.0041  0.9129 -0.5663
  859MPD2    H512672   2.777   1.091  15.641 -0.7968  1.0263 -1.2767
  859MPD2    N112673   3.002   1.451  15.250 -0.6479  0.0271 -0.1691
  859MPD2    H712674   2.988   1.480  15.154  2.3293 -0.0149 -0.5988
  860MPD2     C12675   1.096   1.910  11.435  0.5620 -0.4984  0.6086
  860MPD2    C112676   1.096   1.842  11.557  0.5197  0.2141  0.4697
  860MPD2    C212677   0.980   1.839  11.631  0.3454 -0.4134 -0.2608
  860MPD2    C312678   0.870   1.903  11.576 -0.2254 -0.8373  0.2502
  860MPD2    C412679   0.872   1.977  11.466  0.1292 -0.0285 -1.1930
  860MPD2    C512680   0.988   1.980  11.394 -0.1360  0.6189  0.3854
  860MPD2     H12681   0.971   1.801  11.732  2.7973  1.6790  0.7276
  860MPD2    H112682   0.795   2.035  11.416 -1.2403  1.3877  2.5608
  860MPD2    H212683   1.191   1.924  11.386 -0.4281  0.4399 -1.0272
  860MPD2    H312684   0.988   2.023  11.294 -0.1425 -0.2387  0.0139
  860MPD2     N12685   0.745   1.899  11.646  0.1023 -0.1541  0.5845
  860MPD2    H512686   0.747   1.865  11.742 -2.9016 -0.3218  0.5880
  860MPD2    N112687   1.213   1.786  11.617 -0.0249 -0.3929  0.3365
  860MPD2    H712688   1.208   1.745  11.710  0.6299  0.5001  0.7711
  861MPD2     C12689   4.435   4.268  10.845 -0.3984  0.2849  0.0314
  861MPD2    C112690   4.427   4.404  10.872 -0.0471 -0.5049  0.5292
  861MPD2    C212691   4.369   4.490  10.775 -0.4202 -0.1531  1.0070
  861MPD2    C312692   4.324   4.439  10.652  0.0841  0.5849 -0.2481
  861MPD2    C412693   4.322   4.307  10.631 -0.7487 -0.3883 -0.1781
  861MPD2    C512694   4.374   4.224  10.727 -0.4733  0.6490 -0.0787
  861MPD2     H12695   4.367   4.598  10.787 -4.1904  0.0198 -1.0326
  861MPD2    H112696   4.280   4.265  10.540  1.8924 -0.8729 -1.1713
  861MPD2    H212697   4.473   4.189  10.908  2.5442  0.9363 -0.8982
  861MPD2    H312698   4.379   4.118  10.708  0.6675  0.4440  1.3363
  861MPD2     N12699   4.257   4.519  10.560 -0.0849 -0.5359  0.1522
  861MPD2    H512700   4.213   4.462  10.489 -2.0786  1.0875  0.0973
  861MPD2    N112701   4.458   4.450  11.008  0.1041  0.3502 -0.3918
  861MPD2    H712702   4.418   4.541  11.030  1.0078  0.9064 -1.0378
  862MPD2     C12703   3.694   4.389  10.140 -0.1347 -1.0062  0.3930
  862MPD2    C112704   3.770   4.359  10.249 -0.2999 -0.6239 -0.0754
  862MPD2    C212705   3.775   4.227  10.283 -0.7098  0.8060 -0.3046
  862MPD2    C312706   3.689   4.132  10.233  0.1827  0.4588  1.3650
  862MPD2    C412707   3.610   4.161  10.124 -0.1931  0.1290  0.1663
  862MPD2    C512708   3.615   4.293  10.075  0.1446 -0.6546 -0.5526
  862MPD2     H12709   3.845   4.198  10.361  1.3027  1.6521 -1.8216
  862MPD2    H112710   3.543   4.094  10.071 -0.7671 -0.5909  1.7917
  862MPD2    H212711   3.695   4.489  10.097  0.9807 -1.3870 -0.4687
  862MPD2    H312712   3.549   4.313   9.991 -1.3486 -0.7396  0.5905
  862MPD2     N12713   3.675   4.013  10.297 -0.2686  0.4434  0.5656
  862MPD2    H512714   3.611   3.947  10.253  0.5626  0.3591 -0.5291
  862MPD2    N112715   3.851   4.452  10.319 -0.5069  0.3954 -1.0735
  862MPD2    H712716   3.917   4.420  10.388 -1.4235  0.2694 -0.2571
  863MPD2     C12717   2.933   2.580  16.760  0.3135  0.3386  0.0512
  863MPD2    C112718   2.905   2.707  16.817 -0.1696  0.1518  1.0961
  863MPD2    C212719   2.987   2.754  16.914  0.3951 -0.3005  0.6584
  863MPD2    C312720   3.080   2.670  16.975  0.2368 -0.3312 -0.2516
  863MPD2    C412721   3.085   2.534  16.935  0.0764 -0.1499  1.0186
  863MPD2    C512722   3.015   2.494  16.833  0.1773  0.0197 -0.1078
  863MPD2     H12723   2.977   2.856  16.949  1.1377 -0.0867  0.2560
  863MPD2    H112724   3.151   2.461  16.981  1.4318 -0.2319 -1.0469
  863MPD2    H212725   2.872   2.544  16.678  1.5017 -0.0858 -0.6449
  863MPD2    H312726   3.032   2.391  16.806 -0.5813 -0.0111 -0.4681
  863MPD2     N12727   3.165   2.706  17.083 -0.1063 -0.3350 -0.2847
  863MPD2    H512728   3.208   2.627  17.131  2.8932  0.2176 -2.1536
  863MPD2    N112729   2.810   2.787  16.750 -0.3504  0.0124 -0.3029
  863MPD2    H712730   2.753   2.740  16.681 -1.9733 -1.1236  1.8177
  864MPD2     C12731   3.423   3.873  17.351  0.1712  0.1784  0.0405
  864MPD2    C112732   3.533   3.815  17.288  0.5357  0.5139  0.5707
  864MPD2    C212733   3.589   3.880  17.181  0.4413  0.1534  0.1607
  864MPD2    C312734   3.540   4.008  17.141 -1.0599 -0.2122  0.0395
  864MPD2    C412735   3.433   4.068  17.205 -0.1631 -0.4606  0.4651
  864MPD2    C512736   3.378   4.000  17.312 -0.5420 -0.1107 -0.2861
  864MPD2     H12737   3.680   3.843  17.135 -1.4190 -1.1553 -2.4963
  864MPD2    H112738   3.382   4.157  17.171  1.7315  0.2772 -0.4504
  864MPD2    H212739   3.379   3.818  17.434 -2.2209  1.2187 -0.5586
  864MPD2    H312740   3.286   4.033  17.359 -0.4319  0.9621 -0.8114
  864MPD2     N12741   3.583   4.067  17.026 -0.0545  0.4394  0.5897
  864MPD2    H512742   3.554   4.163  17.011 -0.5318 -0.1391 -2.1331
  864MPD2    N112743   3.562   3.681  17.329 -0.1562  0.2047  0.1350
  864MPD2    H712744   3.495   3.629  17.385  1.2570 -1.3087  0.4509
  865MPD2     C12745   3.626   4.261  16.183 -0.1020 -0.1478  0.1304
  865MPD2    C112746   3.609   4.181  16.294  0.1277 -0.0025 -0.3150
  865MPD2    C212747   3.585   4.241  16.414 -0.2773  0.9008 -0.1192
  865MPD2    C312748   3.571   4.379  16.426 -1.0057 -0.0657 -0.7280
  865MPD2    C412749   3.568   4.452  16.308 -0.1773  0.3352 -0.3540
  865MPD2    C512750   3.604   4.395  16.186 -0.6499  0.1790  0.2244
  865MPD2     H12751   3.572   4.182  16.504  1.2130  1.2211  0.3122
  865MPD2    H112752   3.548   4.558  16.318  0.2148  0.2201  1.7446
  865MPD2    H212753   3.659   4.206  16.096  0.8799  0.3857  0.1619
  865MPD2    H312754   3.608   4.448  16.091 -1.8676  1.6392  0.9834
  865MPD2     N12755   3.539   4.452  16.545  0.3639 -0.2402 -0.1333
  865MPD2    H512756   3.500   4.546  16.538 -0.6862 -0.6738 -0.1223
  865MPD2    N112757   3.623   4.045  16.279  0.1794  0.0866 -0.9278
  865MPD2    H712758   3.637   3.998  16.190 -1.2248 -2.7699  0.3517
  866MPD2     C12759   0.391   0.469  10.958 -0.0144  0.8579  0.2705
  866MPD2    C112760   0.366   0.335  10.958 -0.4114  0.3990 -0.4873
  866MPD2    C212761   0.231   0.290  10.960  0.5826  0.1051  0.1402
  866MPD2    C312762   0.129   0.382  10.953  0.3395 -0.0947 -0.6473
  866MPD2    C412763   0.159   0.519  10.952  0.1660  0.5129 -0.0808
  866MPD2    C512764   0.289   0.560  10.966  0.5099  0.4920  0.6330
  866MPD2     H12765   0.218   0.183  10.954  1.7029 -0.1438  2.3565
  866MPD2    H112766   0.081   0.595  10.950  0.5231  0.8575 -0.9113
  866MPD2    H212767   0.491   0.507  10.938  0.0037  1.6723  1.9118
  866MPD2    H312768   0.318   0.664  10.975  0.8443  0.5909 -1.5271
  866MPD2     N12769   4.725   0.348  10.953  0.0330 -0.0207  0.1469
  866MPD2    H512770   4.670   0.431  10.931  1.5338  1.7055  2.8642
  866MPD2    N112771   0.476   0.248  10.961  0.4189  0.5948  0.2501
  866MPD2    H712772   0.566   0.295  10.959  1.8284 -2.0910  0.1769
  867MPD2     C12773   1.999   3.884  16.806 -0.0196  0.0164 -0.6992
  867MPD2    C112774   2.103   3.902  16.892  0.1306  0.6948  0.1525
  867MPD2    C212775   2.107   4.017  16.968 -0.5390 -1.0374 -0.2478
  867MPD2    C312776   1.996   4.104  16.963 -0.3046  0.0805 -0.0926
  867MPD2    C412777   1.897   4.089  16.870  0.1541  0.1702  0.3681
  867MPD2    C512778   1.898   3.977  16.791  0.4004  0.1564 -0.5818
  867MPD2     H12779   2.188   4.031  17.039 -0.7688 -0.9177 -0.0096
  867MPD2    H112780   1.832   4.175  16.856 -0.4428 -0.2065  0.8452
  867MPD2    H212781   2.000   3.801  16.736 -2.5611 -0.6404  0.0671
  867MPD2    H312782   1.819   3.957  16.720  1.3355  2.2590 -2.2327
  867MPD2     N12783   1.979   4.215  17.048 -0.4460  0.1736  0.1506
  867MPD2    H512784   1.900   4.276  17.028 -0.7258 -0.2606 -0.0739
  867MPD2    N112785   2.204   3.811  16.894  0.1632 -0.9083 -0.1876
  867MPD2    H712786   2.200   3.735  16.826 -0.2511 -0.5030 -0.6141
  868MPD2     C12787   4.442   3.575  13.161  0.6293  0.6340 -0.2210
  868MPD2    C112788   4.434   3.482  13.266  0.0105  0.6689  0.4181
  868MPD2    C212789   4.318   3.480  13.346  0.2993 -0.1699  0.1392
  868MPD2    C312790   4.219   3.574  13.322  0.3967 -0.7892  0.0817
  868MPD2    C412791   4.230   3.666  13.219  0.4754  0.1488  0.1869
  868MPD2    C512792   4.341   3.674  13.143 -0.1015  0.4043 -0.2835
  868MPD2     H12793   4.310   3.402  13.421 -1.5847 -0.3672 -0.2655
  868MPD2    H112794   4.148   3.734  13.200  1.6658  1.6791  0.5004
  868MPD2    H212795   4.533   3.573  13.102 -0.4208 -3.5349 -1.6809
  868MPD2    H312796   4.339   3.729  13.050 -0.9032 -0.0947 -0.5619
  868MPD2     N12797   4.100   3.556  13.403 -0.0378 -0.3869  0.0186
  868MPD2    H512798   4.097   3.477  13.467  1.3565  0.4651  1.1388
  868MPD2    N112799   4.545   3.393  13.283  0.0963 -0.7763  0.4799
  868MPD2    H712800   4.598   3.391  13.197  0.0943  0.5314  0.4416
  869MPD2     C12801   0.272   0.955   0.777  0.3799 -0.4595  0.1529
  869MPD2    C112802   0.228   1.001   0.654 -0.0745  0.4087  0.3231
  869MPD2    C212803   0.254   1.129   0.613 -0.2052 -0.8665  0.6410
  869MPD2    C312804   0.340   1.210   0.681 -0.5840  0.5527 -0.2549
  869MPD2    C412805   0.376   1.166   0.809 -0.2638 -0.7439 -0.2555
  869MPD2    C512806   0.337   1.043   0.852 -0.3257  0.0536 -0.4485
  869MPD2     H12807   0.203   1.161   0.523 -2.2070  0.9776  2.4337
  869MPD2    H112808   0.432   1.226   0.880 -2.5375 -0.2369  1.0865
  869MPD2    H212809   0.250   0.855   0.812  0.3145 -1.5119 -2.8904
  869MPD2    H312810   0.371   1.016   0.951 -1.1908 -1.7498 -0.6328
  869MPD2     N12811   0.385   1.335   0.630 -0.5659 -0.5204 -0.5116
  869MPD2    H512812   0.423   1.392   0.706 -2.8613 -0.8508  0.8860
  869MPD2    N112813   0.148   0.913   0.582  0.0332  0.2529 -0.8712
  869MPD2    H712814   0.117   0.828   0.627 -0.0662  0.1520 -1.1295
  870MPD2     C12815   0.707   0.393   1.901 -0.4790  0.4114  0.2210
  870MPD2    C112816   0.650   0.289   1.835 -0.2224 -0.5511  0.0636
  870MPD2    C212817   0.531   0.322   1.778 -0.4370 -0.0490 -0.3597
  870MPD2    C312818   0.468   0.447   1.790 -0.6376 -0.2463  0.3601
  870MPD2    C412819   0.526   0.549   1.864 -0.1439  0.2717 -0.5731
  870MPD2    C512820   0.648   0.520   1.913 -0.0195  0.5368 -0.6193
  870MPD2     H12821   0.483   0.240   1.726  0.6955 -0.5013 -0.6905
  870MPD2    H112822   0.492   0.652   1.871  1.3124  0.8050 -1.3835
  870MPD2    H212823   0.807   0.392   1.941 -0.7500 -1.4832  0.8241
  870MPD2    H312824   0.706   0.594   1.967 -1.0114  0.2951  0.7728
  870MPD2     N12825   0.346   0.462   1.723 -0.6442  0.0055  0.8202
  870MPD2    H512826   0.303   0.379   1.683 -1.3537  1.8990 -2.3103
  870MPD2    N112827   0.723   0.169   1.821  0.5956  0.3434  0.1677
  870MPD2    H712828   0.816   0.177   1.860  0.0048 -0.1604  1.7106
  871MPD2     C12829   1.142   0.048  16.412 -0.5790 -0.0360  0.3205
  871MPD2    C112830   1.168   4.690  16.509 -0.3612 -0.4993 -0.4375
  871MPD2    C212831   1.202   4.563  16.471  0.2255  0.1793  0.2591
  871MPD2    C312832   1.203   4.526  16.335  0.4189 -0.3585 -0.5412
  871MPD2    C412833   1.164   4.619  16.237 -0.3358  0.4966  0.2392
  871MPD2    C512834   1.136   0.014  16.277  0.0823  0.5370 -1.0106
  871MPD2     H12835   1.238   4.501  16.552 -0.6401  0.7185  1.0486
  871MPD2    H112836   1.169   4.601  16.130  0.6067  2.3442 -0.0261
  871MPD2    H212837   1.110   0.146  16.446  0.2526  0.0998  0.7147
  871MPD2    H312838   1.106   0.092  16.208 -1.2665  0.2742 -0.7397
  871MPD2     N12839   1.222   4.388  16.306  0.4671 -0.0853  0.2463
  871MPD2    H512840   1.237   4.315  16.375 -0.7696  0.0495  0.6617
  871MPD2    N112841   1.163   4.734  16.641 -0.5859 -0.5990 -0.0520
  871MPD2    H712842   1.182   0.097  16.658  0.5247 -0.4381 -2.2565
  872MPD2     C12843   2.050   2.118  14.043 -0.4306 -0.5372 -0.2928
  872MPD2    C112844   1.974   2.110  13.930 -0.3337  0.8102  0.4192
  872MPD2    C212845   1.842   2.141  13.942  0.6476 -0.3856  0.0407
  872MPD2    C312846   1.783   2.181  14.056  0.6156 -0.0613 -0.4060
  872MPD2    C412847   1.859   2.200  14.166  0.3588 -0.2643  0.8699
  872MPD2    C512848   1.992   2.165  14.158 -0.2115  0.5965  0.1799
  872MPD2     H12849   1.782   2.142  13.852  4.2062  2.4062 -2.3234
  872MPD2    H112850   1.816   2.239  14.257 -0.1088  0.7889  0.2082
  872MPD2    H212851   2.154   2.087  14.048  0.2649  1.8629 -0.1811
  872MPD2    H312852   2.060   2.184  14.240 -0.1521  0.4785  0.1581
  872MPD2     N12853   1.647   2.196  14.084 -0.4632 -0.0090 -0.1380
  872MPD2    H512854   1.625   2.248  14.168 -0.2997  0.0417 -0.1267
  872MPD2    N112855   2.028   2.076  13.805  0.1479 -0.1112  0.3470
  872MPD2    H712856   1.967   2.093  13.726 -1.1313 -1.5153  1.0378
  873MPD2     C12857   4.389   1.953   1.002  0.2540 -0.3248 -0.5659
  873MPD2    C112858   4.260   1.988   1.031 -0.5950  0.4973  0.0125
  873MPD2    C212859   4.165   1.887   1.028  1.2616 -0.1662  0.0373
  873MPD2    C312860   4.194   1.756   0.997 -0.3165  0.2114  0.6763
  873MPD2    C412861   4.323   1.724   0.951  0.1817 -0.4307 -0.3523
  873MPD2    C512862   4.421   1.823   0.959 -0.3304 -0.2413  0.2149
  873MPD2     H12863   4.067   1.918   1.062  1.6313  1.9622 -0.8694
  873MPD2    H112864   4.350   1.625   0.918 -0.4161 -0.2914 -1.2479
  873MPD2    H212865   4.471   2.024   1.002 -0.3645  0.3930  0.0188
  873MPD2    H312866   4.526   1.799   0.943 -0.1187  1.8006 -1.4725
  873MPD2     N12867   4.100   1.650   1.010 -0.0797 -0.1210  0.5973
  873MPD2    H512868   4.108   1.565   0.955 -1.8330  0.3365 -0.3584
  873MPD2    N112869   4.232   2.116   1.070 -0.4023  0.0035 -0.0096
  873MPD2    H712870   4.312   2.178   1.081 -1.0332  0.3986  2.4487
  874MPD2     C12871   3.480   2.013  16.098 -0.4171  0.2266  0.2025
  874MPD2    C112872   3.550   1.974  16.215 -0.4235  0.3808 -0.1729
  874MPD2    C212873   3.670   2.051  16.241  0.2695 -0.1377  0.3450
  874MPD2    C312874   3.708   2.153  16.159  0.3731  0.2925 -0.2467
  874MPD2    C412875   3.637   2.178  16.035 -0.4500 -0.4991  0.5025
  874MPD2    C512876   3.528   2.106  16.004 -0.5592  0.1273  0.0485
  874MPD2     H12877   3.740   2.035  16.322  0.9275 -1.3776 -0.4820
  874MPD2    H112878   3.676   2.246  15.961 -0.7178 -0.3026  0.5403
  874MPD2    H212879   3.398   1.946  16.078  0.3355 -1.2408  1.9883
  874MPD2    H312880   3.470   2.141  15.919 -1.4938 -0.3244  0.5055
  874MPD2     N12881   3.826   2.218  16.194 -0.0329 -0.6062  0.2227
  874MPD2    H512882   3.882   2.182  16.270 -0.9935 -1.5402  0.4917
  874MPD2    N112883   3.501   1.875  16.302 -0.2021  0.0434  0.2675
  874MPD2    H712884   3.417   1.834  16.260 -0.5717  1.1625 -0.0822
  875MPD2     C12885   4.571   0.430  14.544 -0.0983  1.1082  0.4910
  875MPD2    C112886   4.455   0.427  14.616  1.0344 -0.2294 -0.3683
  875MPD2    C212887   4.459   0.452  14.754 -0.2123  0.3089 -0.3126
  875MPD2    C312888   4.577   0.487  14.815 -0.1578  0.5523  0.3824
  875MPD2    C412889   4.689   0.502  14.738 -0.1682  0.7717 -0.3046
  875MPD2    C512890   4.687   0.456  14.612  0.7187 -0.1249  0.0387
  875MPD2     H12891   4.366   0.454  14.809 -0.0303 -1.0205  0.0384
  875MPD2    H112892   0.053   0.519  14.778 -0.1672 -0.7047  0.2982
  875MPD2    H212893   4.569   0.422  14.436  1.3051  1.7516  0.4140
  875MPD2    H312894   0.047   0.460  14.561  2.0156 -0.2981  2.4578
  875MPD2     N12895   4.592   0.503  14.961 -0.3956  0.2473 -1.0062
  875MPD2    H512896   4.685   0.517  14.998 -0.0252  1.0056 -2.2154
  875MPD2    N112897   4.335   0.400  14.553  0.4949  0.8185 -0.1254
  875MPD2    H712898   4.250   0.414  14.606 -0.3606  0.6045 -1.4199
  876MPD2     C12899   3.369   1.658  15.938  0.1810  0.1381  0.3015
  876MPD2    C112900   3.508   1.672  15.936  0.5680 -0.1353  0.4461
  876MPD2    C212901   3.574   1.583  16.025  0.0625  0.3415  0.4868
  876MPD2    C312902   3.511   1.488  16.107 -0.1228 -0.4656  0.1342
  876MPD2    C412903   3.374   1.498  16.110  0.1887  0.3401  0.6958
  876MPD2    C512904   3.306   1.566  16.018 -0.0558 -0.1918 -0.0982
  876MPD2     H12905   3.683   1.586  16.019  0.0941 -2.7916 -0.5128
  876MPD2    H112906   3.313   1.428  16.166  0.4332 -1.2655 -1.0577
  876MPD2    H212907   3.308   1.718  15.872  0.7798  1.3036  0.8049
  876MPD2    H312908   3.198   1.560  16.017 -0.1183  0.9329 -0.1655
  876MPD2     N12909   3.580   1.383  16.173  0.2283 -0.5299  0.2177
  876MPD2    H512910   3.680   1.386  16.161  0.2500 -3.5429 -0.1947
  876MPD2    N112911   3.573   1.757  15.837 -0.4496 -0.2733 -0.3092
  876MPD2    H712912   3.504   1.796  15.773 -2.1314 -1.2546  0.9188
  877MPD2     C12913   3.382   2.140  15.203  0.2955 -0.2734  0.5042
  877MPD2    C112914   3.516   2.174  15.216  0.0676  0.3449 -0.0964
  877MPD2    C212915   3.590   2.227  15.110 -0.8972 -0.3708 -1.0002
  877MPD2    C312916   3.519   2.256  14.994 -0.3049 -0.6096 -0.5652
  877MPD2    C412917   3.382   2.253  14.986  0.5411 -0.7963  0.8463
  877MPD2    C512918   3.318   2.190  15.090  0.8139  0.1640 -0.5690
  877MPD2     H12919   3.698   2.238  15.118 -1.2142  1.0049  1.4468
  877MPD2    H112920   3.317   2.266  14.900  2.1280 -0.2877 -0.2651
  877MPD2    H212921   3.319   2.090  15.276 -0.4753 -0.8864 -0.5728
  877MPD2    H312922   3.210   2.190  15.099  0.7440  0.5420 -1.4157
  877MPD2     N12923   3.589   2.284  14.871 -0.2625 -0.1778 -0.0097
  877MPD2    H512924   3.533   2.272  14.787 -0.9369  0.0248  0.4063
  877MPD2    N112925   3.590   2.137  15.337 -0.2015  0.1562 -0.3917
  877MPD2    H712926   3.688   2.163  15.341 -0.0205 -0.4971 -0.5637
  878MPD2     C12927   2.686   1.434  13.379 -0.4092  0.2408  1.3057
  878MPD2    C112928   2.748   1.554  13.370 -0.3410  0.6575 -0.4129
  878MPD2    C212929   2.778   1.622  13.486  0.3136  0.1021  0.0089
  878MPD2    C312930   2.761   1.567  13.609  0.3581  0.2084  0.1907
  878MPD2    C412931   2.701   1.444  13.623  0.2297  0.8086  0.7679
  878MPD2    C512932   2.668   1.382  13.502 -0.3450  0.5155  0.0182
  878MPD2     H12933   2.822   1.721  13.479  1.2465 -0.4294 -1.8102
  878MPD2    H112934   2.668   1.392  13.712  0.1760 -1.4326 -0.5615
  878MPD2    H212935   2.656   1.383  13.288  0.2508  0.6342  0.8627
  878MPD2    H312936   2.617   1.287  13.503  2.9873 -1.2729 -2.1146
  878MPD2     N12937   2.797   1.637  13.723 -0.1199 -0.3448  0.1871
  878MPD2    H512938   2.835   1.729  13.707 -0.0542 -0.5699 -0.9530
  878MPD2    N112939   2.772   1.606  13.240 -0.4510  0.0304  0.2857
  878MPD2    H712940   2.733   1.552  13.163  0.0622  1.7839 -1.1928
  879MPD2     C12941   3.555   2.895  16.969 -0.2261 -0.5529 -0.5394
  879MPD2    C112942   3.628   2.782  17.009 -0.3854  0.2641  0.3538
  879MPD2    C212943   3.601   2.660  16.956 -0.8067  0.8615 -0.4826
  879MPD2    C312944   3.488   2.646  16.869  0.2310 -0.5692 -0.4096
  879MPD2    C412945   3.412   2.757  16.834 -1.0779 -0.1720  0.7223
  879MPD2    C512946   3.444   2.872  16.893  0.1548 -0.1965 -0.2455
  879MPD2     H12947   3.663   2.576  16.983 -2.4049 -0.1197  0.1569
  879MPD2    H112948   3.338   2.750  16.754 -0.4092 -0.2636  0.1135
  879MPD2    H212949   3.579   2.990  17.015  0.3541 -0.7325 -0.4817
  879MPD2    H312950   3.389   2.962  16.868  0.6698  0.9210  2.6679
  879MPD2     N12951   3.460   2.530  16.792  0.5328  0.0718  0.5318
  879MPD2    H512952   3.390   2.532  16.718  1.0378  0.3214  0.0572
  879MPD2    N112953   3.737   2.810  17.105 -0.0176  0.2856  0.3110
  879MPD2    H712954   3.764   2.906  17.123  1.5775 -0.4925  2.1634
  880MPD2     C12955   0.116   4.316   0.232 -0.2683 -0.6331 -0.4810
  880MPD2    C112956   0.174   4.357   0.352 -0.1125 -0.4023 -0.4870
  880MPD2    C212957   0.239   4.262   0.431 -0.3923 -0.1919 -0.0798
  880MPD2    C312958   0.261   4.135   0.387 -0.4701  0.3642  0.2858
  880MPD2    C412959   0.214   4.094   0.270 -0.8349 -0.4836 -0.1810
  880MPD2    C512960   0.134   4.181   0.195  0.0350 -0.0509  0.0612
  880MPD2     H12961   0.284   4.296   0.523 -0.8259  1.5539 -0.5231
  880MPD2    H112962   0.212   3.991   0.236 -2.4003 -0.9799  1.4417
  880MPD2    H212963   0.046   4.376   0.176  0.8940 -0.2061 -1.4976
  880MPD2    H312964   0.073   4.147   0.112 -1.4092  0.2675  0.9890
  880MPD2     N12965   0.335   4.046   0.468 -0.1524 -0.6083  0.9563
  880MPD2    H512966   0.368   4.087   0.555  1.3742  0.3494 -0.0547
  880MPD2    N112967   0.160   4.487   0.404 -0.2685 -0.2359  0.5130
  880MPD2    H712968   0.117   4.545   0.332 -0.0608 -0.6336  0.0748
  881MPD2     C12969   0.453   0.717   0.333 -0.0835 -0.3253 -0.3243
  881MPD2    C112970   0.440   0.612   0.248 -0.1562  0.3455 -0.0869
  881MPD2    C212971   0.386   0.498   0.305  0.3873 -0.3226  0.0274
  881MPD2    C312972   0.372   0.478   0.436  0.3276 -0.1975  0.5141
  881MPD2    C412973   0.402   0.584   0.523 -0.8959  0.0320 -0.4997
  881MPD2    C512974   0.445   0.702   0.465 -0.7660  0.4652 -0.7347
  881MPD2     H12975   0.361   0.412   0.243  0.4972 -0.5131  0.2458
  881MPD2    H112976   0.394   0.574   0.631  0.3530  0.2874 -0.3873
  881MPD2    H212977   0.478   0.815   0.292 -1.2277 -0.8139 -2.2131
  881MPD2    H312978   0.448   0.797   0.518 -0.9718  1.0859 -1.8203
  881MPD2     N12979   0.329   0.360   0.496  0.3072  0.5206  0.3413
  881MPD2    H512980   0.315   0.364   0.596  1.1723 -1.7210  0.5623
  881MPD2    N112981   0.432   0.639   0.111  0.5961 -1.0074 -0.1652
  881MPD2    H712982   0.384   0.566   0.060  0.7610 -0.1988 -1.4505
  882MPD2     C12983   3.519   1.836  14.421 -0.8833  0.5746  0.8996
  882MPD2    C112984   3.452   1.958  14.430 -0.4641 -0.3102 -0.2527
  882MPD2    C212985   3.316   1.973  14.467  0.0710  0.1613 -0.2811
  882MPD2    C312986   3.245   1.854  14.496 -0.1498  0.3573  0.5811
  882MPD2    C412987   3.308   1.731  14.491 -0.2606 -0.8198  0.0013
  882MPD2    C512988   3.444   1.725  14.447 -0.4224 -0.1879 -0.5659
  882MPD2     H12989   3.280   2.075  14.477 -1.3521 -0.4550  1.0678
  882MPD2    H112990   3.258   1.638  14.517 -0.3659 -0.2245  1.9130
  882MPD2    H212991   3.617   1.824  14.377 -1.5864  1.0084 -0.7865
  882MPD2    H312992   3.482   1.626  14.425 -0.6479 -0.5266  0.5456
  882MPD2     N12993   3.111   1.855  14.528  0.0920 -0.6672  0.3742
  882MPD2    H512994   3.069   1.768  14.559 -1.8466 -0.0182 -0.3866
  882MPD2    N112995   3.530   2.073  14.411 -0.1072  0.3722 -0.0056
  882MPD2    H712996   3.629   2.051  14.408 -0.0918  0.6573 -1.6352
  883MPD2     C12997   0.532   2.123  16.198  0.7048  0.2458 -0.0804
  883MPD2    C112998   0.547   2.243  16.139 -0.2143 -0.8190 -0.3697
  883MPD2    C212999   0.663   2.324  16.167  0.4590 -0.4777 -0.1898
  883MPD2    C313000   0.759   2.292  16.257  0.8109  0.0067 -0.3684
  883MPD2    C413001   0.745   2.160  16.307 -0.0395  0.5698 -0.0973
  883MPD2    C513002   0.635   2.077  16.280 -0.4528 -0.4424 -0.3030
  883MPD2     H13003   0.682   2.420  16.119 -0.1378  0.3498  1.2358
  883MPD2    H113004   0.833   2.121  16.357  0.2025  2.9320  1.3317
  883MPD2    H213005   0.452   2.055  16.170  0.4218  0.8510 -0.7339
  883MPD2    H313006   0.630   1.973  16.311 -1.7935 -0.7292 -1.5111
  883MPD2     N13007   0.877   2.366  16.256 -0.7161  0.2225 -0.4421
  883MPD2    H513008   0.890   2.439  16.187  2.8722  0.8129  0.8452
  883MPD2    N113009   0.457   2.290  16.039 -0.0294 -0.1541  0.3372
  883MPD2    H713010   0.480   2.379  15.997  2.1722 -0.1299  1.6268
  884MPD2     C13011   2.590   2.873  14.766 -0.7066  0.0445 -0.3418
  884MPD2    C113012   2.631   3.005  14.787  0.7801  0.3761  0.7004
  884MPD2    C213013   2.531   3.095  14.818  0.3481  0.0036 -0.1566
  884MPD2    C313014   2.397   3.059  14.829  0.3613  0.0611 -0.5023
  884MPD2    C413015   2.362   2.927  14.824 -0.1340 -0.0245 -0.0961
  884MPD2    C513016   2.456   2.837  14.788  0.0150  0.4285 -0.5815
  884MPD2     H13017   2.571   3.195  14.832 -0.1892  0.0170  1.3373
  884MPD2    H113018   2.263   2.885  14.841 -0.3636  0.2723 -0.6904
  884MPD2    H213019   2.661   2.794  14.744  1.4096  1.3525  1.7349
  884MPD2    H313020   2.427   2.732  14.785  1.1619  0.1118 -0.6750
  884MPD2     N13021   2.304   3.161  14.861 -0.0419 -0.0266 -0.5964
  884MPD2    H513022   2.343   3.254  14.851 -0.5775  0.3037  0.4494
  884MPD2    N113023   2.768   3.051  14.772  0.2336 -0.0860 -0.3552
  884MPD2    H713024   2.775   3.148  14.800 -2.2587 -0.5853  1.9674
  885MPD2     C13025   0.748   3.225   0.430  0.1276  0.1540  0.7784
  885MPD2    C113026   0.873   3.193   0.392  0.0872 -0.5731 -0.0964
  885MPD2    C213027   0.903   3.189   0.254 -0.2807  0.1703  0.0265
  885MPD2    C313028   0.800   3.210   0.163 -0.7702  0.5949  0.2899
  885MPD2    C413029   0.670   3.234   0.203 -0.4413  0.0570 -0.4400
  885MPD2    C513030   0.650   3.253   0.341  1.1375  0.5069  0.4222
  885MPD2     H13031   1.008   3.179   0.227 -0.7588 -2.5655 -0.9273
  885MPD2    H113032   0.584   3.246   0.138 -1.6720 -1.8819  0.8152
  885MPD2    H213033   0.724   3.250   0.532  0.4051  0.9667  0.6439
  885MPD2    H313034   0.547   3.278   0.366  0.5127 -1.5145 -0.1043
  885MPD2     N13035   0.816   3.202   0.021  0.0773 -0.0995 -0.1115
  885MPD2    H513036   0.909   3.180  17.728  0.7587  2.9770 -0.2297
  885MPD2    N113037   0.966   3.175   0.493  0.3324  0.3538 -0.0336
  885MPD2    H713038   0.937   3.174   0.590 -0.9122  3.4536 -0.3705
  886MPD2     C13039   1.931   1.532  15.396  0.2468 -0.6630 -0.1856
  886MPD2    C113040   2.071   1.547  15.399 -0.6725  0.5543  0.0051
  886MPD2    C213041   2.120   1.649  15.323 -0.0193 -0.5898 -0.3674
  886MPD2    C313042   2.048   1.732  15.239 -0.1507  0.7500 -0.6431
  886MPD2    C413043   1.917   1.723  15.247  0.8175 -0.1447  0.1290
  886MPD2    C513044   1.858   1.635  15.335 -1.0635 -0.2358  0.0076
  886MPD2     H13045   2.226   1.674  15.324  0.1761 -1.3823 -0.8680
  886MPD2    H113046   1.845   1.783  15.193 -0.1710 -0.6079  0.9166
  886MPD2    H213047   1.877   1.474  15.471  1.1293 -0.9932  0.1863
  886MPD2    H313048   1.750   1.630  15.343 -0.9186 -0.6406  1.6498
  886MPD2     N13049   2.115   1.830  15.161 -0.6005 -0.1595 -0.1781
  886MPD2    H513050   2.216   1.842  15.172 -0.8954  2.1444  0.0691
  886MPD2    N113051   2.155   1.485  15.487 -0.1191 -0.2967  0.0268
  886MPD2    H713052   2.253   1.512  15.483  0.2435 -1.4058  1.4048
  887MPD2     C13053   2.594   1.749  15.963  0.1219  0.6746  0.1458
  887MPD2    C113054   2.546   1.727  15.837 -0.0229 -0.4118  0.7828
  887MPD2    C213055   2.577   1.813  15.730 -0.0942  0.9548  1.0065
  887MPD2    C313056   2.665   1.919  15.760  0.0695  0.3580  0.0501
  887MPD2    C413057   2.691   1.945  15.896  0.3547  0.2553 -0.3887
  887MPD2    C513058   2.663   1.857  15.997 -0.0509  0.0284  0.1225
  887MPD2     H13059   2.554   1.784  15.628  0.4733 -0.1895  1.2024
  887MPD2    H113060   2.728   2.043  15.924 -0.9915  0.6658 -0.0485
  887MPD2    H213061   2.560   1.685  16.044 -0.9126 -2.5032 -2.8226
  887MPD2    H313062   2.685   1.891  16.097  2.8081 -1.4098 -0.0015
  887MPD2     N13063   2.727   2.004  15.665  0.2803 -0.2614 -0.5326
  887MPD2    H513064   2.782   2.085  15.692 -0.1027 -0.3282  0.4347
  887MPD2    N113065   2.482   1.605  15.802  0.0455 -0.5766  0.0923
  887MPD2    H713066   2.446   1.601  15.707 -0.5006  2.2076  0.1882
  888MPD2     C13067   4.499   1.496  14.871  0.0591 -0.2346 -0.8911
  888MPD2    C113068   4.520   1.522  15.005 -0.2001  0.6417  0.7836
  888MPD2    C213069   4.584   1.644  15.042  0.1361  0.1663 -0.5011
  888MPD2    C313070   4.653   1.721  14.948 -0.5001  0.7396 -0.4208
  888MPD2    C413071   4.647   1.672  14.818  0.1551 -0.5179  0.1632
  888MPD2    C513072   4.565   1.568  14.783  0.5118  0.4511 -0.1558
  888MPD2     H13073   4.562   1.669  15.145 -0.7218  0.4798 -0.7649
  888MPD2    H113074   4.700   1.722  14.738 -0.3647 -0.2510 -0.0153
  888MPD2    H213075   4.455   1.408  14.825 -2.2685  0.7291 -0.4707
  888MPD2    H313076   4.561   1.540  14.678  0.7892 -0.4486  0.0718
  888MPD2     N13077   4.718   1.841  14.985  0.6829  0.1126  0.6920
  888MPD2    H513078   4.700   1.874  15.079  1.2926  2.6062 -0.0404
  888MPD2    N113079   4.459   1.438  15.110  0.5479 -0.2787  0.1466
  888MPD2    H713080   4.469   1.474  15.204 -0.8319  1.9498 -0.5646
  889MPD2     C13081   4.226   0.917  12.472 -0.0296 -0.3515  0.1187
  889MPD2    C113082   4.158   0.931  12.594 -0.5688  0.7433  0.0303
  889MPD2    C213083   4.135   1.060  12.634 -0.0038 -0.1591 -0.1626
  889MPD2    C313084   4.173   1.169  12.553 -0.1273  0.9167 -0.4017
  889MPD2    C413085   4.232   1.156  12.429  0.1064 -0.2656 -0.3388
  889MPD2    C513086   4.263   1.026  12.392  0.3674 -0.0253  0.1791
  889MPD2     H13087   4.109   1.081  12.737  1.6670  2.1673 -0.2065
  889MPD2    H113088   4.271   1.236  12.367 -1.6302  0.1370 -0.9054
  889MPD2    H213089   4.243   0.815  12.440  0.1409 -0.1688 -0.3782
  889MPD2    H313090   4.330   1.003  12.310  0.2585  3.3985 -0.8352
  889MPD2     N13091   4.158   1.294  12.622  0.3410 -0.0391 -0.1208
  889MPD2    H513092   4.130   1.294  12.719 -0.1281 -0.4252 -0.2588
  889MPD2    N113093   4.152   0.822  12.678  0.6764  0.2038  0.0988
  889MPD2    H713094   4.220   0.746  12.680 -2.1207 -2.2447  2.0460
  890MPD2     C13095   3.487   2.703  14.474  0.7439  0.1158  0.5796
  890MPD2    C113096   3.618   2.757  14.483  0.0923 -0.1290  0.1276
  890MPD2    C213097   3.672   2.749  14.612  0.0624  0.6977 -0.5898
  890MPD2    C313098   3.607   2.696  14.724  0.1783 -1.0314 -0.1215
  890MPD2    C413099   3.483   2.642  14.712 -0.1750 -0.2267 -0.7966
  890MPD2    C513100   3.425   2.653  14.588  0.5858 -0.1461  0.2207
  890MPD2     H13101   3.763   2.804  14.632  0.5356 -0.7603  1.2231
  890MPD2    H113102   3.424   2.595  14.789 -0.2892  1.1335 -0.0530
  890MPD2    H213103   3.436   2.696  14.378  1.4079  0.0448  0.2348
  890MPD2    H313104   3.331   2.606  14.564  1.2180 -0.2830 -2.0034
  890MPD2     N13105   3.676   2.701  14.842 -0.1910 -0.6835 -0.1624
  890MPD2    H513106   3.765   2.748  14.847 -1.5341  1.9998 -1.3729
  890MPD2    N113107   3.695   2.813  14.370  0.2709 -0.2489 -0.3188
  890MPD2    H713108   3.789   2.843  14.394 -0.1999  1.3015 -0.4037
  891MPD2     C13109   1.360   1.434  16.929 -0.1439 -0.3868 -0.7083
  891MPD2    C113110   1.409   1.560  16.933 -1.2176  0.1951  0.6899
  891MPD2    C213111   1.537   1.578  16.979  0.0150  0.2391  0.2257
  891MPD2    C313112   1.613   1.465  17.014  0.6068  0.5007 -0.1262
  891MPD2    C413113   1.569   1.334  16.998 -0.3228 -0.5730 -0.1213
  891MPD2    C513114   1.444   1.322  16.951 -0.1262 -0.6207  0.4937
  891MPD2     H13115   1.578   1.678  16.983  0.6464  0.0365 -1.1270
  891MPD2    H113116   1.632   1.250  17.026  1.3490  1.2937  1.7621
  891MPD2    H213117   1.256   1.415  16.902 -0.3236 -2.7835  1.6579
  891MPD2    H313118   1.391   1.227  16.946  2.4073 -1.9875 -0.3997
  891MPD2     N13119   1.743   1.486  17.069 -0.4128  0.0803 -0.7405
  891MPD2    H513120   1.773   1.578  17.100 -2.2902  0.2922  0.4275
  891MPD2    N113121   1.321   1.656  16.888 -0.2328  0.1512  0.2825
  891MPD2    H713122   1.228   1.623  16.862 -1.3575  3.6016 -0.1109
  892MPD2     C13123   2.676   2.648  14.447 -0.3335  0.3596 -0.5045
  892MPD2    C113124   2.567   2.575  14.474  0.1636  0.3651 -0.4727
  892MPD2    C213125   2.586   2.448  14.528 -0.6054 -0.5685 -0.0318
  892MPD2    C313126   2.707   2.392  14.534 -0.2455 -0.6906  0.4636
  892MPD2    C413127   2.817   2.465  14.516  0.5154 -0.8977  0.2501
  892MPD2    C513128   2.802   2.592  14.473 -0.0587  0.2210 -0.0985
  892MPD2     H13129   2.500   2.386  14.550 -0.2038 -0.8626  0.6869
  892MPD2    H113130   2.919   2.429  14.529 -0.7198 -3.7409  1.9187
  892MPD2    H213131   2.665   2.751  14.416  1.4322  0.4302 -0.9096
  892MPD2    H313132   2.885   2.659  14.455  0.7098 -0.6695  0.1513
  892MPD2     N13133   2.724   2.257  14.556 -0.1649 -0.3194  0.1358
  892MPD2    H513134   2.819   2.223  14.552 -1.0859 -2.7250 -1.5668
  892MPD2    N113135   2.431   2.621  14.465  0.0417  0.7252 -0.1773
  892MPD2    H713136   2.367   2.550  14.499  1.5077  0.0820  1.2061
  893MPD2     C13137   3.966   1.192   1.838 -0.0016 -0.0498 -0.6668
  893MPD2    C113138   3.955   1.195   1.699  0.4169 -0.0750  0.3377
  893MPD2    C213139   3.842   1.230   1.639  0.3173 -0.3702 -0.3672
  893MPD2    C313140   3.732   1.274   1.710  0.4901 -0.3540  0.0526
  893MPD2    C413141   3.745   1.282   1.847  0.1623 -0.0193  0.0769
  893MPD2    C513142   3.864   1.250   1.907 -0.6746  0.1144  0.2506
  893MPD2     H13143   3.831   1.217   1.532  0.0979  0.9974 -0.5087
  893MPD2    H113144   3.663   1.326   1.902 -0.3610 -0.9385  0.0251
  893MPD2    H213145   4.053   1.166   1.897  0.0359  0.7988 -0.3563
  893MPD2    H313146   3.883   1.263   2.013 -0.9430  0.0145  0.3125
  893MPD2     N13147   3.605   1.307   1.655  0.1381 -0.1026 -0.0482
  893MPD2    H513148   3.530   1.328   1.720  0.0910 -1.0990  0.2273
  893MPD2    N113149   4.070   1.156   1.636 -0.3833 -0.2457 -0.4648
  893MPD2    H713150   4.145   1.135   1.701 -0.8153 -0.6448 -0.0912
  894MPD2     C13151   2.280   2.711   1.249  0.3020 -0.0354 -0.6276
  894MPD2    C113152   2.172   2.802   1.237  0.3242  0.8819  1.9943
  894MPD2    C213153   2.203   2.935   1.240 -0.0172  0.2561 -0.0555
  894MPD2    C313154   2.327   2.984   1.252  0.0233  0.2917 -0.6352
  894MPD2    C413155   2.431   2.893   1.260 -0.0156  0.4058 -0.6708
  894MPD2    C513156   2.410   2.759   1.264 -0.0753 -0.0039  0.3003
  894MPD2     H13157   2.126   3.010   1.228 -0.8495 -1.0067 -2.6339
  894MPD2    H113158   2.534   2.916   1.237 -0.0520  1.1152 -0.1425
  894MPD2    H213159   2.263   2.605   1.244  2.2162 -0.4164  0.9506
  894MPD2    H313160   2.489   2.685   1.261  1.0785  1.2450  0.2080
  894MPD2     N13161   2.347   3.125   1.216 -0.0388 -0.1613  0.2467
  894MPD2    H513162   2.265   3.175   1.183  0.5349  1.7782  1.7696
  894MPD2    N113163   2.032   2.760   1.229  0.2566  0.2265  0.3263
  894MPD2    H713164   1.970   2.837   1.205 -1.6650 -1.4430 -0.0292
  895MPD2     C13165   1.105   2.491  13.336 -0.2381  0.2500 -0.1857
  895MPD2    C113166   1.078   2.418  13.220  0.3665  0.0811  0.4388
  895MPD2    C213167   1.124   2.284  13.217  0.3962 -0.6634  0.4841
  895MPD2    C313168   1.176   2.221  13.328  0.8692 -0.1838 -0.9960
  895MPD2    C413169   1.191   2.299  13.442 -0.5478  0.1047  0.0278
  895MPD2    C513170   1.158   2.431  13.440  0.7798  0.7123  0.3681
  895MPD2     H13171   1.106   2.220  13.131 -0.0867 -0.2553  0.2832
  895MPD2    H113172   1.244   2.265  13.530  2.5576  2.2341 -1.0285
  895MPD2    H213173   1.091   2.598  13.337 -1.4757  0.0723  1.7698
  895MPD2    H313174   1.177   2.487  13.531 -0.9926  0.7794  0.6831
  895MPD2     N13175   1.211   2.084  13.330  0.7718  0.1130 -0.2768
  895MPD2    H513176   1.195   2.033  13.244 -0.3606 -0.3575  0.2118
  895MPD2    N113177   1.015   2.475  13.109 -0.3196 -0.0700 -0.2903
  895MPD2    H713178   0.984   2.416  13.032  0.5401  0.4329 -1.0186
  896MPD2     C13179   4.443   4.133   1.733  0.3177  0.1360  0.2570
  896MPD2    C113180   4.416   4.118   1.597  0.3157  0.2594  0.4069
  896MPD2    C213181   4.304   4.048   1.546 -0.2599  0.8008 -0.1328
  896MPD2    C313182   4.215   4.001   1.638 -0.1335  0.0092  0.2875
  896MPD2    C413183   4.237   4.012   1.774 -0.2440 -0.5905  0.0790
  896MPD2    C513184   4.356   4.073   1.816 -0.5113 -0.2568 -0.2940
  896MPD2     H13185   4.283   4.037   1.441 -1.7138  0.0195  0.2393
  896MPD2    H113186   4.176   3.971   1.853 -0.2068 -0.6483  0.0782
  896MPD2    H213187   4.529   4.181   1.779  1.4748 -3.0913  1.4671
  896MPD2    H313188   4.388   4.059   1.918  2.2376  1.7016 -0.8900
  896MPD2     N13189   4.095   3.949   1.591  0.1700  0.6154  0.0358
  896MPD2    H513190   4.094   3.929   1.492  0.1069 -0.4298  0.2467
  896MPD2    N113191   4.508   4.173   1.505  0.4223  0.0874 -0.6200
  896MPD2    H713192   4.589   4.223   1.541  0.5586 -2.4683  2.6551
  897MPD2     C13193   0.687   0.941  10.532  0.0400  0.3692  0.3315
  897MPD2    C113194   0.657   1.074  10.510 -0.1732  0.4515  0.4156
  897MPD2    C213195   0.571   1.138  10.601  0.2122  0.6029 -0.1469
  897MPD2    C313196   0.497   1.067  10.691 -0.2312 -0.2793 -0.6642
  897MPD2    C413197   0.531   0.932  10.718 -0.4912 -0.5522 -0.0196
  897MPD2    C513198   0.622   0.870  10.632 -0.2414 -0.4013 -0.3070
  897MPD2     H13199   0.524   1.232  10.576 -1.8789 -1.0003 -2.2074
  897MPD2    H113200   0.491   0.872  10.799 -0.4364  0.1581  0.5328
  897MPD2    H213201   0.765   0.887  10.478 -0.4313 -0.3269  0.3490
  897MPD2    H313202   0.637   0.764  10.648  0.5496 -0.2272  0.1067
  897MPD2     N13203   0.376   1.125  10.757 -0.0028 -0.2376  0.0721
  897MPD2    H513204   0.360   1.225  10.748 -0.8999 -0.2364  1.6213
  897MPD2    N113205   0.707   1.137  10.395  0.0042  0.6557  0.3360
  897MPD2    H713206   0.737   1.072  10.323  1.0292  1.9903 -0.4482
  898MPD2     C13207   2.367   1.696  17.534 -0.5122  1.0741  0.2583
  898MPD2    C113208   2.466   1.803  17.533 -0.2002  0.5282 -0.0913
  898MPD2    C213209   2.435   1.924  17.473  0.2351 -0.0508  0.4985
  898MPD2    C313210   2.316   1.941  17.404 -0.0283  0.9861  0.8854
  898MPD2    C413211   2.224   1.841  17.411  0.2993  0.4984 -0.0152
  898MPD2    C513212   2.245   1.725  17.480  0.4063 -0.6307  0.0729
  898MPD2     H13213   2.511   2.002  17.476  0.0131  0.2037 -0.6706
  898MPD2    H113214   2.125   1.853  17.370  0.9979  1.0279 -1.5886
  898MPD2    H213215   2.379   1.601  17.583  1.2431 -0.2615 -2.7192
  898MPD2    H313216   2.165   1.653  17.492 -2.1305  1.7230 -2.4913
  898MPD2     N13217   2.284   2.069  17.341 -0.3829 -0.0531 -0.0943
  898MPD2    H513218   2.345   2.147  17.363  0.1805 -0.1795 -1.1867
  898MPD2    N113219   2.597   1.793  17.588  0.2128 -0.0044  0.0946
  898MPD2    H713220   2.653   1.877  17.574  0.1650  0.0173  0.0321
  899MPD2     C13221   3.007   2.359  17.546  0.0855  0.8309  0.8521
  899MPD2    C113222   3.070   2.467  17.600 -0.2254  0.6261  0.2586
  899MPD2    C213223   3.036   2.485  17.735 -0.8663 -0.0850  0.2841
  899MPD2    C313224   2.957   2.402   0.067 -0.2742 -0.1168  0.6410
  899MPD2    C413225   2.900   2.297   0.007  0.2411 -0.4748  0.1105
  899MPD2    C513226   2.919   2.279  17.614  0.0528 -0.4773 -0.0158
  899MPD2     H13227   3.089   2.565   0.042 -0.4062 -1.3526  1.8785
  899MPD2    H113228   2.813   2.245   0.044 -1.7998  1.3269 -2.1321
  899MPD2    H213229   3.026   2.324  17.445 -0.2364  0.4275  0.9322
  899MPD2    H313230   2.855   2.204  17.569  0.1787 -1.2571  1.1032
  899MPD2     N13231   2.924   2.427   0.205  0.1979  0.1665 -0.1919
  899MPD2    H513232   2.870   2.354   0.251  0.7903  0.3783  0.8346
  899MPD2    N113233   3.147   2.557  17.521 -0.1530  0.1542  0.3354
  899MPD2    H713234   3.165   2.524  17.427 -0.9670  0.7623 -0.0374
  900MPD2     C13235   2.772   4.466  12.608 -0.5190  0.2091 -0.7618
  900MPD2    C113236   2.688   4.375  12.551 -0.2525 -0.5176 -1.0558
  900MPD2    C213237   2.582   4.415  12.471  0.6035 -0.2808  0.1208
  900MPD2    C313238   2.555   4.543  12.456  0.3653  0.1971  0.6906
  900MPD2    C413239   2.634   4.633  12.517  1.0847 -0.2430  0.6968
  900MPD2    C513240   2.742   4.600  12.601  0.0646 -0.0432  0.5008
  900MPD2     H13241   2.519   4.342  12.420 -0.3978  1.0990 -0.5944
  900MPD2    H113242   2.620   0.003  12.501  0.3667 -0.5351 -0.5862
  900MPD2    H213243   2.856   4.436  12.670  1.0714  4.6636 -0.7618
  900MPD2    H313244   2.803   4.676  12.649  2.4063 -1.1429 -0.7448
  900MPD2     N13245   2.443   4.580  12.369 -0.5328 -0.6279  0.2329
  900MPD2    H513246   2.391   4.500  12.335 -1.0440  0.7309 -2.2103
  900MPD2    N113247   2.717   4.244  12.577 -0.0346 -0.4092 -0.2753
  900MPD2    H713248   2.792   4.232  12.645  1.6975 -2.0514 -2.5106
  901MPD2     C13249   2.286   3.239  12.681  0.0872 -0.8574  0.3933
  901MPD2    C113250   2.418   3.219  12.652 -0.0369  0.3021  0.0032
  901MPD2    C213251   2.508   3.327  12.652 -0.6027  0.1240  0.3361
  901MPD2    C313252   2.454   3.459  12.675  0.0557  0.0634  0.3652
  901MPD2    C413253   2.322   3.475  12.693  0.0571  0.7045  0.3955
  901MPD2    C513254   2.242   3.367  12.699 -0.3933  0.3119  0.5277
  901MPD2     H13255   2.612   3.317  12.625 -0.5647 -2.0214  1.2703
  901MPD2    H113256   2.271   3.570  12.699 -0.5266  0.4071  0.1354
  901MPD2    H213257   2.211   3.163  12.659 -0.6162  0.2884 -1.2055
  901MPD2    H313258   2.137   3.383  12.720 -0.4485  2.1558 -1.1275
  901MPD2     N13259   2.543   3.568  12.661 -0.1862 -0.7284  0.5036
  901MPD2    H513260   2.639   3.534  12.657 -0.8088 -2.1256 -2.1232
  901MPD2    N113261   2.456   3.089  12.610 -0.3317 -0.0883 -0.2115
  901MPD2    H713262   2.387   3.015  12.608 -0.8048  0.3435  0.1100
  902MPD2     C13263   1.441   2.272  13.126 -0.4934 -0.2273 -0.7869
  902MPD2    C113264   1.474   2.341  13.011  0.2289  0.2781  0.4952
  902MPD2    C213265   1.574   2.284  12.931  0.0478  0.0333  0.2786
  902MPD2    C313266   1.638   2.167  12.964 -0.3915  0.2896 -0.0958
  902MPD2    C413267   1.600   2.110  13.086 -0.0191  0.0562  0.3561
  902MPD2    C513268   1.507   2.163  13.166  0.2956  0.8705 -0.0066
  902MPD2     H13269   1.595   2.336  12.838 -2.7475  1.0144  0.1999
  902MPD2    H113270   1.653   2.020  13.116 -0.4964 -0.6074 -0.7984
  902MPD2    H213271   1.378   2.315  13.202 -2.1309  0.4182 -2.5054
  902MPD2    H313272   1.491   2.121  13.265  2.0327  0.0345 -0.0893
  902MPD2     N13273   1.738   2.109  12.894 -0.0486 -0.7209  0.5227
  902MPD2    H513274   1.764   2.017  12.928  2.1412  0.1987  1.3216
  902MPD2    N113275   1.412   2.468  12.988  0.2664 -0.1577 -0.5456
  902MPD2    H713276   1.348   2.505  13.059  0.1617  0.2376 -0.8472
  903MPD2     C13277   1.970   2.153  12.085 -0.6047  0.8894  0.0208
  903MPD2    C113278   1.935   2.046  12.164 -0.5511  0.2997 -0.0804
  903MPD2    C213279   1.865   1.941  12.106  0.6326 -0.5877  0.0187
  903MPD2    C313280   1.829   1.952  11.971  0.6636  0.3839 -0.0530
  903MPD2    C413281   1.871   2.063  11.893  0.2884 -0.1310  0.1850
  903MPD2    C513282   1.944   2.161  11.959 -0.1329 -1.3085 -0.0628
  903MPD2     H13283   1.819   1.861  12.163 -2.3627  0.4213 -0.9770
  903MPD2    H113284   1.838   2.079  11.791  4.0497 -1.0983 -1.1698
  903MPD2    H213285   2.042   2.220  12.131  1.7026  0.2364 -2.6906
  903MPD2    H313286   1.980   2.241  11.896 -0.4067  0.1193  1.6120
  903MPD2     N13287   1.740   1.849  11.926 -0.2231  0.0633 -0.3244
  903MPD2    H513288   1.691   1.789  11.992  0.5888  1.3786  1.4818
  903MPD2    N113289   1.976   2.046  12.300 -0.0984  0.0844 -0.8638
  903MPD2    H713290   2.015   2.133  12.335  0.0991 -0.0086 -0.8522
  904MPD2     C13291   1.248   1.067  14.249 -0.2258 -0.3021  0.1750
  904MPD2    C113292   1.335   1.166  14.193  0.0350  0.3887  0.3753
  904MPD2    C213293   1.469   1.165  14.210 -0.4790 -0.0002 -0.2096
  904MPD2    C313294   1.517   1.075  14.305  0.3381  0.0983  0.1864
  904MPD2    C413295   1.435   0.983  14.368 -0.7543  0.7585  0.7508
  904MPD2    C513296   1.303   0.978  14.333 -0.3810 -0.0903 -1.1534
  904MPD2     H13297   1.538   1.236  14.167  3.1258 -3.9757 -0.9395
  904MPD2    H113298   1.479   0.916  14.441  0.9710 -0.4682 -1.4208
  904MPD2    H213299   1.141   1.057  14.231 -0.3084 -0.2206  0.6304
  904MPD2    H313300   1.236   0.909  14.383  0.2553  0.6337  0.7105
  904MPD2     N13301   1.650   1.105  14.349 -0.2072  0.2006  0.3534
  904MPD2    H513302   1.698   1.176  14.296 -2.4757 -0.4932 -2.6519
  904MPD2    N113303   1.279   1.285  14.132  0.3585 -0.5808  0.1092
  904MPD2    H713304   1.349   1.344  14.088 -0.2386  1.2679  1.6816
  905MPD2     C13305   1.149   1.229  13.504 -0.2856 -0.2657  0.1143
  905MPD2    C113306   1.156   1.362  13.526  0.7403 -0.8586  0.2953
  905MPD2    C213307   1.158   1.448  13.418  0.0484 -0.0619 -0.2772
  905MPD2    C313308   1.173   1.398  13.289  0.6795  0.3743  0.7979
  905MPD2    C413309   1.170   1.264  13.268  0.1204  0.0624 -0.1548
  905MPD2    C513310   1.151   1.180  13.374 -0.4840  0.0475 -0.3772
  905MPD2     H13311   1.124   1.550  13.429  0.3312 -0.3514  3.2077
  905MPD2    H113312   1.179   1.217  13.170  1.1544 -3.5782  1.7013
  905MPD2    H213313   1.151   1.158  13.585  1.8734 -2.0380 -1.4960
  905MPD2    H313314   1.151   1.072  13.363  0.2647 -0.0193  0.2414
  905MPD2     N13315   1.191   1.478  13.171 -0.2702  0.2567  0.1763
  905MPD2    H513316   1.168   1.426  13.087 -1.7769 -1.0086  1.3588
  905MPD2    N113317   1.147   1.410  13.659  0.5476  0.0787  0.0555
  905MPD2    H713318   1.131   1.347  13.737  2.0441 -0.4034 -0.0250
  906MPD2     C13319   3.488   1.122  11.300 -0.4284  0.1661  0.0646
  906MPD2    C113320   3.509   1.027  11.207 -0.0915  0.1436 -0.5954
  906MPD2    C213321   3.439   0.908  11.208  0.2005  0.0660 -0.9651
  906MPD2    C313322   3.356   0.884  11.315 -0.6304 -0.0372 -0.2581
  906MPD2    C413323   3.342   0.976  11.415 -0.3765 -0.1225 -0.0205
  906MPD2    C513324   3.404   1.098  11.404  0.1791 -0.0332  0.0693
  906MPD2     H13325   3.439   0.847  11.119 -0.3401 -0.4814 -0.5888
  906MPD2    H113326   3.285   0.970  11.507  0.1203 -0.3757  0.2754
  906MPD2    H213327   3.538   1.218  11.303  1.2307 -0.6560 -1.0993
  906MPD2    H313328   3.405   1.167  11.488 -0.0072 -0.3849  0.3618
  906MPD2     N13329   3.291   0.763  11.318 -0.5152 -0.5971 -0.0201
  906MPD2    H513330   3.314   0.696  11.246  1.7905 -0.8074  0.9076
  906MPD2    N113331   3.592   1.064  11.095 -0.4416 -0.2196  0.3264
  906MPD2    H713332   3.586   1.005  11.013  0.2973 -0.9605  0.8023
  907MPD2     C13333   2.274   0.583  16.331  0.6843 -0.1934  0.1362
  907MPD2    C113334   2.320   0.449  16.319 -0.4750 -0.1012 -0.4588
  907MPD2    C213335   2.390   0.397  16.420  0.2781 -0.7262 -0.1390
  907MPD2    C313336   2.407   0.463  16.541 -0.2164 -0.6456 -0.7017
  907MPD2    C413337   2.345   0.587  16.561  0.1437  0.2709 -0.2402
  907MPD2    C513338   2.290   0.647  16.452  0.1492 -0.0397 -0.7567
  907MPD2     H13339   2.440   0.305  16.393  1.3864  0.1692 -1.1271
  907MPD2    H113340   2.350   0.644  16.654  2.5237  1.1892 -0.9352
  907MPD2    H213341   2.222   0.635  16.252  2.7586  0.3839 -0.8526
  907MPD2    H313342   2.252   0.746  16.470  0.8895 -0.3544  2.4314
  907MPD2     N13343   2.503   0.410  16.630  0.2091 -0.5538 -0.1373
  907MPD2    H513344   2.530   0.313  16.617  1.4892  0.3009 -3.8035
  907MPD2    N113345   2.318   0.371  16.200 -0.5766  0.5856  0.3120
  907MPD2    H713346   2.347   0.275  16.214  0.7665  0.5495 -2.7548
  908MPD2     C13347   0.417   0.874   9.617  0.9323 -0.2683  0.2895
  908MPD2    C113348   0.488   0.809   9.721  0.6119 -0.4263 -0.0787
  908MPD2    C213349   0.558   0.895   9.813  0.0483  0.0940  0.5619
  908MPD2    C313350   0.546   1.034   9.820 -0.0509 -0.0274 -0.4258
  908MPD2    C413351   0.454   1.091   9.727 -0.6881 -0.0528 -0.0196
  908MPD2    C513352   0.391   1.007   9.630 -0.4633 -0.3669 -0.0110
  908MPD2     H13353   0.606   0.863   9.904  0.2526  1.0498  0.7893
  908MPD2    H113354   0.440   1.197   9.707  1.3228 -0.4621 -3.3689
  908MPD2    H213355   0.377   0.818   9.533  1.3908  0.1006 -0.1750
  908MPD2    H313356   0.327   1.055   9.557 -0.0017  0.8496  0.3896
  908MPD2     N13357   0.610   1.111   9.921 -0.1249 -0.1448 -0.0557
  908MPD2    H513358   0.661   1.062   9.994  2.3734 -1.7031 -2.8558
  908MPD2    N113359   0.508   0.667   9.725  0.0257 -0.8240 -0.1733
  908MPD2    H713360   0.574   0.625   9.789 -0.5475 -0.6736  0.5304
  909MPD2     C13361   1.021   3.924  11.750  0.6381 -0.8804  0.1687
  909MPD2    C113362   0.962   4.034  11.679  0.1372  0.3069 -0.0147
  909MPD2    C213363   0.867   4.112  11.748 -0.0068  0.0080  0.0194
  909MPD2    C313364   0.834   4.089  11.879  0.8554  0.2368  0.1601
  909MPD2    C413365   0.894   3.986  11.944 -0.0457  0.6813 -0.3807
  909MPD2    C513366   0.989   3.909  11.880  0.1156 -0.0556 -0.7026
  909MPD2     H13367   0.813   4.191  11.697 -0.8178  0.3298  1.3794
  909MPD2    H113368   0.881   3.942  12.041  0.3757 -1.1101 -1.1430
  909MPD2    H213369   1.095   3.857  11.708  1.4378  0.5746 -0.7420
  909MPD2    H313370   1.040   3.831  11.937 -1.4014  0.0720  0.8190
  909MPD2     N13371   0.731   4.174  11.923 -0.5128  0.4451 -0.3792
  909MPD2    H513372   0.673   4.222  11.854  0.3716 -0.7365 -1.9303
  909MPD2    N113373   0.981   4.069  11.540 -0.2412 -0.1277 -0.7218
  909MPD2    H713374   0.945   4.158  11.506 -0.6401  0.4216  1.1261
  910MPD2     C13375   1.860   1.401  16.394 -0.3416  0.4270  0.8357
  910MPD2    C113376   1.786   1.288  16.399  0.2419 -1.3149  0.4653
  910MPD2    C213377   1.695   1.262  16.291  0.5182 -0.0176  0.4101
  910MPD2    C313378   1.678   1.361  16.193  0.5329  0.0322  0.4548
  910MPD2    C413379   1.766   1.468  16.194  0.2820 -0.3428  0.4833
  910MPD2    C513380   1.857   1.491  16.287 -0.1643  0.0704  0.6238
  910MPD2     H13381   1.623   1.182  16.302  0.0630  0.4796  1.0497
  910MPD2    H113382   1.751   1.545  16.119  3.2834 -1.0013 -0.7960
  910MPD2    H213383   1.925   1.431  16.476  0.0821  1.7950 -0.0050
  910MPD2    H313384   1.919   1.580  16.289  2.1479 -1.4497 -2.3309
  910MPD2     N13385   1.591   1.354  16.083  0.2312  0.4539 -0.3467
  910MPD2    H513386   1.593   1.439  16.027 -1.0351  0.0353 -1.0403
  910MPD2    N113387   1.801   1.196  16.500 -0.0123  0.0553  0.3657
  910MPD2    H713388   1.740   1.115  16.500  1.6413 -1.2052  1.1534
  911MPD2     C13389   4.559   1.120  16.535 -0.1110 -0.4715  0.1723
  911MPD2    C113390   4.616   1.251  16.529 -1.3409 -0.0719  0.5461
  911MPD2    C213391   4.564   1.353  16.452  0.8667 -0.3635  0.4231
  911MPD2    C313392   4.460   1.320  16.364 -0.9555 -0.0206 -0.6161
  911MPD2    C413393   4.408   1.192  16.363  0.7593 -0.1031 -0.6065
  911MPD2    C513394   4.461   1.094  16.447 -0.2949  0.5903  0.2253
  911MPD2     H13395   4.609   1.451  16.438  2.0455 -1.0095 -0.2725
  911MPD2    H113396   4.335   1.173  16.286 -1.5442 -0.6274  1.7051
  911MPD2    H213397   4.592   1.038  16.597 -1.9439  0.8997  2.9306
  911MPD2    H313398   4.418   0.994  16.447  0.9602  0.0557  0.8796
  911MPD2     N13399   4.393   1.410  16.277 -0.8480 -0.4240  0.1270
  911MPD2    H513400   4.315   1.358  16.238 -0.2544  0.3141 -2.0274
  911MPD2    N113401   4.731   1.272  16.607 -0.2239  0.3622  0.4329
  911MPD2    H713402   0.027   1.184  16.647  0.4077  0.3145 -0.1707
  912MPD2     C13403   4.012   1.184  15.665  0.0487  0.4166  0.0300
  912MPD2    C113404   4.055   1.194  15.799  0.1019 -0.0476 -0.1654
  912MPD2    C213405   4.061   1.073  15.867  0.0191 -0.8130  0.4213
  912MPD2    C313406   4.036   0.952  15.812 -0.8529 -0.3595  0.4346
  912MPD2    C413407   3.985   0.948  15.682 -0.2627 -0.6684  0.1820
  912MPD2    C513408   3.983   1.068  15.611  0.3182 -0.0784 -0.8537
  912MPD2     H13409   4.094   1.062  15.970  2.7398  0.0853 -0.3606
  912MPD2    H113410   3.961   0.854  15.634 -0.5004 -0.5682  0.1034
  912MPD2    H213411   3.994   1.271  15.603  0.8490  0.9245  0.5008
  912MPD2    H313412   3.934   1.072  15.514 -1.2249  2.0373  0.0130
  912MPD2     N13413   4.055   0.837  15.897  0.1939  0.8747 -0.1284
  912MPD2    H513414   4.080   0.843  15.995 -0.7146 -0.2099  0.1653
  912MPD2    N113415   4.104   1.315  15.844  0.4296  0.2788 -0.3952
  912MPD2    H713416   4.087   1.402  15.794 -0.0377  1.5825  2.0320
  913MPD2     C13417   0.213   2.339  10.424 -0.1883 -0.0405 -0.2361
  913MPD2    C113418   0.186   2.454  10.497 -0.0341  0.4877 -0.1532
  913MPD2    C213419   0.217   2.575  10.447 -0.0621  0.3342  1.0240
  913MPD2    C313420   0.264   2.582  10.319 -0.5880  0.7931  0.1026
  913MPD2    C413421   0.279   2.467  10.239 -0.6777 -0.7060 -1.0356
  913MPD2    C513422   0.261   2.345  10.296 -0.2369  0.0062 -0.1815
  913MPD2     H13423   0.190   2.669  10.494 -1.8871  0.7107 -0.7654
  913MPD2    H113424   0.320   2.474  10.139 -1.1983  0.2245 -1.1823
  913MPD2    H213425   0.174   2.242  10.450 -1.6061  0.4239 -0.6212
  913MPD2    H313426   0.276   2.259  10.232  1.5494 -1.0749  1.6974
  913MPD2     N13427   0.290   2.700  10.240  0.1922  1.1799  0.1428
  913MPD2    H513428   0.321   2.674  10.147 -0.3844 -2.4571  0.9642
  913MPD2    N113429   0.101   2.435  10.608  0.2967 -0.0845  0.2094
  913MPD2    H713430   0.059   2.344  10.627 -0.7600  0.1752 -0.9182
  914MPD2     C13431   3.348   3.033  12.508 -0.0153  0.6650 -0.3527
  914MPD2    C113432   3.242   3.115  12.498 -0.2780 -0.0237 -0.0740
  914MPD2    C213433   3.109   3.070  12.499  0.4214  0.0543 -0.0202
  914MPD2    C313434   3.090   2.932  12.503 -0.1585 -0.3135 -0.9839
  914MPD2    C413435   3.205   2.850  12.505 -0.2332  0.1426  0.1952
  914MPD2    C513436   3.328   2.900  12.515  0.0424  0.0594  0.3928
  914MPD2     H13437   3.021   3.133  12.505 -0.8466 -1.9281  2.0620
  914MPD2    H113438   3.192   2.742  12.499  0.2859  0.0137  1.6342
  914MPD2    H213439   3.452   3.060  12.490 -1.1677  3.3487 -2.9458
  914MPD2    H313440   3.412   2.831  12.528 -0.6460 -1.1735 -1.6230
  914MPD2     N13441   2.959   2.887  12.501 -0.3736  0.0933  0.0436
  914MPD2    H513442   2.895   2.965  12.491  1.0252  1.1266 -0.7555
  914MPD2    N113443   3.278   3.255  12.480 -0.1709  0.2535  0.6383
  914MPD2    H713444   3.374   3.287  12.484  0.0056 -0.2083  0.1863
  915MPD2     C13445   1.182   2.810  15.285 -0.5553  0.5736  0.0291
  915MPD2    C113446   1.049   2.775  15.303  0.2612 -0.2727  0.0252
  915MPD2    C213447   0.987   2.810  15.419 -0.3197  0.7441  0.2613
  915MPD2    C313448   1.046   2.893  15.510  0.3421 -0.1621  0.0611
  915MPD2    C413449   1.183   2.933  15.489  0.1102  0.6989  0.0738
  915MPD2    C513450   1.249   2.890  15.376  0.7473  0.0315 -0.9371
  915MPD2     H13451   0.895   2.761  15.450  0.4746  1.4395  3.6918
  915MPD2    H113452   1.231   2.998  15.561 -1.1940  2.5197 -0.7069
  915MPD2    H213453   1.233   2.781  15.193 -0.5179 -0.5483  0.4084
  915MPD2    H313454   1.349   2.922  15.349  1.1213 -0.0482  0.3383
  915MPD2     N13455   0.971   2.945  15.622 -0.5281 -0.6779 -0.3029
  915MPD2    H513456   0.874   2.915  15.629 -0.7934 -0.0495 -1.2535
  915MPD2    N113457   0.977   2.687  15.211 -0.5327 -0.0947 -0.9229
  915MPD2    H713458   0.884   2.662  15.245  0.2188 -1.6371  0.0123
  916MPD2     C13459   3.648   1.028  15.689 -0.4785  0.9313 -0.0770
  916MPD2    C113460   3.674   0.936  15.791 -0.1776 -0.4081 -0.0731
  916MPD2    C213461   3.677   0.802  15.748 -0.2993 -0.3552 -0.1102
  916MPD2    C313462   3.668   0.761  15.619 -0.0601  1.5313  0.5946
  916MPD2    C413463   3.633   0.852  15.523  0.1508 -1.2394  0.5359
  916MPD2    C513464   3.623   0.984  15.560  0.6991 -0.0142 -0.5909
  916MPD2     H13465   3.706   0.725  15.819  0.9028 -1.5219 -1.8437
  916MPD2    H113466   3.608   0.833  15.420 -0.5217 -1.0927  0.6679
  916MPD2    H213467   3.641   1.136  15.697  0.1443  0.9716 -0.1328
  916MPD2    H313468   3.598   1.051  15.479 -1.4601  0.2687  0.3028
  916MPD2     N13469   3.680   0.626  15.594 -0.2732 -0.3205  0.6879
  916MPD2    H513470   3.696   0.571  15.678 -0.1232 -0.5074  0.5380
  916MPD2    N113471   3.696   0.984  15.920  0.5106  0.1150  0.3382
  916MPD2    H713472   3.680   1.084  15.934  1.1792  0.2680 -0.0118
  917MPD2     C13473   3.783   3.049  11.521  0.2106 -0.4486 -0.6051
  917MPD2    C113474   3.834   3.137  11.613 -0.2096  0.3720 -0.3532
  917MPD2    C213475   3.932   3.219  11.560 -0.0070 -0.3527 -0.3634
  917MPD2    C313476   3.966   3.236  11.428  0.0813  0.2369  0.0306
  917MPD2    C413477   3.897   3.155  11.340 -0.4112  0.5661 -0.0504
  917MPD2    C513478   3.811   3.068  11.389 -0.1799 -0.1116 -0.8561
  917MPD2     H13479   3.986   3.278  11.632  0.2360  0.1132 -0.9241
  917MPD2    H113480   3.908   3.168  11.233 -0.3485 -2.1244 -0.3493
  917MPD2    H213481   3.703   2.982  11.549  0.6854  0.8149  3.7609
  917MPD2    H313482   3.748   3.019  11.316 -1.7800 -0.3978  0.7113
  917MPD2     N13483   4.063   3.326  11.389 -0.3936 -0.2536 -0.3921
  917MPD2    H513484   4.064   3.346  11.290 -0.8829 -4.0505 -1.1587
  917MPD2    N113485   3.788   3.138  11.748  0.4099  0.1485  0.4645
  917MPD2    H713486   3.727   3.062  11.778 -0.2833  0.4430 -0.1847
  918MPD2     C13487   4.158   3.572  12.626 -0.0351  0.2759 -0.0078
  918MPD2    C113488   4.215   3.551  12.509 -0.9607 -0.2711 -0.1407
  918MPD2    C213489   4.152   3.495  12.401 -0.2538 -0.1280  0.5001
  918MPD2    C313490   4.017   3.472  12.409 -0.7657  0.4447 -0.6644
  918MPD2    C413491   3.951   3.503  12.523  0.0598  0.0974  0.2516
  918MPD2    C513492   4.021   3.546  12.631  0.1600  0.3026 -0.1465
  918MPD2     H13493   4.210   3.468  12.314 -0.6598  0.2659  0.1038
  918MPD2    H113494   3.844   3.490  12.531  0.1206 -0.6724 -0.1510
  918MPD2    H213495   4.217   3.611  12.708  2.1318  1.2166 -2.0186
  918MPD2    H313496   3.974   3.557  12.728 -1.4490  3.2091 -1.2447
  918MPD2     N13497   3.946   3.404  12.304 -0.2666  0.3766  0.6207
  918MPD2    H513498   3.989   3.401  12.212 -0.8891 -1.1459  0.3890
  918MPD2    N113499   4.355   3.569  12.505 -0.4774  0.6403 -0.9277
  918MPD2    H713500   4.390   3.593  12.597 -0.0130 -0.0104 -0.9385
  919MPD2     C13501   4.597   2.701  11.614 -0.3538 -0.1461 -0.5525
  919MPD2    C113502   4.556   2.574  11.579 -0.2239 -0.4260 -0.6689
  919MPD2    C213503   4.480   2.556  11.467 -0.3406 -0.0337  0.6681
  919MPD2    C313504   4.447   2.661  11.388 -0.0312  0.5140 -0.5972
  919MPD2    C413505   4.495   2.789  11.417 -0.0991 -0.4689 -0.0915
  919MPD2    C513506   4.558   2.812  11.539 -0.1250 -0.0150 -0.1953
  919MPD2     H13507   4.462   2.452  11.443 -3.3369  0.5379  0.4664
  919MPD2    H113508   4.476   2.867  11.344 -1.1080 -0.6919 -0.0728
  919MPD2    H213509   4.651   2.720  11.706 -0.8408 -0.0133 -0.2940
  919MPD2    H313510   4.604   2.909  11.551  3.6405 -1.9271  1.0114
  919MPD2     N13511   4.353   2.634  11.278 -0.1280  0.4026  0.1694
  919MPD2    H513512   4.351   2.689  11.192  0.1214 -2.0455 -1.3935
  919MPD2    N113513   4.585   2.461  11.650 -0.1255 -0.5017 -0.9139
  919MPD2    H713514   4.519   2.387  11.626 -0.7156  0.0956 -1.1328
  920MPD2     C13515   4.591   2.528  10.367 -0.2442 -0.0137  0.5900
  920MPD2    C113516   4.523   2.411  10.382 -0.3877 -0.4605 -0.5762
  920MPD2    C213517   4.435   2.399  10.490 -0.0354  1.1829 -0.2042
  920MPD2    C313518   4.416   2.510  10.576  0.9702  0.8186  0.4680
  920MPD2    C413519   4.484   2.624  10.557  0.3983  0.7199 -0.1528
  920MPD2    C513520   4.573   2.633  10.456 -0.6401  0.4667 -0.1755
  920MPD2     H13521   4.382   2.306  10.506  0.9526  0.7715  0.7161
  920MPD2    H113522   4.463   2.710  10.621 -1.5761 -0.6700  1.0702
  920MPD2    H213523   4.662   2.551  10.289 -1.4828  0.3971 -0.4126
  920MPD2    H313524   4.621   2.727  10.429 -1.3008  0.4593 -1.4016
  920MPD2     N13525   4.332   2.490  10.685 -0.0842  0.7588 -0.8468
  920MPD2    H513526   4.270   2.410  10.690  2.4167 -1.0998  0.2428
  920MPD2    N113527   4.543   2.299  10.303 -0.4980  0.1074  0.7236
  920MPD2    H713528   4.521   2.213  10.352  4.0121 -0.4730  1.7506
  921MPD2     C13529   0.545   2.021  16.798 -0.5674 -0.3703  0.0069
  921MPD2    C113530   0.625   1.908  16.804  0.1175  0.3515 -0.4857
  921MPD2    C213531   0.566   1.794  16.836  0.0751 -0.6428  0.4198
  921MPD2    C313532   0.430   1.789  16.873 -0.6056 -0.5837  0.0227
  921MPD2    C413533   0.356   1.904  16.866 -0.0655 -0.3292 -0.0493
  921MPD2    C513534   0.408   2.019  16.821 -0.0219 -0.0382 -0.6203
  921MPD2     H13535   0.632   1.708  16.829 -0.1205 -0.9005  1.5687
  921MPD2    H113536   0.256   1.906  16.907  0.7265 -1.5427  1.9681
  921MPD2    H213537   0.589   2.117  16.772  1.2088 -1.0333  0.5964
  921MPD2    H313538   0.357   2.114  16.815  2.9114  1.5401 -0.0914
  921MPD2     N13539   0.358   1.670  16.893  0.1241 -0.1768 -0.2647
  921MPD2    H513540   0.257   1.678  16.905 -0.2622  0.1775 -3.7884
  921MPD2    N113541   0.768   1.917  16.781  0.1554 -0.7174  0.6271
  921MPD2    H713542   0.793   2.011  16.752  0.7248 -1.5068 -1.4715
  922MPD2     C13543   1.571   3.989  16.989 -0.0014 -1.0671 -0.2326
  922MPD2    C113544   1.487   4.045  17.090  0.0478 -0.2095  0.8694
  922MPD2    C213545   1.361   3.986  17.115 -0.0207 -0.4552  0.4962
  922MPD2    C313546   1.305   3.887  17.033 -0.0051 -0.2977  0.7672
  922MPD2    C413547   1.397   3.839  16.937  0.2094  0.3082 -0.4079
  922MPD2    C513548   1.523   3.881  16.926  0.2848  0.0210  0.1971
  922MPD2     H13549   1.317   4.030  17.204  1.7456  0.5657  0.8831
  922MPD2    H113550   1.367   3.767  16.860  0.3923 -0.4101  0.1935
  922MPD2    H213551   1.665   4.032  16.957 -0.4696  0.7719  0.9091
  922MPD2    H313552   1.585   3.825  16.857 -0.9646 -0.5081 -0.5050
  922MPD2     N13553   1.172   3.842  17.052  0.0972  0.2099 -0.3810
  922MPD2    H513554   1.139   3.869  17.144 -0.5656  1.0289 -0.8668
  922MPD2    N113555   1.519   4.158  17.170 -0.1271 -0.4057  0.4837
  922MPD2    H713556   1.457   4.180  17.247 -1.6046 -0.0812 -0.7911
  923MPD2     C13557   3.943   2.834   9.202 -0.2725 -0.6325  0.3255
  923MPD2    C113558   3.862   2.723   9.212 -0.7634  0.2748  0.5763
  923MPD2    C213559   3.919   2.600   9.221 -0.1323  0.7944  0.5311
  923MPD2    C313560   4.063   2.585   9.231  0.5764  0.3637 -0.7141
  923MPD2    C413561   4.132   2.701   9.219  0.2841 -0.1687  0.3717
  923MPD2    C513562   4.079   2.823   9.203 -0.3846 -0.0081 -0.6945
  923MPD2     H13563   3.850   2.516   9.225  0.9070 -0.0093  1.5177
  923MPD2    H113564   4.240   2.696   9.234  0.2487  1.1177  1.0460
  923MPD2    H213565   3.902   2.934   9.194 -1.1490 -1.0609 -0.6718
  923MPD2    H313566   4.141   2.912   9.193 -0.4556  0.1151 -0.0383
  923MPD2     N13567   4.129   2.461   9.249  0.1644  0.2202 -0.6918
  923MPD2    H513568   4.229   2.466   9.265 -0.0625  2.7393 -0.1545
  923MPD2    N113569   3.718   2.738   9.220 -0.1928 -0.2883  0.0682
  923MPD2    H713570   3.674   2.821   9.182 -0.6122 -0.0121  1.1803
  924MPD2     C13571   2.666   4.321  17.058  0.0747  0.2456  0.5422
  924MPD2    C113572   2.586   4.386  16.968 -0.1151 -0.1790  0.2487
  924MPD2    C213573   2.637   4.501  16.903 -1.1446  0.6319  0.0923
  924MPD2    C313574   2.758   4.561  16.944 -0.1264  0.2053  0.5475
  924MPD2    C413575   2.837   4.501  17.034  0.2930  0.4514  0.6261
  924MPD2    C513576   2.792   4.384  17.085 -0.5441 -0.4752  0.4921
  924MPD2     H13577   2.593   4.532  16.809 -1.2322 -0.8803 -0.3676
  924MPD2    H113578   2.932   4.540  17.068  1.7765 -1.8474 -0.8826
  924MPD2    H213579   2.622   4.230  17.096  0.8928 -0.8476 -1.1308
  924MPD2    H313580   2.854   4.334  17.158  3.7666 -0.0312 -2.8858
  924MPD2     N13581   2.788   4.696  16.901  0.1496  0.1839  0.0740
  924MPD2    H513582   2.873   4.733  16.942  0.8238  0.6376 -1.7503
  924MPD2    N113583   2.468   4.322  16.930 -0.2239  0.1873 -0.3610
  924MPD2    H713584   2.456   4.226  16.961  1.3717  0.1970  0.2663
  925MPD2     C13585   1.582   2.188  14.613  0.0286 -0.1058  0.4446
  925MPD2    C113586   1.446   2.205  14.608  0.5834  0.3164  0.4740
  925MPD2    C213587   1.370   2.205  14.725  0.0322 -0.9823  0.5082
  925MPD2    C313588   1.431   2.189  14.848 -0.1299 -0.6532  0.3147
  925MPD2    C413589   1.566   2.171  14.850 -0.7210  0.0182 -0.1871
  925MPD2    C513590   1.638   2.168  14.734 -0.0492  0.2268 -0.5449
  925MPD2     H13591   1.263   2.193  14.720 -0.0577 -0.3869  1.0132
  925MPD2    H113592   1.619   2.143  14.941 -0.0614 -1.4941 -1.0438
  925MPD2    H213593   1.646   2.178  14.525  0.9958  0.1662  1.1177
  925MPD2    H313594   1.745   2.154  14.741  0.3245  3.0671 -0.6246
  925MPD2     N13595   1.362   2.197  14.972  0.4334  1.2264  0.3294
  925MPD2    H513596   1.416   2.186  15.058 -0.8582 -2.1248  0.7142
  925MPD2    N113597   1.375   2.225  14.489 -0.1230  0.5812 -0.6326
  925MPD2    H713598   1.274   2.230  14.497  0.1181  0.6035  2.3771
  926MPD2     C13599   0.299   0.357  13.770  0.4511 -0.3680 -0.1961
  926MPD2    C113600   0.268   0.481  13.743  0.0474  0.4924  0.0034
  926MPD2    C213601   0.338   0.557  13.654 -0.5612  0.1860  0.5389
  926MPD2    C313602   0.454   0.509  13.599  0.4978 -0.7563  0.2758
  926MPD2    C413603   0.493   0.373  13.629 -0.2695  0.7800  0.4039
  926MPD2    C513604   0.414   0.305  13.721 -0.0720 -0.6567  0.1232
  926MPD2     H13605   0.306   0.658  13.630  0.9758  0.6636  0.4771
  926MPD2    H113606   0.579   0.321  13.588 -0.6600 -0.1576  0.7752
  926MPD2    H213607   0.238   0.298  13.837  0.6361 -0.0595  0.2426
  926MPD2    H313608   0.449   0.206  13.747  0.4270 -0.5750 -0.2370
  926MPD2     N13609   0.534   0.575  13.502 -0.3197 -0.2267  0.4740
  926MPD2    H513610   0.617   0.531  13.463  0.2546  0.5757  0.7917
  926MPD2    N113611   0.150   0.539  13.794 -0.5418 -0.5475  0.3033
  926MPD2    H713612   0.134   0.632  13.757  0.7086  0.6738  2.8139
  927MPD2     C13613   0.799   2.812  17.590 -0.2316  0.0890  0.6082
  927MPD2    C113614   0.666   2.844  17.576  0.4061 -0.0364 -0.9578
  927MPD2    C213615   0.608   2.854  17.450 -0.2292 -0.2030 -0.5004
  927MPD2    C313616   0.686   2.819  17.340 -0.5613  0.2515  0.4025
  927MPD2    C413617   0.816   2.780  17.351 -0.6310 -0.1656  0.3064
  927MPD2    C513618   0.876   2.778  17.477  0.0586  0.6599  0.1918
  927MPD2     H13619   0.505   2.876  17.426  0.0070  0.6278 -0.7539
  927MPD2    H113620   0.885   2.763  17.270 -1.4967  0.8849 -0.6559
  927MPD2    H213621   0.857   2.782  17.677 -0.5409  1.5226  1.3036
  927MPD2    H313622   0.976   2.740  17.494 -0.6264 -1.2564 -0.0614
  927MPD2     N13623   0.623   2.829  17.205  0.3349  0.1974  0.1326
  927MPD2    H513624   0.540   2.887  17.200  0.5006  0.3543 -0.8053
  927MPD2    N113625   0.588   2.855  17.694  0.2389 -0.2495  0.5019
  927MPD2    H713626   0.647   2.852   0.035  1.6822 -1.4023 -0.5812
  928MPD2     C13627   2.519   1.665   1.138 -0.5700  0.3073  0.4352
  928MPD2    C113628   2.644   1.679   1.191  0.6837 -0.0228  0.1282
  928MPD2    C213629   2.758   1.676   1.116 -0.0333 -0.1954 -0.0535
  928MPD2    C313630   2.747   1.623   0.989 -0.7339  0.5538  0.1539
  928MPD2    C413631   2.618   1.597   0.937 -1.3986 -0.1538  0.2398
  928MPD2    C513632   2.509   1.616   1.009 -0.7148  0.2252 -0.0446
  928MPD2     H13633   2.856   1.689   1.160 -0.6275  0.9291  0.9429
  928MPD2    H113634   2.614   1.565   0.834  3.0341 -0.7157  0.2180
  928MPD2    H213635   2.425   1.672   1.192 -0.9303 -0.6146 -0.0625
  928MPD2    H313636   2.412   1.604   0.962 -0.3953 -0.1690 -0.5993
  928MPD2     N13637   2.856   1.600   0.901  0.8131  0.4650  0.0418
  928MPD2    H513638   2.832   1.567   0.808 -0.7508 -1.5052  1.1459
  928MPD2    N113639   2.650   1.719   1.323  0.2264  0.1680 -0.2476
  928MPD2    H713640   2.563   1.744   1.368  0.2958  1.1173 -0.6411
  929MPD2     C13641   3.161   1.305   9.719  0.1057 -0.0148 -0.0137
  929MPD2    C113642   3.090   1.216   9.798 -0.6974 -0.3983  0.2304
  929MPD2    C213643   3.008   1.122   9.735 -0.0627 -0.3894 -0.0988
  929MPD2    C313644   2.980   1.134   9.600  0.4217 -0.3303 -0.4509
  929MPD2    C413645   3.062   1.219   9.525  0.6243  0.9780 -0.0371
  929MPD2    C513646   3.145   1.301   9.585 -0.1082  0.2524  0.7289
  929MPD2     H13647   2.942   1.058   9.794 -0.4049  0.1626  0.1219
  929MPD2    H113648   3.048   1.227   9.418 -0.4942 -1.4950 -0.0775
  929MPD2    H213649   3.222   1.383   9.763 -1.5053  1.1232  0.2177
  929MPD2    H313650   3.195   1.375   9.523 -0.5408 -0.2520 -0.2206
  929MPD2     N13651   2.883   1.057   9.528 -0.3090 -0.0721  0.2289
  929MPD2    H513652   2.907   1.054   9.429  0.0390  1.5187  0.2694
  929MPD2    N113653   3.098   1.219   9.938 -0.3556 -0.8157  0.2089
  929MPD2    H713654   3.125   1.308   9.978  1.1751 -1.7107  1.1462
  930MPD2     C13655   4.405   3.551  13.992 -0.7226 -0.4163 -0.0331
  930MPD2    C113656   4.538   3.591  13.982 -0.6245  0.2705  0.1368
  930MPD2    C213657   4.591   3.587  13.850 -0.6012 -0.3937  0.3954
  930MPD2    C313658   4.516   3.555  13.743 -0.0300  0.4408 -0.1194
  930MPD2    C413659   4.384   3.517  13.760 -0.2018 -1.0378 -0.5510
  930MPD2    C513660   4.329   3.520  13.884 -0.0722  0.2317  0.5297
  930MPD2     H13661   4.684   3.638  13.830 -0.1085 -0.9898  1.1737
  930MPD2    H113662   4.317   3.495  13.678 -1.7795 -0.6579  0.6383
  930MPD2    H213663   4.363   3.542  14.092  3.3165  1.9805  1.9023
  930MPD2    H313664   4.224   3.495  13.898  0.1511  0.2084  2.1850
  930MPD2     N13665   4.559   3.556  13.610 -0.4475 -0.1972 -0.2597
  930MPD2    H513666   4.491   3.570  13.536  1.7870  0.6242 -2.1628
  930MPD2    N113667   4.606   3.636  14.099 -0.3706  0.0914  0.0521
  930MPD2    H713668   4.547   3.675  14.173  0.7466  1.7041  0.0930
  931MPD2     C13669   0.850   2.848   0.534 -0.2824 -0.3536  0.3578
  931MPD2    C113670   0.710   2.841   0.545 -0.1324 -0.7324 -0.2859
  931MPD2    C213671   0.651   2.790   0.663  0.2986 -0.2368 -0.3264
  931MPD2    C313672   0.734   2.758   0.770  0.6523 -0.0774 -0.0796
  931MPD2    C413673   0.869   2.770   0.756 -0.2240 -0.4929 -0.2931
  931MPD2    C513674   0.926   2.815   0.639  0.3506  1.0147  0.0725
  931MPD2     H13675   0.547   2.760   0.661  0.3591 -0.5527  1.0701
  931MPD2    H113676   0.936   2.752   0.839 -1.5850  0.1932  0.9384
  931MPD2    H213677   0.893   2.877   0.439  2.0559 -0.2730  1.4318
  931MPD2    H313678   1.033   2.823   0.624  0.4967 -0.2862  0.3768
  931MPD2     N13679   0.686   2.704   0.889  0.1977 -1.1526  0.2065
  931MPD2    H513680   0.764   2.675   0.947  0.7896 -0.3120 -0.1759
  931MPD2    N113681   0.634   2.863   0.429  0.7066  0.8811  0.1371
  931MPD2    H713682   0.668   2.840   0.336  1.4765 -2.4616  1.2478
  932MPD2     C13683   1.721   1.501  11.291 -0.2644  0.2033 -0.0695
  932MPD2    C113684   1.765   1.583  11.386 -0.7222  0.7943  0.0421
  932MPD2    C213685   1.781   1.537  11.514 -0.6825  0.2590  0.1887
  932MPD2    C313686   1.750   1.404  11.551 -0.4992  0.3025  0.1886
  932MPD2    C413687   1.700   1.323  11.456 -0.3195 -0.0830 -0.5996
  932MPD2    C513688   1.688   1.370  11.330  0.5919  0.2118 -0.7986
  932MPD2     H13689   1.830   1.600  11.587 -0.4393 -1.5212  1.5754
  932MPD2    H113690   1.679   1.220  11.481 -0.7625  0.2372  0.3645
  932MPD2    H213691   1.703   1.537  11.190  2.7532 -1.7094 -1.2988
  932MPD2    H313692   1.650   1.308  11.250  2.1513  1.7556 -2.7177
  932MPD2     N13693   1.786   1.346  11.679 -0.2426  0.0696  0.0171
  932MPD2    H513694   1.772   1.246  11.693  1.0216  0.0781  1.3716
  932MPD2    N113695   1.786   1.724  11.369  0.4636  0.0352 -0.0253
  932MPD2    H713696   1.820   1.777  11.448 -1.1232  0.4400  0.3838
  933MPD2     C13697   2.212   2.030   1.940 -0.3152  0.4639 -0.4768
  933MPD2    C113698   2.237   2.031   1.801 -1.0975 -0.4368  0.1386
  933MPD2    C213699   2.132   2.043   1.714 -0.3811  0.2390  0.1880
  933MPD2    C313700   2.006   2.029   1.757 -0.8713 -0.0913 -0.5202
  933MPD2    C413701   1.984   2.026   1.898 -0.0838 -0.2033  0.0018
  933MPD2    C513702   2.085   2.042   1.984  0.3523  0.4888  0.2678
  933MPD2     H13703   2.159   2.038   1.609  1.1784  1.5874  0.5290
  933MPD2    H113704   1.885   2.029   1.941  1.5443  2.7664  3.4993
  933MPD2    H213705   2.293   2.018   2.010 -1.4099  1.5346  0.9728
  933MPD2    H313706   2.061   2.049   2.089  0.4101 -1.0549  0.3892
  933MPD2     N13707   1.895   2.018   1.661 -0.0560 -0.0803 -0.0570
  933MPD2    H513708   1.918   2.027   1.562  2.5553  0.0131  0.5785
  933MPD2    N113709   2.377   2.012   1.756 -0.1285  0.1159  0.2469
  933MPD2    H713710   2.443   2.017   1.833 -0.1993  0.5278  0.2773
  934MPD2     C13711   3.602   3.564   1.858  0.0351 -0.5968  0.6127
  934MPD2    C113712   3.718   3.511   1.788 -0.0340 -0.1662  0.0504
  934MPD2    C213713   3.692   3.454   1.668 -0.1472 -0.1362 -0.2033
  934MPD2    C313714   3.567   3.431   1.616 -0.0655 -0.0133 -0.7716
  934MPD2    C413715   3.457   3.471   1.691 -0.1425 -0.2353  0.5915
  934MPD2    C513716   3.478   3.541   1.806  0.3435  0.2094 -0.2029
  934MPD2     H13717   3.779   3.432   1.607  0.8794  2.7485  0.2143
  934MPD2    H113718   3.356   3.460   1.652 -0.7125  1.9268  1.4479
  934MPD2    H213719   3.610   3.626   1.947 -0.0922  1.0847 -0.5404
  934MPD2    H313720   3.392   3.581   1.859 -0.7919 -1.8922 -0.4795
  934MPD2     N13721   3.543   3.363   1.494  0.4129 -0.1541 -0.0010
  934MPD2    H513722   3.444   3.357   1.472  0.9102 -0.9606 -2.0148
  934MPD2    N113723   3.848   3.558   1.810  0.5843 -0.6213 -0.1340
  934MPD2    H713724   3.923   3.511   1.760  1.0537 -0.1514  0.1165
  935MPD2     C13725   3.991   2.657   0.957  0.5262  0.8538 -0.4906
  935MPD2    C113726   3.853   2.622   0.939 -0.1646 -0.5535 -0.7874
  935MPD2    C213727   3.762   2.702   1.004  0.0164 -0.0724  0.1498
  935MPD2    C313728   3.799   2.811   1.084  0.5147 -0.8168  0.0977
  935MPD2    C413729   3.935   2.847   1.081 -0.1549  0.0580  0.7060
  935MPD2    C513730   4.025   2.772   1.013 -0.1838  0.5538 -0.2649
  935MPD2     H13731   3.660   2.665   0.994 -0.2495  0.0121  2.4797
  935MPD2    H113732   3.988   2.926   1.134  0.9398  0.1176 -0.4759
  935MPD2    H213733   4.073   2.598   0.917 -0.0997 -2.1791  2.6156
  935MPD2    H313734   4.131   2.795   1.015  0.3856 -1.9664 -0.6489
  935MPD2     N13735   3.714   2.902   1.156  0.0856  0.2722 -0.0758
  935MPD2    H513736   3.759   2.984   1.197  0.4989  0.1726 -0.3251
  935MPD2    N113737   3.807   2.507   0.870 -0.2670 -0.1469 -0.4110
  935MPD2    H713738   3.710   2.498   0.843 -1.0094 -0.1206  2.1665
  936MPD2     C13739   2.593   0.899  12.495 -0.4631  0.4797 -0.4832
  936MPD2    C113740   2.613   0.795  12.578  0.1011 -0.2878 -0.3196
  936MPD2    C213741   2.719   0.798  12.663 -0.0801 -0.3060 -0.5463
  936MPD2    C313742   2.822   0.892  12.660  0.4849  0.3516  0.0078
  936MPD2    C413743   2.805   0.997  12.569  0.4085 -0.4406  0.4678
  936MPD2    C513744   2.691   0.996  12.489  0.8637 -0.2895 -1.0766
  936MPD2     H13745   2.731   0.710  12.726 -0.1056  1.0289  1.3121
  936MPD2    H113746   2.864   1.088  12.566  0.9038 -0.7923 -0.3399
  936MPD2    H213747   2.504   0.917  12.435 -0.1744  0.2457 -0.9881
  936MPD2    H313748   2.672   1.083  12.428  0.3250 -0.5884 -1.3355
  936MPD2     N13749   2.926   0.869  12.761  0.8573  0.4139 -0.4790
  936MPD2    H513750   2.909   0.799  12.832 -0.6300  0.5641 -0.6727
  936MPD2    N113751   2.516   0.694  12.603 -0.1156  0.2059 -0.2846
  936MPD2    H713752   2.548   0.619  12.664  1.2574 -0.7331 -2.1602
  937MPD2     C13753   0.197   1.872  11.437 -0.4037  0.4757 -0.3966
  937MPD2    C113754   0.219   2.003  11.466 -0.2986  0.0004 -0.8966
  937MPD2    C213755   0.301   2.072  11.384 -0.5612  0.5989 -0.2120
  937MPD2    C313756   0.374   2.008  11.279  0.9512 -0.7168  0.2514
  937MPD2    C413757   0.365   1.871  11.259 -0.4370  0.2386 -0.7201
  937MPD2    C513758   0.269   1.810  11.336 -0.5811  0.3343 -0.1982
  937MPD2     H13759   0.312   2.176  11.413  2.3135  0.2436  0.0089
  937MPD2    H113760   0.423   1.810  11.191 -1.4683 -1.0311 -0.4467
  937MPD2    H213761   0.115   1.822  11.487  0.1851  0.4000  0.5011
  937MPD2    H313762   0.254   1.704  11.324 -0.3230  0.8229 -4.8921
  937MPD2     N13763   0.450   2.082  11.195  0.1689 -0.3362  0.4756
  937MPD2    H513764   0.457   2.177  11.229 -1.2887  0.1527 -0.6179
  937MPD2    N113765   0.125   2.069  11.550  0.4155 -0.0354  0.3280
  937MPD2    H713766   0.144   2.168  11.554  2.0454 -0.3682  1.0208
  938MPD2     C13767   3.141   2.744   0.857 -0.0640 -0.4811 -0.0785
  938MPD2    C113768   3.167   2.862   0.930  0.7861 -0.3252  0.4251
  938MPD2    C213769   3.135   2.863   1.063  0.1456  0.5550 -0.3013
  938MPD2    C313770   3.088   2.746   1.124 -0.2897 -0.0501 -0.1946
  938MPD2    C413771   3.076   2.630   1.055  0.3238 -0.8106  0.5892
  938MPD2    C513772   3.100   2.626   0.925 -0.3154  0.3683 -0.2575
  938MPD2     H13773   3.148   2.955   1.119  1.1171  0.3729 -0.2389
  938MPD2    H113774   3.031   2.539   1.094  1.6258 -2.5126 -1.8561
  938MPD2    H213775   3.164   2.741   0.751 -0.2389 -0.7885 -0.1062
  938MPD2    H313776   3.075   2.541   0.861  0.6080  1.4553 -2.0789
  938MPD2     N13777   3.061   2.749   1.260 -1.2749 -0.3115  0.7659
  938MPD2    H513778   3.034   2.659   1.299  1.1915 -0.6225  1.8099
  938MPD2    N113779   3.205   2.977   0.867  0.2438 -0.5078 -0.3725
  938MPD2    H713780   3.214   3.065   0.916  1.6616 -0.1957 -1.1892
  939MPD2     C13781   3.995   4.704   0.281 -0.2208 -0.4579  0.5813
  939MPD2    C113782   3.864   4.642   0.291  0.4262 -0.1397  0.0192
  939MPD2    C213783   3.839   4.511   0.255  0.2371  1.0219  0.8614
  939MPD2    C313784   3.952   4.441   0.216 -0.1791  0.0185 -0.5552
  939MPD2    C413785   4.081   4.487   0.222 -0.1297  0.7706 -0.3164
  939MPD2    C513786   4.099   4.621   0.250  0.4071  0.5570  0.5791
  939MPD2     H13787   3.741   4.464   0.257  0.2704  0.9766  1.3593
  939MPD2    H113788   4.174   4.432   0.213  0.3291  1.5235 -0.1470
  939MPD2    H213789   4.009   0.071   0.310  2.5833 -0.3318 -1.1979
  939MPD2    H313790   4.196   4.668   0.237  0.9981 -1.1427 -1.2614
  939MPD2     N13791   3.927   4.309   0.182  0.0785 -0.4594  0.0558
  939MPD2    H513792   3.835   4.274   0.207 -0.6898  0.7270 -1.0738
  939MPD2    N113793   3.770   4.733   0.339  0.1921 -0.0982 -0.1522
  939MPD2    H713794   3.813   0.087   0.357  0.4683 -0.1624 -0.4942
  940MPD2     C13795   3.117   0.001  12.769  0.3129 -0.0799  0.2904
  940MPD2    C113796   3.066   0.118  12.806  0.5698 -0.2446  0.3073
  940MPD2    C213797   3.023   0.212  12.709 -0.3642  0.0296  0.2572
  940MPD2    C313798   3.021   0.175  12.573 -0.0649  1.1103  0.6148
  940MPD2    C413799   3.070   0.047  12.538 -0.2148  0.3867  0.0589
  940MPD2    C513800   3.127   4.708  12.636 -0.7183 -0.5620 -0.2939
  940MPD2     H13801   2.964   0.299  12.736  0.7374  1.6018 -2.4826
  940MPD2    H113802   3.088   0.021  12.435 -0.9206  0.8679 -0.1906
  940MPD2    H213803   3.178   4.674  12.833  0.7336 -2.1485 -2.1148
  940MPD2    H313804   3.176   4.617  12.603  2.4627  1.1567 -0.3503
  940MPD2     N13805   2.957   0.267  12.483 -0.5110 -0.2409 -0.1984
  940MPD2    H513806   2.934   0.238  12.389  0.6716 -1.2841 -0.1613
  940MPD2    N113807   3.076   0.168  12.935  0.3413  1.1940 -0.6370
  940MPD2    H713808   3.040   0.261  12.950 -2.7068 -0.3580  1.6171
  941MPD2     C13809   2.129   4.451   9.271 -0.1715 -0.5629  0.2470
  941MPD2    C113810   2.169   4.396   9.392 -0.0483 -0.1093 -0.2000
  941MPD2    C213811   2.106   4.283   9.448 -0.3430 -0.4921 -0.2348
  941MPD2    C313812   2.016   4.213   9.373 -0.9727 -0.2789  0.1121
  941MPD2    C413813   1.985   4.265   9.248  0.2222 -0.3722  0.1732
  941MPD2    C513814   2.038   4.380   9.202 -0.0380 -0.1270  0.3791
  941MPD2     H13815   2.148   4.243   9.539  1.1633  1.1931 -0.1924
  941MPD2    H113816   1.915   4.207   9.190  0.5089  1.0174 -1.5593
  941MPD2    H213817   2.169   4.540   9.224  0.2611 -1.7369 -1.6314
  941MPD2    H313818   2.017   4.405   9.099 -0.5891 -0.3388  0.4378
  941MPD2     N13819   1.958   4.089   9.420  0.1605 -0.0930  0.2716
  941MPD2    H513820   1.889   4.043   9.362 -3.0247  1.2667  2.9357
  941MPD2    N113821   2.273   4.451   9.468 -0.3478  0.1654  0.5596
  941MPD2    H713822   2.286   4.405   9.558  0.2635  0.4771  0.6316
  942MPD2     C13823   4.007   1.833   9.053 -0.2475  0.4430  0.4356
  942MPD2    C113824   3.887   1.898   9.059 -0.4562 -0.0412  0.0059
  942MPD2    C213825   3.775   1.821   9.067  0.1848  0.6971  0.1105
  942MPD2    C313826   3.779   1.684   9.073 -0.1974 -0.4508 -0.0827
  942MPD2    C413827   3.895   1.618   9.070  0.2864 -0.2329  0.3852
  942MPD2    C513828   4.005   1.697   9.058  0.4311 -0.4289 -0.4362
  942MPD2     H13829   3.688   1.885   9.061 -1.9276 -2.5032 -2.4889
  942MPD2    H113830   3.905   1.511   9.082  0.6557 -0.2363  0.0337
  942MPD2    H213831   4.108   1.872   9.056 -1.0107  2.3989  0.9617
  942MPD2    H313832   4.094   1.636   9.051  1.2449  0.7562 -0.4825
  942MPD2     N13833   3.666   1.607   9.089  0.2098 -0.1427 -0.2075
  942MPD2    H513834   3.679   1.510   9.114  0.4975 -0.1638 -0.4509
  942MPD2    N113835   3.876   2.037   9.024 -0.1944 -0.5660 -0.9299
  942MPD2    H713836   3.781   2.073   9.022 -1.0420 -2.6338  1.7473
  943MPD2     C13837   0.484   4.618  10.478  0.0228 -0.0727 -0.1996
  943MPD2    C113838   0.472   4.481  10.508 -0.4573 -0.0549 -1.0199
  943MPD2    C213839   0.421   4.447  10.631 -0.1739  0.2421 -0.9336
  943MPD2    C313840   0.384   4.548  10.714 -0.2714  0.0970  0.2300
  943MPD2    C413841   0.400   4.686  10.681 -0.3370  0.3308  0.4366
  943MPD2    C513842   0.442   4.715  10.556 -0.1678 -0.2722 -0.3308
  943MPD2     H13843   0.421   4.345  10.667  2.8937  0.6870  0.3254
  943MPD2    H113844   0.374   0.035  10.744  1.2014  1.7133 -0.7791
  943MPD2    H213845   0.542   4.650  10.393  2.5352  1.3707  2.0536
  943MPD2    H313846   0.434   0.083  10.528 -0.8063 -0.4014 -0.6312
  943MPD2     N13847   0.330   4.523  10.843  0.4633  0.0138 -0.5081
  943MPD2    H513848   0.324   4.609  10.897 -0.2421 -0.3612  0.0079
  943MPD2    N113849   0.509   4.395  10.407 -0.6261  0.2853 -0.1315
  943MPD2    H713850   0.539   4.447  10.325  0.9633  0.5134  0.6007
  944MPD2     C13851   0.295   3.204  10.994 -0.1368 -0.0871 -0.6804
  944MPD2    C113852   0.346   3.181  11.120  0.9461  0.6192  0.3739
  944MPD2    C213853   0.355   3.286  11.205  0.3628  0.1080 -0.4629
  944MPD2    C313854   0.313   3.414  11.170 -0.3052 -0.3340  0.6624
  944MPD2    C413855   0.264   3.434  11.042  0.0753 -0.1342  0.6412
  944MPD2    C513856   0.258   3.330  10.957 -0.0626 -0.4868 -0.0418
  944MPD2     H13857   0.382   3.275  11.310  0.9474 -0.7686 -0.7098
  944MPD2    H113858   0.221   3.528  11.011 -1.6994 -1.3631 -0.6826
  944MPD2    H213859   0.276   3.130  10.918  0.0721 -1.4177  0.5550
  944MPD2    H313860   0.222   3.353  10.858  2.8141  0.1900 -0.9276
  944MPD2     N13861   0.325   3.524  11.263  0.1082 -0.5014  0.1658
  944MPD2    H513862   0.352   3.500  11.358  0.3655 -2.6322 -0.4243
  944MPD2    N113863   0.391   3.053  11.156  0.0527 -0.1724  0.2793
  944MPD2    H713864   0.372   2.975  11.094  2.5858 -0.0588 -0.6400
    1TMC1    C113865   3.976   3.921  14.213  0.1036  0.1111 -0.4403
    1TMC1    C213866   3.926   3.799  14.238  0.1419 -0.2102 -0.3742
    1TMC1    C313867   4.010   3.687  14.259 -0.1368 -0.3531 -0.3586
    1TMC1    C413868   4.116   3.948  14.230 -0.2530  0.5921 -0.3395
    1TMC1    C513869   4.197   3.833  14.238  0.2355 -0.6633  0.1285
    1TMC1    C613870   4.150   3.703  14.258 -0.0715  0.2156  0.1950
    1TMC1     C13871   3.880   4.023  14.275 -0.5848  0.3630  0.5636
    1TMC1     O13872   3.764   4.023  14.241  0.4166 -0.0018 -0.0595
    1TMC1     H13873   3.818   3.790  14.241  0.1047  0.4430  0.1757
    1TMC1    H113874   4.152   4.049  14.212  3.9363 -0.6988  0.8797
    1TMC1    H213875   4.224   3.624  14.260  0.7518  1.0242  2.5219
    1TMC1    C713876   4.339   3.841  14.241 -0.4299  0.3318 -0.1634
    1TMC1    C813877   3.964   3.550  14.244 -0.2429  0.1676 -0.2680
    1TMC1    O113878   4.414   3.759  14.292  0.3947 -0.3060 -0.3757
    1TMC1    O213879   4.044   3.457  14.224  0.3276 -0.1127  0.1880
    1TMC1    O313880   4.362   3.912  14.129 -0.4066 -0.2047 -0.0915
    1TMC1    H313881   4.281   3.952  14.091 -1.0808 -1.7273 -0.2279
    1TMC1    O513882   3.852   3.536  14.311  0.4968 -0.0035  0.0022
    1TMC1    H513883   3.813   3.620  14.343  2.0511 -0.3406  2.7222
    2MPD2     C13884   3.773   4.271  14.707 -0.3701 -0.5861  0.2138
    2MPD2    C113885   3.696   4.271  14.595 -0.0255 -0.7715 -0.0147
    2MPD2    C213886   3.744   4.213  14.473  0.3883  0.2550  0.5219
    2MPD2    C313887   3.872   4.153  14.482  0.2096  0.4072 -0.1709
    2MPD2    C413888   3.950   4.148  14.596 -0.6912  0.3201 -0.1107
    2MPD2    C513889   3.896   4.212  14.711 -0.3530  0.6776 -0.0686
    2MPD2     H13890   3.690   4.204  14.380  1.6044 -0.3771 -0.1203
    2MPD2    H113891   4.049   4.103  14.596 -0.8060  0.0872 -1.6221
    2MPD2    H213892   3.739   4.326  14.794 -4.4855 -0.7395 -1.3101
    2MPD2    H313893   3.962   4.213  14.797  0.6209 -2.4523 -0.7645
    2MPD2     N13894   3.940   4.083  14.384  0.4886  0.2299 -0.5445
    2MPD2    H513895   4.029   4.037  14.399 -0.2822 -0.9197  0.5210
    2MPD2    N113896   3.580   4.351  14.612  0.1485 -0.0801  0.0349
    2MPD2    H713897   3.561   4.382  14.706 -1.5311 -0.1736 -0.2649
    3TMC2    C113898   3.409   4.503  14.534 -0.1591 -0.1460  0.0117
    3TMC2    C213899   3.343   4.505  14.656 -0.0079  0.1643  0.1005
    3TMC2    C313900   3.253   4.604  14.683  0.0526  0.0840  0.7511
    3TMC2    C413901   3.390   4.613  14.444 -0.2479  0.5038  0.3010
    3TMC2    C513902   3.299   4.706  14.475  0.1596 -0.4267 -0.2361
    3TMC2    C613903   3.236   4.708  14.598 -0.7628  0.1494 -0.4038
    3TMC2     C13904   3.513   4.411  14.504  0.0021  0.3565  0.7335
    3TMC2     O13905   3.541   4.401  14.381 -0.4090 -0.3696  0.5746
    3TMC2     H13906   3.357   4.429  14.732  0.0284  0.2703  0.2008
    3TMC2    H113907   3.441   4.609  14.348  0.9119 -3.1090  1.0653
    3TMC2    H213908   3.173   0.056  14.627 -0.6812  0.2648 -0.5624
    3TMC2    C713909   3.292   0.089  14.394  0.0995  0.1585 -0.0906
    3TMC2    C813910   3.242   4.648  14.825  1.1494  0.0312 -0.0948
    3TMC2    O113911   3.189   0.156  14.417 -0.1122 -0.5541  0.4293
    3TMC2    O213912   3.199   0.021  14.860 -0.0576 -0.0286  0.1840
    3TMC2    O513913   3.219   4.532  14.890 -0.1144 -0.2529  0.7336
    3TMC2    H513914   3.213   4.447  14.842  1.9330 -0.7104  1.2946
    4TMC2    C113915   2.750   0.588  14.016 -0.3164 -0.3944  0.0910
    4TMC2    C213916   2.743   0.560  13.886 -0.0717 -0.3688 -0.2661
    4TMC2    C313917   2.858   0.516  13.825  0.2034 -0.1154 -0.0366
    4TMC2    C413918   2.864   0.567  14.088  0.4477 -0.0918 -0.4226
    4TMC2    C513919   2.981   0.530  14.021 -0.4435 -0.2451 -0.8598
    4TMC2    C613920   2.976   0.500  13.891 -0.0788 -0.5592 -0.6385
    4TMC2     C13921   2.642   0.670  14.084 -0.6147 -0.0962 -0.1088
    4TMC2     O13922   2.651   0.694  14.204 -0.7397 -0.6349 -0.0889
    4TMC2     H13923   2.648   0.562  13.834 -0.8042  1.8513  1.1342
    4TMC2    H113924   2.862   0.583  14.195 -0.5731  0.5511 -0.5390
    4TMC2    H213925   3.064   0.470  13.836  1.9067 -0.0370  2.2566
    4TMC2    C713926   3.082   0.486  14.100 -0.0791  0.2731  0.5442
    4TMC2    C813927   2.859   0.480  13.678  0.9098 -0.2448 -0.2675
    4TMC2    O113928   3.071   0.495  14.221  0.1804  0.1937 -0.1270
    4TMC2    O213929   2.950   0.411  13.628 -0.0626  0.1183  0.2002
    4TMC2    O513930   2.754   0.535  13.610 -0.2477 -0.1652 -0.6641
    4TMC2    H513931   2.697   0.603  13.650  0.2108  0.6678 -1.4218
    5MPD2     C13932   2.170   0.866  14.142 -0.6588  0.6116  0.1879
    5MPD2    C113933   2.182   0.818  14.012  0.2975 -0.4584 -0.5985
    5MPD2    C213934   2.308   0.764  13.979  0.0765 -0.7571  0.9709
    5MPD2    C313935   2.418   0.766  14.057 -0.2818 -0.1373 -0.4545
    5MPD2    C413936   2.402   0.833  14.178 -0.3072  0.4198 -0.3931
    5MPD2    C513937   2.282   0.886  14.219 -0.3005 -0.2106 -0.8326
    5MPD2     H13938   2.324   0.721  13.881 -1.4859 -1.2509  0.9328
    5MPD2    H113939   2.485   0.852  14.245  0.5344  0.4446 -1.4309
    5MPD2    H213940   2.076   0.907  14.175 -1.7456 -0.1576 -1.9894
    5MPD2    H313941   2.280   0.937  14.314 -1.5563 -0.3191 -0.8015
    5MPD2     N13942   2.529   0.689  14.014  0.1087 -0.0335 -0.6292
    5MPD2    H513943   2.514   0.638  13.928  0.0485 -0.8198 -0.1524
    5MPD2    N113944   2.067   0.836  13.924 -0.3476 -0.3135  0.6002
    5MPD2    H713945   1.980   0.868  13.965  0.9637  0.7623  2.5381
    6MPD1     C13946   2.708   1.474  12.305  0.1045 -0.1079  0.4160
    6MPD1    C113947   2.780   1.447  12.417 -0.1789 -0.3931 -0.2752
    6MPD1    C213948   2.707   1.398  12.528 -0.3670  0.1962 -0.2519
    6MPD1    C313949   2.565   1.371  12.516 -0.3829  0.5631 -0.4382
    6MPD1    C413950   2.500   1.410  12.405 -0.5463  0.5389  0.1751
    6MPD1    C513951   2.570   1.454  12.300 -0.5264 -0.1699  0.6481
    6MPD1     H13952   2.767   1.375  12.615  0.2392  0.2756 -0.6539
    6MPD1    H113953   2.393   1.404  12.393 -0.4530 -2.5316  0.8806
    6MPD1    H213954   2.757   1.517  12.218 -1.0419  0.7330  0.1837
    6MPD1    H313955   2.525   1.494  12.210  1.1353 -0.2875 -0.2309
    6MPD1     N13956   2.491   1.299  12.611  0.0295 -0.0649  0.5078
    6MPD1    H513957   2.390   1.289  12.601 -0.0996  1.9939 -0.3296
    6MPD1    N113958   2.915   1.498  12.429 -0.4462 -0.1861  0.2983
    6MPD1    H613959   2.959   1.442  12.501  1.4319 -0.8509 -1.3450
    6MPD1    H713960   2.970   1.485  12.343  0.6277  3.3200  0.4286
    7MPD2     C13961   1.847   1.295  13.081  0.3504 -0.8315  0.2616
    7MPD2    C113962   1.937   1.200  13.125 -0.3316 -0.3813  0.3143
    7MPD2    C213963   1.909   1.129  13.237  0.2888  0.7424 -1.0864
    7MPD2    C313964   1.793   1.162  13.303 -1.1047  0.0163 -0.7578
    7MPD2    C413965   1.698   1.254  13.253 -0.1027 -0.7402  0.6122
    7MPD2    C513966   1.727   1.319  13.139 -0.6794  0.2331 -0.1035
    7MPD2     H13967   1.977   1.053  13.272 -1.0060  0.7231  1.4182
    7MPD2    H113968   1.602   1.267  13.300 -0.5967  0.4888 -0.7254
    7MPD2    H213969   1.875   1.356  12.996  1.6628  0.2262  1.4423
    7MPD2    H313970   1.654   1.387  13.097 -1.0499 -1.7076 -2.5667
    7MPD2     N13971   1.766   1.090  13.420  0.4157 -0.2094  0.1069
    7MPD2    H513972   1.667   1.080  13.441  0.3213  2.7289  1.1128
    7MPD2    N113973   2.059   1.172  13.060 -0.6536  0.1373 -0.3597
    7MPD2    H713974   2.121   1.099  13.094 -0.1073  0.0366 -1.5744
    8TMC3    C113975   1.802   0.940  13.595  0.0466  0.1693 -0.4678
    8TMC3    C213976   1.886   0.936  13.696  0.1486  0.5618  0.0333
    8TMC3    C313977   1.939   0.811  13.731 -0.0123 -0.4272 -0.5066
    8TMC3    C413978   1.762   0.825  13.529  0.0460  0.3771 -0.1482
    8TMC3    C513979   1.837   0.709  13.547 -0.5233 -0.1371 -0.5380
    8TMC3    C613980   1.908   0.696  13.662  0.4953 -0.2031  0.0195
    8TMC3     C13981   1.862   1.032  13.506  0.5294 -0.1581 -0.1074
    8TMC3     O13982   1.980   1.029  13.507 -0.3824  0.0803 -0.1932
    8TMC3     H13983   1.922   1.024  13.749  0.1033  0.3583  0.4059
    8TMC3    H113984   1.706   0.838  13.436 -0.5256  0.7091  0.2394
    8TMC3    H213985   1.958   0.606  13.695 -3.2875 -2.2715  0.0689
    8TMC3    C713986   1.924   0.684  13.430 -0.0946  0.8103  0.0116
    8TMC3    C813987   2.072   0.800  13.792  0.0768  0.2810 -0.6403
    8TMC3    O113988   1.879   0.714  13.320 -0.2214 -0.0969  0.0631
    8TMC3    O213989   2.160   0.734  13.737 -0.1920  0.4961 -0.1785
    9TMC3    C113990   2.437   1.162  12.803 -0.2182 -0.0539  0.9923
    9TMC3    C213991   2.454   1.035  12.845  0.1943  0.3674 -1.1955
    9TMC3    C313992   2.355   0.967  12.912 -0.3477 -0.1025  0.3428
    9TMC3    C413993   2.317   1.225  12.823 -0.4698 -0.3141  0.6979
    9TMC3    C513994   2.224   1.157  12.897  0.3932 -0.1933 -0.0620
    9TMC3    C613995   2.240   1.029  12.943  0.5683  0.6346  0.1442
    9TMC3     C13996   2.535   1.235  12.722 -0.6026 -0.2110  0.1221
    9TMC3     O13997   2.653   1.217  12.749  0.1911  0.6634  0.7603
    9TMC3     H13998   2.549   0.987  12.829  0.9556  1.3938  0.2330
    9TMC3    H113999   2.289   1.320  12.778 -1.8640 -1.2982 -0.5046
    9TMC3    H214000   2.158   0.977  12.991  0.0889  1.2214 -0.0304
    9TMC3    C714001   2.106   1.229  12.941 -0.1502 -0.3998 -0.0429
    9TMC3    C814002   2.388   0.843  12.985  0.0738 -0.4921  0.3507
    9TMC3    O114003   2.067   1.334  12.888 -0.3087  0.4644  0.1096
    9TMC3    O214004   2.506   0.824  13.000  0.4057 -0.7214 -0.0518
   10MPD2     C14005   2.283   0.656  13.439  0.7613 -0.0764  0.0697
   10MPD2    C114006   2.170   0.657  13.377  0.0034  0.0929  0.4593
   10MPD2    C214007   2.166   0.683  13.239 -0.1563  0.5754 -0.4667
   10MPD2    C314008   2.286   0.709  13.169  0.2627  0.1749  0.3169
   10MPD2    C414009   2.400   0.701  13.237  0.6891 -0.2183 -0.9972
   10MPD2    C514010   2.399   0.683  13.373 -0.4931 -0.5588 -0.1346
   10MPD2     H14011   2.077   0.672  13.178 -0.8119 -0.4016  0.6713
   10MPD2    H114012   2.498   0.721  13.194  0.2195  0.9362 -1.5142
   10MPD2    H214013   2.291   0.625  13.543  0.3877  1.5804  0.5992
   10MPD2    H314014   2.493   0.681  13.426 -0.9406 -1.3511  0.6220
   10MPD2     N14015   2.278   0.774  13.040 -0.1957 -0.4147 -0.4303
   10MPD2    H514016   2.185   0.793  13.006 -0.5611 -2.1336 -0.4077
   10MPD2    N114017   2.056   0.657  13.463  0.2173  0.6869 -0.4572
   10MPD2    H714018   2.077   0.647  13.561  1.7845 -1.9183 -1.0821
   11MPD2     C14019   3.525   0.245  14.163  0.2970 -0.6720  0.0056
   11MPD2    C114020   3.408   0.224  14.222 -0.6397  0.2390 -0.2841
   11MPD2    C214021   3.293   0.294  14.183 -0.7999  0.4636  0.8559
   11MPD2    C314022   3.305   0.389  14.076 -0.6857  0.0097  0.2601
   11MPD2    C414023   3.429   0.407  14.016 -0.1870  0.1621 -0.2231
   11MPD2    C514024   3.540   0.336  14.058  0.3072  0.2746 -0.4099
   11MPD2     H14025   3.194   0.278  14.226 -0.8617  0.6362  0.7788
   11MPD2    H114026   3.443   0.492  13.950 -1.2322  0.7027  0.2264
   11MPD2    H214027   3.613   0.189  14.192  1.2120  1.5152  1.4660
   11MPD2    H314028   3.636   0.348  14.008  0.2513 -0.8176 -0.7713
   11MPD2     N14029   3.191   0.456  14.020  0.2702 -0.0402 -0.0658
   11MPD2    H514030   3.200   0.484  13.923 -0.6749 -0.8907 -0.3919
   11MPD2    N114031   3.404   0.121  14.322 -0.1383 -0.0699 -0.0010
   11MPD2    H714032   3.489   0.072  14.345 -0.5787  0.0511  1.8877
    1MPD1     C14033   0.983   2.074   0.144  0.6774 -0.2157 -0.2682
    1MPD1    C114034   1.007   1.981   0.241 -0.1026  0.1003 -0.0647
    1MPD1    C214035   1.141   1.942   0.246  0.6173 -0.0746 -0.2960
    1MPD1    C314036   1.228   1.975   0.150  0.5631 -0.0706 -0.4434
    1MPD1    C414037   1.197   2.059   0.047  1.2306 -0.3869 -0.0942
    1MPD1    C514038   1.077   2.119   0.054 -0.0387  0.3298  0.8445
    1MPD1     H14039   1.162   1.878   0.331 -1.5240  1.2358  1.2219
    1MPD1    H114040   1.267   2.078  17.708  1.9193  2.0003  1.0555
    1MPD1    H214041   0.881   2.109   0.130  0.0900 -1.0994  1.7859
    1MPD1    H314042   1.040   2.183  17.716 -1.0547 -0.6743  0.5102
    1MPD1     N14043   1.353   1.910   0.139 -0.1338 -0.5928  0.2775
    1MPD1    H514044   1.394   1.919   0.046 -1.1785  0.9914 -0.0371
    1MPD1    N114045   0.911   1.948   0.339 -0.3329 -0.5863 -0.0267
    1MPD1    H614046   0.919   1.849   0.362 -0.0283 -0.5969 -0.1641
    1MPD1    H714047   0.814   1.967   0.316 -0.3339  0.2581  0.6636
    2MPD1     C14048   1.730   1.813  17.190 -0.2914  0.8831  0.4452
    2MPD1    C114049   1.608   1.830  17.249  0.2901 -0.2735  0.4721
    2MPD1    C214050   1.605   1.825  17.386  0.1246 -0.3614  0.3163
    2MPD1    C314051   1.721   1.792  17.463 -0.0465 -1.0409  0.0010
    2MPD1    C414052   1.835   1.756  17.400 -0.3945  0.2758 -0.5189
    2MPD1    C514053   1.842   1.773  17.263  0.5236  0.0647  0.1472
    2MPD1     H14054   1.513   1.856  17.434 -1.0195 -2.9583 -0.2133
    2MPD1    H114055   1.924   1.729  17.457 -1.7135 -0.5250  1.1618
    2MPD1    H214056   1.737   1.810  17.082  2.5421 -0.3210  0.6681
    2MPD1    H314057   1.934   1.765  17.208 -0.6235 -0.5568 -1.6784
    2MPD1     N14058   1.706   1.792  17.602 -0.3299 -0.9538 -0.3844
    2MPD1    H514059   1.616   1.825  17.636 -0.1677  0.4037 -1.2509
    2MPD1    N114060   1.488   1.826  17.181 -0.4151 -0.0766 -0.2119
    2MPD1    H614061   1.422   1.898  17.209  0.7304  1.0506 -0.4531
    2MPD1    H714062   1.495   1.845  17.081 -1.2074 -2.3144 -0.6989
    3TMC3    C114063   1.737   1.752   0.098 -0.0804 -0.1019  0.0947
    3TMC3    C214064   1.767   1.640   0.168 -0.0279 -0.5053 -0.6954
    3TMC3    C314065   1.678   1.587   0.261 -0.0443 -0.0915 -0.1063
    3TMC3    C414066   1.610   1.812   0.113 -0.8645  0.3590 -0.0244
    3TMC3    C514067   1.522   1.763   0.208  0.1200 -0.1510  0.5217
    3TMC3    C614068   1.564   1.662   0.293  0.3429  0.2314 -0.1315
    3TMC3     C14069   1.798   1.757  17.703  0.1549  0.1826 -0.0512
    3TMC3     O14070   1.904   1.701  17.684  0.4720 -0.1644 -0.0480
    3TMC3     H14071   1.863   1.595   0.144  1.2730  0.2573  3.1079
    3TMC3    H114072   1.585   1.884   0.036 -0.6293  0.6211  0.1464
    3TMC3    H214073   1.516   1.638   0.387  1.0835  0.8304  0.4043
    3TMC3    C714074   1.411   1.836   0.242  0.6066 -0.0643  0.0239
    3TMC3    C814075   1.722   1.473   0.341  0.3164  0.1145 -0.3791
    3TMC3    O114076   1.370   1.816   0.354 -0.6286  0.1206  0.4538
    3TMC3    O214077   1.634   1.420   0.408  0.1939 -0.2012  0.6701
    4MPD1     C14078   2.031   1.082   0.458  0.2140  0.1689  0.5405
    4MPD1    C114079   2.060   1.125   0.327  0.2976  0.4991 -0.5522
    4MPD1    C214080   1.986   1.229   0.275  0.5138 -0.0435 -0.0907
    4MPD1    C314081   1.888   1.300   0.345 -0.1217  0.3297  0.1835
    4MPD1    C414082   1.853   1.252   0.469 -0.3035  0.5707 -0.3115
    4MPD1    C514083   1.923   1.142   0.526  1.4044 -0.0301  0.9525
    4MPD1     H14084   2.000   1.261   0.172 -1.2396  4.1209  0.9824
    4MPD1    H114085   1.791   1.310   0.537  0.1271  0.7928 -0.1122
    4MPD1    H214086   2.077   0.997   0.508  0.6327  1.1296  1.7849
    4MPD1    H314087   1.903   1.115   0.629 -3.0291  0.0469  0.1147
    4MPD1     N14088   1.831   1.418   0.287  0.1103 -0.5753  0.5635
    4MPD1    H514089   1.869   1.462   0.203  0.7044 -0.2706  0.9905
    4MPD1    N114090   2.161   1.061   0.259  0.0511  0.1348 -0.7072
    4MPD1    H614091   2.184   1.122   0.180 -2.5850  1.2253 -0.6308
    4MPD1    H714092   2.241   1.024   0.310 -2.0867 -1.8135  1.2385
    1TCq1    O114093   2.414   0.645  10.783 -0.2211  0.0440  0.6635
    1TCq1    C114094   2.422   0.583  10.903 -0.6397 -0.2391  0.6761
    1TCq1    O214095   2.524   0.574  10.968  0.1743 -0.2953 -0.0636
    1TCq1    C214096   2.298   0.498  10.930  0.3154  0.4437  0.1087
    1TCq1    C314097   2.178   0.532  10.876 -0.0548  0.2971 -0.4012
    1TCq1    C414098   2.065   0.462  10.918 -0.3266  0.1010 -0.4131
    1TCq1    C514099   2.078   0.367  11.011  0.1238  0.0425 -0.4672
    1TCq1    C614100   2.195   0.349  11.081 -0.3276 -0.5879  0.7128
    1TCq1    C714101   2.303   0.423  11.040 -0.9004  0.0616 -0.4979
    1TCq1    C814102   2.224   0.236  11.175  0.6846  0.2582  0.1728
    1TCq1    O414103   2.336   0.211  11.219  0.1731  0.4821 -0.5501
    1TCq1    C914104   1.955   0.437  10.825  0.0024  0.0920  0.2640
    1TCq1    O514105   1.980   0.472  10.705 -0.1454 -1.1901 -0.0760
    1TCq1    O614106   1.846   0.385  10.865  0.4041  0.4233  0.5734
    1TCq1    H114107   2.329   0.644  10.734 -0.4052 -0.1260  0.9826
    1TCq1    H214108   2.174   0.579  10.778  0.7635 -1.5864 -1.3497
    1TCq1    H314109   1.994   0.303  11.033  1.3504 -0.9885  1.1434
    1TCq1    H414110   2.403   0.403  11.076 -1.9634 -0.0438  2.3820
    2MPD1     C14111   2.024   4.571  11.432  0.4506 -0.4127  0.2470
    2MPD1    C114112   1.921   4.660  11.401  0.4795  0.4968 -0.0456
    2MPD1    C214113   1.957   0.038  11.332 -0.4664  0.6819 -0.0575
    2MPD1    C314114   2.085   0.068  11.292  0.0399 -0.3346 -0.2086
    2MPD1    C414115   2.187   4.719  11.338 -0.0620 -0.0131  0.0223
    2MPD1    C514116   2.161   4.610  11.408  0.5227 -0.4690  0.2046
    2MPD1     H14117   1.889   0.119  11.306 -1.9243 -0.4256  0.2964
    2MPD1    H114118   2.293   4.730  11.315 -0.6682  0.4088 -2.5383
    2MPD1    H214119   1.998   4.475  11.474 -1.9692 -0.3136 -0.9865
    2MPD1    H314120   2.237   4.545  11.452  0.0117 -1.3515 -0.2166
    2MPD1     N14121   2.104   0.184  11.213 -0.6565  0.1432  0.3330
    2MPD1    H514122   2.027   0.247  11.193 -1.0029 -0.1184  0.8263
    2MPD1    N114123   1.793   4.624  11.444  0.4789 -0.2608  0.1893
    2MPD1    H614124   1.733   4.698  11.480 -0.7442 -1.8215  1.3251
    2MPD1    H714125   1.787   4.544  11.506  2.1177  0.1300  0.8399
    1TMC1    C114126   1.791   2.724   0.513  0.5323 -0.5832 -0.9815
    1TMC1    C214127   1.831   2.590   0.541  0.7699  0.0527  0.3007
    1TMC1    C314128   1.957   2.552   0.530  0.2331 -0.3915 -0.3000
    1TMC1    C414129   1.880   2.812   0.462  0.5572 -0.2379  0.3676
    1TMC1    C514130   2.008   2.766   0.451  0.6056 -0.2572 -0.5765
    1TMC1    C614131   2.052   2.644   0.490 -0.0446 -0.5359 -0.2782
    1TMC1     C14132   1.649   2.765   0.485 -0.3722  0.7803 -0.2223
    1TMC1     O14133   1.629   2.861   0.410 -0.2450 -0.4901 -0.0001
    1TMC1     H14134   1.764   2.522   0.592 -0.4447  0.4504 -0.7607
    1TMC1    H114135   1.858   2.910   0.422  0.2337 -0.5831 -0.2876
    1TMC1    H214136   2.158   2.627   0.483  0.0270  1.5102 -3.8676
    1TMC1    C714137   2.105   2.852   0.383  0.0831  0.0026  0.0520
    1TMC1    C814138   1.990   2.413   0.568  0.3729  0.3087 -0.1222
    1TMC1    O114139   2.228   2.849   0.409  0.5788 -0.2970  0.2735
    1TMC1    O214140   1.926   2.356   0.658 -1.0746 -0.2422  0.3335
    1TMC1    O314141   2.053   2.900   0.271 -0.2425  0.0677  0.3908
    1TMC1    H314142   1.975   2.849   0.242 -0.3436  1.6593 -2.2631
    1TMC1    O514143   2.117   2.382   0.532 -0.2514  0.0678 -0.1818
    1TMC1    H514144   2.149   2.440   0.460 -3.7195  0.3174 -1.5188
    2MPD1     C14145   1.154   2.640   0.469 -0.1266 -0.5489  0.5995
    2MPD1    C114146   1.219   2.545   0.540 -0.0571  0.4846  0.1662
    2MPD1    C214147   1.360   2.554   0.549  0.0555  0.2038 -0.1563
    2MPD1    C314148   1.427   2.659   0.488 -0.1411 -0.6102  0.3470
    2MPD1    C414149   1.357   2.755   0.419  0.1545  0.4821 -0.3407
    2MPD1    C514150   1.221   2.731   0.398  0.3517 -0.2731 -0.4237
    2MPD1     H14151   1.417   2.491   0.616 -2.3793 -0.3612  1.3730
    2MPD1    H114152   1.406   2.842   0.377 -0.5803  1.7586  1.4629
    2MPD1    H214153   1.046   2.641   0.463 -0.1040 -1.3451  0.1565
    2MPD1    H314154   1.158   2.798   0.340  0.5365 -0.1789 -0.5162
    2MPD1     N14155   1.562   2.658   0.518  0.4804  0.0844 -0.3129
    2MPD1    H514156   1.599   2.582   0.574  0.8435  0.1646 -0.4428
    2MPD1    N114157   1.144   2.458   0.622  0.3251 -1.1279  0.5257
    2MPD1    H614158   1.046   2.455   0.595  0.3195 -0.3807  0.4641
    2MPD1    H714159   1.183   2.365   0.614  1.5794 -0.5089 -0.5386
    1MPD1     C14160   4.663   0.786  12.381  0.2078  0.2917  0.3564
    1MPD1    C114161   4.555   0.715  12.418 -0.1138  0.2728  0.1289
    1MPD1    C214162   4.465   0.693  12.315  0.5433 -0.5254  0.1042
    1MPD1    C314163   4.467   0.760  12.194  0.2240 -0.8497 -0.2599
    1MPD1    C414164   4.572   0.836  12.171 -0.3000  0.2078  0.6003
    1MPD1    C514165   4.674   0.844  12.259 -0.3181  0.9849 -0.0472
    1MPD1     H14166   4.376   0.640  12.346  0.9502 -1.9752 -1.2642
    1MPD1    H114167   4.581   0.884  12.075 -1.4740  2.6538  1.6888
    1MPD1    H214168   0.014   0.789  12.447  0.5878 -2.1157 -0.0402
    1MPD1    H314169   0.026   0.903  12.238 -1.2857  1.8434 -1.6711
    1MPD1     N14170   4.354   0.747  12.106 -0.9523 -0.1130 -0.2425
    1MPD1    H514171   4.288   0.673  12.126 -3.0092  1.2477 -2.1065
    1MPD1    N114172   4.562   0.626  12.530  0.3813  0.4422  0.4551
    1MPD1    H614173   4.611   0.671  12.607 -1.5373  0.4686  1.6783
    1MPD1    H714174   4.469   0.598  12.562 -0.8418  0.9646 -2.7024
    2MPD1     C14175   2.562   1.165  11.912  0.1105  0.2186  0.1901
    2MPD1    C114176   2.542   1.267  11.825 -0.0736 -0.2003 -0.1921
    2MPD1    C214177   2.622   1.261  11.711 -0.0281  0.3545 -0.2454
    2MPD1    C314178   2.709   1.152  11.682  0.2397 -0.4456 -0.4723
    2MPD1    C414179   2.711   1.048  11.767  0.1596 -1.2215 -1.0201
    2MPD1    C514180   2.639   1.054  11.879  0.2938  0.9519 -0.3127
    2MPD1     H14181   2.611   1.344  11.642  0.1251 -0.7876 -1.6464
    2MPD1    H114182   2.772   0.960  11.750  1.3375 -0.6088  0.0022
    2MPD1    H214183   2.518   1.157  12.011  0.3595  1.3791  0.3854
    2MPD1    H314184   2.630   0.972  11.949 -3.4251  0.2808 -1.5553
    2MPD1     N14185   2.767   1.142  11.555 -0.5432 -1.3447  0.5907
    2MPD1    H514186   2.812   1.054  11.536  1.6478 -0.7275  2.8340
    2MPD1    N114187   2.468   1.380  11.860  0.5319  0.1688  0.5570
    2MPD1    H614188   2.429   1.429  11.780  0.7346  1.3132  1.1616
    2MPD1    H714189   2.391   1.352  11.921  1.9143 -1.7692  1.3955
    3MPD1     C14190   2.833   0.728  10.659 -0.4117 -0.3182 -0.1670
    3MPD1    C114191   2.931   0.824  10.656  0.0649 -0.3435  0.5257
    3MPD1    C214192   2.950   0.895  10.770 -0.5649  0.2736  0.1383
    3MPD1    C314193   2.891   0.860  10.891 -0.9899  0.4179  0.5767
    3MPD1    C414194   2.800   0.755  10.893 -0.0904  0.4602  0.0047
    3MPD1    C514195   2.763   0.710  10.771 -0.0815 -0.5258  0.4113
    3MPD1     H14196   3.019   0.978  10.758 -0.2378  0.3487  2.6167
    3MPD1    H114197   2.746   0.730  10.984 -0.4732  0.9007 -0.1058
    3MPD1    H214198   2.798   0.667  10.576  1.3748  0.6808 -1.6605
    3MPD1    H314199   2.683   0.638  10.761  1.2443 -1.8998 -0.3134
    3MPD1     N14200   2.933   0.938  11.005 -0.3423  0.1451  0.5685
    3MPD1    H514201   3.010   0.999  10.980 -0.3195  0.5637  1.6641
    3MPD1    N114202   2.987   0.843  10.529  0.3230  0.0837 -0.7174
    3MPD1    H614203   2.968   0.760  10.472  0.9347 -0.8871  0.4776
    3MPD1    H714204   3.088   0.844  10.542 -0.0964  3.6541  2.1381
    4MPD2     C14205   3.778   1.169  12.066  0.3689  0.3714  0.3412
    4MPD2    C114206   3.854   1.149  11.955 -0.5953 -1.0543 -0.2838
    4MPD2    C214207   3.885   1.249  11.868 -0.8808 -0.6626 -0.1325
    4MPD2    C314208   3.835   1.379  11.880  0.7973 -0.2742 -0.0480
    4MPD2    C414209   3.749   1.391  11.988  0.0929 -0.1930  0.5916
    4MPD2    C514210   3.721   1.296  12.088  0.8115 -0.1092  0.8648
    4MPD2     H14211   3.949   1.223  11.784 -0.0461 -1.1728  0.6667
    4MPD2    H114212   3.708   1.492  11.984  2.1059  0.5744 -1.1060
    4MPD2    H214213   3.749   1.090  12.134  0.1817 -0.0849 -0.2666
    4MPD2    H314214   3.657   1.317  12.173 -1.6297  0.6383 -1.1365
    4MPD2     N14215   3.853   1.473  11.782  0.1651  0.8092 -0.6081
    4MPD2    H514216   3.924   1.449  11.713  2.2204  1.8104  1.1753
    4MPD2    N114217   3.908   1.028  11.918  0.0389 -0.0695  0.4226
    4MPD2    H714218   3.947   1.026  11.824 -1.9616 -0.3094 -0.4220
    5TMC3    C114219   3.994   0.810  11.935  0.5295  0.0179  0.3477
    5TMC3    C214220   4.107   0.776  11.995  0.8349  0.1243  0.2703
    5TMC3    C314221   4.221   0.778  11.915  0.5518  0.3825 -0.1118
    5TMC3    C414222   3.981   0.811  11.798 -0.5360  0.4470  0.0229
    5TMC3    C514223   4.096   0.800  11.724  0.7369 -0.0873  0.4732
    5TMC3    C614224   4.217   0.791  11.783 -0.4062 -0.6602 -0.4668
    5TMC3     C14225   3.933   0.922  12.005  0.3918  0.2614  0.4846
    5TMC3     O14226   3.913   0.912  12.126  0.4174 -0.2373 -0.2433
    5TMC3     H14227   4.117   0.783  12.102  0.4908  0.2181  0.2970
    5TMC3    H114228   3.886   0.839  11.753 -1.3067 -3.7376 -0.9321
    5TMC3    H214229   4.302   0.825  11.724  1.1663  2.2521  3.5454
    5TMC3    C714230   4.111   0.914  11.639  0.9680  0.3434 -0.0903
    5TMC3    C814231   4.350   0.793  11.977  0.3050 -0.3370  0.1789
    5TMC3    O114232   4.030   0.994  11.672 -0.1551  0.8126  0.1710
    5TMC3    O214233   4.440   0.840  11.908 -0.0100  0.4309 -0.1033
    6TMC3    C114234   2.860   1.194  11.348  0.2841  0.2268  0.5008
    6TMC3    C214235   2.850   1.064  11.322 -0.2154 -0.2146  0.4400
    6TMC3    C314236   2.935   1.016  11.229  0.1672  0.1379  0.0391
    6TMC3    C414237   2.954   1.281  11.295  0.3199  0.0552 -0.5724
    6TMC3    C514238   3.056   1.214  11.229 -0.2520 -0.9356 -0.3022
    6TMC3    C614239   3.046   1.083  11.181  1.4613 -0.1915  0.0120
    6TMC3     C14240   2.788   1.244  11.464  0.3007 -0.4502  0.9761
    6TMC3     O14241   2.776   1.362  11.486  0.1036  0.9003  0.0648
    6TMC3     H14242   2.771   0.998  11.357  0.0403 -1.4529 -1.3372
    6TMC3    H114243   2.965   1.384  11.326  2.9377 -0.5481  0.5181
    6TMC3    H214244   3.124   1.031  11.125  3.1458 -0.6753  2.7989
    6TMC3    C714245   3.175   1.300  11.215  0.2535 -0.2003 -0.1001
    6TMC3    C814246   2.864   0.941  11.124 -0.2231  0.9853  0.7077
    6TMC3    O114247   3.177   1.398  11.288 -0.4143 -0.6803 -0.9784
    6TMC3    O214248   2.758   0.885  11.154 -0.1613  0.5257  0.0978
    7MPD2     C14249   4.139   1.176  11.214 -0.5249 -0.6407  0.5717
    7MPD2    C114250   4.110   1.221  11.337  0.2769  0.6076  0.3017
    7MPD2    C214251   4.127   1.127  11.436 -0.6657 -0.0332  0.0255
    7MPD2    C314252   4.177   1.001  11.415  0.9265  0.2570 -0.5448
    7MPD2    C414253   4.215   0.967  11.289 -0.2204 -0.5165  0.1527
    7MPD2    C514254   4.186   1.054  11.187 -0.0939  0.0443  0.1492
    7MPD2     H14255   4.089   1.150  11.535  0.7802 -3.4615  1.3577
    7MPD2    H114256   4.247   0.865  11.269 -0.4379 -0.8701  1.5964
    7MPD2    H214257   4.123   1.232  11.123  2.9838 -0.1105  0.2755
    7MPD2    H314258   4.209   1.024  11.086  2.0377  2.1483 -0.0003
    7MPD2     N14259   4.176   0.902  11.513 -0.4479 -0.1794 -0.3352
    7MPD2    H514260   4.215   0.809  11.501  2.5784  1.1252 -0.6005
    7MPD2    N114261   4.046   1.347  11.347 -0.1091  0.0582 -0.2252
    7MPD2    H714262   4.033   1.399  11.261 -1.9901  0.5599  0.3668
    8TMC3    C114263   3.947   1.520  11.474  0.6303 -0.6487  0.5022
    8TMC3    C214264   3.841   1.503  11.393  0.7469  0.2275 -0.4385
    8TMC3    C314265   3.726   1.555  11.438 -0.5584 -0.5116  0.7043
    8TMC3    C414266   3.932   1.583  11.594 -0.0974 -0.2951 -0.6761
    8TMC3    C514267   3.816   1.636  11.632 -0.4848 -0.4663 -0.2729
    8TMC3    C614268   3.705   1.617  11.553 -0.3501  0.2557 -0.1309
    8TMC3     C14269   4.031   1.401  11.471 -0.4964 -0.8853  0.0483
    8TMC3     O14270   4.082   1.373  11.577 -0.3606 -0.0619  0.1131
    8TMC3     H14271   3.850   1.454  11.297 -2.3568 -1.1962 -0.0121
    8TMC3    H114272   4.019   1.590  11.658 -0.7212 -0.1604  0.1533
    8TMC3    H214273   3.606   1.650  11.580 -0.7922 -0.0482 -1.3550
    8TMC3    C714274   3.778   1.587  11.762  0.3180 -0.3681 -0.1641
    8TMC3    C814275   3.607   1.552  11.354 -1.1146 -0.3466 -0.0450
    8TMC3    O114276   3.672   1.624  11.800  0.5127  0.0206 -0.0913
    8TMC3    O214277   3.494   1.567  11.405 -0.3415 -0.5930 -0.3497
    9MPD2     C14278   3.568   1.521  10.995  0.1133 -0.2638 -0.6241
    9MPD2    C114279   3.538   1.504  11.124  0.6292  0.2827 -0.3488
    9MPD2    C214280   3.423   1.438  11.159 -0.2124  0.5622  0.0861
    9MPD2    C314281   3.351   1.369  11.068 -0.5463  0.2366  0.1008
    9MPD2    C414282   3.390   1.376  10.939  0.1466  0.4359  0.2119
    9MPD2    C514283   3.489   1.465  10.904  0.3067 -0.1607  0.4248
    9MPD2     H14284   3.403   1.418  11.263 -0.1174 -0.2199 -0.0462
    9MPD2    H114285   3.351   1.309  10.863  1.9095 -1.0407  0.5989
    9MPD2    H214286   3.650   1.581  10.957  0.7996 -1.1317 -0.5140
    9MPD2    H314287   3.540   1.473  10.809  2.0387  0.6629  1.4187
    9MPD2     N14288   3.245   1.285  11.099 -0.0182 -0.0622  0.7121
    9MPD2    H514289   3.216   1.221  11.026 -0.6742  0.6957  0.3064
    9MPD2    N114290   3.636   1.533  11.217 -0.2172  0.5606 -0.3629
    9MPD2    H714291   3.730   1.556  11.188  0.4249 -1.4208  0.1388
    1MPD1     C14292   3.070   0.391  16.759 -0.0347  0.0261  0.2081
    1MPD1    C114293   3.198   0.363  16.750 -0.4356  0.2289 -0.7518
    1MPD1    C214294   3.258   0.382  16.630 -0.4747 -0.3414  0.0456
    1MPD1    C314295   3.196   0.444  16.528 -0.7719 -0.5789 -0.1914
    1MPD1    C414296   3.061   0.470  16.540 -0.2542 -0.0859 -0.0632
    1MPD1    C514297   2.992   0.442  16.658  0.0620 -0.2069 -0.5351
    1MPD1     H14298   3.365   0.362  16.621 -0.5194  0.4696 -2.1025
    1MPD1    H114299   3.011   0.528  16.464 -0.3720 -0.4338 -0.2534
    1MPD1    H214300   3.020   0.382  16.855  1.4826  4.1242  1.4019
    1MPD1    H314301   2.888   0.468  16.671  0.1002 -1.7974  3.0265
    1MPD1     N14302   3.254   0.475  16.401  0.1023  0.2735 -0.0096
    1MPD1    H514303   3.182   0.516  16.341  0.3174 -0.4214 -0.7472
    1MPD1    N114304   3.255   0.277  16.847 -0.0320 -0.1487  0.1613
    1MPD1    H614305   3.214   0.290  16.940 -0.0528  0.6986  0.0293
    1MPD1    H714306   3.356   0.287  16.856  0.1006 -1.9063  0.7674
    2TMC2    C114307   3.390   0.728  16.103 -0.2989  0.4664 -0.4915
    2TMC2    C214308   3.462   0.667  16.001  0.0959 -0.2629  0.2958
    2TMC2    C314309   3.519   0.540  16.034 -0.6028 -0.6882  0.1053
    2TMC2    C414310   3.370   0.672  16.227 -0.3262 -0.2780  0.0340
    2TMC2    C514311   3.415   0.545  16.243  0.5621 -0.8129 -0.4765
    2TMC2    C614312   3.492   0.479  16.154 -0.5006  0.4273  0.2454
    2TMC2     C14313   3.337   0.861  16.089  0.4382 -0.8980 -0.4648
    2TMC2     O14314   3.310   0.920  16.195 -0.3290 -0.1790 -0.0210
    2TMC2     H14315   3.487   0.712  15.906  0.3748  0.2540  0.6104
    2TMC2    H114316   3.296   0.715  16.294  0.5822  2.2886 -0.6118
    2TMC2    H214317   3.515   0.373  16.165  1.3003  0.9175  1.1656
    2TMC2    C714318   3.385   0.466  16.359  0.1626  0.2667  0.0972
    2TMC2    C814319   3.589   0.464  15.935 -0.7143 -0.0600  1.0864
    2TMC2    O114320   3.479   0.394  16.395 -0.3533 -0.2277 -0.4167
    2TMC2    O214321   3.576   0.489  15.819  0.4924 -0.2486 -0.3664
    2TMC2    O514322   3.704   0.428  15.993 -0.3750  0.1428  0.2322
    2TMC2    H514323   3.697   0.453  16.087 -0.6103 -0.6306  0.4217
    3MPD1     C14324   3.211   1.258  15.791  0.4094 -0.7622  0.0263
    3MPD1    C114325   3.240   1.153  15.701 -0.8793  0.5874 -0.2222
    3MPD1    C214326   3.278   1.032  15.767 -0.0883  0.2020  0.2254
    3MPD1    C314327   3.290   1.023  15.906 -0.0420 -0.2390 -0.2151
    3MPD1    C414328   3.265   1.133  15.989  0.6061  0.0610  0.5868
    3MPD1    C514329   3.221   1.248  15.926 -0.1416  1.1370  0.0531
    3MPD1     H14330   3.300   0.944  15.706 -2.2770 -0.4850  0.4078
    3MPD1    H114331   3.272   1.122  16.097  1.7184 -0.1774  0.4901
    3MPD1    H214332   3.173   1.352  15.752 -0.0200 -0.8524  0.2329
    3MPD1    H314333   3.188   1.332  15.986 -2.4098  0.2964 -0.0138
    3MPD1     N14334   3.331   0.899  15.959 -0.0774  0.6609  0.2391
    3MPD1    H514335   3.335   0.824  15.892 -1.4004 -0.6001  1.5750
    3MPD1    N114336   3.205   1.161  15.567  0.1797  0.7035  0.0605
    3MPD1    H614337   3.218   1.248  15.517 -0.7004 -0.7514 -2.7286
    3MPD1    H714338   3.255   1.094  15.508 -2.6751 -1.7343  0.4134
    1TMC1    C114339   1.675   0.294  13.709 -0.0514 -1.2789 -0.0689
    1TMC1    C214340   1.670   0.388  13.813  0.6188  0.6972  0.0801
    1TMC1    C314341   1.564   0.379  13.898  1.1906 -0.7783  0.1080
    1TMC1    C414342   1.585   0.193  13.702  0.3348  0.0399 -0.3548
    1TMC1    C514343   1.475   0.197  13.786  0.3454  0.5543 -0.4693
    1TMC1    C614344   1.455   0.298  13.877 -0.9105 -0.0482 -0.3959
    1TMC1     C14345   1.790   0.293  13.624  0.9049  0.7921 -0.3014
    1TMC1     O14346   1.833   0.406  13.604  0.0618 -0.3456 -0.1121
    1TMC1     H14347   1.740   0.471  13.821  1.7923 -0.1777 -1.1782
    1TMC1    H114348   1.584   0.124  13.619 -0.3212  0.2148 -0.4923
    1TMC1    H214349   1.370   0.296  13.944  0.2484  1.8239  1.1145
    1TMC1    C714350   1.365   0.120  13.738  0.0862  0.1362 -0.3376
    1TMC1    C814351   1.524   0.507  13.968  0.0902 -0.0043 -0.3480
    1TMC1    O114352   1.382   0.023  13.666 -0.0110 -0.5691 -0.3423
    1TMC1    O214353   1.414   0.530  14.011  0.5730 -0.4748 -0.0456
    1TMC1    O314354   1.256   0.201  13.751  0.5667 -0.4023  0.1268
    1TMC1    H314355   1.257   0.280  13.808 -2.1230 -1.2743  1.3985
    1TMC1    O514356   1.627   0.584  13.984 -0.1871  0.0806 -0.3631
    1TMC1    H514357   1.712   0.535  13.986  0.2855  0.8615 -1.5376
    2MPD2     C14358   1.982   0.245  13.388  0.0455 -0.2221 -0.4525
    2MPD2    C114359   1.932   0.147  13.472 -0.1298  0.9180 -0.5862
    2MPD2    C214360   1.983   0.020  13.455 -0.2976 -0.3746 -0.4196
    2MPD2    C314361   2.090   4.731  13.366  0.0768 -0.1304 -0.5581
    2MPD2    C414362   2.120   0.094  13.274 -0.2021 -0.0692 -0.3697
    2MPD2    C514363   2.074   0.220  13.288 -0.3974 -0.5181  0.3105
    2MPD2     H14364   1.943   4.674  13.513 -0.5811  0.9852  1.3126
    2MPD2    H114365   2.193   0.072  13.197 -0.4445 -1.9536 -0.0569
    2MPD2    H214366   1.940   0.345  13.394  2.9087  0.8736  0.9426
    2MPD2    H314367   2.096   0.298  13.216  0.5081  0.4640  1.6606
    2MPD2     N14368   2.155   4.603  13.376  0.5948 -0.3648 -0.4570
    2MPD2    H514369   2.121   4.529  13.437 -2.2688  1.5287  0.2489
    2MPD2    N114370   1.824   0.170  13.568  0.8307 -0.1460 -0.2505
    2MPD2    H714371   1.784   0.086  13.610  1.6596 -0.6497 -0.4661
    3TCq1    O114372   2.668   4.183  13.301 -0.0684  0.8277  0.0270
    3TCq1    C114373   2.677   4.311  13.326 -0.8473  0.1238 -0.4909
    3TCq1    O214374   2.738   4.394  13.258 -0.3889  0.0124  0.5462
    3TCq1    C214375   2.544   4.330  13.382  0.0493  0.2506  0.3706
    3TCq1    C314376   2.489   4.242  13.469  0.3317  0.0063  0.3838
    3TCq1    C414377   2.353   4.259  13.492  0.0451 -0.5187 -0.3845
    3TCq1    C514378   2.282   4.365  13.457  0.5940  0.2652  0.2476
    3TCq1    C614379   2.336   4.449  13.364 -0.1883  0.0134 -0.0709
    3TCq1    C714380   2.466   4.421  13.318 -0.4362 -0.1143  0.8648
    3TCq1    C814381   2.270   4.566  13.307  0.0270  0.3679  0.3629
    3TCq1    O414382   2.328   4.621  13.215  0.3263 -0.5414  0.1090
    3TCq1    C914383   2.302   4.155  13.578 -0.2193  0.4281  0.2079
    3TCq1    O514384   2.367   4.049  13.557  0.0123 -0.3468 -0.0182
    3TCq1    O614385   2.191   4.168  13.641 -0.1589 -1.1104 -0.1900
    3TCq1    H114386   2.585   4.135  13.322  0.2001 -0.7081 -2.4218
    3TCq1    H214387   2.545   4.160  13.514 -0.7381 -0.1232  1.4886
    3TCq1    H314388   2.179   4.367  13.490  1.3814  1.3777  2.5631
    3TCq1    H414389   2.514   4.482  13.243 -2.8084  0.3954 -0.2661
    1MPD2     C14390   1.167   1.170  15.274 -0.0331 -0.0009  0.0629
    1MPD2    C114391   1.092   1.069  15.332 -0.8011 -0.5211 -0.4069
    1MPD2    C214392   1.166   0.949  15.357  0.7756 -0.1481  0.1718
    1MPD2    C314393   1.297   0.933  15.320  0.2793  0.1162 -0.3917
    1MPD2    C414394   1.373   1.037  15.272  0.1518 -0.3289  0.0630
    1MPD2    C514395   1.302   1.149  15.243 -0.4220 -0.2583  0.5163
    1MPD2     H14396   1.121   0.861  15.401  0.4271 -0.2900 -0.4601
    1MPD2    H114397   1.476   1.038  15.240 -0.8270  0.6767 -3.1269
    1MPD2    H214398   1.116   1.264  15.258  0.3133 -0.2196 -2.4210
    1MPD2    H314399   1.355   1.230  15.195 -1.5887 -0.2309 -0.7494
    1MPD2     N14400   1.362   0.803  15.324  0.2201 -0.9333 -0.5605
    1MPD2    H514401   1.460   0.801  15.296 -0.4805  0.2972 -3.0750
    1MPD2    N114402   0.962   1.088  15.362  0.3386 -0.3242  0.5413
    1MPD2    H714403   0.912   1.173  15.334  1.5423  0.7699  1.7214
    2TMC3    C114404   0.746   1.006  15.386 -0.5143  0.2089  0.7705
    2TMC3    C214405   0.675   0.924  15.471 -1.0516 -0.1235 -0.1212
    2TMC3    C314406   0.580   0.839  15.433 -0.3445 -0.0520  0.4144
    2TMC3    C414407   0.726   0.989  15.252  0.3676 -0.5223 -0.2630
    2TMC3    C514408   0.629   0.895  15.213  0.2942  0.5777 -0.3153
    2TMC3    C614409   0.548   0.834  15.303  0.4076  0.1096 -0.3450
    2TMC3     C14410   0.887   0.993  15.419  0.9014 -0.1046 -0.6907
    2TMC3     O14411   0.909   0.889  15.477 -0.3320 -0.4757  0.0387
    2TMC3     H14412   0.697   0.929  15.577 -1.7900 -0.2050  0.0383
    2TMC3    H114413   0.794   1.037  15.183  0.0955  2.0624  1.2743
    2TMC3    H214414   0.473   0.761  15.275  0.2666  0.0200  0.2719
    2TMC3    C714415   0.624   0.864  15.071  0.2562  0.5695 -0.6039
    2TMC3    C814416   0.588   0.706  15.485 -0.3043 -0.0979  0.0290
    2TMC3    O114417   0.518   0.854  15.012  0.1659  0.0022  0.5030
    2TMC3    O214418   0.485   0.648  15.503  0.1587  0.3076  0.2877
    3TCq1    O114419   1.379   1.443  14.403 -0.4150  0.0337 -0.0269
    3TCq1    C114420   1.493   1.389  14.445 -0.2489 -0.1478  0.6775
    3TCq1    O214421   1.602   1.419  14.394  0.3260  0.6465  0.4491
    3TCq1    C214422   1.457   1.311  14.562 -0.0378 -0.5857 -0.3688
    3TCq1    C314423   1.552   1.284  14.663 -0.0530 -0.0689 -0.1911
    3TCq1    C414424   1.508   1.195  14.764 -0.8426 -0.4890 -0.0661
    3TCq1    C514425   1.371   1.158  14.780  0.6446  0.0286  0.0685
    3TCq1    C614426   1.282   1.193  14.676  0.0385 -0.4790  0.2415
    3TCq1    C714427   1.327   1.262  14.569 -0.2175 -0.4057  0.4360
    3TCq1    C814428   1.148   1.134  14.654  0.3739 -0.5637  0.4613
    3TCq1    O414429   1.096   1.160  14.546  0.3533  0.0493  0.3380
    3TCq1    C914430   1.608   1.130  14.850  0.2089 -0.1393  0.0461
    3TCq1    O514431   1.578   1.015  14.882  0.2606 -0.3799  0.8671
    3TCq1    O614432   1.724   1.166  14.826  0.0518 -0.1263  0.2159
    3TCq1    H114433   1.322   1.432  14.482 -0.6916 -0.6566 -0.3207
    3TCq1    H214434   1.658   1.304  14.652 -0.2601  2.2158  2.0750
    3TCq1    H314435   1.357   1.083  14.857 -0.9196 -0.9827 -1.1851
    3TCq1    H414436   1.261   1.267  14.483 -0.7261 -1.2574  0.7850
    4MPD2     C14437   0.879   1.023  14.655 -0.1182 -0.5282 -0.2032
    4MPD2    C114438   0.967   1.011  14.762  0.3809  0.5046 -0.7985
    4MPD2    C214439   0.918   0.958  14.879  0.4613  0.6586  0.3458
    4MPD2    C314440   0.786   0.917  14.896 -0.3142 -0.2776  0.6513
    4MPD2    C414441   0.701   0.927  14.788  0.8040  0.4450 -0.2699
    4MPD2    C514442   0.748   0.979  14.669 -1.1712 -0.3978 -0.0485
    4MPD2     H14443   0.989   0.955  14.960 -0.6831 -0.8642  1.2875
    4MPD2    H114444   0.602   0.882  14.781  1.1860 -0.5123  0.4505
    4MPD2    H214445   0.906   1.056  14.556  1.6965 -1.8910 -0.1659
    4MPD2    H314446   0.685   0.970  14.581  1.5697 -0.0262 -2.0885
    4MPD2     N14447   0.748   0.885  15.024 -0.0631  0.4270 -0.1108
    4MPD2    H514448   0.823   0.887  15.092 -1.1995 -0.2706  1.1717
    4MPD2    N114449   1.098   1.060  14.757 -0.5691  0.4830 -0.3002
    4MPD2    H714450   1.157   1.044  14.838 -2.3925  1.4753  1.2409
    5TMC2    C114451   1.333   0.353  15.429 -0.2338 -0.3861 -0.5266
    5TMC2    C214452   1.434   0.358  15.526  0.5122 -0.0778 -0.2897
    5TMC2    C314453   1.510   0.476  15.535  0.1138  0.3344 -0.9220
    5TMC2    C414454   1.324   0.457  15.338  0.1846  0.5177 -0.1613
    5TMC2    C514455   1.395   0.569  15.346  0.4183 -0.8176 -0.5317
    5TMC2    C614456   1.492   0.582  15.443  0.3505  0.6445 -0.1815
    5TMC2     C14457   1.204   0.319  15.490 -0.5093 -0.4469 -0.1285
    5TMC2     O14458   1.192   0.237  15.576  0.4699  0.7166 -0.0100
    5TMC2     H14459   1.440   0.287  15.607  0.1030 -1.0950 -1.1538
    5TMC2    H114460   1.248   0.448  15.260  1.1303 -2.1026 -0.7680
    5TMC2    H214461   1.545   0.673  15.466  0.1360  0.4265  1.1807
    5TMC2    C714462   1.302   0.681  15.352  0.1912 -0.4217  0.4030
    5TMC2    C814463   1.625   0.472  15.633 -0.8778  0.4453 -1.2042
    5TMC2    O114464   1.184   0.662  15.365  0.0475  0.5643  0.0087
    5TMC2    O214465   1.718   0.556  15.635 -0.0803 -0.0984  0.1335
    5TMC2    O514466   1.579   0.403  15.742 -0.0607  0.2451  0.1922
    5TMC2    H514467   1.514   0.331  15.722 -1.1777  0.9465  1.2425
    6MPD2     C14468   0.715   0.444  15.588 -0.0798 -0.3792 -0.3098
    6MPD2    C114469   0.780   0.553  15.526  0.5749  0.5203  0.1658
    6MPD2    C214470   0.910   0.536  15.487  0.2239 -0.0737 -0.5967
    6MPD2    C314471   0.977   0.421  15.514 -0.1475 -0.3808 -0.5384
    6MPD2    C414472   0.914   0.313  15.572 -0.0166 -0.0872  0.0111
    6MPD2    C514473   0.788   0.334  15.614 -0.0490 -0.1763  0.2057
    6MPD2     H14474   0.957   0.620  15.438  0.8433 -0.3789 -0.5278
    6MPD2    H114475   0.961   0.218  15.596  0.6897 -0.2417 -1.9291
    6MPD2    H214476   0.618   0.463  15.631 -0.4208 -1.0385 -0.7732
    6MPD2    H314477   0.747   0.257  15.679 -2.9867  0.7581 -0.5099
    6MPD2     N14478   1.106   0.417  15.466 -0.7082 -0.8813 -0.1704
    6MPD2    H514479   1.138   0.498  15.414  1.6789 -3.6850 -3.0775
    6MPD2    N114480   0.720   0.678  15.501  0.2367  0.7869 -0.0726
    6MPD2    H714481   0.781   0.752  15.469  0.8674  0.7541  1.0344
  945NH4     N114482   3.831   2.945   7.675  0.4020 -0.1535 -0.2459
  945NH4     H214483   3.911   2.941   7.609  0.7823 -2.9314  0.3835
  945NH4     H314484   3.826   3.040   7.718 -2.4886 -0.0836 -0.6909
  945NH4     H414485   3.850   2.884   7.757 -1.7922 -3.3507 -2.1271
  945NH4     H514486   3.744   2.930   7.619  0.0191 -0.0404  0.3149
  946SOD     NA14487   3.161   3.087  13.766  0.2222 -0.0151 -0.1238
  947SOD     NA14488   1.185   4.537  15.688 -0.6553 -0.2264  0.0021
  948SOD     NA14489   4.191   3.879  11.996  0.0251  0.3103  0.4526
  949SOD     NA14490   2.443   2.499  16.189 -0.1613  0.4560 -0.1635
  950SOD     NA14491   4.293   2.987   2.409  0.0062 -0.1334 -0.0031
  951SOD     NA14492   3.001   1.787  12.636 -0.1567 -0.5770 -0.1446
  952SOD     NA14493   1.886   0.607   9.344 -0.0474 -0.1930 -0.9974
  953SOL     OW14494   2.320   3.052  12.306 -0.5092  0.2303  0.2713
  953SOL    HW114495   2.386   3.005  12.255 -0.7255 -0.1205  0.3085
  953SOL    HW214496   2.287   2.989  12.370  1.2050 -2.5297 -1.5680
  954SOL     OW14497   1.219   3.657  11.726 -0.2091  0.1287  0.2302
  954SOL    HW114498   1.153   3.588  11.729  1.4342 -1.4404 -0.0425
  954SOL    HW214499   1.254   3.639  11.639 -1.0073  0.6858 -0.2070
  955SOL     OW14500   1.075   0.646   2.456 -0.2966  0.4962  0.0128
  955SOL    HW114501   1.042   0.559   2.436 -0.7984 -0.0970  3.3547
  955SOL    HW214502   1.128   0.667   2.379  0.5258 -0.0914  0.4100
  956SOL     OW14503   2.571   0.786   5.274 -0.4303 -0.2782  0.5627
  956SOL    HW114504   2.658   0.750   5.254  0.2700  0.7940  1.6106
  956SOL    HW214505   2.565   0.853   5.206 -1.6475  0.3285  1.2729
  957SOL     OW14506   3.307   1.930   7.084  0.1077 -0.0068 -0.0541
  957SOL    HW114507   3.272   1.911   6.997  1.1456  0.5133 -0.5857
  957SOL    HW214508   3.393   1.965   7.060  0.6260 -0.3362  1.3139
  958SOL     OW14509   3.068   1.917   1.062 -0.8332  0.1516 -0.2144
  958SOL    HW114510   3.163   1.903   1.061 -0.9113 -0.4651  1.0832
  958SOL    HW214511   3.042   1.825   1.067 -1.1225  0.2759  0.5938
  959SOL     OW14512   1.486   3.112   9.499 -1.1881  0.1771 -0.4062
  959SOL    HW114513   1.568   3.155   9.526 -0.8959 -0.4906 -0.2144
  959SOL    HW214514   1.507   3.090   9.408 -0.3283  1.2102 -0.4594
  960SOL     OW14515   0.340   4.124  12.358  0.2481  0.1963  0.5924
  960SOL    HW114516   0.391   4.043  12.347 -0.9688 -0.5235  0.2856
  960SOL    HW214517   0.266   4.084  12.402 -1.2543 -0.7698 -2.8437
  961SOL     OW14518   3.419   4.379   6.033  0.2050 -0.4391 -0.2824
  961SOL    HW114519   3.367   4.364   5.954 -2.2965  0.0695  1.2893
  961SOL    HW214520   3.349   4.418   6.085  1.0141 -0.0567  0.5180
  962SOL     OW14521   3.082   2.121   6.795  0.2850  0.0614 -0.0799
  962SOL    HW114522   3.111   2.031   6.778 -1.3517 -1.0310  2.8316
  962SOL    HW214523   2.988   2.108   6.782  0.1854 -0.2375  0.8989
  963SOL     OW14524   4.407   1.974   7.718 -0.1531  0.7276  0.4314
  963SOL    HW114525   4.328   1.949   7.767  1.3727 -1.4749  1.7964
  963SOL    HW214526   4.470   1.938   7.780 -0.1339 -2.0438 -1.1856
  964SOL     OW14527   1.490   3.810   2.403  0.0937 -0.3910 -0.3218
  964SOL    HW114528   1.513   3.772   2.487 -2.1343  0.7861  0.8252
  964SOL    HW214529   1.423   3.744   2.382 -0.5491  0.4735 -1.0141
  965SOL     OW14530   4.629   2.645   4.382  0.5419  0.8853 -0.0628
  965SOL    HW114531   4.691   2.686   4.322  1.8844 -2.9370 -1.3253
  965SOL    HW214532   4.682   2.647   4.461 -0.6177 -0.6593  0.7663
  966SOL     OW14533   4.566   0.117  11.999  0.0568  0.6537  0.1624
  966SOL    HW114534   4.596   0.129  11.909 -0.0298  0.8307  0.1584
  966SOL    HW214535   4.600   0.190  12.050 -0.8139  1.8091 -0.9314
  967SOL     OW14536   2.306   0.907   8.670 -0.0268 -0.2152 -0.6540
  967SOL    HW114537   2.372   0.931   8.604 -0.4459 -0.1500 -1.0473
  967SOL    HW214538   2.368   0.913   8.743 -0.0917 -0.8632 -0.5503
  968SOL     OW14539   3.299   4.603   6.717 -0.3911  0.4246 -0.0395
  968SOL    HW114540   3.324   4.519   6.756  1.4826  1.2336  0.4996
  968SOL    HW214541   3.222   4.578   6.665  0.4913 -0.2245 -1.0437
  969SOL     OW14542   0.880   0.700   1.641 -0.1584 -0.1107  0.1613
  969SOL    HW114543   0.858   0.748   1.561 -1.9519 -0.7628  0.2853
  969SOL    HW214544   0.975   0.715   1.643 -0.0948 -0.6455  1.1992
  970SOL     OW14545   2.597   1.535   1.675 -0.4684 -0.8163 -0.0184
  970SOL    HW114546   2.663   1.502   1.614  2.9400  1.6673  2.4001
  970SOL    HW214547   2.535   1.564   1.608 -1.4870  0.9258  1.7008
  971SOL     OW14548   0.426   4.697   7.404  0.1376 -0.0186 -0.0975
  971SOL    HW114549   0.487   0.022   7.444 -1.7024  1.6679  0.1333
  971SOL    HW214550   0.433   4.618   7.458  2.2025  0.0625 -0.2685
  972SOL     OW14551   4.432   3.458   3.962  0.2263  0.1759  0.5640
  972SOL    HW114552   4.350   3.486   3.921 -0.0997 -2.6062 -0.6868
  972SOL    HW214553   4.404   3.391   4.024 -0.5237 -0.9197 -0.9609
  973SOL     OW14554   0.701   0.163   9.094 -0.0315 -0.4307  0.5048
  973SOL    HW114555   0.785   0.194   9.062 -0.3454  1.3730  1.4143
  973SOL    HW214556   0.646   0.177   9.017 -0.7282 -2.2603  0.6656
  974SOL     OW14557   1.557   0.851   7.822 -0.1145  0.1153 -0.6054
  974SOL    HW114558   1.575   0.825   7.912 -2.1144  2.5201  0.4877
  974SOL    HW214559   1.590   0.774   7.776 -1.0673  0.8070 -2.4587
  975SOL     OW14560   0.527   4.420   0.790  0.3622  0.1021 -0.0502
  975SOL    HW114561   0.609   4.415   0.839 -0.4397 -2.1827  1.0559
  975SOL    HW214562   0.554   4.444   0.702  1.2897 -1.0594 -0.0827
  976SOL     OW14563   0.824   0.757   3.008 -0.3555  0.3617  0.1776
  976SOL    HW114564   0.863   0.703   3.077  2.1864  0.5437 -1.0914
  976SOL    HW214565   0.907   0.780   2.965 -0.7494 -1.1191 -1.3948
  977SOL     OW14566   0.590   2.165   3.780 -0.5273 -0.5110  0.4473
  977SOL    HW114567   0.627   2.128   3.700 -1.4109 -2.3402  0.8916
  977SOL    HW214568   0.643   2.115   3.842 -0.8565  0.9720  1.9304
  978SOL     OW14569   1.947   4.502   2.479  0.2189 -0.1075 -0.0496
  978SOL    HW114570   1.974   4.440   2.547  0.7478  0.6617  0.4343
  978SOL    HW214571   1.912   4.443   2.412  1.0532  0.3466 -0.8811
  979SOL     OW14572   2.172   3.885  10.490 -0.2254  0.2484  0.3016
  979SOL    HW114573   2.114   3.872  10.566  2.3464 -2.1153  1.8785
  979SOL    HW214574   2.115   3.926  10.425  0.5875 -1.4418 -1.4636
  980SOL     OW14575   4.424   2.441   7.493 -0.4791  0.0150  0.0865
  980SOL    HW114576   4.405   2.529   7.459  2.0149  1.1120  1.4952
  980SOL    HW214577   4.337   2.407   7.510  0.7644 -2.3837  1.6914
  981SOL     OW14578   1.283   2.865  11.229 -0.8196 -0.3170  0.3147
  981SOL    HW114579   1.363   2.884  11.180 -0.6006 -0.4680  0.6168
  981SOL    HW214580   1.216   2.914  11.181 -0.7205  0.6028  1.1160
  982SOL     OW14581   4.133   3.376  17.728  1.0095  0.4121  0.1755
  982SOL    HW114582   4.117   3.468   0.006  1.5035  0.5792 -0.2110
  982SOL    HW214583   4.201   3.357   0.052  0.5377 -0.3760  0.4342
  983SOL     OW14584   2.843   0.291   1.952 -0.3054 -0.1091  0.2173
  983SOL    HW114585   2.783   0.238   1.900 -0.2411 -0.3749  0.4144
  983SOL    HW214586   2.783   0.365   1.958  0.3501  0.4066  0.4712
  984SOL     OW14587   3.145   3.199  17.228  0.3432 -0.1110  0.1719
  984SOL    HW114588   3.168   3.148  17.150 -0.4016 -1.8300  1.0737
  984SOL    HW214589   3.049   3.207  17.224  0.4410  1.7616  1.7109
  985SOL     OW14590   3.699   2.087   7.720 -0.2565  0.2883  0.1183
  985SOL    HW114591   3.612   2.114   7.749  0.0678  1.2994  0.1461
  985SOL    HW214592   3.751   2.115   7.795 -0.0698 -1.4100  0.6335
  986SOL     OW14593   2.711   4.450  14.626 -0.1777  0.5794 -0.1452
  986SOL    HW114594   2.661   4.432  14.706  2.1337 -0.2096  1.1411
  986SOL    HW214595   2.735   4.357  14.628 -1.2711  0.2931 -0.1565
  987SOL     OW14596   3.705   2.638   5.638  0.0205 -0.4934  0.0746
  987SOL    HW114597   3.789   2.616   5.598  0.4187  0.5019  0.3602
  987SOL    HW214598   3.699   2.574   5.710 -1.1225 -0.1559  0.2771
  988SOL     OW14599   2.352   4.235  12.593 -0.6061 -0.6455  0.1817
  988SOL    HW114600   2.411   4.186  12.534 -2.9545 -1.3094 -1.6139
  988SOL    HW214601   2.413   4.283  12.649  0.3657 -0.8078 -0.7282
  989SOL     OW14602   3.308   3.175   2.159 -0.0327  0.3036 -0.9895
  989SOL    HW114603   3.369   3.102   2.149 -1.7010 -0.8811 -2.5099
  989SOL    HW214604   3.244   3.145   2.094  0.3720 -1.6663 -0.4890
  990SOL     OW14605   1.663   2.262  10.508  0.3180 -0.0372  0.0313
  990SOL    HW114606   1.688   2.207  10.434 -1.0968  0.2072 -0.6085
  990SOL    HW214607   1.576   2.286  10.478 -0.8370 -0.4446  3.0034
  991SOL     OW14608   2.962   3.267  14.261  0.4021 -0.5487 -0.9952
  991SOL    HW114609   2.991   3.242  14.173  0.3851  1.9543 -1.7223
  991SOL    HW214610   2.999   3.191  14.305 -0.4131 -0.8772 -0.8881
  992SOL     OW14611   0.975   1.480   1.548  0.4609  0.6321 -0.2753
  992SOL    HW114612   0.962   1.475   1.643 -1.9292 -1.3246 -0.7120
  992SOL    HW214613   1.016   1.565   1.534 -4.2092  2.6722 -1.4743
  993SOL     OW14614   2.356   2.590   7.311  0.1716 -0.8254 -0.2183
  993SOL    HW114615   2.272   2.613   7.352  0.5664 -3.1363  1.8765
  993SOL    HW214616   2.376   2.678   7.279  1.2263 -1.7100 -1.9375
  994SOL     OW14617   2.028   2.015   2.358 -0.7126 -0.3295  0.5571
  994SOL    HW114618   2.113   1.985   2.327 -0.4803 -0.2598  1.1211
  994SOL    HW214619   1.965   1.968   2.304 -1.2128 -1.5604  2.2004
  995SOL     OW14620   2.261   3.109   6.677 -0.3601  0.4946 -0.5383
  995SOL    HW114621   2.190   3.167   6.652 -1.4729  0.7904  3.3721
  995SOL    HW214622   2.246   3.098   6.771  1.3097  2.0135 -0.0912
  996SOL     OW14623   3.922   3.304   2.393  0.5167  0.5231 -0.1647
  996SOL    HW114624   3.918   3.399   2.406  1.3172  0.2681  1.8559
  996SOL    HW214625   3.958   3.301   2.304 -0.0361  1.4198 -0.4223
  997SOL     OW14626   2.796   2.884   7.811 -0.3153  0.0276 -0.3338
  997SOL    HW114627   2.888   2.896   7.833 -0.7934  0.5556  1.3137
  997SOL    HW214628   2.790   2.789   7.808  1.8621 -0.1458  0.8707
  998SOL     OW14629   4.442   0.719   4.031 -0.0386 -0.0104  0.4073
  998SOL    HW114630   4.416   0.796   3.981 -1.4083 -1.7928 -1.6685
  998SOL    HW214631   4.509   0.760   4.086  1.0555 -2.0418  0.5873
  999SOL     OW14632   4.638   0.306  16.534  0.9218  0.1019  0.4239
  999SOL    HW114633   4.617   0.216  16.510 -2.6234  1.0789 -0.1734
  999SOL    HW214634   4.602   0.351  16.457  0.0667 -0.0210  0.7578
 1000SOL     OW14635   0.974   0.399   2.392 -0.1261 -0.0287 -0.2227
 1000SOL    HW114636   0.930   0.316   2.410  0.8475 -1.0799 -2.7158
 1000SOL    HW214637   1.062   0.363   2.385 -0.4353 -0.7462 -0.4399
 1001SOL     OW14638   1.641   2.251   8.271  0.3925 -0.1440 -0.2498
 1001SOL    HW114639   1.563   2.247   8.326  0.7006  0.5458  0.2348
 1001SOL    HW214640   1.615   2.314   8.204  0.7191 -2.1904 -2.2926
 1002SOL     OW14641   4.453   1.525  11.993 -0.0129 -1.2742 -0.3734
 1002SOL    HW114642   4.515   1.458  12.024  1.7178 -0.1373 -1.4137
 1002SOL    HW214643   4.476   1.527  11.901 -0.8944 -1.4703 -0.5967
 1003SOL     OW14644   0.091   2.484   6.239 -0.7534  0.0166 -0.4419
 1003SOL    HW114645   0.056   2.436   6.164 -0.1974 -0.6047 -0.2941
 1003SOL    HW214646   0.085   2.413   6.303  2.5424  2.7580  2.9132
 1004SOL     OW14647   1.796   0.251   1.115 -0.0977  0.0199 -0.0987
 1004SOL    HW114648   1.757   0.294   1.192 -1.7734 -0.8731 -0.4493
 1004SOL    HW214649   1.761   0.162   1.120  2.3540 -0.8292  2.0189
 1005SOL     OW14650   0.641   1.770   5.224 -0.3313 -0.0928 -0.1575
 1005SOL    HW114651   0.583   1.704   5.187 -1.1232  0.8402 -0.5873
 1005SOL    HW214652   0.615   1.846   5.171 -3.2066 -0.4251  0.7496
 1006SOL     OW14653   2.407   1.947   3.703 -0.2601 -0.4021  0.3699
 1006SOL    HW114654   2.499   1.925   3.687 -0.7571 -0.7347 -2.0681
 1006SOL    HW214655   2.364   1.913   3.625  0.4187 -2.5735  0.9626
 1007SOL     OW14656   3.016   2.724   9.840 -0.2773 -0.1371 -0.2815
 1007SOL    HW114657   3.074   2.649   9.853 -0.8529 -0.9610 -2.5256
 1007SOL    HW214658   2.975   2.722   9.926 -0.6294 -2.1182 -0.4949
 1008SOL     OW14659   2.413   0.638   8.493  0.7090 -0.0879  0.0927
 1008SOL    HW114660   2.460   0.715   8.461 -0.8747  0.2803 -1.3581
 1008SOL    HW214661   2.321   0.658   8.476  0.9927  0.8840 -0.2942
 1009SOL     OW14662   1.588   4.546   0.242  0.3615 -0.3629 -0.6958
 1009SOL    HW114663   1.508   4.542   0.190 -0.2738 -0.8388  0.3084
 1009SOL    HW214664   1.626   4.460   0.225  1.4697 -0.4249  2.2042
 1010SOL     OW14665   2.937   0.363   0.846 -0.6971 -0.1039 -0.0735
 1010SOL    HW114666   2.866   0.426   0.861  0.1913  0.6248  1.0604
 1010SOL    HW214667   3.016   0.400   0.884 -1.3647 -0.0561  1.2580
 1011SOL     OW14668   1.385   2.997  15.925 -0.1610 -0.0242  0.0381
 1011SOL    HW114669   1.412   2.949  15.847  1.3924  2.3440 -0.8755
 1011SOL    HW214670   1.382   3.089  15.898 -4.3735  0.2877  1.5033
 1012SOL     OW14671   3.358   3.333   4.056 -0.0813 -0.3053  0.3485
 1012SOL    HW114672   3.430   3.388   4.085 -1.0180  1.5060 -0.7441
 1012SOL    HW214673   3.337   3.286   4.137 -0.6178  1.5896  1.3029
 1013SOL     OW14674   2.972   4.269   7.836 -0.0187  0.7165 -0.1477
 1013SOL    HW114675   2.962   4.225   7.920 -0.3360  0.5909 -0.2527
 1013SOL    HW214676   2.908   4.223   7.781 -0.0520  0.3926  0.1639
 1014SOL     OW14677   4.420   0.034   8.740 -0.8953  0.2164  0.4393
 1014SOL    HW114678   4.327   0.048   8.752 -1.5070 -3.0925 -0.3870
 1014SOL    HW214679   4.415   4.715   8.661  2.6658  1.5180 -0.7322
 1015SOL     OW14680   3.693   3.140  14.845 -0.2923 -0.6344 -0.1413
 1015SOL    HW114681   3.693   3.224  14.890  1.7669 -0.9618  0.4975
 1015SOL    HW214682   3.610   3.098  14.867 -0.3054  0.0770  1.1184
 1016SOL     OW14683   3.691   0.059   1.759 -0.2525 -0.1520  0.1045
 1016SOL    HW114684   3.677   0.126   1.693  0.1871  0.0863  0.2499
 1016SOL    HW214685   3.785   0.077   1.771 -0.8498  1.8326  1.9202
 1017SOL     OW14686   0.064   3.992   3.032  0.7012 -0.5649  0.4278
 1017SOL    HW114687   0.131   4.006   3.100  1.9950  1.3646 -1.2664
 1017SOL    HW214688   4.725   3.951   3.076 -0.5358  0.5799 -0.6408
 1018SOL     OW14689   0.179   1.560   3.490  0.2420  0.5088 -0.3624
 1018SOL    HW114690   0.224   1.485   3.450 -0.0050  0.3298 -0.3084
 1018SOL    HW214691   0.236   1.568   3.566  0.5520 -1.0392 -0.4148
 1019SOL     OW14692   2.388   3.050  14.545 -0.2105  0.0164 -0.2943
 1019SOL    HW114693   2.404   3.012  14.632 -3.1117  1.4022  0.8529
 1019SOL    HW214694   2.479   3.065  14.523 -0.1376 -0.1233 -0.0876
 1020SOL     OW14695   1.529   3.821   6.678  0.1040  0.3663 -0.7925
 1020SOL    HW114696   1.476   3.764   6.733 -1.9860  2.0868 -0.9868
 1020SOL    HW214697   1.503   3.906   6.715 -1.3632  0.6992 -2.5395
 1021SOL     OW14698   1.252   4.333   3.246  0.3030 -0.0820  0.1833
 1021SOL    HW114699   1.283   4.329   3.337 -1.3428  2.1868  0.8739
 1021SOL    HW214700   1.181   4.396   3.255 -0.4743 -0.7167 -1.5685
 1022SOL     OW14701   2.703   3.236   6.932 -0.1237 -0.1449  0.6635
 1022SOL    HW114702   2.616   3.208   6.958 -0.1988 -0.4814  0.0379
 1022SOL    HW214703   2.701   3.228   6.837 -0.6835  2.3409  0.4765
 1023SOL     OW14704   3.765   2.896   7.054 -1.1414  0.4709 -0.2099
 1023SOL    HW114705   3.740   2.806   7.070  0.9420  0.0820  0.8595
 1023SOL    HW214706   3.832   2.881   6.986  0.2983  5.6678  0.0396
 1024SOL     OW14707   0.670   3.521   2.776 -0.0060 -0.4340 -0.0474
 1024SOL    HW114708   0.590   3.489   2.818 -0.9300 -0.8445 -2.1219
 1024SOL    HW214709   0.653   3.614   2.763 -1.1824 -0.5114  0.9690
 1025SOL     OW14710   3.669   3.032   5.272 -0.6337 -0.2481 -0.5279
 1025SOL    HW114711   3.629   2.966   5.216  1.6705 -0.0567 -2.3810
 1025SOL    HW214712   3.602   3.100   5.264  0.7764  1.0569 -1.0709
 1026SOL     OW14713   2.617   4.323  15.953  0.3319  0.2418  0.6858
 1026SOL    HW114714   2.525   4.297  15.948  1.1593 -2.0742 -2.8693
 1026SOL    HW214715   2.624   4.357  15.863  2.4247 -1.2922  0.2781
 1027SOL     OW14716   3.799   4.165  13.445  0.8307 -0.0902  0.5135
 1027SOL    HW114717   3.850   4.146  13.367  2.1513  2.2540  0.7922
 1027SOL    HW214718   3.863   4.161  13.516  1.9506 -1.3392 -0.5861
 1028SOL     OW14719   2.924   1.089   5.343 -0.5800  0.1578 -0.3586
 1028SOL    HW114720   2.871   1.009   5.339  0.2940 -0.3617 -1.6179
 1028SOL    HW214721   2.995   1.059   5.285  2.5270  2.1051  2.4669
 1029SOL     OW14722   3.301   0.517  14.746  0.0825 -0.0162  0.5867
 1029SOL    HW114723   3.225   0.493  14.798 -1.4403  3.9540  0.1840
 1029SOL    HW214724   3.262   0.478  14.668  0.4075 -3.2222  2.0541
 1030SOL     OW14725   1.769   4.181  10.207  0.0608 -0.0940 -0.3628
 1030SOL    HW114726   1.835   4.213  10.145  0.0464 -0.5760 -0.6300
 1030SOL    HW214727   1.756   4.261  10.258 -1.0606 -0.4214 -0.1313
 1031SOL     OW14728   2.861   1.773  15.235  0.1420 -0.1624  0.0141
 1031SOL    HW114729   2.903   1.762  15.320  1.4652 -0.5960 -0.6902
 1031SOL    HW214730   2.770   1.796  15.253  0.4315 -0.2422  1.5658
 1032SOL     OW14731   3.725   2.128  14.007  0.0098  0.3079 -0.1159
 1032SOL    HW114732   3.645   2.079  13.989 -1.0186  1.4703  1.2375
 1032SOL    HW214733   3.762   2.065  14.068  0.3010  0.4718 -0.1229
 1033SOL     OW14734   4.731   0.826   6.246 -0.1068 -0.2169 -0.9820
 1033SOL    HW114735   4.718   0.732   6.260 -1.7785  0.0817 -0.4166
 1033SOL    HW214736   0.073   0.844   6.299  0.7576 -1.3608 -1.8938
 1034SOL     OW14737   0.544   2.341  12.475 -0.0092 -0.1672 -0.2722
 1034SOL    HW114738   0.581   2.398  12.407  0.3892 -2.0421 -1.6167
 1034SOL    HW214739   0.596   2.353  12.555 -0.3700  2.4704 -0.4231
 1035SOL     OW14740   1.447   1.614   8.790  0.7008  0.5426  0.0602
 1035SOL    HW114741   1.514   1.657   8.737  1.2711  0.3614  0.6304
 1035SOL    HW214742   1.408   1.554   8.727 -0.0057 -1.9213  2.8446
 1036SOL     OW14743   2.649   2.686   5.255 -0.0174  0.0823  0.1899
 1036SOL    HW114744   2.644   2.778   5.281 -1.4777  0.2508 -0.7387
 1036SOL    HW214745   2.569   2.679   5.204 -1.4063 -1.5196  2.5674
 1037SOL     OW14746   4.391   1.577   6.324  0.0071 -0.2526 -0.3230
 1037SOL    HW114747   4.437   1.572   6.408  0.4350  0.2752 -0.5293
 1037SOL    HW214748   4.369   1.486   6.304 -3.1347  0.5884 -0.6330
 1038SOL     OW14749   3.678   0.825   2.254  0.3459  0.0207 -0.5885
 1038SOL    HW114750   3.711   0.735   2.259 -1.2501 -0.6181 -1.5789
 1038SOL    HW214751   3.583   0.816   2.256  0.3573  0.1661  1.1579
 1039SOL     OW14752   3.984   3.332   5.012  0.0884  0.0392 -0.0784
 1039SOL    HW114753   4.078   3.318   5.003  0.2145  0.1698  1.0770
 1039SOL    HW214754   3.965   3.261   5.074  1.2089 -0.3808 -0.2149
 1040SOL     OW14755   2.326   3.189   1.589 -0.0863 -0.2706 -0.1743
 1040SOL    HW114756   2.265   3.116   1.578  1.1156 -1.5612  1.7631
 1040SOL    HW214757   2.409   3.144   1.605 -0.5969 -1.4221 -0.7918
 1041SOL     OW14758   1.480   0.876  14.696  0.1382 -0.4122  1.1638
 1041SOL    HW114759   1.505   0.936  14.767 -0.7563  0.8795  0.4026
 1041SOL    HW214760   1.543   0.898  14.628 -1.1201  0.3164  0.2412
 1042SOL     OW14761   2.349   3.711   5.084 -0.6991 -0.0664 -0.0322
 1042SOL    HW114762   2.325   3.715   5.177 -1.6440  0.8149 -0.3171
 1042SOL    HW214763   2.285   3.767   5.041  0.9372  0.4543 -1.7520
 1043SOL     OW14764   2.434   3.770   8.026  0.0291  0.0733  0.0141
 1043SOL    HW114765   2.460   3.861   8.037  0.8926 -0.3855  1.7329
 1043SOL    HW214766   2.445   3.765   7.931 -2.1554  1.6166 -0.3240
 1044SOL     OW14767   4.080   1.480   4.760  0.0128  0.1998  0.1413
 1044SOL    HW114768   4.175   1.489   4.758 -0.0564  0.8922 -0.1438
 1044SOL    HW214769   4.070   1.433   4.843  4.1690 -1.1021 -0.1373
 1045SOL     OW14770   2.209   0.782   3.906 -0.0464 -0.2393 -0.9118
 1045SOL    HW114771   2.167   0.813   3.987 -0.7684  0.2690 -1.4719
 1045SOL    HW214772   2.257   0.859   3.875 -1.5952  1.1562  0.1340
 1046SOL     OW14773   0.932   1.360  14.623 -0.2270 -0.0557  0.6308
 1046SOL    HW114774   0.951   1.452  14.601  0.5102 -0.2234  0.5566
 1046SOL    HW214775   1.002   1.319  14.572 -0.2536  2.2331 -1.2786
 1047SOL     OW14776   3.429   0.147   7.089 -0.0042  0.0379 -0.2737
 1047SOL    HW114777   3.425   0.219   7.026 -0.2238  0.2153 -0.0559
 1047SOL    HW214778   3.393   0.200   7.160  0.1923 -0.8065  0.4472
 1048SOL     OW14779   0.922   1.052   8.091  0.0698 -0.0604 -0.2420
 1048SOL    HW114780   0.972   0.972   8.070  2.7050  1.5152  0.0265
 1048SOL    HW214781   0.847   1.014   8.136  0.8104 -1.1019  0.1171
 1049SOL     OW14782   1.303   0.232   5.793 -0.7854  0.3853 -0.2340
 1049SOL    HW114783   1.335   0.252   5.881 -1.8681 -0.8699  0.4532
 1049SOL    HW214784   1.250   0.154   5.809  0.1811  0.2666  2.3994
 1050SOL     OW14785   4.683   1.966   8.649  0.1137  0.4833  0.3845
 1050SOL    HW114786   4.649   2.020   8.578  0.3232  1.2733  0.8966
 1050SOL    HW214787   4.715   1.893   8.595  0.4722  0.9201  0.0003
 1051SOL     OW14788   3.053   2.048   7.920 -0.8009 -0.0761  0.2905
 1051SOL    HW114789   2.986   2.060   7.988 -0.2147  0.1747  0.8170
 1051SOL    HW214790   3.085   1.963   7.950  1.6274  0.5483 -0.5504
 1052SOL     OW14791   0.677   1.613   5.745 -0.1505 -0.1986 -0.4361
 1052SOL    HW114792   0.640   1.688   5.791 -0.2596  0.1084 -1.0251
 1052SOL    HW214793   0.726   1.666   5.682 -1.9274 -1.3620 -2.7660
 1053SOL     OW14794   2.950   1.630  15.792  0.0084 -0.0486 -0.5309
 1053SOL    HW114795   3.041   1.605  15.775  0.1783 -0.4663  1.0183
 1053SOL    HW214796   2.913   1.542  15.783  0.4868 -0.2828 -0.1393
 1054SOL     OW14797   1.350   2.715   7.729 -0.1558  0.2585  0.1454
 1054SOL    HW114798   1.373   2.781   7.794 -1.3212  0.6219  0.1970
 1054SOL    HW214799   1.425   2.706   7.671  0.0988 -1.8183  0.7970
 1055SOL     OW14800   2.943   0.034  14.355 -0.0082 -0.0002 -0.3050
 1055SOL    HW114801   2.939   4.704  14.425 -0.5284  0.3561  0.0019
 1055SOL    HW214802   3.019   0.084  14.386 -1.4545  2.0526 -0.0640
 1056SOL     OW14803   3.040   3.248   6.775 -0.3159  0.4962  0.4321
 1056SOL    HW114804   3.120   3.202   6.799 -0.9649 -0.5612  0.5399
 1056SOL    HW214805   3.039   3.316   6.843  1.6394  0.3624  0.5841
 1057SOL     OW14806   3.523   2.599   2.426 -0.4611 -0.4838  0.3615
 1057SOL    HW114807   3.558   2.614   2.338 -1.0174  0.1340  0.2427
 1057SOL    HW214808   3.607   2.615   2.470  0.7179 -0.7600 -1.7466
 1058SOL     OW14809   0.603   2.581  10.660  0.4866 -0.2571 -0.1553
 1058SOL    HW114810   0.526   2.617  10.617  1.3519  0.7317 -0.8857
 1058SOL    HW214811   0.605   2.491  10.626 -1.6589 -0.7661  1.1055
 1059SOL     OW14812   1.044   2.323   9.267 -0.3621 -0.3542 -0.2143
 1059SOL    HW114813   0.996   2.292   9.190  0.5015  0.2078 -0.9773
 1059SOL    HW214814   1.114   2.262   9.243  1.3765  1.7566 -0.3932
 1060SOL     OW14815   3.036   4.444   7.280  0.0107  0.1246 -0.2831
 1060SOL    HW114816   2.946   4.419   7.298  0.5764  0.0909  2.4841
 1060SOL    HW214817   3.051   4.385   7.205  1.1627  0.2650 -0.1630
 1061SOL     OW14818   4.453   1.893   8.373  0.0415  0.4158  0.2395
 1061SOL    HW114819   4.470   1.900   8.467  1.5248 -0.2625  0.0179
 1061SOL    HW214820   4.539   1.907   8.336 -0.2857 -0.7383 -0.9278
 1062SOL     OW14821   2.397   4.346   8.203 -0.0158  0.4029  0.3125
 1062SOL    HW114822   2.458   4.309   8.139  0.9483  1.0232  0.8723
 1062SOL    HW214823   2.318   4.291   8.204  1.5722 -1.8827 -0.2846
 1063SOL     OW14824   2.583   2.866  17.031  0.1519 -0.0226  0.2052
 1063SOL    HW114825   2.609   2.789  16.979 -1.2247  0.0682 -0.6189
 1063SOL    HW214826   2.661   2.880  17.084  1.0470 -0.8910 -0.8889
 1064SOL     OW14827   1.316   2.534  15.081  0.3631 -0.0499  0.7212
 1064SOL    HW114828   1.274   2.618  15.062 -0.3261 -1.0977 -2.4598
 1064SOL    HW214829   1.344   2.505  14.994 -1.2985  1.9625 -0.4687
 1065SOL     OW14830   2.721   4.234   0.445 -0.4020 -0.3577 -0.1979
 1065SOL    HW114831   2.755   4.157   0.399 -0.4811  0.7186 -2.0700
 1065SOL    HW214832   2.751   4.209   0.533  1.3480  0.1889 -0.6412
 1066SOL     OW14833   0.335   4.242  12.628  0.3069 -0.1319 -0.3463
 1066SOL    HW114834   0.393   4.169  12.649  0.5095  0.0498 -0.2630
 1066SOL    HW214835   0.381   4.281  12.553  0.3987  0.3165 -0.0579
 1067SOL     OW14836   0.662   3.282  15.497  0.1155  0.7865  0.0962
 1067SOL    HW114837   0.661   3.342  15.571  0.0186 -0.9276  1.4958
 1067SOL    HW214838   0.597   3.221  15.534  1.6451 -0.4739  0.6945
 1068SOL     OW14839   0.732   0.579   6.759 -0.1052  0.4166  0.2816
 1068SOL    HW114840   0.695   0.582   6.847 -1.5636  1.5446 -0.3709
 1068SOL    HW214841   0.677   0.648   6.722  0.7189  0.9211 -0.0084
 1069SOL     OW14842   3.814   1.212   3.937  0.3251 -0.1483  0.4768
 1069SOL    HW114843   3.784   1.154   3.867  2.8239 -0.1850 -0.5586
 1069SOL    HW214844   3.828   1.283   3.874 -0.1363 -0.2222  0.2879
 1070SOL     OW14845   0.490   2.885   2.720  0.3436 -0.4494  0.5117
 1070SOL    HW114846   0.399   2.867   2.742 -0.7182  1.8082 -2.0740
 1070SOL    HW214847   0.499   2.978   2.740 -1.4167 -0.1564 -0.0209
 1071SOL     OW14848   2.197   3.176  16.307 -0.3283  0.7054  0.1555
 1071SOL    HW114849   2.146   3.115  16.361  0.9927 -1.4731 -1.0680
 1071SOL    HW214850   2.147   3.174  16.225  0.2879 -0.0659 -0.1951
 1072SOL     OW14851   4.367   1.906  12.995 -0.2809 -0.0783  0.0222
 1072SOL    HW114852   4.426   1.919  12.921 -0.2118 -0.5340 -0.0047
 1072SOL    HW214853   4.296   1.961  12.963  0.1353  0.3288 -0.2069
 1073SOL     OW14854   1.640   4.540  13.424 -0.2312 -0.0666  0.2978
 1073SOL    HW114855   1.585   4.609  13.387  0.9041  0.5473 -0.2451
 1073SOL    HW214856   1.664   4.584  13.506  1.5922 -1.0687  0.2990
 1074SOL     OW14857   3.865   2.727   5.115 -0.7927  0.3044  0.2047
 1074SOL    HW114858   3.898   2.639   5.097 -0.1482  0.7871 -0.9529
 1074SOL    HW214859   3.942   2.751   5.166 -0.4484 -1.5312  0.5681
 1075SOL     OW14860   4.519   4.307   8.291  0.0336  0.3985  0.5024
 1075SOL    HW114861   4.464   4.338   8.219  1.8759  1.1339 -0.5722
 1075SOL    HW214862   4.551   4.224   8.255  0.0718  0.9744 -0.7526
 1076SOL     OW14863   3.482   0.074  15.664 -0.1417  0.0456  0.1619
 1076SOL    HW114864   3.392   0.076  15.695  0.6436 -2.2290  2.5166
 1076SOL    HW214865   3.517   0.058  15.751  0.5443 -1.6893 -0.4302
 1077SOL     OW14866   2.275   0.021   3.392 -0.2805 -0.5365  0.1790
 1077SOL    HW114867   2.291   0.027   3.486  0.5749  2.0927 -0.1305
 1077SOL    HW214868   2.193   0.065   3.368  1.1271  0.0598 -3.6632
 1078SOL     OW14869   3.953   1.956  15.957 -0.8459  0.3781 -0.6187
 1078SOL    HW114870   3.899   2.022  15.914 -1.0794  0.4578 -0.1984
 1078SOL    HW214871   3.897   1.879  15.962  0.3833 -0.4000  1.2039
 1079SOL     OW14872   4.504   1.682   4.254 -0.0928  0.3505 -0.1549
 1079SOL    HW114873   4.594   1.656   4.238  0.2092  1.3232 -0.0484
 1079SOL    HW214874   4.509   1.778   4.254  0.6301  0.3109 -0.5162
 1080SOL     OW14875   3.852   0.068  16.910  0.3436  0.4375 -0.0042
 1080SOL    HW114876   3.906   4.725  16.919 -0.6016 -0.4786 -2.3147
 1080SOL    HW214877   3.780   0.049  16.970 -0.3958  3.0218 -0.0780
 1081SOL     OW14878   4.647   3.870   8.716  0.6681 -0.0018 -0.4521
 1081SOL    HW114879   4.641   3.792   8.771 -0.7654  1.4203  1.4462
 1081SOL    HW214880   4.623   3.827   8.634 -2.8348  0.6369  0.2390
 1082SOL     OW14881   3.064   2.743   8.388  0.0743 -0.4422  0.0846
 1082SOL    HW114882   3.024   2.802   8.453 -0.0049  2.7777 -2.8541
 1082SOL    HW214883   3.077   2.663   8.438 -1.3754  0.4699  1.8992
 1083SOL     OW14884   0.146   3.534   6.566 -0.1491 -0.3832  0.1642
 1083SOL    HW114885   0.146   3.615   6.516  1.0265 -0.5604 -0.1211
 1083SOL    HW214886   0.213   3.554   6.632 -0.2229 -0.7469  0.3540
 1084SOL     OW14887   1.979   0.624   4.162 -0.2192  0.3424 -0.0931
 1084SOL    HW114888   2.052   0.569   4.134 -2.4194 -2.1324 -0.9405
 1084SOL    HW214889   2.018   0.712   4.162  3.8674 -1.4713  1.1608
 1085SOL     OW14890   0.128   3.051  13.955 -0.4579  0.9354 -0.1616
 1085SOL    HW114891   0.177   3.086  13.881 -0.8818  0.1472 -0.8129
 1085SOL    HW214892   0.042   3.092  13.945 -1.1348 -0.3982  0.2523
 1086SOL     OW14893   2.694   0.374  14.902 -0.0482 -0.1027 -0.6748
 1086SOL    HW114894   2.717   0.457  14.944  1.4215 -1.3676  1.0265
 1086SOL    HW214895   2.654   0.416  14.826 -0.3628  0.7579 -0.0373
 1087SOL     OW14896   2.423   1.246   8.622  0.4907  0.0950 -0.4912
 1087SOL    HW114897   2.378   1.271   8.703  0.0898  0.1551 -0.7369
 1087SOL    HW214898   2.424   1.335   8.587  1.9094  0.7034  1.0757
 1088SOL     OW14899   3.383   4.279   4.022  0.1311  0.2164 -0.3146
 1088SOL    HW114900   3.292   4.301   3.997 -1.2155 -3.3456  1.5418
 1088SOL    HW214901   3.424   4.236   3.947 -0.2655 -2.1558  0.8350
 1089SOL     OW14902   2.501   1.254   0.374  0.0555 -0.2781  0.0517
 1089SOL    HW114903   2.582   1.217   0.409  1.6704  2.6699 -0.5472
 1089SOL    HW214904   2.446   1.177   0.388  0.1400 -0.7222 -2.0347
 1090SOL     OW14905   2.720   1.108  14.937  0.0730  0.2481 -0.4861
 1090SOL    HW114906   2.715   1.014  14.918 -1.4295 -0.1106  1.6998
 1090SOL    HW214907   2.634   1.141  14.910  0.7533  0.3790 -2.4896
 1091SOL     OW14908   2.689   1.824   6.229  0.4004 -0.2571 -0.3356
 1091SOL    HW114909   2.775   1.793   6.203  0.8123  0.7220 -0.1469
 1091SOL    HW214910   2.698   1.891   6.297  1.4838  1.3847 -2.1095
 1092SOL     OW14911   2.664   3.429   3.204 -0.5619  0.2688 -0.5455
 1092SOL    HW114912   2.622   3.344   3.195  0.3798 -0.3364  0.7192
 1092SOL    HW214913   2.621   3.447   3.287 -0.6476 -0.6249 -0.3992
 1093SOL     OW14914   2.688   2.890  11.986  1.1435 -0.4253 -0.6078
 1093SOL    HW114915   2.727   2.803  11.979 -1.4116 -1.4420 -2.2598
 1093SOL    HW214916   2.604   2.875  11.943  1.8770 -0.8277 -1.8985
 1094SOL     OW14917   3.015   1.857   8.951 -0.5895  0.4164  0.5531
 1094SOL    HW114918   3.078   1.889   9.016 -0.6863 -1.0107  1.3551
 1094SOL    HW214919   2.934   1.889   8.991 -0.3242 -0.8563  2.1139
 1095SOL     OW14920   3.502   3.505   9.336  0.6490 -0.0148 -0.3743
 1095SOL    HW114921   3.572   3.468   9.283  1.6589 -1.5765  2.0624
 1095SOL    HW214922   3.467   3.556   9.263  3.2709 -0.3019 -1.8102
 1096SOL     OW14923   3.815   1.552  13.077 -0.0115 -0.6548  0.3635
 1096SOL    HW114924   3.816   1.647  13.089  1.0231 -0.5379 -0.6406
 1096SOL    HW214925   3.722   1.553  13.057 -0.3876  1.9900  2.2125
 1097SOL     OW14926   2.628   1.100   8.655 -0.3922  0.4063  0.1777
 1097SOL    HW114927   2.561   1.167   8.643  0.7277  1.5453  0.3664
 1097SOL    HW214928   2.591   1.037   8.718  1.4954  0.2834  1.1542
 1098SOL     OW14929   3.967   2.663   3.140 -0.0282  0.5505  0.1618
 1098SOL    HW114930   4.037   2.659   3.206 -0.3710 -1.5346  0.4178
 1098SOL    HW214931   4.001   2.604   3.073 -3.0497  0.7529 -1.5018
 1099SOL     OW14932   3.240   1.642   5.449  0.2897 -0.4014  0.3223
 1099SOL    HW114933   3.197   1.557   5.447  1.7451 -1.1386 -0.0595
 1099SOL    HW214934   3.256   1.654   5.542  0.3961 -0.3194  0.2945
 1100SOL     OW14935   2.808   3.517   5.046  0.5139  0.0319  0.4266
 1100SOL    HW114936   2.795   3.476   5.132 -0.2114  0.8617  0.7072
 1100SOL    HW214937   2.714   3.513   5.029  0.3902 -0.4122  1.1922
 1101SOL     OW14938   0.074   1.423   6.337 -0.1012 -0.4880  0.6171
 1101SOL    HW114939   0.005   1.395   6.397  1.1665 -3.8931  0.5033
 1101SOL    HW214940   0.076   1.514   6.367  0.0515 -0.8116  1.5888
 1102SOL     OW14941   0.067   3.647   5.341  0.2626 -0.5222  0.6018
 1102SOL    HW114942   0.137   3.588   5.314  2.9035  2.6747  0.4329
 1102SOL    HW214943   0.117   3.728   5.340  1.1678 -1.1368 -2.1131
 1103SOL     OW14944   3.418   0.785   2.089 -0.3057 -0.3985 -0.0898
 1103SOL    HW114945   3.438   0.768   1.996 -1.2275 -3.2613  0.2300
 1103SOL    HW214946   3.391   0.697   2.115  0.3358 -0.7398 -0.5610
 1104SOL     OW14947   0.105   3.771   6.430 -0.5053 -0.2817 -0.7472
 1104SOL    HW114948   0.072   3.848   6.476 -0.4424 -1.6854  1.6408
 1104SOL    HW214949   0.063   3.778   6.345 -0.1310 -1.3189 -1.0227
 1105SOL     OW14950   4.646   0.886   5.934  0.2321 -0.2506  0.2654
 1105SOL    HW114951   4.588   0.859   5.863 -0.1624 -0.3069  0.6065
 1105SOL    HW214952   4.588   0.903   6.008  1.9328  3.1576  0.8344
 1106SOL     OW14953   0.409   2.223   4.944 -0.0145 -0.0768 -0.5482
 1106SOL    HW114954   0.467   2.272   5.002  0.6035 -0.5523 -0.7609
 1106SOL    HW214955   0.370   2.164   5.009  0.1265 -0.9396 -1.2494
 1107SOL     OW14956   2.704   3.290   4.207 -0.2759 -0.0882 -0.0196
 1107SOL    HW114957   2.745   3.350   4.145 -0.2923 -0.7997 -0.7344
 1107SOL    HW214958   2.704   3.343   4.286 -0.2677  0.4167 -0.3592
 1108SOL     OW14959   3.127   0.029   4.906 -0.6140  0.3026  0.0961
 1108SOL    HW114960   3.085   4.679   4.896 -1.5798  0.7128  0.6995
 1108SOL    HW214961   3.215   0.001   4.932 -1.2667 -1.4822  0.3773
 1109SOL     OW14962   4.312   4.411   3.245  0.0842  0.3576 -0.8009
 1109SOL    HW114963   4.403   4.384   3.256  0.1736  2.0905  2.8054
 1109SOL    HW214964   4.311   4.445   3.156 -0.1229  0.7149 -0.6654
 1110SOL     OW14965   1.749   3.289   6.966 -0.4728  0.1699  0.0510
 1110SOL    HW114966   1.743   3.211   7.021 -1.2289  1.7492  2.1758
 1110SOL    HW214967   1.668   3.336   6.985 -0.9996 -0.6523 -0.1298
 1111SOL     OW14968   0.756   2.373   9.373 -0.1375 -0.1225  0.0563
 1111SOL    HW114969   0.732   2.439   9.308  0.6823  2.4635  2.3652
 1111SOL    HW214970   0.849   2.354   9.356  0.1869  0.6158  0.9848
 1112SOL     OW14971   4.530   3.991  12.573  0.3031 -0.0477 -0.3356
 1112SOL    HW114972   4.549   3.922  12.636  3.1002 -0.8439 -2.0403
 1112SOL    HW214973   4.616   4.030  12.556 -1.0049  2.3664 -1.4997
 1113SOL     OW14974   3.483   4.118  11.042  0.2946  0.3613 -0.3036
 1113SOL    HW114975   3.537   4.147  11.116 -0.4325 -1.2496  0.8708
 1113SOL    HW214976   3.415   4.075  11.094 -1.2323 -0.1791 -2.7378
 1114SOL     OW14977   1.458   4.106   3.336  0.1496 -0.3295  0.0948
 1114SOL    HW114978   1.491   4.116   3.425  1.1340 -1.3302 -0.1596
 1114SOL    HW214979   1.486   4.186   3.292 -1.5357 -0.0567 -0.4694
 1115SOL     OW14980   0.384   1.381   4.622  0.1362  0.2350 -0.3178
 1115SOL    HW114981   0.432   1.302   4.645 -2.4739 -1.0605  0.7374
 1115SOL    HW214982   0.376   1.359   4.529  0.7547 -1.7373  0.1097
 1116SOL     OW14983   2.093   1.248   2.015  0.6488  0.0525  0.1981
 1116SOL    HW114984   2.003   1.215   2.007  0.6990 -0.4161  1.5551
 1116SOL    HW214985   2.136   1.169   2.048  0.6913 -0.2117 -0.4872
 1117SOL     OW14986   0.766   0.729  13.641 -0.0710  0.0088 -0.6859
 1117SOL    HW114987   0.795   0.757  13.727 -0.4315 -0.0540 -0.5453
 1117SOL    HW214988   0.799   0.640  13.634  0.6278  0.2277 -0.1615
 1118SOL     OW14989   1.422   0.043   3.229 -0.1831  0.0930  0.7127
 1118SOL    HW114990   1.486   0.060   3.298 -0.0103 -0.3435  0.6621
 1118SOL    HW214991   1.431   0.126   3.183 -2.4513  0.3462  0.7367
 1119SOL     OW14992   3.378   0.639   4.910 -0.6807 -0.6895  0.2828
 1119SOL    HW114993   3.343   0.650   4.821 -1.4926 -1.3490  0.5131
 1119SOL    HW214994   3.356   0.546   4.921 -1.8788 -0.7124 -2.1653
 1120SOL     OW14995   2.905   0.017   5.326  0.1537  0.0888 -0.4271
 1120SOL    HW114996   2.857   0.089   5.366  0.1253  0.4585 -1.1422
 1120SOL    HW214997   2.915   0.062   5.243 -0.9470  0.6032 -0.2779
 1121SOL     OW14998   0.344   0.657  12.338  0.0032  0.5620 -0.2236
 1121SOL    HW114999   0.320   0.686  12.426 -2.0939 -0.3688 -0.4859
 1121SOL    HW215000   0.355   0.732  12.280  0.8330 -0.3586 -1.2699
 1122SOL     OW15001   0.395   0.550   7.461 -0.2977  0.3433 -0.5909
 1122SOL    HW115002   0.416   0.635   7.424 -1.3075  1.1324  0.6781
 1122SOL    HW215003   0.328   0.524   7.398 -0.6090  0.8978 -0.4893
 1123SOL     OW15004   3.252   0.821  13.227 -0.3856  0.2257 -0.2167
 1123SOL    HW115005   3.159   0.843  13.227 -0.9317 -2.0819  0.6549
 1123SOL    HW215006   3.250   0.730  13.199  2.0526  0.2022 -0.3185
 1124SOL     OW15007   1.918   0.560   6.807  0.0960  0.0236 -0.0011
 1124SOL    HW115008   1.969   0.508   6.869  1.1350  3.9685  2.4754
 1124SOL    HW215009   1.968   0.552   6.726  1.1112  0.7275  0.5709
 1125SOL     OW15010   2.771   1.919   7.143  0.2269  0.0208 -0.0451
 1125SOL    HW115011   2.797   1.903   7.233 -1.0577  1.1271  0.5308
 1125SOL    HW215012   2.741   2.009   7.156  1.2645  0.4760 -0.8100
 1126SOL     OW15013   0.275   0.369   9.000 -0.2916 -0.0814  0.4911
 1126SOL    HW115014   0.182   0.358   8.983 -0.5508  3.2798 -0.2307
 1126SOL    HW215015   0.276   0.313   9.077 -1.3660  0.7296  1.0957
 1127SOL     OW15016   3.937   2.387  15.617  0.2229 -0.2863  0.7015
 1127SOL    HW115017   3.881   2.460  15.590  0.8204  0.0279  0.3083
 1127SOL    HW215018   4.024   2.427  15.614  0.5413 -0.9095  1.7242
 1128SOL     OW15019   3.488   0.092  15.991  0.2736  0.1936 -0.4965
 1128SOL    HW115020   3.404   0.126  15.960 -1.1404 -0.5928  2.5153
 1128SOL    HW215021   3.469   0.014  16.043  1.7745  0.1526 -0.0306
 1129SOL     OW15022   3.896   2.197  15.815 -0.6282  0.0437  0.0171
 1129SOL    HW115023   3.886   2.265  15.882 -0.1587  0.1489 -0.0147
 1129SOL    HW215024   3.906   2.246  15.733 -1.1538  3.0049  1.7297
 1130SOL     OW15025   0.988   1.535   2.202 -0.1669 -0.0588  0.4685
 1130SOL    HW115026   1.022   1.489   2.125  0.3710  1.1495 -0.0093
 1130SOL    HW215027   0.923   1.472   2.232 -0.5382  0.3330  0.4712
 1131SOL     OW15028   4.704   2.101  17.724 -0.3318  0.0366 -0.0506
 1131SOL    HW115029   4.651   2.028  17.692  0.4548 -1.2158  1.5193
 1131SOL    HW215030   4.687   2.163  17.653 -1.9809  0.6505  0.8651
 1132SOL     OW15031   2.257   4.162   5.769 -0.0717  0.5918  0.7721
 1132SOL    HW115032   2.176   4.190   5.811  0.1935  2.0931  0.2849
 1132SOL    HW215033   2.219   4.127   5.688  1.1352  1.7824 -0.3201
 1133SOL     OW15034   1.008   2.017   5.151 -0.3890 -0.0471  0.5883
 1133SOL    HW115035   1.073   2.074   5.111  0.4421 -0.0505  1.9513
 1133SOL    HW215036   1.060   1.978   5.221  0.2290  3.0723  1.8348
 1134SOL     OW15037   3.084   4.262  12.057  0.4376 -0.2071  0.6354
 1134SOL    HW115038   3.016   4.207  12.018  0.6182  0.3808 -0.5116
 1134SOL    HW215039   3.123   4.317  11.990  1.7810 -2.4262 -0.4067
 1135SOL     OW15040   4.250   4.017   6.131  0.4333  0.4056  0.5229
 1135SOL    HW115041   4.239   3.998   6.224 -2.8739  1.2494  0.2986
 1135SOL    HW215042   4.177   3.966   6.096  1.6314  0.0173 -1.4787
 1136SOL     OW15043   2.009   2.884   5.389 -0.0282  0.1965 -0.4840
 1136SOL    HW115044   2.062   2.946   5.440 -0.3973  1.7499 -1.9966
 1136SOL    HW215045   2.077   2.817   5.386  1.4323  1.7733 -2.8263
 1137SOL     OW15046   3.910   0.496   5.654 -0.0589 -0.2042 -0.8924
 1137SOL    HW115047   3.866   0.413   5.673 -3.3902  1.0816 -3.0606
 1137SOL    HW215048   4.004   0.476   5.657 -0.1045 -0.7956 -3.6563
 1138SOL     OW15049   3.619   0.360   2.945  0.2344  0.1546 -0.1172
 1138SOL    HW115050   3.626   0.439   2.998 -3.6291  0.4818 -0.0547
 1138SOL    HW215051   3.711   0.347   2.926  0.1289  0.8742 -1.1047
 1139SOL     OW15052   1.245   0.888  14.997  0.4538 -0.7397 -0.5505
 1139SOL    HW115053   1.314   0.879  15.062 -0.3546 -3.4686 -0.0437
 1139SOL    HW215054   1.252   0.801  14.956 -1.8903 -0.9807 -0.4526
 1140SOL     OW15055   3.124   1.112  17.123  0.1454 -0.4864  0.1887
 1140SOL    HW115056   3.216   1.138  17.121 -0.4805  1.6411 -0.5773
 1140SOL    HW215057   3.085   1.190  17.163  0.9908 -0.0476  0.1592
 1141SOL     OW15058   1.182   0.011  15.756  0.1101 -0.3403  0.3759
 1141SOL    HW115059   1.187   0.045  15.666  0.1868 -1.2972  0.0226
 1141SOL    HW215060   1.248   0.070  15.794 -0.7126  0.4353  0.5917
 1142SOL     OW15061   4.030   3.920   5.392  0.4228 -0.6362  0.1544
 1142SOL    HW115062   4.116   3.899   5.356  0.1549 -0.6571 -0.4670
 1142SOL    HW215063   3.986   3.844   5.355 -0.2959 -0.5066  0.7278
 1143SOL     OW15064   2.010   4.641   1.412 -0.4309 -0.3335  0.1750
 1143SOL    HW115065   1.994   4.660   1.320 -1.4145 -0.7293  0.2674
 1143SOL    HW215066   2.065   4.565   1.396 -1.6537 -1.2277  0.2693
 1144SOL     OW15067   2.731   3.637   3.056  0.1268  0.3039 -0.3075
 1144SOL    HW115068   2.819   3.658   3.086 -0.7720  1.9078  1.2308
 1144SOL    HW215069   2.712   3.557   3.105 -1.6224 -0.2176 -1.8606
 1145SOL     OW15070   2.839   3.476   4.082  0.7436  0.2121  0.0360
 1145SOL    HW115071   2.904   3.456   4.015  1.6168 -1.1613  1.2992
 1145SOL    HW215072   2.794   3.559   4.068 -1.3690 -1.0929 -0.9543
 1146SOL     OW15073   1.016   3.168  12.215 -0.2238 -0.1513 -0.1691
 1146SOL    HW115074   0.992   3.078  12.236 -3.4132  0.4412 -1.3076
 1146SOL    HW215075   1.100   3.167  12.262 -0.8430 -1.5416  0.8823
 1147SOL     OW15076   3.381   4.512  15.971 -0.1916  0.0426 -0.2686
 1147SOL    HW115077   3.293   4.544  15.951 -0.0568  0.8412  0.4265
 1147SOL    HW215078   3.351   4.469  16.052  2.6367 -0.0622  0.7101
 1148SOL     OW15079   4.295   1.622   7.945  0.3424 -0.4675  0.3476
 1148SOL    HW115080   4.388   1.645   7.945  0.7427 -2.0762 -1.2751
 1148SOL    HW215081   4.280   1.572   8.025  0.6233  0.0737  0.7420
 1149SOL     OW15082   0.873   2.545   4.206  0.3704 -0.3999 -0.4947
 1149SOL    HW115083   0.811   2.475   4.190 -0.0894 -0.0687 -0.1490
 1149SOL    HW215084   0.891   2.565   4.114  1.4073 -1.5777 -0.5440
 1150SOL     OW15085   2.222   0.932   0.786 -0.1915 -0.1681 -0.5663
 1150SOL    HW115086   2.130   0.957   0.783 -0.0484  0.4412  0.4974
 1150SOL    HW215087   2.220   0.864   0.718  1.1989 -0.2783 -0.4840
 1151SOL     OW15088   0.340   4.667   0.161 -0.3484  0.3936  0.4938
 1151SOL    HW115089   0.247   4.664   0.184 -0.5446  0.0688 -0.3538
 1151SOL    HW215090   0.354   0.017   0.121 -1.9220  0.3208 -0.1981
 1152SOL     OW15091   4.558   0.425   0.794  0.1360  0.2834  0.2297
 1152SOL    HW115092   4.595   0.439   0.881 -1.9295  1.7037  0.8724
 1152SOL    HW215093   4.467   0.397   0.806 -0.3060  1.7403  0.3131
 1153SOL     OW15094   3.054   4.562  16.655  0.0661  0.3512 -0.1851
 1153SOL    HW115095   3.098   4.646  16.663  0.2502  0.0355  2.1882
 1153SOL    HW215096   3.120   4.516  16.603  0.3328  1.0450 -0.4594
 1154SOL     OW15097   0.443   0.200   5.455  0.0151  0.4829  0.6862
 1154SOL    HW115098   0.537   0.182   5.461  0.1005  0.7370  0.0595
 1154SOL    HW215099   0.435   0.266   5.523 -0.5022 -0.7260  1.8060
 1155SOL     OW15100   2.962   2.937   6.376  0.3579 -0.6915  0.1342
 1155SOL    HW115101   2.972   2.842   6.385  1.5203 -0.6363 -0.6761
 1155SOL    HW215102   2.910   2.960   6.453  1.1722 -0.9428  0.7653
 1156SOL     OW15103   2.870   1.482  16.994 -0.6500 -0.1183  0.5325
 1156SOL    HW115104   2.918   1.403  16.968 -0.4054 -0.0871  0.8868
 1156SOL    HW215105   2.832   1.520  16.915  1.1043  0.8791  0.1696
 1157SOL     OW15106   1.540   1.593   9.046  0.2367  0.8619 -0.1568
 1157SOL    HW115107   1.480   1.606   8.973  0.6926  0.7321 -0.5586
 1157SOL    HW215108   1.601   1.527   9.012  0.0627  0.0137  1.1692
 1158SOL     OW15109   1.046   0.885   9.207  0.5367  0.2423  0.2733
 1158SOL    HW115110   1.007   0.811   9.160 -0.3296  0.9213 -0.0626
 1158SOL    HW215111   1.073   0.846   9.290  0.3130  0.1837  0.3170
 1159SOL     OW15112   0.969   2.180   2.049 -0.0352 -0.3684 -0.2615
 1159SOL    HW115113   0.978   2.193   1.954  0.4225  1.1903  0.0128
 1159SOL    HW215114   1.049   2.215   2.087  0.5304 -0.7962 -1.0422
 1160SOL     OW15115   1.668   2.556  14.992  0.4159 -0.3439 -0.1316
 1160SOL    HW115116   1.707   2.643  15.000  0.3205 -0.3348  0.2452
 1160SOL    HW215117   1.720   2.525  14.919 -1.1008 -0.0819 -1.3172
 1161SOL     OW15118   2.013   3.705   5.950  0.4059  0.0075  0.4705
 1161SOL    HW115119   1.944   3.652   5.990 -0.7329  1.0853 -0.0706
 1161SOL    HW215120   1.981   3.700   5.860  2.9059 -0.8840 -0.3642
 1162SOL     OW15121   2.724   2.434   7.595 -0.3276  0.1000  0.4502
 1162SOL    HW115122   2.758   2.396   7.514 -0.0922 -1.1320  1.1316
 1162SOL    HW215123   2.637   2.456   7.560  0.7722  3.0357 -0.4891
 1163SOL     OW15124   1.060   4.631   9.703  0.4837 -0.0946  0.6652
 1163SOL    HW115125   0.969   4.658   9.690  0.9345  1.5866  1.0134
 1163SOL    HW215126   1.048   4.541   9.733 -0.0281 -0.3779 -0.3758
 1164SOL     OW15127   0.621   1.401  10.850 -0.2458  0.1261  0.2030
 1164SOL    HW115128   0.580   1.395  10.937 -0.2911 -4.5123 -0.1488
 1164SOL    HW215129   0.549   1.399  10.788 -0.6224  1.8939  0.5887
 1165SOL     OW15130   3.014   1.376   6.610 -0.0278  0.0769 -0.1071
 1165SOL    HW115131   3.082   1.362   6.544  0.5421 -1.7935  0.8713
 1165SOL    HW215132   2.933   1.363   6.560 -0.3148 -0.2361  0.4402
 1166SOL     OW15133   0.684   0.374   0.969 -0.1128 -0.4828  0.3171
 1166SOL    HW115134   0.616   0.350   0.905 -1.7361  1.4070  1.3391
 1166SOL    HW215135   0.659   0.310   1.036  0.0821 -0.2127  0.6444
 1167SOL     OW15136   1.090   1.143   9.524  0.8255 -1.1553 -0.2097
 1167SOL    HW115137   1.024   1.092   9.477 -0.1878  0.0752 -0.1243
 1167SOL    HW215138   1.109   1.205   9.453 -2.0043 -1.0095 -0.8374
 1168SOL     OW15139   2.730   3.079   4.719 -0.1121  0.2336  0.4826
 1168SOL    HW115140   2.677   3.158   4.710 -0.1794  0.3123  1.5661
 1168SOL    HW215141   2.724   3.055   4.627 -0.2657 -1.6392  0.9827
 1169SOL     OW15142   1.933   2.580   8.703  0.8286 -0.1880 -0.1972
 1169SOL    HW115143   1.978   2.661   8.725  1.2727 -0.4478 -0.1554
 1169SOL    HW215144   1.859   2.590   8.764  0.2731 -0.5148 -0.8168
 1170SOL     OW15145   2.593   4.351   4.497 -0.2256 -0.0662 -0.1146
 1170SOL    HW115146   2.681   4.383   4.478  0.6548 -0.5689  3.0337
 1170SOL    HW215147   2.534   4.423   4.474 -0.2840  0.5558  1.9199
 1171SOL     OW15148   0.426   3.430   3.764  0.0681  0.1610 -0.4373
 1171SOL    HW115149   0.421   3.382   3.847 -0.6781  0.0615 -0.5457
 1171SOL    HW215150   0.348   3.416   3.711 -0.4066 -2.2981  0.9288
 1172SOL     OW15151   1.162   4.185  14.960  0.0608  0.5865  1.0956
 1172SOL    HW115152   1.171   4.276  14.988 -0.7580  1.0257 -0.0786
 1172SOL    HW215153   1.122   4.137  15.032  2.4186  2.4385  3.6489
 1173SOL     OW15154   3.657   3.142   7.897  0.2567  0.0741  0.6620
 1173SOL    HW115155   3.597   3.203   7.855  1.3455  0.0594 -0.9437
 1173SOL    HW215156   3.612   3.122   7.979 -0.0927  3.4466  1.2711
 1174SOL     OW15157   0.802   1.899   8.311  0.2894 -0.2965  0.3729
 1174SOL    HW115158   0.744   1.961   8.355 -0.8491 -1.8926  1.1630
 1174SOL    HW215159   0.777   1.821   8.362  1.3162 -0.7962  0.1109
 1175SOL     OW15160   0.730   3.436   4.604 -0.5160 -0.1981  0.0083
 1175SOL    HW115161   0.764   3.484   4.529  0.5653 -2.8324 -1.1731
 1175SOL    HW215162   0.689   3.361   4.562  0.9667 -0.3302 -1.1826
 1176SOL     OW15163   1.368   0.966   7.460  0.1111 -0.1461  0.2655
 1176SOL    HW115164   1.324   0.906   7.520  0.4877 -0.1611  0.5252
 1176SOL    HW215165   1.391   0.901   7.393  0.2224  0.5937 -0.4096
 1177SOL     OW15166   1.169   3.587   3.317  0.8055  0.4686 -0.1231
 1177SOL    HW115167   1.143   3.677   3.337  1.3548  0.6223 -0.0968
 1177SOL    HW215168   1.189   3.582   3.224  0.1684 -0.4097 -0.2076
 1178SOL     OW15169   0.641   1.168   5.398  0.0150  0.4303  0.1973
 1178SOL    HW115170   0.698   1.233   5.440 -0.5706 -0.7786  2.8483
 1178SOL    HW215171   0.664   1.171   5.305 -0.5341 -0.6702  0.0291
 1179SOL     OW15172   2.744   1.444   2.668 -0.3469  0.1393  0.6793
 1179SOL    HW115173   2.757   1.399   2.752  0.0689  0.9384  1.0361
 1179SOL    HW215174   2.702   1.524   2.701 -1.5819 -0.6235  0.9627
 1180SOL     OW15175   2.632   3.552  14.838 -0.7112  0.5869  0.0806
 1180SOL    HW115176   2.638   3.631  14.890  3.1766  0.2242  0.1813
 1180SOL    HW215177   2.543   3.548  14.803 -1.0261 -0.6696  1.0008
 1181SOL     OW15178   1.917   2.544  16.094 -0.0041  0.3067  0.3266
 1181SOL    HW115179   1.913   2.590  16.177 -0.8352  1.7327 -0.4954
 1181SOL    HW215180   1.976   2.471  16.110  1.1738  0.5651 -2.7785
 1182SOL     OW15181   2.812   1.275   1.848 -0.3206  0.0015  0.0791
 1182SOL    HW115182   2.787   1.356   1.893  2.4318  0.4325  0.8463
 1182SOL    HW215183   2.874   1.305   1.781 -2.0826 -1.8746 -2.4174
 1183SOL     OW15184   4.341   0.115  11.719  0.5289  0.0049 -0.2814
 1183SOL    HW115185   4.430   0.134  11.746  0.5719 -0.8657  0.1800
 1183SOL    HW215186   4.357   0.128  11.625 -1.2134 -0.0519 -0.5979
 1184SOL     OW15187   3.410   1.166   6.147  0.1110  0.3087 -0.5801
 1184SOL    HW115188   3.412   1.100   6.078 -0.8891 -0.5007  0.1790
 1184SOL    HW215189   3.316   1.173   6.160  0.1982 -0.4441  0.4516
 1185SOL     OW15190   0.786   2.042  15.244  0.5650 -0.1237 -0.3876
 1185SOL    HW115191   0.718   1.985  15.280 -0.2328  1.1456  0.1145
 1185SOL    HW215192   0.865   2.000  15.279  0.0511  0.2272  1.1959
 1186SOL     OW15193   1.288   4.357   8.492  0.2256  0.1056  0.0088
 1186SOL    HW115194   1.312   4.447   8.516  1.5221 -0.3836  0.4907
 1186SOL    HW215195   1.308   4.357   8.399 -1.5074 -1.4087 -0.3568
 1187SOL     OW15196   4.412   4.054  11.184  0.5337 -0.0216  0.1611
 1187SOL    HW115197   4.461   3.987  11.136 -0.8584 -0.7944 -0.1654
 1187SOL    HW215198   4.464   4.134  11.173 -2.4337  1.7871 -0.5647
 1188SOL     OW15199   0.591   1.253  13.558 -0.2613  0.2027  0.1379
 1188SOL    HW115200   0.526   1.236  13.489  0.1632 -3.2922  0.5659
 1188SOL    HW215201   0.607   1.346  13.545  2.0023 -0.4466 -1.7519
 1189SOL     OW15202   1.719   2.216  16.989  0.3426 -0.2070  0.2835
 1189SOL    HW115203   1.807   2.245  16.964  0.4354 -0.6280  0.1146
 1189SOL    HW215204   1.667   2.296  16.983  2.3669  1.1778  0.8227
 1190SOL     OW15205   2.255   1.284   3.902  0.0221  0.0091 -0.3721
 1190SOL    HW115206   2.260   1.361   3.958 -1.5262 -0.6517  0.6770
 1190SOL    HW215207   2.211   1.320   3.826 -0.7594 -0.5045 -0.1678
 1191SOL     OW15208   4.125   1.706  10.720 -0.1903  0.1619 -0.1515
 1191SOL    HW115209   4.156   1.761  10.792 -0.9684  1.1218 -0.5406
 1191SOL    HW215210   4.179   1.628  10.715  0.6983  0.8015 -0.6212
 1192SOL     OW15211   0.960   3.573  14.970 -0.2078 -0.2016  0.0130
 1192SOL    HW115212   1.031   3.516  14.999  0.2360  0.6394  0.5732
 1192SOL    HW215213   0.990   3.660  14.995  2.9807 -1.2147 -0.3257
 1193SOL     OW15214   4.575   1.347   2.411  0.0560  0.2968  0.3490
 1193SOL    HW115215   4.639   1.280   2.387  1.3991  2.1506 -1.2247
 1193SOL    HW215216   4.632   1.418   2.437  0.8771 -0.1983 -0.0876
 1194SOL     OW15217   1.554   4.256   3.878 -0.2726  0.2673 -0.0975
 1194SOL    HW115218   1.642   4.294   3.889  0.6444 -2.0312  0.5871
 1194SOL    HW215219   1.507   4.311   3.941 -2.2850 -0.5040 -0.9320
 1195SOL     OW15220   1.623   2.278   4.936  0.1509 -0.3860  0.3991
 1195SOL    HW115221   1.667   2.318   4.862 -0.2816 -0.1217  0.2856
 1195SOL    HW215222   1.615   2.356   4.992 -0.1806  1.7186 -2.6085
 1196SOL     OW15223   3.451   3.329   6.646  0.1835 -0.0186 -0.2477
 1196SOL    HW115224   3.526   3.356   6.593  0.1640 -0.3455 -0.4490
 1196SOL    HW215225   3.502   3.296   6.720  0.4677 -0.2227 -0.5320
 1197SOL     OW15226   4.362   2.230   2.554 -0.2106  0.3764 -0.0538
 1197SOL    HW115227   4.339   2.230   2.462  2.3824  1.4006 -0.7111
 1197SOL    HW215228   4.435   2.169   2.556 -0.9542 -0.4981  0.0825
 1198SOL     OW15229   2.263   4.595   5.192 -0.4876  0.1030 -0.0296
 1198SOL    HW115230   2.248   4.562   5.281  1.3739 -1.7182 -0.3920
 1198SOL    HW215231   2.306   4.678   5.214  1.4735 -1.5799  2.4959
 1199SOL     OW15232   0.300   2.490   9.050  0.1235  0.4295 -0.0162
 1199SOL    HW115233   0.374   2.549   9.057 -0.1281  0.5040  1.8439
 1199SOL    HW215234   0.285   2.503   8.956  1.7285 -1.1337 -0.5018
 1200SOL     OW15235   3.205   0.674  17.581 -0.1299 -0.3473  0.1565
 1200SOL    HW115236   3.179   0.685  17.490  0.9444  1.1378  0.0210
 1200SOL    HW215237   3.129   0.709  17.628 -0.5379  2.4338 -2.6021
 1201SOL     OW15238   0.782   4.304   4.258 -0.2277  0.1447  0.9848
 1201SOL    HW115239   0.716   4.347   4.313 -0.1772  1.0572  0.3389
 1201SOL    HW215240   0.841   4.375   4.231  0.0546 -0.5353 -0.1949
 1202SOL     OW15241   3.919   3.604   4.328  0.4494 -0.3267 -0.0870
 1202SOL    HW115242   3.959   3.520   4.308  1.1524 -0.2522  1.0006
 1202SOL    HW215243   3.827   3.578   4.336  0.1957  0.2493 -1.2169
 1203SOL     OW15244   4.499   0.309   1.582  0.3915  1.1063  0.1160
 1203SOL    HW115245   4.542   0.264   1.655  0.7810 -0.7826 -1.2736
 1203SOL    HW215246   4.457   0.233   1.542 -1.9574  1.2601  2.2894
 1204SOL     OW15247   4.705   2.736   3.245  0.4080  0.0547  0.0009
 1204SOL    HW115248   4.722   2.687   3.326  1.1194  1.8870  0.9425
 1204SOL    HW215249   4.610   2.744   3.248  0.3533  0.6324 -2.8778
 1205SOL     OW15250   2.577   1.713   4.720 -0.1403  0.1420 -0.4590
 1205SOL    HW115251   2.630   1.635   4.699 -0.0950  0.4836 -1.5998
 1205SOL    HW215252   2.617   1.747   4.800 -3.0265  0.3613  0.9014
 1206SOL     OW15253   4.531   3.350   4.484  0.0292  0.4076  0.0184
 1206SOL    HW115254   4.518   3.275   4.426 -0.4829  2.1845 -2.1572
 1206SOL    HW215255   4.480   3.320   4.559 -0.4646  0.7337 -0.1869
 1207SOL     OW15256   2.700   2.953  15.490 -0.3216 -0.0883 -0.4037
 1207SOL    HW115257   2.695   3.048  15.500  1.7620 -0.0223  0.0680
 1207SOL    HW215258   2.767   2.937  15.423  1.1970 -0.3044  1.1539
 1208SOL     OW15259   1.433   0.460  10.618 -0.1769 -0.4528  0.2152
 1208SOL    HW115260   1.436   0.556  10.612  1.7477 -0.4419  1.3169
 1208SOL    HW215261   1.488   0.443  10.541 -0.8547  1.4570 -0.6861
 1209SOL     OW15262   2.165   1.770   8.317  0.0112  0.1173  0.4307
 1209SOL    HW115263   2.182   1.797   8.227 -2.2957 -1.0234 -0.3505
 1209SOL    HW215264   2.143   1.855   8.356 -0.4283 -1.0789  2.8335
 1210SOL     OW15265   2.713   4.729  10.775 -0.1494  0.2695  0.0996
 1210SOL    HW115266   2.792   0.007  10.827 -0.4103 -4.0165  1.6125
 1210SOL    HW215267   2.683   0.084  10.777 -3.9702 -0.9815 -0.4429
 1211SOL     OW15268   3.914   1.224   5.528  0.0711  0.2094 -0.0652
 1211SOL    HW115269   3.889   1.309   5.564 -2.2195 -0.1373 -0.8877
 1211SOL    HW215270   3.833   1.176   5.539  0.4216 -0.0359  1.3872
 1212SOL     OW15271   3.589   2.694   2.179 -0.8946  0.3033  0.5631
 1212SOL    HW115272   3.581   2.788   2.165  0.5294  0.4751  0.8717
 1212SOL    HW215273   3.499   2.677   2.152 -0.8478  1.9383 -0.5737
 1213SOL     OW15274   0.105   2.532   4.111 -0.2568 -0.0051  0.7967
 1213SOL    HW115275   0.176   2.472   4.131 -0.2385  0.3453  1.7591
 1213SOL    HW215276   0.033   2.472   4.089  1.4696 -2.0186  0.5974
 1214SOL     OW15277   2.337   3.113   5.746 -0.2518 -0.3057 -0.2790
 1214SOL    HW115278   2.382   3.170   5.684  0.7790  0.0713  0.8251
 1214SOL    HW215279   2.404   3.101   5.813  1.7548 -0.9226 -2.4066
 1215SOL     OW15280   3.037   3.621   6.005  0.1754  0.2897 -0.3906
 1215SOL    HW115281   2.954   3.666   6.021  0.2645  0.6387 -0.9091
 1215SOL    HW215282   3.075   3.604   6.091  1.2006  1.8552 -0.5237
 1216SOL     OW15283   2.550   3.812   1.951 -0.2897 -0.2860 -0.2531
 1216SOL    HW115284   2.472   3.785   1.999 -1.7054  1.9440 -1.3028
 1216SOL    HW215285   2.581   3.737   1.900 -0.6232 -1.1213  0.7858
 1217SOL     OW15286   2.890   2.477   9.571 -0.2994  0.0977  0.0535
 1217SOL    HW115287   2.945   2.503   9.645  0.5653 -0.5132 -0.3721
 1217SOL    HW215288   2.947   2.506   9.500 -0.2778  2.2607  0.9584
 1218SOL     OW15289   1.312   1.182   2.137  0.3566 -0.0177  0.2917
 1218SOL    HW115290   1.377   1.250   2.123  0.3625  0.3471  2.0693
 1218SOL    HW215291   1.275   1.207   2.222  0.8947  0.1005  0.4878
 1219SOL     OW15292   0.009   3.321   8.213 -0.1196 -0.3262 -0.0196
 1219SOL    HW115293   0.035   3.269   8.137 -0.7901  1.4499 -1.4700
 1219SOL    HW215294   0.060   3.277   8.281  0.6208  2.9421  1.5379
 1220SOL     OW15295   3.693   0.026   2.032  0.1680  0.4860  0.0007
 1220SOL    HW115296   3.678   0.035   1.938 -2.2930  0.7161  0.4036
 1220SOL    HW215297   3.603   0.011   2.062  0.5270 -0.2115  0.7034
 1221SOL     OW15298   2.194   2.342   9.379 -0.4908  0.1363 -0.4945
 1221SOL    HW115299   2.186   2.247   9.383  1.8678 -0.0747 -0.7016
 1221SOL    HW215300   2.267   2.364   9.437 -0.3474  1.3605 -1.1358
 1222SOL     OW15301   1.519   3.333   2.769  0.0956 -0.4440  0.3369
 1222SOL    HW115302   1.458   3.267   2.804 -1.8944  1.7091  0.9121
 1222SOL    HW215303   1.507   3.331   2.674 -0.6338 -1.7407  0.4511
 1223SOL     OW15304   3.980   3.252   4.668  0.3103 -0.4574  0.5360
 1223SOL    HW115305   3.886   3.237   4.674  0.2019 -0.3889 -1.0597
 1223SOL    HW215306   4.006   3.280   4.756  0.1035 -1.6003  0.9622
 1224SOL     OW15307   3.232   3.366   2.517  0.1642 -0.2154 -0.0215
 1224SOL    HW115308   3.199   3.289   2.562 -1.2644  1.4116  1.7398
 1224SOL    HW215309   3.211   3.344   2.426  2.7676 -0.6686 -0.5100
 1225SOL     OW15310   3.884   0.623  17.113  0.0086 -0.1830 -0.1666
 1225SOL    HW115311   3.948   0.625  17.042  1.6994  2.2567  1.4398
 1225SOL    HW215312   3.816   0.662  17.059  0.3911 -0.6678 -1.0108
 1226SOL     OW15313   1.016   1.148   4.839 -0.6826 -0.0407 -0.5060
 1226SOL    HW115314   0.936   1.102   4.816 -1.0460  0.8340 -0.9839
 1226SOL    HW215315   1.052   1.096   4.911  0.5956 -1.2861 -2.0245
 1227SOL     OW15316   2.133   0.189   8.879  0.4758  0.3936 -0.3402
 1227SOL    HW115317   2.216   0.192   8.832  1.3427 -2.6632  0.9982
 1227SOL    HW215318   2.144   0.250   8.951  0.0688 -0.0578  0.1024
 1228SOL     OW15319   3.370   4.696   9.244  0.0431  0.1580  0.2917
 1228SOL    HW115320   3.421   0.004   9.312  1.3864 -0.7239 -0.1460
 1228SOL    HW215321   3.383   0.007   9.162  1.3282 -1.3855 -0.3987
 1229SOL     OW15322   0.338   2.382  14.039 -0.2403  0.0395  0.4266
 1229SOL    HW115323   0.414   2.375  13.981 -0.0366 -1.5441  0.9042
 1229SOL    HW215324   0.279   2.429  13.980  0.1182  0.0098  0.0486
 1230SOL     OW15325   2.440   3.658   3.552  0.1239 -0.6985 -0.1001
 1230SOL    HW115326   2.351   3.670   3.521  0.5720 -0.5046 -1.3047
 1230SOL    HW215327   2.456   3.751   3.569  0.2613 -0.7565  0.0955
 1231SOL     OW15328   0.635   0.182   8.761 -0.2239 -0.1536  0.5994
 1231SOL    HW115329   0.540   0.184   8.749 -0.3973 -1.2441  1.7611
 1231SOL    HW215330   0.653   0.090   8.745  0.4668  0.2291 -0.8672
 1232SOL     OW15331   4.148   2.075   8.709 -0.4038 -0.3831  0.4145
 1232SOL    HW115332   4.136   2.094   8.802  0.6443 -1.9716  0.8746
 1232SOL    HW215333   4.065   2.031   8.688 -0.0243 -0.3257 -1.1852
 1233SOL     OW15334   2.020   3.445  10.545 -0.2197  0.0502  0.1806
 1233SOL    HW115335   2.025   3.525  10.599  0.5677 -0.7235  1.2562
 1233SOL    HW215336   2.040   3.379  10.611 -1.4693 -0.5767 -0.0613
 1234SOL     OW15337   2.230   2.950  10.133  0.1506 -0.4374  0.1579
 1234SOL    HW115338   2.150   2.917  10.174  0.0483  0.8208  0.9652
 1234SOL    HW215339   2.272   2.992  10.208 -0.9657 -2.7045  2.0700
 1235SOL     OW15340   4.616   1.731  11.925  0.0359 -0.2898  0.2013
 1235SOL    HW115341   4.607   1.667  11.996  0.6726 -0.5915  0.0103
 1235SOL    HW215342   4.622   1.668  11.853 -0.5815 -1.4597  1.1777
 1236SOL     OW15343   1.834   2.375  12.468  0.4924  0.1009  0.4912
 1236SOL    HW115344   1.802   2.311  12.531  0.4400  0.5476  0.9184
 1236SOL    HW215345   1.753   2.409  12.430 -0.5475 -1.6208  1.1511
 1237SOL     OW15346   0.766   2.110   3.975  0.1953 -0.0865  0.1573
 1237SOL    HW115347   0.762   2.206   3.980  1.3338 -0.0583  0.3310
 1237SOL    HW215348   0.848   2.071   4.005  0.4370  0.2534 -0.0645
 1238SOL     OW15349   1.863   1.523   4.014 -0.5071 -0.1870  0.4665
 1238SOL    HW115350   1.898   1.579   3.945  1.3667 -1.7442  0.1523
 1238SOL    HW215351   1.778   1.494   3.981 -1.3216  0.6039  1.9110
 1239SOL     OW15352   0.718   0.620   7.414  0.4990  0.3857  0.3134
 1239SOL    HW115353   0.696   0.713   7.416 -2.6762 -0.3451 -0.0106
 1239SOL    HW215354   0.804   0.624   7.372 -0.9197  0.8940 -2.4854
 1240SOL     OW15355   3.716   0.473   7.904  0.5190 -0.0368 -0.5166
 1240SOL    HW115356   3.758   0.406   7.850  0.2409  0.0611 -0.8501
 1240SOL    HW215357   3.643   0.433   7.950 -0.1724  1.7181 -0.0644
 1241SOL     OW15358   4.522   2.509   6.589  0.0582  0.2110 -0.1777
 1241SOL    HW115359   4.536   2.577   6.523  0.9200 -0.0319 -0.2508
 1241SOL    HW215360   4.611   2.516   6.624 -0.1286  0.7910  0.1743
 1242SOL     OW15361   3.990   1.965   4.862 -0.3441  0.5463 -0.5296
 1242SOL    HW115362   3.965   1.939   4.773  0.2977  0.4331 -0.6784
 1242SOL    HW215363   3.906   1.948   4.904 -1.2212 -1.1054 -2.9307
 1243SOL     OW15364   0.213   3.248   5.928  0.6312  0.0703  0.2952
 1243SOL    HW115365   0.278   3.235   5.859 -0.8201  0.2902 -1.1046
 1243SOL    HW215366   0.223   3.339   5.955 -0.9938  0.0978  0.7536
 1244SOL     OW15367   1.274   2.445   3.626  0.1542  0.3584 -0.2884
 1244SOL    HW115368   1.337   2.478   3.562 -2.2232  1.0869 -2.2222
 1244SOL    HW215369   1.205   2.428   3.562 -0.2465  2.5604 -0.4314
 1245SOL     OW15370   1.214   2.237   4.644 -0.4962  0.0405 -0.1134
 1245SOL    HW115371   1.268   2.184   4.703 -0.9762 -0.3611 -0.0398
 1245SOL    HW215372   1.202   2.178   4.570  1.4553 -0.6841  0.1517
 1246SOL     OW15373   2.406   2.346  16.764 -0.1695  0.0429  0.7421
 1246SOL    HW115374   2.468   2.357  16.836  0.4800 -2.2742  0.5488
 1246SOL    HW215375   2.451   2.292  16.699  0.4199  0.3279  0.9137
 1247SOL     OW15376   2.265   1.480   6.999  0.2035 -0.0461  0.5528
 1247SOL    HW115377   2.279   1.546   6.932  1.7071  0.6833  1.5783
 1247SOL    HW215378   2.206   1.418   6.956  0.1413 -0.1335  0.7625
 1248SOL     OW15379   2.202   2.084   5.122  0.1062 -0.2667  0.8143
 1248SOL    HW115380   2.286   2.128   5.138 -0.0159  0.0563  0.5826
 1248SOL    HW215381   2.212   1.994   5.154  0.5798 -0.8907 -1.0481
 1249SOL     OW15382   3.117   1.098   7.307  0.0637  0.5824  0.4585
 1249SOL    HW115383   3.113   1.157   7.232 -2.0109 -0.2361 -0.0512
 1249SOL    HW215384   3.210   1.073   7.301 -0.1058  0.1785 -0.4430
 1250SOL     OW15385   0.125   2.214   1.627  0.3001 -0.5716 -0.4343
 1250SOL    HW115386   0.096   2.139   1.679  2.1825 -0.6963  0.4421
 1250SOL    HW215387   0.185   2.264   1.683 -0.7626  2.4440 -1.9658
 1251SOL     OW15388   3.497   4.254   5.351 -0.0711  0.5549 -0.2715
 1251SOL    HW115389   3.479   4.178   5.406  0.3193 -0.3002 -1.3108
 1251SOL    HW215390   3.415   4.262   5.303 -1.1561 -0.5217  1.3767
 1252SOL     OW15391   3.926   0.455   6.272 -0.2150  0.2439  0.0105
 1252SOL    HW115392   3.919   0.489   6.183  0.7526  0.3153 -0.0352
 1252SOL    HW215393   3.922   0.535   6.325  0.4543  0.5742 -0.4366
 1253SOL     OW15394   1.805   0.513   3.234  0.4306 -0.2187  0.9945
 1253SOL    HW115395   1.755   0.567   3.294  1.5478  0.4433  1.3246
 1253SOL    HW215396   1.891   0.493   3.270  0.3369 -0.2184  1.2177
 1254SOL     OW15397   2.113   3.340   8.845  0.1502 -0.1697  0.2303
 1254SOL    HW115398   2.081   3.429   8.839 -0.7945 -0.5665 -0.6395
 1254SOL    HW215399   2.152   3.326   8.758 -2.9924 -0.7009 -1.1022
 1255SOL     OW15400   4.683   0.383   7.191  0.4611 -0.4981 -0.4216
 1255SOL    HW115401   4.625   0.308   7.202 -0.1992  0.4477  2.5455
 1255SOL    HW215402   4.710   0.367   7.101  1.0162  0.2099 -0.3778
 1256SOL     OW15403   0.634   0.478   8.502 -0.4865 -0.2257 -0.1118
 1256SOL    HW115404   0.619   0.483   8.407  0.8071  0.5930 -0.2800
 1256SOL    HW215405   0.556   0.430   8.530  0.5886 -0.2277  2.8534
 1257SOL     OW15406   2.409   2.959   9.513  0.0609 -0.9148 -0.6022
 1257SOL    HW115407   2.367   3.008   9.443 -1.0239 -1.1136 -0.0970
 1257SOL    HW215408   2.341   2.950   9.580 -0.6240 -1.3046 -1.3580
 1258SOL     OW15409   3.947   2.812   4.634  0.3390 -0.4130 -0.2474
 1258SOL    HW115410   3.921   2.733   4.585 -1.3116 -0.6839  1.0951
 1258SOL    HW215411   3.932   2.880   4.568 -0.9259  1.2932  1.8123
 1259SOL     OW15412   0.218   4.427   6.605  0.0715  0.1393  0.1384
 1259SOL    HW115413   0.236   4.350   6.551  1.0170  0.4702 -0.0206
 1259SOL    HW215414   0.167   4.482   6.546  0.3993 -1.5007 -1.6779
 1260SOL     OW15415   0.188   0.942   6.389 -0.0851 -0.4969 -0.2175
 1260SOL    HW115416   0.201   1.034   6.364  0.4825 -0.6321 -0.4107
 1260SOL    HW215417   0.149   0.963   6.474  0.8763 -0.0030  0.1052
 1261SOL     OW15418   0.505   4.250   7.720  0.0422  0.1329  0.3171
 1261SOL    HW115419   0.520   4.165   7.761 -0.0697  0.3938  0.9043
 1261SOL    HW215420   0.410   4.257   7.731  0.1272 -1.2876  1.8511
 1262SOL     OW15421   1.162   0.562   5.200  0.1260 -0.2693  0.1027
 1262SOL    HW115422   1.188   0.473   5.223 -4.1753 -1.3239  0.7641
 1262SOL    HW215423   1.248   0.597   5.178 -1.1709  3.1114  0.3879
 1263SOL     OW15424   2.715   0.222   2.557 -0.3630  0.2947 -0.6107
 1263SOL    HW115425   2.638   0.164   2.560 -0.5138  0.6090  1.2372
 1263SOL    HW215426   2.704   0.271   2.638 -0.2979  1.3226 -1.2219
 1264SOL     OW15427   1.095   1.006  12.847  0.0567  0.0192 -0.2429
 1264SOL    HW115428   1.171   0.970  12.892 -1.8725 -2.8390  0.7176
 1264SOL    HW215429   1.039   0.928  12.849 -0.1290  0.1203 -1.3322
 1265SOL     OW15430   1.294   3.636   2.284 -0.0592 -0.7306  0.1423
 1265SOL    HW115431   1.314   3.548   2.313  1.7904 -0.8487 -1.4742
 1265SOL    HW215432   1.300   3.628   2.188 -1.5041 -2.2888  0.2029
 1266SOL     OW15433   2.534   4.462   5.121 -0.4472  0.1114 -0.2458
 1266SOL    HW115434   2.439   4.473   5.116 -0.3414  2.2642  2.4226
 1266SOL    HW215435   2.561   4.552   5.105 -0.2406 -0.1962 -1.6287
 1267SOL     OW15436   2.059   0.610   0.744 -0.4849 -0.0568 -0.2502
 1267SOL    HW115437   2.005   0.645   0.673  0.3750 -0.1358 -0.9423
 1267SOL    HW215438   2.030   0.519   0.751  0.3647 -0.2833  0.3914
 1268SOL     OW15439   4.134   0.072   2.154 -0.5757  0.3888 -0.3463
 1268SOL    HW115440   4.081   0.042   2.080 -0.2783  0.9731 -0.7927
 1268SOL    HW215441   4.156   4.721   2.188  2.6482  1.1887 -0.4189
 1269SOL     OW15442   0.372   1.960  12.276  0.2221  0.0262  0.0701
 1269SOL    HW115443   0.420   2.030  12.233  1.0358 -0.2991  0.4392
 1269SOL    HW215444   0.316   2.006  12.339  0.5890  1.2993 -0.5334
 1270SOL     OW15445   2.561   2.652   2.918 -0.2003 -0.0681  0.1192
 1270SOL    HW115446   2.499   2.662   2.846  2.0094  0.0749 -1.7893
 1270SOL    HW215447   2.642   2.621   2.876 -1.3106 -1.2529 -1.1896
 1271SOL     OW15448   4.365   1.982   3.856  0.0331  0.4451  0.0330
 1271SOL    HW115449   4.394   1.895   3.884 -2.1583  0.0947  1.1702
 1271SOL    HW215450   4.276   1.979   3.891  0.0104  0.3803 -0.0284
 1272SOL     OW15451   3.153   3.716   7.198 -0.1371  0.4715 -0.2983
 1272SOL    HW115452   3.067   3.697   7.161 -1.0910  2.2033  1.0872
 1272SOL    HW215453   3.182   3.624   7.202 -1.7325  0.1023  3.2081
 1273SOL     OW15454   0.216   3.135   2.583  0.4648 -0.9853 -0.1362
 1273SOL    HW115455   0.308   3.154   2.563 -0.1736  2.5806  0.3498
 1273SOL    HW215456   0.167   3.198   2.530  2.2775  1.9409  1.6867
 1274SOL     OW15457   3.193   1.206  13.560 -0.6646  0.1983 -0.3560
 1274SOL    HW115458   3.246   1.141  13.514  1.8035  1.1518  1.1337
 1274SOL    HW215459   3.242   1.211  13.642 -0.8671  1.3415 -0.3004
 1275SOL     OW15460   2.558   3.063   7.897 -0.4839 -0.1042 -0.2120
 1275SOL    HW115461   2.634   3.019   7.859 -1.3103 -2.0454  0.3706
 1275SOL    HW215462   2.498   2.991   7.918 -1.4721  0.8442  0.1852
 1276SOL     OW15463   2.570   3.314   4.712 -0.4448  0.4128  0.0135
 1276SOL    HW115464   2.482   3.297   4.746 -0.7380  0.6308 -0.6367
 1276SOL    HW215465   2.598   3.404   4.731  1.2823 -0.1966  0.3463
 1277SOL     OW15466   4.093   2.918  13.704 -0.2220 -0.0153 -0.0855
 1277SOL    HW115467   4.079   2.830  13.668 -0.4871  0.1546 -0.3920
 1277SOL    HW215468   4.097   2.977  13.628 -0.1338 -0.2982 -0.3012
 1278SOL     OW15469   0.965   1.658  11.034  0.9343 -0.6840  0.0189
 1278SOL    HW115470   0.913   1.720  11.085  0.2300 -0.9499 -0.3684
 1278SOL    HW215471   0.994   1.715  10.963  0.4575  0.9835  1.1519
 1279SOL     OW15472   2.768   2.941   2.299  0.6069  0.0742 -0.6885
 1279SOL    HW115473   2.724   2.856   2.296  1.0229 -0.1608 -0.2993
 1279SOL    HW215474   2.831   2.928   2.370 -2.5025 -0.8337  1.9224
 1280SOL     OW15475   3.233   3.554   2.942 -0.4304  0.0290  0.5171
 1280SOL    HW115476   3.243   3.463   2.970 -1.9279 -1.2411 -3.0517
 1280SOL    HW215477   3.291   3.551   2.866 -0.6510 -0.3387  0.3656
 1281SOL     OW15478   1.613   2.075   6.188 -0.1106  0.3191  0.1756
 1281SOL    HW115479   1.627   2.020   6.111 -2.1955  2.5215 -1.7823
 1281SOL    HW215480   1.609   2.010   6.258  0.2983 -1.0095 -1.0326
 1282SOL     OW15481   2.182   4.057   1.212  0.6163 -0.4056  0.3362
 1282SOL    HW115482   2.244   4.036   1.142 -0.4299  1.1041 -1.0561
 1282SOL    HW215483   2.236   4.112   1.269  0.0789 -0.0368  0.4945
 1283SOL     OW15484   2.967   0.694  16.958  0.1768  0.4481 -0.0853
 1283SOL    HW115485   2.925   0.632  17.017  3.3378 -1.6737 -0.0817
 1283SOL    HW215486   2.972   0.768  17.019  0.7908 -1.1211  1.7476
 1284SOL     OW15487   1.760   4.319  13.950  0.0763 -0.0781  0.1512
 1284SOL    HW115488   1.691   4.368  13.905 -0.6141 -0.2944  0.9710
 1284SOL    HW215489   1.729   4.238  13.910  2.1213 -0.4537 -0.6785
 1285SOL     OW15490   4.033   1.973   5.628 -0.5228 -0.0832 -0.0385
 1285SOL    HW115491   4.029   1.969   5.533  1.1073 -2.1840 -0.0137
 1285SOL    HW215492   3.987   1.891   5.644 -2.3731  1.1182  0.7920
 1286SOL     OW15493   4.564   2.651   4.707  0.3171 -0.2894  0.5936
 1286SOL    HW115494   4.639   2.659   4.649 -0.7240  1.1651 -0.5747
 1286SOL    HW215495   4.548   2.741   4.735 -0.3684 -0.9248  2.2145
 1287SOL     OW15496   0.090   2.077  13.032 -0.0827 -0.0255  0.6745
 1287SOL    HW115497   4.730   2.082  13.028 -0.1325 -1.1850  0.6213
 1287SOL    HW215498   0.114   2.163  12.998 -0.6353 -0.8252 -1.7631
 1288SOL     OW15499   0.080   0.453   8.546  0.1333  0.3687  0.3983
 1288SOL    HW115500   0.117   0.473   8.459 -1.7072  0.0633 -0.4566
 1288SOL    HW215501   0.155   0.467   8.603 -0.1159  2.4171  0.2345
 1289SOL     OW15502   2.741   3.929  17.516 -0.1620 -0.0357 -0.2431
 1289SOL    HW115503   2.747   4.025  17.517 -3.1855  0.1266  0.1958
 1289SOL    HW215504   2.709   3.913  17.428  1.4206 -2.6412 -0.3378
 1290SOL     OW15505   2.651   3.215  17.108  0.2223 -0.5681  0.5111
 1290SOL    HW115506   2.746   3.212  17.102  0.0463 -1.2280 -1.7397
 1290SOL    HW215507   2.644   3.292  17.165 -0.5264 -0.2394 -0.0324
 1291SOL     OW15508   2.974   2.314   3.404  0.4918  0.0377  0.2546
 1291SOL    HW115509   3.043   2.338   3.342 -0.6837  2.4441 -0.1154
 1291SOL    HW215510   2.962   2.221   3.384  1.9545  0.0244 -0.5436
 1292SOL     OW15511   2.204   3.887   4.935 -0.0227 -0.3167  0.1342
 1292SOL    HW115512   2.216   3.931   4.850  1.2488 -0.0298  0.4673
 1292SOL    HW215513   2.150   3.958   4.971 -1.5892  0.1735 -3.0832
 1293SOL     OW15514   0.743   4.610  11.331  0.2704  0.0283 -0.5050
 1293SOL    HW115515   0.739   4.547  11.259 -0.1210 -1.3285  0.6910
 1293SOL    HW215516   0.760   4.547  11.401  2.8901 -0.5282 -1.6357
 1294SOL     OW15517   2.845   2.748   4.969  0.1828  0.2572  0.0599
 1294SOL    HW115518   2.796   2.690   5.028  0.6551 -1.3122 -1.1108
 1294SOL    HW215519   2.883   2.694   4.900 -0.9931  2.0315 -2.0064
 1295SOL     OW15520   0.008   3.986   9.510  0.5283  0.2111 -0.0779
 1295SOL    HW115521   0.063   3.909   9.497  2.7609  1.1850  3.4688
 1295SOL    HW215522   4.671   3.951   9.563  0.2682 -2.0221 -1.9090
 1296SOL     OW15523   4.369   4.577  10.270 -0.3814  0.7054 -0.3936
 1296SOL    HW115524   4.325   4.510  10.323 -0.7711  1.2187 -0.0677
 1296SOL    HW215525   4.309   4.601  10.200  1.7239 -0.6337 -2.6590
 1297SOL     OW15526   2.325   2.668   5.138  0.1229 -0.0397 -0.1741
 1297SOL    HW115527   2.273   2.733   5.091 -1.4981 -1.4024 -0.2530
 1297SOL    HW215528   2.397   2.669   5.075 -0.5971 -0.0316 -0.9933
 1298SOL     OW15529   0.597   4.183   3.516  0.3011 -0.5595  0.1769
 1298SOL    HW115530   0.546   4.223   3.445 -1.8630 -0.1484  1.9716
 1298SOL    HW215531   0.566   4.233   3.591 -1.3717 -1.0283 -0.2180
 1299SOL     OW15532   0.241   0.776   7.102 -0.0075 -0.0810  0.7729
 1299SOL    HW115533   0.315   0.836   7.109 -0.6103  1.0381 -2.7824
 1299SOL    HW215534   0.241   0.747   7.011 -3.8768  1.0497  0.3813
 1300SOL     OW15535   4.558   3.079  14.970 -0.2301  0.8478  0.3287
 1300SOL    HW115536   4.494   3.049  14.906  0.8186 -0.0040 -0.3327
 1300SOL    HW215537   4.512   3.123  15.041 -0.3547 -1.5969  1.7357
 1301SOL     OW15538   1.257   4.539  12.169 -0.9443 -0.3934 -0.1468
 1301SOL    HW115539   1.200   4.487  12.112  0.5792 -1.4686 -0.6951
 1301SOL    HW215540   1.341   4.513  12.132 -0.8002 -0.3750  0.1703
 1302SOL     OW15541   2.328   4.546   3.040  0.0820 -0.1353 -0.0479
 1302SOL    HW115542   2.354   4.638   3.040 -0.2392 -0.0408  1.2397
 1302SOL    HW215543   2.264   4.558   3.110 -1.7107  2.3936 -2.1288
 1303SOL     OW15544   2.627   4.693  16.269  0.5171 -0.0426  0.0738
 1303SOL    HW115545   2.653   4.662  16.182  2.2212 -1.4910  1.0969
 1303SOL    HW215546   2.669   0.043  16.269 -1.2655  0.8425 -0.0533
 1304SOL     OW15547   0.027   3.695   9.829  0.1160  0.0995 -0.3949
 1304SOL    HW115548   0.013   3.689   9.924 -2.4534 -0.4464 -0.8136
 1304SOL    HW215549   0.123   3.691   9.825  0.0322  0.8857 -3.1969
 1305SOL     OW15550   2.231   2.978   7.444  0.5030  0.3736  0.1205
 1305SOL    HW115551   2.139   2.960   7.426  0.5264 -1.6882  1.9897
 1305SOL    HW215552   2.250   3.011   7.357  0.4156 -0.2145 -0.1191
 1306SOL     OW15553   4.635   3.193   6.379  0.5397 -0.0675 -0.8025
 1306SOL    HW115554   4.669   3.105   6.362  1.5551 -0.3503  2.7182
 1306SOL    HW215555   4.720   3.235   6.364  0.3851  1.2892  2.2834
 1307SOL     OW15556   0.037   3.000  16.947 -0.5492 -0.3903 -0.0673
 1307SOL    HW115557   0.096   3.035  16.880  0.4774  0.0270  1.0620
 1307SOL    HW215558   4.690   3.048  16.943  0.1800  0.6788 -2.7684
 1308SOL     OW15559   3.979   2.231  13.076 -0.0169  0.7944 -0.1205
 1308SOL    HW115560   3.889   2.248  13.104  0.2527  1.6784  0.2163
 1308SOL    HW215561   4.026   2.292  13.133 -1.6378  0.0451  2.0110
 1309SOL     OW15562   0.024   1.335   1.219 -0.3435 -0.5196  0.0435
 1309SOL    HW115563   4.697   1.344   1.290 -0.6104  1.3261 -0.4194
 1309SOL    HW215564   0.040   1.430   1.213  0.5014 -0.6982 -0.5296
 1310SOL     OW15565   1.987   4.342   9.748  0.1926  0.0751  0.3240
 1310SOL    HW115566   1.913   4.281   9.746  0.7814 -0.5902 -1.3798
 1310SOL    HW215567   1.965   4.403   9.679 -1.6881 -0.1231  0.7499
 1311SOL     OW15568   4.225   4.132   2.684  0.2667 -0.3119 -0.0585
 1311SOL    HW115569   4.138   4.125   2.645 -0.6603 -1.6654  2.1946
 1311SOL    HW215570   4.222   4.216   2.729 -0.1956 -0.3802  0.0417
 1312SOL     OW15571   3.625   2.704   3.755 -0.5581 -0.4379 -0.7598
 1312SOL    HW115572   3.667   2.642   3.814 -2.6329 -0.9207  0.2238
 1312SOL    HW215573   3.611   2.779   3.813  0.5583 -0.3391 -0.6173
 1313SOL     OW15574   0.188   1.291   1.535  0.0620 -0.2603  0.1560
 1313SOL    HW115575   0.135   1.265   1.460  0.5781  0.2153 -0.3745
 1313SOL    HW215576   0.264   1.249   1.494  0.2811  1.3253 -1.0626
 1314SOL     OW15577   2.031   3.863   6.599  0.0937  0.1218  0.6435
 1314SOL    HW115578   2.064   3.862   6.689 -0.3680 -0.8121  0.8056
 1314SOL    HW215579   2.072   3.943   6.568 -0.4278 -0.5387 -1.8098
 1315SOL     OW15580   0.269   0.522  15.602  0.0126 -0.2816 -0.4018
 1315SOL    HW115581   0.188   0.568  15.577  0.4709 -1.4703 -4.0964
 1315SOL    HW215582   0.331   0.567  15.545 -0.1860 -0.7041 -0.9596
 1316SOL     OW15583   0.925   0.925   2.243  0.7885 -0.5007  0.0296
 1316SOL    HW115584   0.930   0.966   2.329  0.3754  0.3370 -0.3374
 1316SOL    HW215585   0.996   0.965   2.192  2.0963 -2.2438  0.4876
 1317SOL     OW15586   4.402   4.249   7.037  0.0383  0.0986 -0.0380
 1317SOL    HW115587   4.316   4.208   7.030  0.2093 -0.5092  1.3586
 1317SOL    HW215588   4.463   4.175   7.036  0.3500  0.3528 -0.0676
 1318SOL     OW15589   0.228   4.545   7.951  0.1347 -0.1184 -0.3468
 1318SOL    HW115590   0.163   4.502   7.895  0.0737  0.0258 -0.3859
 1318SOL    HW215591   0.180   4.525   8.031  0.2025  2.6331  0.3924
 1319SOL     OW15592   4.398   2.711   3.627 -0.3499  0.0441 -0.3115
 1319SOL    HW115593   4.443   2.627   3.619 -1.6280 -0.5122 -1.7078
 1319SOL    HW215594   4.310   2.693   3.658  0.7549 -3.3375  0.8239
 1320SOL     OW15595   1.014   3.087  14.577 -0.2039 -0.5988  0.1472
 1320SOL    HW115596   1.036   3.054  14.490 -0.4388 -1.2438  0.3265
 1320SOL    HW215597   0.968   3.008  14.607 -1.9502 -0.8136 -3.1198
 1321SOL     OW15598   2.607   1.814   8.155  0.0625  0.4722  0.2119
 1321SOL    HW115599   2.522   1.855   8.137 -1.4398 -2.5351  0.3680
 1321SOL    HW215600   2.642   1.808   8.066  2.7661  0.3237  1.3103
 1322SOL     OW15601   0.029   0.488   0.637 -0.1587  0.1903  0.6894
 1322SOL    HW115602   0.023   0.528   0.724  3.0595  1.0239  0.5103
 1322SOL    HW215603   4.702   0.418   0.654 -1.5481  1.4575  0.8256
 1323SOL     OW15604   0.542   3.341   5.074  0.0372  0.0238 -0.4439
 1323SOL    HW115605   0.587   3.276   5.129  1.4502  0.0195 -1.6213
 1323SOL    HW215606   0.525   3.414   5.133  0.6322 -1.8755  2.0875
 1324SOL     OW15607   0.311   4.101   9.533  0.0174 -0.8540 -0.1110
 1324SOL    HW115608   0.405   4.087   9.523  0.3319 -0.5500  2.4115
 1324SOL    HW215609   0.271   4.014   9.533 -1.2203 -0.2784  1.9187
 1325SOL     OW15610   2.139   1.486   6.598 -0.2837 -0.4677 -0.3474
 1325SOL    HW115611   2.087   1.542   6.540 -0.8158 -1.2984 -0.6798
 1325SOL    HW215612   2.227   1.521   6.582 -0.0501 -0.7220  0.3732
 1326SOL     OW15613   3.092   4.005   3.377  0.1605  0.2675 -0.1490
 1326SOL    HW115614   3.060   4.049   3.456  0.8709  0.6779 -0.0869
 1326SOL    HW215615   3.140   3.928   3.408 -1.9858 -1.2141 -0.5598
 1327SOL     OW15616   0.542   2.335  14.268 -0.1704 -0.0273  0.3609
 1327SOL    HW115617   0.463   2.352  14.217 -0.0910 -2.5657 -0.6400
 1327SOL    HW215618   0.497   2.311  14.349 -0.4410  0.6258  0.3955
 1328SOL     OW15619   2.393   2.603   3.291 -0.9172 -0.2896  0.1163
 1328SOL    HW115620   2.352   2.539   3.349 -3.7470  0.3573 -1.1780
 1328SOL    HW215621   2.346   2.687   3.296  0.6325  0.5567  0.5986
 1329SOL     OW15622   2.545   0.508   4.743  0.0690  0.3681  0.1226
 1329SOL    HW115623   2.559   0.572   4.813 -0.0243 -2.1196  2.4271
 1329SOL    HW215624   2.507   0.441   4.801 -1.0028 -0.8765 -2.0482
 1330SOL     OW15625   2.581   3.553   1.397  0.1975 -0.4616 -0.9468
 1330SOL    HW115626   2.567   3.487   1.465 -1.2211  0.0342 -0.7355
 1330SOL    HW215627   2.666   3.533   1.360  0.1758 -0.8170 -0.8005
 1331SOL     OW15628   4.665   0.986  13.063  0.0352  0.6937  0.1623
 1331SOL    HW115629   4.585   1.013  13.017  0.1097  0.0232 -0.3620
 1331SOL    HW215630   4.643   0.893  13.073  0.0531  0.6316 -0.3802
 1332SOL     OW15631   1.318   1.911  12.240 -0.1234 -0.0615  0.2129
 1332SOL    HW115632   1.235   1.914  12.192  0.1304 -0.7051 -0.2701
 1332SOL    HW215633   1.278   1.885  12.323 -2.2269 -0.2569 -0.8604
 1333SOL     OW15634   2.754   0.918   4.243  0.6100 -0.2577 -0.1640
 1333SOL    HW115635   2.776   0.825   4.243  0.3077 -0.3359 -0.6839
 1333SOL    HW215636   2.665   0.905   4.209  0.0634 -1.6002  1.8238
 1334SOL     OW15637   4.058   1.016   3.831  0.0960 -0.2478  0.4727
 1334SOL    HW115638   4.093   0.991   3.745 -0.1027  0.0654  0.3019
 1334SOL    HW215639   4.108   0.963   3.893  2.0556  1.4697  0.3537
 1335SOL     OW15640   3.100   1.918  12.794 -0.0835  1.1669 -0.2560
 1335SOL    HW115641   3.070   1.979  12.861  0.3388 -0.3436  1.3283
 1335SOL    HW215642   3.179   1.875  12.828 -0.2572 -0.7965 -2.3129
 1336SOL     OW15643   2.190   1.219   9.121 -0.9453  0.6144  0.6333
 1336SOL    HW115644   2.119   1.242   9.180 -2.2096  0.0144 -0.6423
 1336SOL    HW215645   2.263   1.189   9.176  0.3930  1.1925 -0.8214
 1337SOL     OW15646   2.544   3.411   2.052 -0.2969 -0.5786 -0.0250
 1337SOL    HW115647   2.607   3.474   2.087 -0.8325 -1.3746  2.3816
 1337SOL    HW215648   2.611   3.359   2.009 -0.7845  0.4232 -1.9785
 1338SOL     OW15649   0.553   2.072   7.137 -0.1219 -0.6020  0.1529
 1338SOL    HW115650   0.604   2.014   7.194  0.1417 -0.0539  0.4765
 1338SOL    HW215651   0.609   2.086   7.061  0.1156 -0.9888  0.2577
 1339SOL     OW15652   0.996   2.217  14.557 -0.5346  0.2477 -0.0396
 1339SOL    HW115653   1.005   2.304  14.597 -0.8824 -0.3088  1.2470
 1339SOL    HW215654   0.931   2.225  14.487  2.0076 -0.2749 -2.4798
 1340SOL     OW15655   1.761   1.650   6.111 -0.6186 -1.1240 -0.6631
 1340SOL    HW115656   1.808   1.572   6.141  0.9667  0.2397  0.4454
 1340SOL    HW215657   1.695   1.608   6.057 -2.0803  0.4521 -0.0936
 1341SOL     OW15658   2.926   4.471   4.006  1.0833  0.2722  0.4153
 1341SOL    HW115659   2.938   4.551   3.955 -1.2363 -0.2295 -0.9125
 1341SOL    HW215660   2.836   4.454   3.979  0.8473  0.9225  0.8052
 1342SOL     OW15661   0.105   0.436   7.961  0.6902  0.0737 -0.0808
 1342SOL    HW115662   0.058   0.383   8.026  0.5386  0.9611  0.5303
 1342SOL    HW215663   0.038   0.426   7.894 -0.6362  0.3790  1.1955
 1343SOL     OW15664   0.434   0.435   3.653 -0.2552  0.5017  0.6558
 1343SOL    HW115665   0.519   0.438   3.699 -0.2389  0.3023  0.6385
 1343SOL    HW215666   0.380   0.413   3.729 -1.5280  0.7840 -0.1799
 1344SOL     OW15667   3.159   2.383   2.976 -0.0719  0.3771 -0.2870
 1344SOL    HW115668   3.152   2.353   3.066  2.5902  0.7730  0.0529
 1344SOL    HW215669   3.119   2.470   2.976 -1.2883 -0.1869 -0.0397
 1345SOL     OW15670   0.877   1.141   2.929  0.2975 -0.0851  0.0653
 1345SOL    HW115671   0.905   1.093   3.006  0.6361 -0.3688 -0.2340
 1345SOL    HW215672   0.850   1.066   2.877 -1.2694 -0.3317  1.2810
 1346SOL     OW15673   0.412   1.097   6.137 -0.2535 -0.2367  0.0506
 1346SOL    HW115674   0.461   1.179   6.150  0.2527 -0.7595  1.4020
 1346SOL    HW215675   0.324   1.128   6.156 -0.5347  1.0257 -3.1942
 1347SOL     OW15676   2.731   0.656  11.290 -0.4225  1.0007 -0.3217
 1347SOL    HW115677   2.749   0.708  11.368  1.0686  0.8614 -0.5728
 1347SOL    HW215678   2.738   0.727  11.227  0.0784 -2.7164 -4.4541
 1348SOL     OW15679   3.018   1.069  13.359  0.2632 -0.2200  0.2606
 1348SOL    HW115680   2.950   1.092  13.296  1.2267  0.9958 -0.3333
 1348SOL    HW215681   3.060   1.149  13.391  1.1635 -1.3882  1.9610
 1349SOL     OW15682   3.047   3.091   4.568  0.5104 -0.0135 -0.0971
 1349SOL    HW115683   2.999   3.173   4.570  1.2946  0.3953  2.7246
 1349SOL    HW215684   3.137   3.123   4.569  0.0976  1.1809 -1.9086
 1350SOL     OW15685   4.549   3.270   7.618  0.1426  0.2602 -0.0172
 1350SOL    HW115686   4.635   3.306   7.597 -0.8917  1.5613 -1.9892
 1350SOL    HW215687   4.518   3.239   7.533 -1.4615  1.1439  0.2464
 1351SOL     OW15688   1.277   3.045  14.325  0.2106 -0.4588  0.4442
 1351SOL    HW115689   1.325   3.054  14.242 -2.8921  0.2623 -1.2954
 1351SOL    HW215690   1.279   3.137  14.351 -0.6938 -0.7113  1.3706
 1352SOL     OW15691   3.815   3.751  12.358 -0.0813 -0.2494 -0.1701
 1352SOL    HW115692   3.754   3.684  12.328  0.3730 -1.5025  1.6791
 1352SOL    HW215693   3.787   3.833  12.318  0.0546  0.2030  0.6635
 1353SOL     OW15694   3.298   2.542   5.872 -0.1775 -0.0243 -0.0753
 1353SOL    HW115695   3.347   2.544   5.954 -1.2793  1.1506  0.5331
 1353SOL    HW215696   3.209   2.536   5.907 -0.0089  2.0557  0.6637
 1354SOL     OW15697   0.376   4.713   2.042 -0.1488 -0.0804  0.2532
 1354SOL    HW115698   0.406   0.058   2.084 -1.4467  0.2693  0.5258
 1354SOL    HW215699   0.296   4.693   2.090 -0.2797  0.5257  0.2897
 1355SOL     OW15700   3.995   0.152   5.552 -0.2155  0.3508  0.2195
 1355SOL    HW115701   3.938   0.176   5.625  1.3646 -0.1266  1.5966
 1355SOL    HW215702   3.943   0.077   5.524  0.0503 -0.3292  1.5613
 1356SOL     OW15703   1.935   0.041   8.663  0.1599 -0.1287  0.3109
 1356SOL    HW115704   1.987   0.092   8.600 -0.1434  1.6393  1.5107
 1356SOL    HW215705   1.989   0.037   8.742 -1.5671  3.0720  1.6461
 1357SOL     OW15706   0.130   0.982  11.846  0.0884  0.7284 -0.1585
 1357SOL    HW115707   0.139   0.899  11.893  1.5466  1.0907  0.2132
 1357SOL    HW215708   0.205   0.981  11.787  0.0483 -0.3255 -0.1878
 1358SOL     OW15709   0.117   2.421   7.261 -0.0763  0.6664 -0.1223
 1358SOL    HW115710   0.054   2.376   7.206  2.4938 -3.4380  0.3243
 1358SOL    HW215711   0.201   2.379   7.240 -0.1863  0.3199  0.1332
 1359SOL     OW15712   1.455   1.411   3.296 -0.2524 -0.0625 -0.1885
 1359SOL    HW115713   1.418   1.450   3.375 -2.1590 -0.4638 -0.8784
 1359SOL    HW215714   1.546   1.427   3.317 -0.9798  1.9148  1.4830
 1360SOL     OW15715   3.269   1.153  16.463  0.0916  0.2926 -0.2513
 1360SOL    HW115716   3.196   1.112  16.417  0.0234 -0.9839  0.9529
 1360SOL    HW215717   3.318   1.198  16.395 -0.2509  1.4919  0.3092
 1361SOL     OW15718   4.083   3.847   8.808  0.4191  0.4869 -0.1061
 1361SOL    HW115719   4.123   3.889   8.884 -1.7094 -1.2467  1.9757
 1361SOL    HW215720   4.155   3.831   8.747  1.5043  0.5935  1.1440
 1362SOL     OW15721   2.798   1.280   9.125 -0.4335 -0.2432 -0.0593
 1362SOL    HW115722   2.786   1.313   9.036 -0.2116  0.6963  0.2581
 1362SOL    HW215723   2.803   1.359   9.178  0.0176 -0.3664  0.0846
 1363SOL     OW15724   0.239   4.090   3.227  0.2264  0.3758  0.1877
 1363SOL    HW115725   0.312   4.088   3.165  0.0706  1.1549 -0.0209
 1363SOL    HW215726   0.213   4.182   3.224 -0.0200  0.3121  0.4695
 1364SOL     OW15727   0.379   2.037   3.384  0.4855  0.5040  0.4285
 1364SOL    HW115728   0.430   2.117   3.399  2.3938 -0.5724 -0.3884
 1364SOL    HW215729   0.299   2.057   3.433  0.0405  1.1188 -0.5522
 1365SOL     OW15730   3.829   3.069  13.735 -0.0279 -0.3163  0.2981
 1365SOL    HW115731   3.734   3.073  13.749  0.0629 -3.6213  2.0348
 1365SOL    HW215732   3.858   3.160  13.737  0.1288 -0.3229 -1.8180
 1366SOL     OW15733   2.563   1.401   5.882 -0.2779 -0.3567 -0.0903
 1366SOL    HW115734   2.561   1.359   5.796  0.0940 -0.6428  0.0423
 1366SOL    HW215735   2.489   1.462   5.880  0.1943  0.2327  0.5224
 1367SOL     OW15736   0.013   0.962   1.006 -0.3177 -0.1284 -0.3273
 1367SOL    HW115737   4.658   0.985   1.027  0.3767  1.3005  1.0445
 1367SOL    HW215738   0.040   1.046   0.968 -1.8219  1.0103  1.1226
 1368SOL     OW15739   0.578   3.274   2.247 -0.3103  0.4136 -0.0175
 1368SOL    HW115740   0.627   3.305   2.322  0.4192  0.6933 -0.6071
 1368SOL    HW215741   0.653   3.269   2.187 -1.3515 -0.1035 -1.2933
 1369SOL     OW15742   2.866   3.198  12.766  0.6510 -0.0783  0.1312
 1369SOL    HW115743   2.832   3.136  12.830  2.4654 -0.7974  0.4099
 1369SOL    HW215744   2.823   3.181  12.682 -0.4738 -4.4736  1.6232
 1370SOL     OW15745   4.605   0.732   3.305  0.4265  0.1570  0.0117
 1370SOL    HW115746   4.526   0.732   3.251  2.3130  1.3572 -2.7743
 1370SOL    HW215747   4.657   0.665   3.261 -1.5082 -1.5834  0.3697
 1371SOL     OW15748   0.948   4.334   7.630  0.7963  0.1192 -0.4786
 1371SOL    HW115749   0.855   4.332   7.653  0.6485 -0.5792 -1.1525
 1371SOL    HW215750   0.959   4.240   7.618  3.1005  0.3436 -0.0931
 1372SOL     OW15751   0.574   2.038   2.907  0.6242 -0.8126  0.0278
 1372SOL    HW115752   0.518   1.970   2.869  1.1651 -0.4801 -1.3561
 1372SOL    HW215753   0.565   2.016   3.000  0.3730 -2.1235 -0.3068
 1373SOL     OW15754   1.458   3.872  15.276 -0.1774 -0.0281  0.0646
 1373SOL    HW115755   1.482   3.938  15.341 -1.6617  1.9227 -1.3915
 1373SOL    HW215756   1.521   3.877  15.204 -0.1430 -0.0428  0.0932
 1374SOL     OW15757   2.254   2.956   4.600 -0.1861  0.1086  0.5637
 1374SOL    HW115758   2.278   3.047   4.587  0.6101 -0.4579 -1.8835
 1374SOL    HW215759   2.172   2.956   4.649 -1.0477  1.1989 -0.8709
 1375SOL     OW15760   4.179   0.750   7.355 -0.6982 -0.4013 -0.5114
 1375SOL    HW115761   4.272   0.769   7.364 -0.4676 -1.6291 -0.1957
 1375SOL    HW215762   4.182   0.658   7.329  3.2195 -0.0883 -1.1308
 1376SOL     OW15763   2.798   3.405   9.006 -0.6426  1.0069 -0.3008
 1376SOL    HW115764   2.865   3.392   9.073 -0.7512  0.4140 -0.3057
 1376SOL    HW215765   2.850   3.395   8.927  1.4053  0.3073  1.1412
 1377SOL     OW15766   1.939   2.381   4.203 -0.2250  0.1268  0.0284
 1377SOL    HW115767   1.963   2.453   4.261 -2.1621  1.7425 -1.1871
 1377SOL    HW215768   1.844   2.377   4.214 -0.2538 -1.9726 -0.9383
 1378SOL     OW15769   2.893   2.553   3.017  0.3041 -0.0833 -0.2047
 1378SOL    HW115770   2.805   2.587   3.000  0.0472 -0.9641 -0.6722
 1378SOL    HW215771   2.883   2.498   3.094  0.2355  1.4366  0.8579
 1379SOL     OW15772   4.056   0.216   3.006  0.2006 -0.5505  0.2370
 1379SOL    HW115773   4.094   0.141   2.962  0.5435  0.0833 -0.5365
 1379SOL    HW215774   4.033   0.179   3.091  0.6060 -3.1089 -0.7769
 1380SOL     OW15775   3.012   0.841   7.221  0.0949  0.0126 -0.1130
 1380SOL    HW115776   3.054   0.923   7.245 -0.5156 -0.1229  1.4519
 1380SOL    HW215777   3.021   0.859   7.127 -0.6219 -3.7170 -0.9056
 1381SOL     OW15778   3.847   4.086   6.025  0.1812 -0.4827  0.4175
 1381SOL    HW115779   3.884   4.174   6.035 -2.2857  0.5627  0.3661
 1381SOL    HW215780   3.792   4.086   5.947 -0.1560 -0.0533  0.6546
 1382SOL     OW15781   2.634   0.981   5.082 -0.7706  0.0054 -0.0974
 1382SOL    HW115782   2.697   1.040   5.040 -1.2761  1.0763  0.6494
 1382SOL    HW215783   2.590   1.053   5.127 -0.8289 -0.8981  1.2804
 1383SOL     OW15784   4.459   3.673  12.768  0.0582  0.2418  0.2976
 1383SOL    HW115785   4.546   3.708  12.784 -0.7537  1.8387  1.2776
 1383SOL    HW215786   4.403   3.748  12.787 -0.6956  0.0294 -1.0225
 1384SOL     OW15787   3.103   3.212   4.310 -0.6710  0.2990 -0.0349
 1384SOL    HW115788   3.130   3.302   4.327  0.8632 -0.4221  1.3924
 1384SOL    HW215789   3.053   3.194   4.390 -1.7515  3.4384 -0.0210
 1385SOL     OW15790   0.129   4.620   4.172 -0.0456 -0.5501 -0.4670
 1385SOL    HW115791   0.066   4.650   4.237  0.2248  0.8528 -0.8610
 1385SOL    HW215792   0.098   4.533   4.147  0.1031 -0.6534 -0.2902
 1386SOL     OW15793   2.314   4.267   4.486  0.0928 -0.1522 -0.2137
 1386SOL    HW115794   2.407   4.246   4.485  0.0936 -0.1154 -0.7861
 1386SOL    HW215795   2.287   4.226   4.404 -0.1847  0.3285 -0.3676
 1387SOL     OW15796   2.624   2.580   1.953  0.5455  0.6166  0.1228
 1387SOL    HW115797   2.708   2.601   1.995  0.9703  1.5360 -1.1672
 1387SOL    HW215798   2.660   2.539   1.874  1.8921  1.7508  0.1296
 1388SOL     OW15799   3.482   3.222   8.092 -0.2412  0.3756 -0.1598
 1388SOL    HW115800   3.481   3.314   8.064 -2.1137  0.5308  0.3863
 1388SOL    HW215801   3.393   3.188   8.081 -0.4433  0.7297  0.3467
 1389SOL     OW15802   3.801   4.398   6.483  0.2388 -0.6999 -0.0148
 1389SOL    HW115803   3.749   4.332   6.436  2.0571 -0.4319 -2.3531
 1389SOL    HW215804   3.750   4.376   6.561 -0.0693 -0.7228 -0.2194
 1390SOL     OW15805   0.517   2.899  15.809  0.7330  0.1879  0.9659
 1390SOL    HW115806   0.450   2.942  15.862 -0.3893 -0.1039 -0.2184
 1390SOL    HW215807   0.536   2.820  15.860 -0.2731 -0.0272  1.0106
 1391SOL     OW15808   4.267   2.961   3.834 -0.8656  0.6013  0.7047
 1391SOL    HW115809   4.223   2.946   3.918  0.9969 -2.6647  1.0983
 1391SOL    HW215810   4.286   3.055   3.839  1.1907  0.0780  3.3432
 1392SOL     OW15811   0.899   3.406   6.276 -0.1267  0.0993  0.1540
 1392SOL    HW115812   0.899   3.497   6.308 -0.4952 -0.2672  1.1875
 1392SOL    HW215813   0.827   3.362   6.319 -0.5344  0.6218  0.0068
 1393SOL     OW15814   1.283   0.681   8.543  0.4592  0.0985 -0.0603
 1393SOL    HW115815   1.353   0.732   8.585 -1.1650  0.9840  1.5366
 1393SOL    HW215816   1.321   0.594   8.538 -0.0200 -0.0691 -0.8514
 1394SOL     OW15817   1.207   0.523   9.706 -0.6311  0.0018 -0.2638
 1394SOL    HW115818   1.218   0.506   9.799 -0.6306 -0.6106 -0.3808
 1394SOL    HW215819   1.161   0.443   9.681 -1.3872  1.1404 -2.6209
 1395SOL     OW15820   0.763   4.563   5.462 -0.2543  0.0681  0.1331
 1395SOL    HW115821   0.830   4.620   5.501  1.1523 -0.8040 -1.0063
 1395SOL    HW215822   0.766   4.606   5.377 -1.6710 -3.9571 -1.9448
 1396SOL     OW15823   4.341   3.562   6.697  0.1592  0.2249 -0.3236
 1396SOL    HW115824   4.324   3.544   6.604 -3.3821 -0.9921  0.5399
 1396SOL    HW215825   4.430   3.529   6.701 -1.1839 -3.5000 -1.9187
 1397SOL     OW15826   3.488   2.532   3.165  0.8841  0.2118  0.2823
 1397SOL    HW115827   3.583   2.539   3.170  0.8380  0.1351  1.1883
 1397SOL    HW215828   3.465   2.571   3.249 -0.4421  3.2688 -1.4958
 1398SOL     OW15829   3.650   4.443   3.604 -0.2820  0.2552 -0.7475
 1398SOL    HW115830   3.724   4.383   3.608  0.5847  1.3519 -0.2845
 1398SOL    HW215831   3.579   4.393   3.564 -0.1235 -1.0299  0.6038
 1399SOL     OW15832   0.272   3.446   2.666  0.0028  0.6379  0.0883
 1399SOL    HW115833   0.332   3.398   2.609 -0.4715  2.1995 -1.7192
 1399SOL    HW215834   0.190   3.443   2.616  0.6249 -1.8314 -0.8003
 1400SOL     OW15835   0.339   1.568   3.695  0.1110 -0.1790  0.0113
 1400SOL    HW115836   0.412   1.630   3.691  0.3379 -0.2621  2.9930
 1400SOL    HW215837   0.378   1.486   3.726  2.1420  0.8396  0.1397
 1401SOL     OW15838   2.173   1.710   1.869 -0.5605 -0.8092  0.8633
 1401SOL    HW115839   2.132   1.696   1.954 -1.4874 -0.4674  0.4789
 1401SOL    HW215840   2.240   1.643   1.873 -0.4691 -0.7273  0.7224
 1402SOL     OW15841   0.862   1.858   2.959  0.2601 -0.0782  0.7439
 1402SOL    HW115842   0.769   1.843   2.940  0.7892 -1.3042 -0.8008
 1402SOL    HW215843   0.892   1.769   2.974 -0.9746 -0.6803 -0.3234
 1403SOL     OW15844   4.439   1.316   2.642 -0.3252  0.6514  0.1316
 1403SOL    HW115845   4.356   1.272   2.624 -0.1341  0.8475 -1.2276
 1403SOL    HW215846   4.484   1.295   2.560  0.2991 -1.2365  0.9520
 1404SOL     OW15847   1.117   4.055   0.371 -0.4737 -0.5183 -0.3669
 1404SOL    HW115848   1.078   4.047   0.458  3.2348 -0.9362  1.2882
 1404SOL    HW215849   1.209   4.029   0.379 -0.8252 -1.5874  0.2782
 1405SOL     OW15850   3.537   1.608   7.945  0.8339  0.3043  0.4302
 1405SOL    HW115851   3.524   1.585   7.853 -0.3088  1.7731  0.2156
 1405SOL    HW215852   3.613   1.665   7.929  0.6376  0.8584  1.4235
 1406SOL     OW15853   0.530   1.228   1.685 -0.2588  0.5452 -0.2208
 1406SOL    HW115854   0.440   1.253   1.704  0.3615  1.5261  1.4088
 1406SOL    HW215855   0.520   1.158   1.749  1.3605  1.0403  0.5822
 1407SOL     OW15856   0.210   0.955   8.522  0.6872  0.1466  0.2112
 1407SOL    HW115857   0.254   1.039   8.530  0.5973  0.0702  1.5706
 1407SOL    HW215858   0.207   0.949   8.427 -0.7510 -0.2597  0.2787
 1408SOL     OW15859   2.111   3.639  16.573  0.1286 -0.2340  0.4785
 1408SOL    HW115860   2.046   3.569  16.570 -2.1100  1.8968 -0.4114
 1408SOL    HW215861   2.172   3.602  16.509 -0.5496  1.0411 -0.9069
 1409SOL     OW15862   3.700   1.287   5.924  0.2643  0.1281 -0.3041
 1409SOL    HW115863   3.751   1.256   5.999 -0.4694 -1.7989 -0.5886
 1409SOL    HW215864   3.690   1.205   5.875 -2.2994  0.3075 -0.1221
 1410SOL     OW15865   1.247   3.370   9.280  0.0687 -0.4222 -0.6414
 1410SOL    HW115866   1.283   3.441   9.333 -2.0520  1.3291 -1.5499
 1410SOL    HW215867   1.169   3.337   9.325  0.6165 -1.4842 -0.4729
 1411SOL     OW15868   0.155   4.169   7.113 -0.1264 -0.6741 -0.0991
 1411SOL    HW115869   0.133   4.232   7.181 -0.2662 -0.9129  0.0768
 1411SOL    HW215870   0.072   4.162   7.066 -0.1547 -1.2337  0.0322
 1412SOL     OW15871   4.066   1.649   2.116 -0.0418 -0.0528 -1.0878
 1412SOL    HW115872   4.094   1.619   2.030 -0.1679 -1.3290 -0.6826
 1412SOL    HW215873   4.025   1.733   2.097  4.6977  2.4463 -0.1432
 1413SOL     OW15874   3.220   1.322  12.081 -0.4841 -0.2080 -0.0835
 1413SOL    HW115875   3.220   1.373  12.000  0.5447 -2.5189 -1.5362
 1413SOL    HW215876   3.200   1.401  12.132  1.5707  0.0450  0.3146
 1414SOL     OW15877   1.955   4.163   2.281  0.0151 -0.6889 -0.2232
 1414SOL    HW115878   1.915   4.246   2.256  1.0641 -0.4478 -1.1013
 1414SOL    HW215879   1.981   4.131   2.195  0.6738 -0.5659 -0.0700
 1415SOL     OW15880   0.428   0.885   4.392 -0.0544 -0.5996  0.1885
 1415SOL    HW115881   0.421   0.818   4.459  1.4720 -0.4434  0.5007
 1415SOL    HW215882   0.357   0.865   4.332  0.4583  0.6999 -0.8691
 1416SOL     OW15883   1.909   1.073   6.687 -0.1677 -0.8498 -0.5532
 1416SOL    HW115884   1.897   1.026   6.770 -1.1397  0.9995  0.3405
 1416SOL    HW215885   1.995   1.115   6.692  0.6482 -2.4283 -1.1930
 1417SOL     OW15886   4.475   4.459  16.563 -0.4650 -0.3094  0.1551
 1417SOL    HW115887   4.567   4.443  16.541 -0.1697  2.8188 -0.8645
 1417SOL    HW215888   4.442   4.375  16.594  1.3977 -1.5280 -1.1218
 1418SOL     OW15889   3.825   1.600   4.779  0.1402  0.2437 -0.2652
 1418SOL    HW115890   3.833   1.693   4.756  2.2993  0.3706  1.0887
 1418SOL    HW215891   3.902   1.552   4.749  0.5108 -0.6920  2.2581
 1419SOL     OW15892   3.024   2.565   4.378  0.0974 -0.3251 -0.2877
 1419SOL    HW115893   2.931   2.556   4.398  0.3696  1.6217  1.8024
 1419SOL    HW215894   3.047   2.475   4.400  1.1725  0.0200 -0.0022
 1420SOL     OW15895   3.925   2.669   8.244 -0.0760  0.0625  0.3151
 1420SOL    HW115896   3.974   2.627   8.173  1.0717  2.6583 -0.4230
 1420SOL    HW215897   3.930   2.593   8.302  0.5675  0.3230  0.6053
 1421SOL     OW15898   3.175   2.084  14.153  0.2157 -0.3717 -0.1357
 1421SOL    HW115899   3.178   2.139  14.074  0.9440 -0.1652  0.0294
 1421SOL    HW215900   3.248   2.121  14.204  0.3674  0.1386 -0.7235
 1422SOL     OW15901   2.810   0.752   5.164 -0.4416  0.8015 -0.0132
 1422SOL    HW115902   2.807   0.665   5.123 -2.1608  0.7031  0.3504
 1422SOL    HW215903   2.872   0.793   5.103  1.2828 -0.3854  0.9406
 1423SOL     OW15904   1.586   0.325   0.471  0.1642 -0.6474  0.0410
 1423SOL    HW115905   1.644   0.367   0.535 -1.4519  1.5981 -0.0042
 1423SOL    HW215906   1.514   0.384   0.450  1.7558  0.8654 -1.1373
 1424SOL     OW15907   1.967   3.837   2.166  0.1204 -0.2033 -0.6688
 1424SOL    HW115908   1.934   3.922   2.138  1.4136  0.6015  0.2257
 1424SOL    HW215909   2.048   3.817   2.120  0.2752  0.3012 -0.6128
 1425SOL     OW15910   3.737   3.809  11.074 -0.1199  0.6509 -0.1447
 1425SOL    HW115911   3.756   3.764  10.991 -0.0235  1.0643 -0.3439
 1425SOL    HW215912   3.654   3.766  11.094  0.8099 -1.1378 -0.0513
 1426SOL     OW15913   3.066   4.599   6.569 -0.2242 -0.2305  0.1769
 1426SOL    HW115914   3.104   4.527   6.519  2.0238  2.5671 -2.1506
 1426SOL    HW215915   3.007   4.632   6.502  1.9125  1.4823 -0.8645
 1427SOL     OW15916   0.053   3.614   1.773  0.2313  0.1869 -0.9594
 1427SOL    HW115917   0.128   3.636   1.718  0.7285 -0.3051 -0.4782
 1427SOL    HW215918   4.720   3.603   1.708  0.5710 -0.5885 -1.1844
 1428SOL     OW15919   3.099   3.220  16.657 -0.5622 -0.4995 -0.3472
 1428SOL    HW115920   3.130   3.132  16.678 -0.9578 -0.6186 -0.2655
 1428SOL    HW215921   3.030   3.192  16.596  1.2199 -2.5975 -1.4141
 1429SOL     OW15922   0.157   0.281   6.723  0.5251 -0.0430 -0.2337
 1429SOL    HW115923   0.063   0.283   6.742  0.0964 -1.7194 -2.1365
 1429SOL    HW215924   0.174   0.188   6.739 -1.0102 -0.4070 -0.7398
 1430SOL     OW15925   0.349   1.951   1.604 -0.0300  0.2796 -0.3929
 1430SOL    HW115926   0.356   1.876   1.663 -0.5631  1.7626  1.5325
 1430SOL    HW215927   0.405   1.928   1.530 -0.2358  1.0756 -0.7860
 1431SOL     OW15928   3.821   0.657  12.202 -0.0962 -0.3671  0.1331
 1431SOL    HW115929   3.778   0.681  12.284 -0.8324 -0.8280 -0.1217
 1431SOL    HW215930   3.849   0.746  12.177 -1.5558  0.2678  0.7822
 1432SOL     OW15931   3.333   4.287   6.680  0.0810 -0.3490 -0.0295
 1432SOL    HW115932   3.322   4.297   6.774 -0.5325 -1.6907  0.0429
 1432SOL    HW215933   3.265   4.223   6.657  0.4942 -0.7223 -0.2264
 1433SOL     OW15934   1.268   3.223   7.250  0.4802 -0.1033  0.4869
 1433SOL    HW115935   1.202   3.292   7.246 -0.4895 -1.0650  0.0198
 1433SOL    HW215936   1.209   3.148   7.252 -1.3214  1.2511 -2.2563
 1434SOL     OW15937   1.974   4.685   1.669  0.6052 -0.9175  0.9114
 1434SOL    HW115938   1.969   4.590   1.668 -2.1177 -0.7486 -2.7620
 1434SOL    HW215939   1.963   4.696   1.575  2.2440  0.2420  0.8585
 1435SOL     OW15940   1.227   0.653  17.698 -0.1731  0.1013  0.3421
 1435SOL    HW115941   1.171   0.605  17.637 -2.0192 -0.4129  2.4048
 1435SOL    HW215942   1.308   0.665  17.649  0.9140 -0.8754  1.9222
 1436SOL     OW15943   3.278   2.870  13.867  0.3802 -0.5390 -0.0493
 1436SOL    HW115944   3.317   2.834  13.787  0.4393 -0.8606  0.1247
 1436SOL    HW215945   3.294   2.801  13.931  4.1359  0.1480 -0.2542
 1437SOL     OW15946   1.239   0.057   8.172 -0.3516 -0.3204 -0.0490
 1437SOL    HW115947   1.204   0.144   8.152 -0.7483  0.1377  2.6292
 1437SOL    HW215948   1.208   0.057   8.262  1.4117 -1.3219  0.5565
 1438SOL     OW15949   4.468   0.096  13.265 -0.4066 -0.0243  0.0235
 1438SOL    HW115950   4.383   0.116  13.305 -0.3359 -1.2436  0.7740
 1438SOL    HW215951   4.532   0.119  13.332  1.0690  0.2964 -1.5022
 1439SOL     OW15952   0.594   0.314   8.162 -0.0512  0.5465 -0.1920
 1439SOL    HW115953   0.573   0.378   8.094  1.7894  0.4916 -0.8086
 1439SOL    HW215954   0.532   0.242   8.149  1.2421 -0.1757 -2.2649
 1440SOL     OW15955   2.018   3.749   4.155  0.0986  0.2562  0.0029
 1440SOL    HW115956   2.101   3.706   4.176 -1.6540 -2.8618  0.6719
 1440SOL    HW215957   2.005   3.716   4.067  1.7369 -1.1399  0.2929
 1441SOL     OW15958   1.241   4.165   3.644  0.5583  0.1551  0.3243
 1441SOL    HW115959   1.277   4.094   3.696  0.5874 -0.0566  0.0170
 1441SOL    HW215960   1.156   4.133   3.614  0.1266 -0.2535  2.0206
 1442SOL     OW15961   3.705   3.872   6.043  0.3502  0.0947  0.6716
 1442SOL    HW115962   3.774   3.938   6.041 -0.5697  1.0244 -0.2781
 1442SOL    HW215963   3.684   3.865   5.949  0.6193  1.7820  0.4963
 1443SOL     OW15964   4.281   4.249  11.588  0.0428  0.5259 -0.2092
 1443SOL    HW115965   4.344   4.313  11.620 -1.0527 -0.1711  3.3581
 1443SOL    HW215966   4.331   4.227  11.510  0.4192 -2.7549  0.9772
 1444SOL     OW15967   3.852   2.670   2.133  0.1667  0.5187 -0.3366
 1444SOL    HW115968   3.761   2.661   2.158  0.3355 -0.8016 -0.1772
 1444SOL    HW215969   3.858   2.764   2.148 -1.9686  0.4812  0.6074
 1445SOL     OW15970   0.930   3.109  16.996 -0.1020  1.2131  0.3362
 1445SOL    HW115971   0.848   3.151  17.022 -0.0752  0.7605  1.1628
 1445SOL    HW215972   0.967   3.188  16.956  0.4327  0.2303 -1.1260
 1446SOL     OW15973   4.126   0.630  13.519 -0.6202  0.2901 -0.6582
 1446SOL    HW115974   4.218   0.647  13.540 -1.3443  4.6592 -1.1626
 1446SOL    HW215975   4.109   0.691  13.447  0.9785  0.6897 -0.7072
 1447SOL     OW15976   1.055   2.460   0.017 -0.3442  0.6805  0.0084
 1447SOL    HW115977   1.080   2.526   0.081  1.2240 -2.0409  2.2108
 1447SOL    HW215978   1.141   2.430  17.729 -1.3120  0.4665 -2.6484
 1448SOL     OW15979   2.960   1.739   6.456 -0.0738  0.2908 -0.2685
 1448SOL    HW115980   3.044   1.709   6.421 -1.1587 -3.0302 -0.0088
 1448SOL    HW215981   2.970   1.833   6.469  2.8830  0.0058 -0.5430
 1449SOL     OW15982   1.539   2.999   6.479  0.3437  0.3796  0.3990
 1449SOL    HW115983   1.505   3.088   6.483 -0.6557 -0.0120  0.5357
 1449SOL    HW215984   1.605   3.009   6.410 -0.6641 -1.4019 -0.8560
 1450SOL     OW15985   4.730   2.490  14.379 -0.4664  0.1938  0.4032
 1450SOL    HW115986   4.723   2.479  14.474 -0.7306  0.3770  0.4047
 1450SOL    HW215987   0.086   2.502  14.355 -0.3074  1.0694  1.4657
 1451SOL     OW15988   1.398   3.225  10.110  0.5227 -0.3345  1.0436
 1451SOL    HW115989   1.400   3.185  10.196  0.6041  0.5899  1.4796
 1451SOL    HW215990   1.470   3.286  10.127 -1.0429  1.4747  1.2745
 1452SOL     OW15991   3.949   3.468   8.422 -0.3802  0.1517 -0.0317
 1452SOL    HW115992   3.910   3.533   8.479  2.6558  0.8160  1.2987
 1452SOL    HW215993   4.005   3.422   8.484 -2.3037  0.2372  1.7557
 1453SOL     OW15994   0.478   3.882  12.447 -0.5305 -0.2403  0.5058
 1453SOL    HW115995   0.489   3.938  12.524  2.9328  1.1093 -0.9869
 1453SOL    HW215996   0.563   3.888  12.403 -0.1125  2.6682  1.7275
 1454SOL     OW15997   2.182   2.658   7.944 -0.0602 -0.1297 -0.1715
 1454SOL    HW115998   2.093   2.693   7.955 -0.9182 -2.2252 -0.5956
 1454SOL    HW215999   2.199   2.676   7.851 -0.8214 -1.4987 -0.5657
 1455SOL     OW16000   1.130   2.396   4.090  0.0384  0.3235 -0.0456
 1455SOL    HW116001   1.189   2.363   4.022  1.9590  0.4061  1.6059
 1455SOL    HW216002   1.185   2.365   4.161  0.0548  0.5880  0.0580
 1456SOL     OW16003   0.979   3.655   2.754  0.0510 -0.0223 -0.4313
 1456SOL    HW116004   0.902   3.605   2.727 -0.0571  1.2998 -2.6049
 1456SOL    HW216005   0.941   3.736   2.789 -1.0546 -0.2688 -1.0622
 1457SOL     OW16006   0.342   1.217  17.644 -0.3549  0.1262  0.7782
 1457SOL    HW116007   0.257   1.243  17.681 -0.9996  0.2895 -0.8110
 1457SOL    HW216008   0.323   1.187  17.555 -0.3781 -0.0534  0.8437
 1458SOL     OW16009   2.750   0.987  13.805 -0.3011  0.6131 -0.0625
 1458SOL    HW116010   2.796   1.060  13.765 -0.4966  0.7797  0.0128
 1458SOL    HW216011   2.827   0.936  13.831 -1.4394 -0.4973  1.1453
 1459SOL     OW16012   3.111   1.026   7.704  0.1287  0.4111  0.0553
 1459SOL    HW116013   3.040   0.977   7.745  0.3245 -0.0368 -0.1419
 1459SOL    HW216014   3.066   1.089   7.648  2.1450  1.8767  0.0945
 1460SOL     OW16015   2.758   4.195  17.604  0.1108  0.6367 -0.0674
 1460SOL    HW116016   2.713   4.208  17.688 -1.7459  2.1310 -1.2997
 1460SOL    HW216017   2.818   4.269  17.605 -0.8804  1.4016  2.3855
 1461SOL     OW16018   1.989   4.633   1.114  0.5864 -0.3512  0.0920
 1461SOL    HW116019   1.963   4.547   1.080  2.5576  0.1724 -2.7846
 1461SOL    HW216020   2.081   4.645   1.090 -0.0611 -1.3577 -2.9561
 1462SOL     OW16021   0.593   4.058   4.214 -0.3160 -0.0239  0.2371
 1462SOL    HW116022   0.569   4.111   4.290 -1.1523 -0.7581  0.4959
 1462SOL    HW216023   0.683   4.085   4.194  0.0681 -0.1481  1.8169
 1463SOL     OW16024   0.322   3.393   1.375  0.4500 -0.0465  0.0196
 1463SOL    HW116025   0.308   3.487   1.368  0.0220 -0.0487  0.8373
 1463SOL    HW216026   0.321   3.384   1.470  1.1170  1.6607  0.1849
 1464SOL     OW16027   4.713   2.042   5.934  0.0703  0.1247  0.5634
 1464SOL    HW116028   4.623   2.009   5.928 -0.3768  1.3051  0.8904
 1464SOL    HW216029   0.018   1.993   5.863  4.3405  1.8973  1.8306
 1465SOL     OW16030   4.706   0.811   8.933 -0.3321  0.4155  0.5292
 1465SOL    HW116031   0.032   0.762   8.878  0.5841  1.1787  0.8903
 1465SOL    HW216032   4.621   0.786   8.897  0.0565  2.0877 -1.5331
 1466SOL     OW16033   3.681   3.728   7.220  0.1494 -0.2554 -0.4699
 1466SOL    HW116034   3.675   3.824   7.222  0.8781 -0.2216  0.8373
 1466SOL    HW216035   3.669   3.714   7.314 -2.4999 -0.2886 -0.8114
 1467SOL     OW16036   3.867   2.069   2.827  0.2311  0.3323  0.1984
 1467SOL    HW116037   3.815   2.015   2.887  0.5674 -1.5083 -1.1957
 1467SOL    HW216038   3.816   2.066   2.746  0.5182 -0.4743  0.0521
 1468SOL     OW16039   3.544   3.627   7.710  0.6534  0.2557 -0.1457
 1468SOL    HW116040   3.582   3.709   7.743  1.2134  0.3373 -1.0107
 1468SOL    HW216041   3.455   3.663   7.710  0.6884  0.3341 -0.6343
 1469SOL     OW16042   1.900   4.034   7.883  0.0433  0.5473  0.2091
 1469SOL    HW116043   1.987   3.995   7.886  0.0695  0.6187  0.3878
 1469SOL    HW216044   1.912   4.118   7.838 -1.1419  1.0219  0.7736
 1470SOL     OW16045   0.957   3.307  14.786  0.5952 -0.1245  0.0803
 1470SOL    HW116046   1.012   3.283  14.860 -2.3141 -0.6246  2.0868
 1470SOL    HW216047   0.957   3.223  14.740 -1.0686 -0.4855  0.7312
 1471SOL     OW16048   2.322   3.950   1.789 -0.1599  0.2759 -0.6661
 1471SOL    HW116049   2.270   3.872   1.809 -0.1536  0.3246 -0.4587
 1471SOL    HW216050   2.407   3.935   1.832 -1.3772 -5.1585 -0.0566
 1472SOL     OW16051   0.555   1.434   6.320  0.0772  0.0117 -0.0287
 1472SOL    HW116052   0.630   1.477   6.280  0.4541 -1.0018 -0.4280
 1472SOL    HW216053   0.508   1.423   6.237  0.4107 -0.1988 -0.1876
 1473SOL     OW16054   0.661   2.717  11.954 -0.0190 -0.1734 -0.0578
 1473SOL    HW116055   0.738   2.771  11.975 -0.7615  1.7744 -2.4287
 1473SOL    HW216056   0.675   2.680  11.867  2.7408 -0.8454  0.6755
 1474SOL     OW16057   0.693   1.088   7.335  0.8712 -0.4712 -0.4218
 1474SOL    HW116058   0.766   1.128   7.383 -1.3574  0.9460  1.7644
 1474SOL    HW216059   0.704   1.001   7.373  5.5562  0.0932 -0.5387
 1475SOL     OW16060   4.029   4.572  15.323 -0.1190  0.2338  0.0975
 1475SOL    HW116061   4.006   4.660  15.291 -1.9242 -0.0897  0.4938
 1475SOL    HW216062   3.944   4.534  15.347  0.3998 -1.6782 -1.0573
 1476SOL     OW16063   1.151   0.943   0.653 -0.0578 -0.6254 -0.4897
 1476SOL    HW116064   1.168   0.907   0.566  1.1023 -2.0674  0.3257
 1476SOL    HW216065   1.077   1.000   0.630 -0.9670 -1.5733  0.0403
 1477SOL     OW16066   1.627   2.785  12.407 -0.5133 -0.0217  0.1223
 1477SOL    HW116067   1.677   2.864  12.428  1.1102 -1.3677  1.4293
 1477SOL    HW216068   1.539   2.804  12.438 -0.0169  2.0466  0.2314
 1478SOL     OW16069   2.232   4.614  15.032 -0.5220  0.2888 -0.6466
 1478SOL    HW116070   2.160   4.676  15.039 -0.8718 -0.0993 -0.8345
 1478SOL    HW216071   2.294   4.652  15.094 -2.0933  0.8554  0.5748
 1479SOL     OW16072   2.592   0.485   6.505  0.2307 -0.8050 -0.1552
 1479SOL    HW116073   2.535   0.436   6.565 -0.6597 -1.4808 -1.5318
 1479SOL    HW216074   2.577   0.576   6.530 -3.0138 -0.7964 -2.0308
 1480SOL     OW16075   1.751   2.714   4.343  0.3220 -0.3295 -0.4245
 1480SOL    HW116076   1.816   2.752   4.402 -2.8900  2.3733  1.3298
 1480SOL    HW216077   1.797   2.649   4.290  0.9453  0.5548 -0.9616
 1481SOL     OW16078   1.578   4.470   2.380  0.2804 -0.0489 -0.0247
 1481SOL    HW116079   1.649   4.532   2.363  0.5572 -0.1770  0.7029
 1481SOL    HW216080   1.607   4.434   2.463  0.2638 -0.7720 -0.3328
 1482SOL     OW16081   0.606   4.309   2.700 -0.2941  0.1312 -0.2332
 1482SOL    HW116082   0.556   4.304   2.618 -1.1882 -1.0878  0.3811
 1482SOL    HW216083   0.685   4.357   2.674  0.0657 -0.0427  0.5208
 1483SOL     OW16084   0.785   4.196   3.721 -0.0672 -0.2999 -0.3460
 1483SOL    HW116085   0.736   4.159   3.648  0.0798 -0.4779 -0.3571
 1483SOL    HW216086   0.845   4.259   3.681 -0.8525 -0.4622 -1.7755
 1484SOL     OW16087   3.137   3.958  17.616 -0.0911 -0.7053  0.7042
 1484SOL    HW116088   3.090   3.916  17.688 -0.9023 -0.9257  0.0517
 1484SOL    HW216089   3.222   3.925  17.642 -0.4289 -0.3226  2.3256
 1485SOL     OW16090   3.886   4.490   9.459 -1.0407  0.0783  0.5129
 1485SOL    HW116091   3.920   4.576   9.484  1.6092  0.0735 -2.9305
 1485SOL    HW216092   3.796   4.495   9.488 -1.8952 -0.6111 -2.0149
 1486SOL     OW16093   4.687   3.830  12.837 -0.3202 -0.3710  0.2173
 1486SOL    HW116094   4.637   3.904  12.872  0.7173 -0.1111  1.1531
 1486SOL    HW216095   0.039   3.863  12.855 -1.4728  1.5650  2.2677
 1487SOL     OW16096   0.943   2.054   8.648 -0.1402 -0.0120  0.5716
 1487SOL    HW116097   0.891   1.974   8.646  0.2771 -0.2540 -0.8534
 1487SOL    HW216098   0.914   2.084   8.734 -0.2998  1.5229 -0.0248
 1488SOL     OW16099   0.082   4.109   5.305  0.4241  0.4041 -0.1754
 1488SOL    HW116100   4.733   4.089   5.347 -0.7020  1.5409 -1.9066
 1488SOL    HW216101   0.087   4.205   5.311 -0.1844  0.4798 -0.9134
 1489SOL     OW16102   4.262   1.249   4.352  0.0307 -0.5148 -0.2557
 1489SOL    HW116103   4.334   1.206   4.399 -1.5935 -0.5481  2.2141
 1489SOL    HW216104   4.302   1.334   4.336 -3.3479  1.8831  4.0866
 1490SOL     OW16105   0.744   4.471   6.968  0.2434 -0.0788 -0.9502
 1490SOL    HW116106   0.735   4.387   7.013 -1.6651  1.8934  2.3658
 1490SOL    HW216107   0.803   4.505   7.035 -0.6661 -1.1344  0.3907
 1491SOL     OW16108   2.012   3.286   3.371 -0.1208  0.4422 -0.4806
 1491SOL    HW116109   2.007   3.264   3.278  0.6510 -0.3061 -0.3457
 1491SOL    HW216110   1.918   3.282   3.386  0.8654 -2.3314  4.8623
 1492SOL     OW16111   1.397   3.402   5.556 -0.2812 -0.7309 -0.0077
 1492SOL    HW116112   1.492   3.412   5.562 -0.3457 -0.0159 -0.1762
 1492SOL    HW216113   1.379   3.394   5.650  3.6254 -1.5059  0.6636
 1493SOL     OW16114   2.417   3.479  10.352  0.3248  0.2864 -0.9540
 1493SOL    HW116115   2.400   3.565  10.390  1.4005  0.4220 -0.7919
 1493SOL    HW216116   2.429   3.429  10.432  0.4749 -0.1895 -1.2782
 1494SOL     OW16117   0.825   1.675   7.056  0.4699 -0.2799 -0.1474
 1494SOL    HW116118   0.877   1.616   7.110 -1.9458 -0.3559  2.1137
 1494SOL    HW216119   0.791   1.616   6.988 -2.4425  0.3417  0.7391
 1495SOL     OW16120   2.262   4.321   9.749  0.1925 -0.1793 -1.1445
 1495SOL    HW116121   2.277   4.228   9.766 -2.0231 -0.3001  0.0836
 1495SOL    HW216122   2.168   4.331   9.764  0.4318  0.4892 -0.1376
 1496SOL     OW16123   1.038   1.606   6.209  0.0505  0.1454  0.0381
 1496SOL    HW116124   1.037   1.512   6.189  0.6951  0.1365  0.0381
 1496SOL    HW216125   1.130   1.623   6.228 -0.0774 -1.1018  1.7398
 1497SOL     OW16126   0.142   2.743  17.098 -0.1890  0.2310  0.4491
 1497SOL    HW116127   0.097   2.813  17.050  0.2107  1.0672  1.2801
 1497SOL    HW216128   0.151   2.781  17.186 -0.1574 -1.3779  1.1297
 1498SOL     OW16129   3.922   2.557   7.586 -0.1375 -0.1366  0.0433
 1498SOL    HW116130   3.881   2.609   7.517  0.4417  1.8449  1.1887
 1498SOL    HW216131   3.859   2.487   7.600 -0.7351  0.4353  0.2199
 1499SOL     OW16132   3.144   1.810   8.563  0.0998  0.3426 -0.5282
 1499SOL    HW116133   3.197   1.889   8.575 -1.1670  0.9294  1.1595
 1499SOL    HW216134   3.086   1.831   8.490  0.4626 -0.8841 -1.1764
 1500SOL     OW16135   1.998   0.528   9.175 -0.3642  0.0659  0.1585
 1500SOL    HW116136   2.089   0.502   9.187 -0.5363  0.1784  1.7580
 1500SOL    HW216137   2.004   0.561   9.086  0.2304 -0.2861  0.0676
 1501SOL     OW16138   3.043   1.853  11.881  0.1351 -0.4165  0.1346
 1501SOL    HW116139   2.978   1.849  11.811  0.4744  0.4781 -0.2296
 1501SOL    HW216140   3.042   1.768  11.925  0.2432 -0.5234 -0.0693
 1502SOL     OW16141   0.585   0.773   2.112  0.6499 -0.1136 -0.6349
 1502SOL    HW116142   0.585   0.856   2.159  0.3385 -0.7591  0.5016
 1502SOL    HW216143   0.628   0.799   2.030 -2.9246 -0.3156 -2.5719
 1503SOL     OW16144   2.716   2.748   3.794 -0.4588  0.4688  0.1023
 1503SOL    HW116145   2.659   2.671   3.801  1.6029 -0.9289  1.7238
 1503SOL    HW216146   2.657   2.821   3.779  0.2916  0.8313 -1.0803
 1504SOL     OW16147   3.487   1.946  11.606 -0.3430  0.2566 -0.6011
 1504SOL    HW116148   3.445   1.882  11.663  0.7821  1.4345  1.5732
 1504SOL    HW216149   3.482   2.025  11.660  1.1301  1.7944 -2.6833
 1505SOL     OW16150   4.655   0.549   7.442 -0.3639 -0.0059 -0.1856
 1505SOL    HW116151   4.693   0.491   7.376 -0.1192 -1.1838  0.9912
 1505SOL    HW216152   4.580   0.585   7.394  0.2475  0.0216 -1.1333
 1506SOL     OW16153   2.701   3.680   7.558 -0.1951  0.1140  0.3374
 1506SOL    HW116154   2.681   3.605   7.614  0.3037  0.4357  0.9310
 1506SOL    HW216155   2.764   3.724   7.614 -0.1203 -0.3419  0.6071
 1507SOL     OW16156   0.885   3.737   3.776 -0.4182  0.6499 -0.1237
 1507SOL    HW116157   0.973   3.754   3.810 -0.7320  1.6856  0.1844
 1507SOL    HW216158   0.820   3.791   3.822 -0.9145  1.5401 -1.8528
 1508SOL     OW16159   3.852   3.961   6.759  0.0608 -0.0245  0.0209
 1508SOL    HW116160   3.870   3.894   6.825  1.0567  0.6485  0.4335
 1508SOL    HW216161   3.764   3.986   6.787  0.7068  1.7331  0.5079
 1509SOL     OW16162   2.290   3.329   9.859  0.2399 -0.3509 -0.1443
 1509SOL    HW116163   2.252   3.243   9.878  1.9180 -1.4375 -1.6816
 1509SOL    HW216164   2.353   3.293   9.797  1.1731  1.2938 -0.1627
 1510SOL     OW16165   3.626   0.224   1.475 -0.6498 -0.0419 -0.9729
 1510SOL    HW116166   3.542   0.265   1.455 -0.5563  1.3549  1.5220
 1510SOL    HW216167   3.601   0.135   1.452  0.8260 -0.8173  0.4223
 1511SOL     OW16168   0.487   0.789   8.373  0.2361  0.5071  0.1098
 1511SOL    HW116169   0.415   0.844   8.341  1.5171  2.6413  0.8918
 1511SOL    HW216170   0.505   0.729   8.301 -0.3128  1.0609 -0.4906
 1512SOL     OW16171   3.914   4.305   1.583 -0.0292  0.0411 -0.3615
 1512SOL    HW116172   3.974   4.346   1.645 -1.1531  1.3945 -0.1691
 1512SOL    HW216173   3.873   4.235   1.633  2.0143 -0.4425  0.6160
 1513SOL     OW16174   0.868   2.411   7.139  0.2416 -0.1711 -0.7025
 1513SOL    HW116175   0.926   2.412   7.215  1.5310 -1.6742 -1.6654
 1513SOL    HW216176   0.912   2.341   7.090  1.0135  0.4388 -0.8837
 1514SOL     OW16177   3.934   2.750   6.659 -0.3359 -0.0935 -0.3770
 1514SOL    HW116178   3.937   2.656   6.645  2.7379  0.0791 -1.1115
 1514SOL    HW216179   3.944   2.765   6.753  0.3359 -0.0755 -0.4500
 1515SOL     OW16180   3.200   0.401  16.025  0.4437 -0.3793  0.0972
 1515SOL    HW116181   3.180   0.325  16.079  0.2759 -0.3424  0.0873
 1515SOL    HW216182   3.151   0.387  15.944  1.7700  4.1012 -1.5338
 1516SOL     OW16183   2.102   1.433   5.925  0.5283  0.3196  0.1370
 1516SOL    HW116184   2.158   1.462   5.853  0.6153  0.7450  0.3771
 1516SOL    HW216185   2.032   1.411   5.864  0.3002  2.6024 -0.4262
 1517SOL     OW16186   3.254   2.233   5.159  0.0763  0.1878  0.2933
 1517SOL    HW116187   3.275   2.324   5.181 -2.3727  0.0825  3.0698
 1517SOL    HW216188   3.318   2.189   5.215 -0.6342 -0.8590  0.2780
 1518SOL     OW16189   1.309   4.340   9.490 -0.3135  0.3141  0.0493
 1518SOL    HW116190   1.217   4.367   9.481  0.0350  0.9339 -1.6043
 1518SOL    HW216191   1.298   4.293   9.572  0.8465 -1.4983 -0.8404
 1519SOL     OW16192   2.749   2.390   3.229 -0.3543  0.5024  0.5500
 1519SOL    HW116193   2.692   2.463   3.253 -2.7193 -1.3550  0.5437
 1519SOL    HW216194   2.805   2.380   3.306 -0.4066 -0.2490  0.4820
 1520SOL     OW16195   3.509   1.304  13.896 -0.3235  0.0579 -0.0216
 1520SOL    HW116196   3.603   1.313  13.906 -0.5751  1.9846  0.4675
 1520SOL    HW216197   3.500   1.256  13.978 -1.7994 -1.3147 -0.9873
 1521SOL     OW16198   0.677   3.166  16.619  0.0580 -0.1289  0.3306
 1521SOL    HW116199   0.592   3.206  16.636 -0.6156 -0.7570 -1.4830
 1521SOL    HW216200   0.716   3.198  16.700  0.9243  1.5625 -0.7739
 1522SOL     OW16201   4.074   0.273   0.198  0.1085  0.2420  0.1721
 1522SOL    HW116202   4.161   0.235   0.196  0.6982  1.5767  0.3998
 1522SOL    HW216203   4.093   0.367   0.199 -0.7294  0.4163 -0.1457
 1523SOL     OW16204   4.406   4.556   7.913 -0.2410  0.0957 -0.5178
 1523SOL    HW116205   4.334   4.619   7.915 -0.4036 -0.0634 -1.2266
 1523SOL    HW216206   4.417   4.541   7.819  1.5313 -2.2467  0.0807
 1524SOL     OW16207   3.207   3.880   3.775  0.4616 -0.0701  0.5923
 1524SOL    HW116208   3.145   3.839   3.714 -0.5382  1.9875  0.2483
 1524SOL    HW216209   3.255   3.807   3.816 -1.8108 -0.8975  1.8133
 1525SOL     OW16210   1.755   0.734   9.484 -0.5101 -0.0149  0.5936
 1525SOL    HW116211   1.713   0.809   9.441 -2.2627 -1.5599 -0.3638
 1525SOL    HW216212   1.685   0.670   9.494 -1.6961  0.9994 -1.1155
 1526SOL     OW16213   3.479   0.903   5.201  0.4323  0.9540  0.4170
 1526SOL    HW116214   3.532   0.884   5.279  0.1369  1.0962  0.6530
 1526SOL    HW216215   3.524   0.849   5.136  0.5428  1.5018  0.0335
 1527SOL     OW16216   2.710   1.224   0.527 -0.3918 -0.0938 -0.1254
 1527SOL    HW116217   2.792   1.248   0.568  0.7757  0.6765 -2.8954
 1527SOL    HW216218   2.656   1.299   0.552 -1.1107 -0.2025 -1.3555
 1528SOL     OW16219   2.061   2.573   6.808  0.1569 -0.7007  0.0941
 1528SOL    HW116220   2.000   2.541   6.875 -1.3497  0.6691 -0.6097
 1528SOL    HW216221   2.076   2.495   6.755 -0.7854 -1.4589  0.9411
 1529SOL     OW16222   2.246   0.276   9.105  0.0830  0.0065 -0.2966
 1529SOL    HW116223   2.243   0.359   9.153  0.2886 -1.1142  1.6193
 1529SOL    HW216224   2.332   0.286   9.063  0.5868 -1.8614  0.3062
 1530SOL     OW16225   1.973   2.884   7.934 -0.2212  0.0147  0.0736
 1530SOL    HW116226   1.940   2.973   7.924  1.1399  0.7556  2.0805
 1530SOL    HW216227   1.904   2.833   7.892  0.1715  0.1578 -0.7378
 1531SOL     OW16228   0.516   0.019   5.682  0.3175 -0.0256 -0.4257
 1531SOL    HW116229   0.462   0.089   5.646  1.4353  0.1465 -1.7531
 1531SOL    HW216230   0.461   4.724   5.754  0.9371  0.0305  0.0714
 1532SOL     OW16231   3.255   2.502   8.028 -0.3274  0.4283 -0.1355
 1532SOL    HW116232   3.226   2.492   7.938  1.1682  1.5392 -0.7446
 1532SOL    HW216233   3.297   2.587   8.019 -0.4837  0.3504 -1.5567
 1533SOL     OW16234   3.153   1.587   3.603  0.5126  0.5625  0.0380
 1533SOL    HW116235   3.156   1.493   3.621  0.1556  0.2652 -1.4935
 1533SOL    HW216236   3.217   1.598   3.532  2.2994  1.8759  1.8445
 1534SOL     OW16237   2.786   4.016   6.772  0.0901 -0.5043  0.0604
 1534SOL    HW116238   2.771   4.092   6.716  0.1113  0.6000  1.5784
 1534SOL    HW216239   2.746   4.035   6.857 -2.2081 -1.1548 -0.8600
 1535SOL     OW16240   0.276   0.223   5.718 -0.5679  0.9105 -0.6381
 1535SOL    HW116241   0.328   0.303   5.722 -1.0953  1.0377  2.9151
 1535SOL    HW216242   0.286   0.189   5.807  0.6691  2.1927 -0.2958
 1536SOL     OW16243   4.658   2.556   0.107 -0.6078 -0.0135 -0.3071
 1536SOL    HW116244   4.652   2.651   0.119 -3.3448 -0.3313  0.7812
 1536SOL    HW216245   4.688   2.528   0.194 -1.5560 -1.5066 -0.4633
 1537SOL     OW16246   2.928   4.240   1.948 -0.0177 -0.0890 -0.1405
 1537SOL    HW116247   2.950   4.325   1.986 -1.0050 -0.0401  0.3308
 1537SOL    HW216248   2.939   4.179   2.022  0.6256 -1.4232 -1.3301
 1538SOL     OW16249   4.240   2.050   6.807  0.7313  0.7479  0.6645
 1538SOL    HW116250   4.262   2.138   6.775  2.0333  0.3960  0.6013
 1538SOL    HW216251   4.320   2.003   6.831 -0.6286 -1.2033  1.3945
 1539SOL     OW16252   4.423   1.404   8.835 -0.2605  0.3063  0.0156
 1539SOL    HW116253   4.497   1.462   8.852 -0.5972  0.5015  0.7916
 1539SOL    HW216254   4.463   1.317   8.844  0.5858  0.6259 -0.6834
 1540SOL     OW16255   4.537   1.639   7.529  0.4490 -0.0033 -0.0448
 1540SOL    HW116256   4.632   1.625   7.537  0.4851 -0.1599 -0.7568
 1540SOL    HW216257   4.534   1.721   7.481 -1.0200 -0.1160 -0.1336
 1541SOL     OW16258   2.115   4.496   2.110 -0.6204  1.0346 -0.2088
 1541SOL    HW116259   2.189   4.517   2.053  0.3234  0.0083  0.6631
 1541SOL    HW216260   2.156   4.493   2.196  0.2425  2.0223 -0.5902
 1542SOL     OW16261   3.743   1.076   2.343  0.2893 -0.1585  0.8291
 1542SOL    HW116262   3.718   0.984   2.331 -1.8642  0.1872  2.5927
 1542SOL    HW216263   3.834   1.067   2.372  0.5284  0.5298  0.2877
 1543SOL     OW16264   0.242   1.569   5.687  0.2251 -0.0091 -0.5293
 1543SOL    HW116265   0.331   1.585   5.655  0.9837  2.0353  2.6067
 1543SOL    HW216266   0.240   1.645   5.746  1.3300  0.1926 -0.7430
 1544SOL     OW16267   1.866   1.643   5.489  0.5239  0.3298  0.5775
 1544SOL    HW116268   1.894   1.606   5.405  0.5000 -2.4100  1.7866
 1544SOL    HW216269   1.774   1.657   5.467  1.2801 -0.3879 -3.0696
 1545SOL     OW16270   4.009   2.831  13.299  0.4834  0.4944  0.1847
 1545SOL    HW116271   3.980   2.789  13.218 -0.5335  2.7148 -0.6054
 1545SOL    HW216272   3.927   2.855  13.343  0.8207  0.7034  0.7054
 1546SOL     OW16273   2.256   0.626  11.644 -0.0056 -0.2691  0.0564
 1546SOL    HW116274   2.199   0.681  11.590 -0.3934 -0.3598  0.3670
 1546SOL    HW216275   2.227   0.536  11.631  2.2649 -0.9007 -0.4459
 1547SOL     OW16276   1.762   2.013   4.492 -0.4959  0.0296 -0.2337
 1547SOL    HW116277   1.689   1.973   4.443 -0.1564 -1.1871  0.2435
 1547SOL    HW216278   1.729   2.018   4.582  0.5750 -0.2096  0.1604
 1548SOL     OW16279   1.439   0.973  16.730  0.3863 -0.1736  0.8566
 1548SOL    HW116280   1.375   1.043  16.714 -0.3827 -1.6422 -2.5381
 1548SOL    HW216281   1.414   0.944  16.817  2.3163  1.9483  2.1198
 1549SOL     OW16282   4.349   3.531   8.108  0.5199 -0.1940 -0.1357
 1549SOL    HW116283   4.400   3.529   8.189 -0.2964  0.4715  0.3926
 1549SOL    HW216284   4.359   3.442   8.075  0.9061  0.1146 -0.8705
 1550SOL     OW16285   3.580   4.248   8.867  0.4344 -0.7834  0.0761
 1550SOL    HW116286   3.575   4.286   8.779 -0.2678  0.3783  0.6186
 1550SOL    HW216287   3.493   4.226   8.900  0.5395 -1.6768 -0.2653
 1551SOL     OW16288   3.254   1.931   3.176  0.7286 -0.2724  0.1225
 1551SOL    HW116289   3.249   1.839   3.152 -0.8497 -0.3802  0.8828
 1551SOL    HW216290   3.220   1.931   3.265 -0.1245  1.8928 -0.1950
 1552SOL     OW16291   0.251   0.744   2.366 -0.2197 -0.7929  0.1006
 1552SOL    HW116292   0.268   0.749   2.272  0.9543 -0.5405  0.3226
 1552SOL    HW216293   0.327   0.789   2.402  0.7052 -1.7903 -0.6061
 1553SOL     OW16294   2.383   0.277   7.612 -0.1565 -0.7178 -0.2025
 1553SOL    HW116295   2.407   0.285   7.704 -0.8801 -0.1866 -0.0542
 1553SOL    HW216296   2.406   0.188   7.585  1.0607  0.0286 -1.6230
 1554SOL     OW16297   2.842   1.850  11.683  0.8130  0.4217 -0.1251
 1554SOL    HW116298   2.781   1.847  11.609  0.1323 -0.9516  0.4897
 1554SOL    HW216299   2.811   1.930  11.726  0.6658  0.7781 -0.8972
 1555SOL     OW16300   3.329   0.899  14.522 -0.3055  0.3127 -0.8228
 1555SOL    HW116301   3.283   0.819  14.498 -0.1302  0.0296 -0.2303
 1555SOL    HW216302   3.305   0.912  14.614  0.5147  2.6321 -0.9168
 1556SOL     OW16303   4.043   3.720   7.621 -0.2342 -0.3479 -0.3265
 1556SOL    HW116304   4.124   3.678   7.650  1.5002  1.9257 -1.9537
 1556SOL    HW216305   3.987   3.649   7.590  1.6588 -1.9151 -0.1927
 1557SOL     OW16306   4.545   4.211   4.226  0.0750 -0.6358 -0.2706
 1557SOL    HW116307   4.526   4.118   4.230 -1.8963 -0.1672  1.4835
 1557SOL    HW216308   4.616   4.224   4.289  1.3828 -1.6384 -1.5393
 1558SOL     OW16309   1.296   3.552   6.372  0.1138  0.3660 -0.2592
 1558SOL    HW116310   1.331   3.508   6.294 -0.9774 -1.0994  0.0773
 1558SOL    HW216311   1.371   3.561   6.430 -0.4509  0.5900  0.4294
 1559SOL     OW16312   2.705   4.215   4.230  0.1737  0.4779  0.3098
 1559SOL    HW116313   2.698   4.184   4.320  0.8098  2.8431  1.1847
 1559SOL    HW216314   2.619   4.186   4.201  0.1204  0.7058  0.2419
 1560SOL     OW16315   3.647   2.009   2.261  0.4025  0.7677 -0.5614
 1560SOL    HW116316   3.681   1.940   2.203 -1.6452 -0.5788 -0.1461
 1560SOL    HW216317   3.559   1.979   2.284  1.2580 -2.3702 -1.3919
 1561SOL     OW16318   3.093   3.232  12.200  0.8428 -0.8429  0.4590
 1561SOL    HW116319   3.025   3.266  12.259  0.3639  2.5888 -2.0879
 1561SOL    HW216320   3.154   3.180  12.252  0.0065 -0.2720  2.0251
 1562SOL     OW16321   3.774   3.312   5.894 -0.6264 -0.4384 -0.3186
 1562SOL    HW116322   3.844   3.325   5.958 -0.9059 -0.0581 -0.0910
 1562SOL    HW216323   3.773   3.217   5.881  0.2287 -0.5570  0.5138
 1563SOL     OW16324   1.395   1.387   7.948  0.4598  0.2885 -0.0954
 1563SOL    HW116325   1.356   1.326   7.886  0.1490  0.0617  0.3216
 1563SOL    HW216326   1.416   1.332   8.024  0.3062  1.4355  0.7676
 1564SOL     OW16327   3.476   4.499   1.613  0.1357 -0.1312  0.1463
 1564SOL    HW116328   3.525   4.433   1.564 -1.4919 -2.4519  1.6779
 1564SOL    HW216329   3.388   4.469   1.593  0.7984 -1.2617 -1.1222
 1565SOL     OW16330   1.048   3.433   4.699 -0.1729 -0.1036  0.2119
 1565SOL    HW116331   1.090   3.495   4.759 -0.1297 -0.2374  0.3205
 1565SOL    HW216332   0.972   3.405   4.751 -1.2952  0.8426 -0.9140
 1566SOL     OW16333   1.516   3.979  17.513 -0.3032  0.2376 -0.1657
 1566SOL    HW116334   1.465   3.899  17.525 -0.1144  0.2254  0.5752
 1566SOL    HW216335   1.438   4.033  17.501  0.3793  0.6648 -2.5926
 1567SOL     OW16336   2.643   3.917   2.623  0.0035 -0.4531  0.3352
 1567SOL    HW116337   2.736   3.900   2.638 -0.1455 -0.3078  1.4678
 1567SOL    HW216338   2.648   3.970   2.544 -2.1595 -0.4815  0.1939
 1568SOL     OW16339   0.085   3.198   7.469  0.1071  0.0621 -0.1960
 1568SOL    HW116340   0.135   3.251   7.407  2.1099 -0.3882  1.0435
 1568SOL    HW216341   0.146   3.195   7.543  0.5463  0.9699 -0.5268
 1569SOL     OW16342   3.746   3.442   9.224  0.7390  0.0319  0.0824
 1569SOL    HW116343   3.809   3.442   9.152  1.5490 -1.5450  0.7853
 1569SOL    HW216344   3.800   3.477   9.295  0.0810 -0.2304  0.7161
 1570SOL     OW16345   1.739   4.388   4.054 -0.4841 -0.7375 -0.0553
 1570SOL    HW116346   1.685   4.465   4.071 -1.5267 -1.3583 -0.5301
 1570SOL    HW216347   1.806   4.416   3.991  0.2427 -1.7617  0.2651
 1571SOL     OW16348   0.018   1.721   8.124 -0.5142  0.2613  0.1180
 1571SOL    HW116349   0.109   1.751   8.131  0.2593 -2.1980  0.5634
 1571SOL    HW216350   0.015   1.644   8.181 -0.6963 -1.4798 -2.2688
 1572SOL     OW16351   3.557   0.290  14.817  0.5867  0.0853  0.0977
 1572SOL    HW116352   3.509   0.331  14.745 -0.9074 -0.6116  0.6919
 1572SOL    HW216353   3.555   0.362  14.881 -1.2113  0.3322 -0.2280
 1573SOL     OW16354   0.060   2.872  12.816 -0.6432  0.4938  0.0682
 1573SOL    HW116355   0.124   2.927  12.771  0.9863  0.1782  2.0293
 1573SOL    HW216356   0.010   2.928  12.876  0.1210  0.6627  0.5519
 1574SOL     OW16357   0.945   4.584   7.769 -0.0652 -0.1629  0.5227
 1574SOL    HW116358   0.967   4.520   7.702 -0.8773  0.3142 -0.1928
 1574SOL    HW216359   0.943   4.526   7.845 -0.5727 -1.8689 -0.8153
 1575SOL     OW16360   4.276   0.805   6.690 -0.4557  0.2354  0.4496
 1575SOL    HW116361   4.301   0.732   6.634  0.6078  0.7538  0.2508
 1575SOL    HW216362   4.188   0.825   6.659  0.4453 -0.1905 -2.3556
 1576SOL     OW16363   0.554   2.210   6.495  0.0313 -0.3459  0.0977
 1576SOL    HW116364   0.568   2.175   6.407  1.8832  2.9640 -0.9228
 1576SOL    HW216365   0.460   2.220   6.511 -0.3207 -1.5262 -1.2347
 1577SOL     OW16366   0.314   0.876  10.490 -0.4509  0.4336  0.5177
 1577SOL    HW116367   0.251   0.940  10.457 -1.8786  0.2277  2.8862
 1577SOL    HW216368   0.394   0.926  10.504 -0.4384  0.8821 -1.0881
 1578SOL     OW16369   2.335   1.146   5.702  0.2203  0.0666 -0.0498
 1578SOL    HW116370   2.320   1.129   5.795  1.8611 -1.4766 -0.0711
 1578SOL    HW216371   2.385   1.068   5.676  1.8153  0.6345  1.3047
 1579SOL     OW16372   2.879   3.122   7.112  0.0822 -0.6535 -0.4608
 1579SOL    HW116373   2.889   3.029   7.094  2.1297 -0.9006  1.9200
 1579SOL    HW216374   2.819   3.154   7.045 -1.0430  1.1490  1.3934
 1580SOL     OW16375   0.944   1.341   8.523 -0.2423  0.4540 -0.8037
 1580SOL    HW116376   1.016   1.385   8.476  0.7266 -1.2759 -0.9410
 1580SOL    HW216377   0.974   1.252   8.504 -2.4716 -0.2766 -0.8552
 1581SOL     OW16378   3.137   3.995   8.757  0.5328 -0.0757  0.0723
 1581SOL    HW116379   3.196   4.071   8.749  2.0155 -1.0783  1.3987
 1581SOL    HW216380   3.071   4.042   8.807  0.4414  2.4098 -2.3711
 1582SOL     OW16381   2.482   1.493  11.404  0.0797 -0.3920  0.0943
 1582SOL    HW116382   2.441   1.476  11.489  0.4334  0.6197  0.4651
 1582SOL    HW216383   2.573   1.504  11.431 -0.0642  0.9048  0.0456
 1583SOL     OW16384   2.306   1.953   9.099 -0.4192 -0.0354 -0.2039
 1583SOL    HW116385   2.239   1.890   9.071 -0.3820  0.0324 -0.4520
 1583SOL    HW216386   2.364   1.884   9.131  0.5850  1.1808  0.5897
 1584SOL     OW16387   0.386   2.381   0.221  0.2610 -0.2672 -0.2289
 1584SOL    HW116388   0.417   2.323   0.151  0.7533  0.4694 -0.6374
 1584SOL    HW216389   0.294   2.362   0.204  0.4850 -0.1671 -1.5848
 1585SOL     OW16390   1.330   3.154   8.341 -0.0878  0.2438 -0.5011
 1585SOL    HW116391   1.341   3.165   8.435  1.0533 -1.8691 -0.3811
 1585SOL    HW216392   1.414   3.191   8.315 -1.2186  1.5476 -2.2547
 1586SOL     OW16393   1.752   4.159   7.305  0.8925 -0.1961 -0.2156
 1586SOL    HW116394   1.697   4.124   7.235 -0.0505  0.8626 -0.0099
 1586SOL    HW216395   1.768   4.086   7.365  0.2334 -0.6995 -0.6459
 1587SOL     OW16396   1.421   0.814   6.635 -0.1916 -0.6350 -0.1079
 1587SOL    HW116397   1.333   0.837   6.604 -0.1642  0.6336  0.7602
 1587SOL    HW216398   1.429   0.724   6.602  0.9841 -0.9728  1.0955
 1588SOL     OW16399   4.184   0.887   6.044  0.0052 -0.1818  0.2177
 1588SOL    HW116400   4.250   0.917   6.106  0.0369 -0.2233  0.2042
 1588SOL    HW216401   4.145   0.815   6.094 -1.6985  1.1681  0.8182
 1589SOL     OW16402   4.269   4.024  17.071  0.6544  0.3869 -0.3051
 1589SOL    HW116403   4.211   3.991  17.003 -1.0731 -0.9605  1.8391
 1589SOL    HW216404   4.300   3.939  17.103 -0.4017 -0.4412 -1.5264
 1590SOL     OW16405   1.703   2.154   2.124 -0.1929 -0.4809 -0.0747
 1590SOL    HW116406   1.725   2.079   2.179 -3.0106 -0.1735  1.4563
 1590SOL    HW216407   1.769   2.217   2.154 -0.9239  0.7004 -0.9445
 1591SOL     OW16408   2.486   4.222   7.424 -0.2383  0.2556  0.1018
 1591SOL    HW116409   2.434   4.168   7.365  0.0762 -2.1780  2.0770
 1591SOL    HW216410   2.519   4.288   7.363  0.9094  0.2977  0.7727
 1592SOL     OW16411   3.745   3.137   2.515  0.4663 -0.1962  0.1436
 1592SOL    HW116412   3.664   3.168   2.475  1.1489  4.0995  2.1188
 1592SOL    HW216413   3.812   3.195   2.477 -0.0672  0.2001 -0.2032
 1593SOL     OW16414   0.432   0.358   2.994 -0.1334 -0.3545  0.3376
 1593SOL    HW116415   0.407   0.299   2.923 -1.7990  1.3866 -0.5149
 1593SOL    HW216416   0.522   0.326   2.997 -0.4010 -1.0738  0.6698
 1594SOL     OW16417   2.057   2.458  11.922 -0.1957 -0.0714 -0.0927
 1594SOL    HW116418   2.136   2.490  11.965 -0.1461 -0.7286  0.3081
 1594SOL    HW216419   2.104   2.387  11.877 -3.0368 -3.0402  1.6422
 1595SOL     OW16420   4.423   4.018   9.863  0.8715 -0.0216  0.6168
 1595SOL    HW116421   4.338   3.974   9.854  0.8136  0.1791  0.1772
 1595SOL    HW216422   4.472   3.956   9.809  0.8474 -0.6351  1.2914
 1596SOL     OW16423   0.943   2.659   7.102 -0.6602 -0.2483 -0.3879
 1596SOL    HW116424   0.900   2.719   7.163  0.2794  0.1369 -0.0989
 1596SOL    HW216425   0.898   2.577   7.122 -1.3763 -0.4982 -3.0048
 1597SOL     OW16426   4.004   3.904  15.245 -0.1079  0.1594  0.3004
 1597SOL    HW116427   3.935   3.840  15.229 -0.5636  1.1041 -1.5277
 1597SOL    HW216428   3.960   3.988  15.230 -0.6793 -0.3720 -0.9711
 1598SOL     OW16429   3.598   4.142  15.291 -0.4408  0.0725 -0.1347
 1598SOL    HW116430   3.557   4.156  15.376 -3.5691  1.3294 -1.8534
 1598SOL    HW216431   3.546   4.196  15.231  1.8383  0.5080 -1.6951
 1599SOL     OW16432   4.488   2.922   1.042  0.1103 -0.7871 -0.0846
 1599SOL    HW116433   4.457   2.927   1.132 -1.1397  1.5895 -0.6399
 1599SOL    HW216434   4.520   3.010   1.025  1.9583 -1.8977 -2.3164
 1600SOL     OW16435   1.013   1.908  15.324 -0.1255 -0.4031  0.9494
 1600SOL    HW116436   0.968   1.824  15.329 -0.3796 -0.2327  1.4839
 1600SOL    HW216437   1.073   1.884  15.253 -1.5517 -1.4363  0.1187
 1601SOL     OW16438   3.627   3.426   4.104  0.8880  0.5658  0.1756
 1601SOL    HW116439   3.664   3.463   4.184  1.6669 -1.9137  0.9785
 1601SOL    HW216440   3.701   3.379   4.066  0.3295  0.0318 -0.2490
 1602SOL     OW16441   0.676   4.534   6.306  0.1479  0.0782  0.0190
 1602SOL    HW116442   0.747   4.477   6.276 -1.2522 -1.5826 -0.1207
 1602SOL    HW216443   0.671   4.601   6.239  1.4811 -1.6897 -1.8770
 1603SOL     OW16444   1.268   4.351   5.928 -0.0799  0.1713 -0.0792
 1603SOL    HW116445   1.318   4.406   5.987  0.4041 -0.4526  0.0916
 1603SOL    HW216446   1.182   4.389   5.945 -0.1836  0.5231 -1.3976
 1604SOL     OW16447   3.847   0.075   5.233 -0.1787 -0.1390 -0.0140
 1604SOL    HW116448   3.781   0.006   5.221  0.9419 -1.1844 -0.1362
 1604SOL    HW216449   3.921   0.029   5.194 -0.6618  0.7479 -1.9643
 1605SOL     OW16450   1.051   3.257   6.106  0.5251 -0.7223  0.3478
 1605SOL    HW116451   0.993   3.287   6.176  0.1599 -2.8808  0.9565
 1605SOL    HW216452   1.027   3.165   6.112  2.6886 -1.2814  0.4129
 1606SOL     OW16453   4.632   2.938  11.863  0.5641 -0.0904  0.0438
 1606SOL    HW116454   4.607   2.952  11.954  0.5986  0.5371 -0.0444
 1606SOL    HW216455   4.578   2.860  11.848  1.5765 -1.0687  1.5329
 1607SOL     OW16456   1.676   0.948   2.624  0.0539  0.6663  0.5883
 1607SOL    HW116457   1.653   0.918   2.712  1.4769  0.0071  0.7378
 1607SOL    HW216458   1.664   1.042   2.637 -2.6157  0.5369 -0.9029
 1608SOL     OW16459   3.984   0.373  13.502 -0.0786  0.3965  0.8109
 1608SOL    HW116460   3.900   0.404  13.535 -0.8166 -1.1561  0.3966
 1608SOL    HW216461   3.977   0.412  13.415 -0.7493 -1.3720  0.0763
 1609SOL     OW16462   0.978   2.435   1.038 -0.8474  0.0909  0.4161
 1609SOL    HW116463   1.041   2.458   0.969 -1.9691 -0.0568 -0.6692
 1609SOL    HW216464   0.940   2.521   1.058  0.2231  0.4909  0.7569
 1610SOL     OW16465   3.988   1.908   2.085 -0.4524 -0.2802 -0.4344
 1610SOL    HW116466   4.072   1.943   2.055 -0.4337  0.4214  0.4211
 1610SOL    HW216467   3.990   1.950   2.171 -1.2613 -1.1724  0.0076
 1611SOL     OW16468   0.177   4.103   9.272 -0.0652  0.0358  0.3360
 1611SOL    HW116469   0.252   4.050   9.248 -0.4617 -0.6898  0.7029
 1611SOL    HW216470   0.162   4.094   9.366 -1.1869  0.3086  0.1838
 1612SOL     OW16471   0.926   1.089   2.495 -0.4528  0.9029  0.7466
 1612SOL    HW116472   0.901   1.139   2.573 -2.0887  0.8484  0.2537
 1612SOL    HW216473   1.005   1.054   2.536  1.4052  0.5462 -3.1581
 1613SOL     OW16474   3.527   4.564   5.755 -1.1145  0.6652  0.1220
 1613SOL    HW116475   3.435   4.588   5.752 -0.4070  3.7496  2.8772
 1613SOL    HW216476   3.553   4.540   5.666 -1.9688 -0.7742  0.2772
 1614SOL     OW16477   1.714   2.885   3.756 -0.4646  0.0771  0.0095
 1614SOL    HW116478   1.752   2.797   3.751 -0.1166  0.1749  0.8467
 1614SOL    HW216479   1.638   2.882   3.814  0.3274 -2.3310  0.9306
 1615SOL     OW16480   3.118   2.267  16.582  0.0203 -0.1442 -0.1208
 1615SOL    HW116481   3.161   2.352  16.595 -1.0766  0.4567 -0.3133
 1615SOL    HW216482   3.113   2.259  16.487 -1.2752  2.4220 -0.2849
 1616SOL     OW16483   2.134   1.542  13.029  0.1473 -0.7854  0.5289
 1616SOL    HW116484   2.062   1.605  13.022 -0.1494 -1.2059 -0.2443
 1616SOL    HW216485   2.096   1.466  12.984 -0.9047 -0.4982  0.9284
 1617SOL     OW16486   1.578   0.181   0.898 -0.1457  0.2334  0.1480
 1617SOL    HW116487   1.639   0.143   0.835  0.0011 -0.8878  0.9511
 1617SOL    HW216488   1.604   0.273   0.890 -4.3157  1.4961  0.9532
 1618SOL     OW16489   2.268   0.416   2.323 -0.2295 -0.4053  0.7500
 1618SOL    HW116490   2.176   0.390   2.332 -1.1732  2.6668 -0.0906
 1618SOL    HW216491   2.308   0.373   2.399 -1.2971  0.1535  1.6405
 1619SOL     OW16492   2.006   3.409   7.997 -0.1629  0.8454 -0.4314
 1619SOL    HW116493   2.019   3.328   8.046 -0.5597  1.4508  0.6702
 1619SOL    HW216494   2.070   3.460   8.046  0.6458  0.5780 -1.2124
 1620SOL     OW16495   1.567   1.159   1.007 -0.2032  0.2444 -0.3841
 1620SOL    HW116496   1.574   1.247   1.045 -1.5182 -0.8112  2.3113
 1620SOL    HW216497   1.495   1.180   0.947 -1.0779 -0.1440  0.5259
 1621SOL     OW16498   4.683   1.551   9.895 -0.3369  0.4352  0.0651
 1621SOL    HW116499   4.630   1.612   9.946  2.1740  1.6493  1.1821
 1621SOL    HW216500   4.733   1.616   9.845  1.0989 -0.8580 -0.1814
 1622SOL     OW16501   1.848   1.203   5.160  0.3051  0.6382  0.2446
 1622SOL    HW116502   1.857   1.109   5.148  1.0356  0.5395  1.5139
 1622SOL    HW216503   1.765   1.220   5.207  0.6849 -0.4198  1.2927
 1623SOL     OW16504   2.701   4.083  15.278  0.7120 -0.0616  0.2491
 1623SOL    HW116505   2.713   4.157  15.337  3.0367  0.3736 -0.7772
 1623SOL    HW216506   2.699   4.018  15.348  0.9919 -1.3338 -0.9308
 1624SOL     OW16507   4.115   0.413  14.716 -0.2223 -0.3217 -0.6752
 1624SOL    HW116508   4.116   0.417  14.811  1.5427 -1.3191 -0.6547
 1624SOL    HW216509   4.022   0.432  14.706 -0.8672 -2.7414  0.7474
 1625SOL     OW16510   1.368   4.368   4.053 -0.5319 -0.2307  0.0491
 1625SOL    HW116511   1.319   4.409   4.125 -0.7942 -1.9519  0.8397
 1625SOL    HW216512   1.301   4.374   3.985 -0.7615  1.4228  0.4106
 1626SOL     OW16513   0.197   0.462   5.387  0.5099  0.1812  0.2073
 1626SOL    HW116514   0.210   0.501   5.473  0.7598 -0.1611  0.3250
 1626SOL    HW216515   0.126   0.408   5.422  1.1340  0.1263  1.4067
 1627SOL     OW16516   4.056   4.189  13.929  0.5216  0.3032  0.1944
 1627SOL    HW116517   3.987   4.219  13.989 -1.3224 -2.2864 -0.6061
 1627SOL    HW216518   4.128   4.237  13.968 -0.7850  1.0987  1.6412
 1628SOL     OW16519   2.621   1.749  14.315  0.4190 -0.1859 -0.3037
 1628SOL    HW116520   2.575   1.827  14.284  0.0087 -0.3972 -0.2120
 1628SOL    HW216521   2.554   1.681  14.315  2.1343 -1.8774 -1.1060
 1629SOL     OW16522   4.232   3.344   4.529 -0.1787  0.1049  0.1987
 1629SOL    HW116523   4.237   3.249   4.522 -2.1112 -0.0754  1.2241
 1629SOL    HW216524   4.138   3.348   4.547  0.0092  2.5096  0.7205
 1630SOL     OW16525   0.909   2.641   2.678  0.6236 -0.7128  0.0401
 1630SOL    HW116526   0.829   2.631   2.731 -0.0521  2.2044 -0.4267
 1630SOL    HW216527   0.907   2.732   2.648  1.2006 -0.5184  0.6136
 1631SOL     OW16528   2.021   2.042   4.864  0.2662  0.2939 -0.0059
 1631SOL    HW116529   2.061   2.128   4.860  3.7552 -1.3771 -0.7084
 1631SOL    HW216530   1.949   2.051   4.926 -0.8853 -0.6800 -1.1890
 1632SOL     OW16531   3.312   3.869  10.002  0.2086  0.3401  0.0689
 1632SOL    HW116532   3.332   3.819   9.923 -0.4972  1.9161 -1.1102
 1632SOL    HW216533   3.310   3.951   9.952  2.2507 -1.1991 -2.5576
 1633SOL     OW16534   2.964   1.500  14.948  0.3004 -1.1126  0.7544
 1633SOL    HW116535   2.997   1.524  14.861 -4.5179  0.8368 -0.5096
 1633SOL    HW216536   2.881   1.545  14.938  0.4809 -0.7214  0.9946
 1634SOL     OW16537   3.121   1.348  14.073 -0.1857 -0.0124 -0.2739
 1634SOL    HW116538   3.131   1.306  14.158  1.5465  1.7418  0.3918
 1634SOL    HW216539   3.036   1.391  14.079  0.9796  2.1751  0.7252
 1635SOL     OW16540   2.836   0.325   4.912  0.1797  0.1337 -0.0791
 1635SOL    HW116541   2.839   0.401   4.970 -0.3330  0.0007  0.1188
 1635SOL    HW216542   2.815   0.372   4.831 -0.7134 -1.6218 -0.8621
 1636SOL     OW16543   1.629   4.161   4.531  0.1313 -0.3837 -0.0524
 1636SOL    HW116544   1.582   4.206   4.461 -0.5365 -0.3523  0.4141
 1636SOL    HW216545   1.594   4.072   4.523  1.0785 -0.5298 -2.4759
 1637SOL     OW16546   0.942   2.040   9.096 -0.0321 -0.0374 -0.1683
 1637SOL    HW116547   0.879   2.070   9.162  0.4221  0.3778  0.0807
 1637SOL    HW216548   0.995   1.975   9.142  0.9790  0.5153 -0.5570
 1638SOL     OW16549   2.705   1.995   5.955 -0.4504  0.2984  0.0803
 1638SOL    HW116550   2.694   2.085   5.925  1.9130  0.5301 -0.0466
 1638SOL    HW216551   2.621   1.979   6.000  0.4617  0.1026  1.7202
 1639SOL     OW16552   2.530   0.368   1.170 -0.2231  0.3042  0.2613
 1639SOL    HW116553   2.448   0.319   1.183  0.2990 -0.9626 -1.3167
 1639SOL    HW216554   2.577   0.285   1.162 -1.4520 -0.4950  1.1954
 1640SOL     OW16555   1.947   2.618   1.732  0.3661 -0.0923 -0.1083
 1640SOL    HW116556   2.012   2.625   1.662  0.5190  1.2402  0.1582
 1640SOL    HW216557   1.940   2.704   1.774  3.2209 -0.1412  0.4652
 1641SOL     OW16558   2.588   2.887   7.072  0.1191 -0.5663 -0.9029
 1641SOL    HW116559   2.587   2.980   7.052 -2.0853  0.1827  2.5070
 1641SOL    HW216560   2.682   2.886   7.085  0.1562  2.9429 -1.0064
 1642SOL     OW16561   2.145   2.116  10.388  0.1131  0.6583 -0.1875
 1642SOL    HW116562   2.209   2.181  10.358  1.8468 -1.0315 -0.1399
 1642SOL    HW216563   2.083   2.177  10.427 -0.1158  1.1496 -1.3073
 1643SOL     OW16564   3.901   3.631   5.538 -0.0558 -0.5520  0.8546
 1643SOL    HW116565   3.939   3.552   5.577  2.1342  0.2198  0.2730
 1643SOL    HW216566   3.949   3.662   5.461 -0.7085  1.3579  1.2078
 1644SOL     OW16567   3.799   3.661   2.882  0.0157 -0.7661 -0.4438
 1644SOL    HW116568   3.795   3.642   2.975  0.6894  1.1492 -0.0211
 1644SOL    HW216569   3.722   3.713   2.861  0.1546  0.2217  1.4801
 1645SOL     OW16570   1.639   0.865  13.940  0.2027 -0.0173  0.0276
 1645SOL    HW116571   1.716   0.891  13.990  0.1616  0.5794 -0.2199
 1645SOL    HW216572   1.636   0.773  13.966 -0.9418  0.0073 -0.0322
 1646SOL     OW16573   2.110   3.921   4.527  0.0564  0.3246  0.2180
 1646SOL    HW116574   2.132   3.914   4.434 -1.3484 -0.0733 -0.0891
 1646SOL    HW216575   2.018   3.936   4.506  0.2881  0.7215 -0.5376
 1647SOL     OW16576   0.068   3.109   3.373 -0.5685 -0.1919  0.2295
 1647SOL    HW116577   0.059   3.129   3.280  1.0099 -0.6367 -0.0100
 1647SOL    HW216578   0.050   3.015   3.374 -2.3119  0.1321 -0.3707
 1648SOL     OW16579   0.528   3.885   7.718  0.4395 -0.5429 -0.3030
 1648SOL    HW116580   0.617   3.915   7.737  1.0854 -1.5321 -1.7596
 1648SOL    HW216581   0.483   3.900   7.801 -0.5594  0.9294 -1.0960
 1649SOL     OW16582   2.482   4.532   4.818  0.0669 -0.0799 -0.2602
 1649SOL    HW116583   2.455   4.615   4.859  1.8533 -0.4395  1.6622
 1649SOL    HW216584   2.395   4.495   4.805  0.9304 -2.2777  0.2373
 1650SOL     OW16585   3.326   1.811   9.950  0.6037  0.1402  0.0962
 1650SOL    HW116586   3.345   1.810  10.043  2.3686 -0.4766 -0.2836
 1650SOL    HW216587   3.235   1.840   9.955  0.8252  0.9577 -0.5496
 1651SOL     OW16588   3.057   4.298   7.043  0.1280  0.0050 -0.5161
 1651SOL    HW116589   2.983   4.348   7.007  0.8323 -1.3052 -3.7798
 1651SOL    HW216590   3.128   4.333   6.989 -1.4047  1.4418 -1.6294
 1652SOL     OW16591   1.795   0.334   0.311  0.2615 -0.4814 -0.1501
 1652SOL    HW116592   1.767   0.256   0.263 -0.6629 -0.0335 -0.3272
 1652SOL    HW216593   1.733   0.326   0.383  0.5052  0.8446  0.2099
 1653SOL     OW16594   4.451   0.172   2.510 -0.0775  0.2514  0.9734
 1653SOL    HW116595   4.407   0.137   2.433  0.5936  0.9742  0.2617
 1653SOL    HW216596   4.539   0.188   2.476 -0.3616 -0.9496 -0.2712
 1654SOL     OW16597   4.041   3.927   7.350  0.2903  0.0453 -0.2187
 1654SOL    HW116598   3.994   3.961   7.426 -0.2721 -0.6746 -0.2476
 1654SOL    HW216599   4.017   3.991   7.282  1.0090 -1.0112 -1.4728
 1655SOL     OW16600   0.486   3.822   8.167 -0.0150 -0.1082  0.3914
 1655SOL    HW116601   0.433   3.761   8.116  1.1765  0.2599 -1.2520
 1655SOL    HW216602   0.424   3.894   8.179  1.0278  0.7249  0.7505
 1656SOL     OW16603   0.358   0.758   8.607 -0.2031  0.0631 -0.2425
 1656SOL    HW116604   0.418   0.754   8.532 -0.0117  0.0858 -0.0909
 1656SOL    HW216605   0.298   0.825   8.575 -0.9673 -0.5050  0.0146
 1657SOL     OW16606   3.225   2.906   3.737 -0.0428  0.0077 -0.1041
 1657SOL    HW116607   3.234   2.912   3.832 -1.3783 -0.8148  0.0690
 1657SOL    HW216608   3.129   2.913   3.730  0.1595  2.6607 -0.2774
 1658SOL     OW16609   3.610   2.660   4.441  0.7268 -0.0189  0.0093
 1658SOL    HW116610   3.692   2.618   4.466  2.9544  3.6616 -1.1102
 1658SOL    HW216611   3.596   2.726   4.509 -0.0961  0.2775 -0.4433
 1659SOL     OW16612   1.135   4.385   0.982 -0.2053  0.2669 -0.1815
 1659SOL    HW116613   1.092   4.423   0.905 -0.7376  0.0844  0.0230
 1659SOL    HW216614   1.174   4.458   1.029  0.5198 -0.1992 -0.0538
 1660SOL     OW16615   2.381   1.901   4.606  0.2313  0.3959 -0.5683
 1660SOL    HW116616   2.366   1.822   4.554 -0.0102  0.1123 -0.0612
 1660SOL    HW216617   2.323   1.967   4.569  0.5640 -0.0658 -1.9325
 1661SOL     OW16618   1.602   0.670   4.847  0.5609  0.4160 -0.1113
 1661SOL    HW116619   1.589   0.739   4.912 -0.1802  0.2661 -0.0946
 1661SOL    HW216620   1.605   0.719   4.764  1.3599 -0.9008 -0.8584
 1662SOL     OW16621   2.097   3.395   1.603 -0.2993  0.1700  0.0332
 1662SOL    HW116622   2.093   3.414   1.509  0.2417 -1.4528 -0.2987
 1662SOL    HW216623   2.184   3.357   1.598  0.2568  1.5357 -0.7570
 1663SOL     OW16624   0.361   0.305   4.127  0.3180  0.1964 -0.3229
 1663SOL    HW116625   0.320   0.250   4.194  2.2756  1.5449  1.9696
 1663SOL    HW216626   0.311   0.279   4.049 -0.7255 -1.7420  1.0014
 1664SOL     OW16627   3.098   2.159   8.291  0.2033 -0.0302  0.0872
 1664SOL    HW116628   3.101   2.243   8.246 -0.2849  1.4793  2.8613
 1664SOL    HW216629   3.191   2.139   8.291  0.3163  0.5106  1.9183
 1665SOL     OW16630   0.573   0.216   6.943  0.2779  0.7378 -0.8167
 1665SOL    HW116631   0.517   0.293   6.940  1.8378  1.9395  0.8967
 1665SOL    HW216632   0.521   0.146   6.903 -1.4215  0.4784  1.8734
 1666SOL     OW16633   4.162   0.305  15.721  0.0907  0.1308 -0.3709
 1666SOL    HW116634   4.110   0.226  15.712  1.8270 -1.0348 -0.3358
 1666SOL    HW216635   4.177   0.311  15.816  5.0360  1.3736 -1.2007
 1667SOL     OW16636   4.232   3.664   8.444  0.6192 -0.2798 -0.1419
 1667SOL    HW116637   4.250   3.578   8.484  0.8521 -0.5566 -0.8446
 1667SOL    HW216638   4.184   3.629   8.369  1.2917 -1.0411 -0.2194
 1668SOL     OW16639   1.365   0.257   3.780  0.1608  0.1609 -0.1650
 1668SOL    HW116640   1.270   0.259   3.791  0.0343  1.9910 -1.5910
 1668SOL    HW216641   1.398   0.343   3.803  0.9779 -0.1799 -0.0613
 1669SOL     OW16642   4.559   0.171   0.411  0.2254 -0.1804  0.5590
 1669SOL    HW116643   4.649   0.147   0.390  0.4994  0.4595  1.0062
 1669SOL    HW216644   4.517   0.087   0.394 -0.6819 -0.1920  2.8041
 1670SOL     OW16645   0.823   1.576  10.815  0.7489  0.1830  0.0610
 1670SOL    HW116646   0.758   1.514  10.850  2.1629 -0.5316  1.4050
 1670SOL    HW216647   0.860   1.619  10.892 -1.3030  0.5023  0.8785
 1671SOL     OW16648   2.222   0.668   5.129 -0.1589 -0.2849 -0.2923
 1671SOL    HW116649   2.160   0.604   5.163  0.1286  0.9591  2.5785
 1671SOL    HW216650   2.221   0.724   5.206 -0.2182 -1.3113  0.4368
 1672SOL     OW16651   0.876   0.416   3.135  0.1850  0.1276  0.4789
 1672SOL    HW116652   0.927   0.443   3.059  0.6812 -0.8020  0.4856
 1672SOL    HW216653   0.911   0.328   3.143  0.3164  0.1214 -0.2477
 1673SOL     OW16654   4.628   1.983   3.162 -0.0109 -0.2277  0.3338
 1673SOL    HW116655   4.575   2.037   3.220 -2.6634 -1.9021 -0.5060
 1673SOL    HW216656   4.554   1.935   3.124 -0.1492  2.8568 -3.3057
 1674SOL     OW16657   2.763   3.342   1.646  0.1700  0.3972 -0.1256
 1674SOL    HW116658   2.805   3.405   1.588  2.0293 -1.5442 -0.9009
 1674SOL    HW216659   2.672   3.362   1.625  0.5289  1.8836 -0.2701
 1675SOL     OW16660   1.313   0.559   6.558  0.9364  0.7653  0.7834
 1675SOL    HW116661   1.262   0.571   6.638 -1.3040  0.3765 -0.6026
 1675SOL    HW216662   1.285   0.472   6.531 -0.5562  1.5245 -0.0881
 1676SOL     OW16663   0.232   2.746   5.505  0.7466 -0.0162  0.4982
 1676SOL    HW116664   0.296   2.726   5.437 -3.4098 -0.9043 -3.0972
 1676SOL    HW216665   0.265   2.706   5.586 -0.3602  2.3514  2.1145
 1677SOL     OW16666   0.391   2.006   3.873  0.5084  0.2744  0.2642
 1677SOL    HW116667   0.303   2.037   3.856  0.2539  0.4149  1.8730
 1677SOL    HW216668   0.449   2.066   3.826  1.0233 -0.9822 -0.7331
 1678SOL     OW16669   0.429   0.263  12.088  0.4068 -0.0876 -0.2654
 1678SOL    HW116670   0.435   0.174  12.051 -0.6183 -0.4986  0.5582
 1678SOL    HW216671   0.512   0.300  12.058  1.2481 -1.8142 -0.0971
 1679SOL     OW16672   2.067   1.733   7.534  0.2468  0.2752 -0.5706
 1679SOL    HW116673   2.084   1.772   7.448 -1.0143  2.3797  0.1508
 1679SOL    HW216674   1.996   1.673   7.514  0.7336  0.0735 -1.7308
 1680SOL     OW16675   2.818   1.315   3.078  0.1049 -0.3479  0.0160
 1680SOL    HW116676   2.878   1.389   3.072  0.1059 -0.2505  1.2317
 1680SOL    HW216677   2.880   1.259   3.032 -0.5726 -1.3537  0.3133
 1681SOL     OW16678   3.927   4.193   3.257 -0.3475 -0.1273 -0.0137
 1681SOL    HW116679   3.996   4.165   3.318  0.6165 -0.9387 -1.4834
 1681SOL    HW216680   3.841   4.164   3.289  0.3577  0.6471  2.5586
 1682SOL     OW16681   0.715   3.143   7.321 -0.0889  0.0279 -0.5583
 1682SOL    HW116682   0.781   3.090   7.277  1.8043  0.2206  2.0306
 1682SOL    HW216683   0.777   3.195   7.372  2.1730 -2.8720 -0.3739
 1683SOL     OW16684   0.113   4.413   6.840 -0.1565 -0.2615  0.2038
 1683SOL    HW116685   0.044   4.352   6.814 -0.7575  0.8884 -0.9113
 1683SOL    HW216686   0.159   4.433   6.759  0.2124 -1.2680  0.1695
 1684SOL     OW16687   2.507   3.627   5.354  0.4028  0.2409  0.0454
 1684SOL    HW116688   2.526   3.716   5.385 -0.3167  0.0650  0.9879
 1684SOL    HW216689   2.595   3.608   5.320 -0.2473 -0.2688 -1.3564
 1685SOL     OW16690   3.163   0.718  14.406 -0.0113 -0.1927 -0.0104
 1685SOL    HW116691   3.132   0.662  14.477 -0.8267 -0.2209 -0.3917
 1685SOL    HW216692   3.122   0.667  14.336  0.9260 -1.4523  0.3601
 1686SOL     OW16693   4.381   2.895   9.774  1.1381 -0.0615 -0.0258
 1686SOL    HW116694   4.363   2.983   9.740 -0.0310 -0.4398 -0.3853
 1686SOL    HW216695   4.452   2.925   9.832  0.1845  0.1152  1.0453
 1687SOL     OW16696   3.005   0.366   5.275  0.3160 -0.6091 -0.0364
 1687SOL    HW116697   2.990   0.292   5.217 -3.2916  1.4408 -1.7144
 1687SOL    HW216698   3.043   0.332   5.356 -0.5820  3.2761  2.0536
 1688SOL     OW16699   0.011   2.196  11.252 -0.4317  0.9062  0.0194
 1688SOL    HW116700   4.719   2.287  11.255 -1.0804  0.6838  0.7964
 1688SOL    HW216701   0.069   2.189  11.328 -1.9041 -0.0925  1.0396
 1689SOL     OW16702   1.549   1.807   5.053  0.1078 -0.1991  0.7102
 1689SOL    HW116703   1.494   1.863   4.997  1.8033  0.7125 -0.0430
 1689SOL    HW216704   1.623   1.792   4.995 -0.1165 -0.4085  0.4766
 1690SOL     OW16705   0.463   4.038  14.022  0.1347 -0.5434 -0.1451
 1690SOL    HW116706   0.497   4.126  14.037 -0.2135 -0.6662  1.3506
 1690SOL    HW216707   0.464   4.003  14.111  1.4713  1.5997  0.6993
 1691SOL     OW16708   2.267   3.125   5.103  0.2345 -0.2240 -0.1499
 1691SOL    HW116709   2.197   3.063   5.086 -0.3091  0.0323  1.1790
 1691SOL    HW216710   2.328   3.125   5.029  0.4298 -0.1518  0.0105
 1692SOL     OW16711   1.615   3.255   4.578  0.6407  0.1998  0.0974
 1692SOL    HW116712   1.556   3.329   4.569  0.7582  0.2806  0.0020
 1692SOL    HW216713   1.576   3.200   4.510  0.7732  1.2322 -0.7915
 1693SOL     OW16714   0.772   0.677  11.093  0.0944  0.4824  0.2202
 1693SOL    HW116715   0.826   0.741  11.048  0.6244 -0.3953 -0.3695
 1693SOL    HW216716   0.684   0.705  11.067 -0.3514  1.8971  3.1638
 1694SOL     OW16717   3.635   2.521   0.088 -0.6695 -0.6019 -0.0417
 1694SOL    HW116718   3.655   2.453   0.024  1.3489 -1.5765  1.5960
 1694SOL    HW216719   3.714   2.524   0.142  0.8219 -0.9832 -2.2096
 1695SOL     OW16720   0.075   1.631   7.523  0.0469  0.4756  0.2912
 1695SOL    HW116721   0.123   1.689   7.582 -0.3398 -1.7577  2.8158
 1695SOL    HW216722   0.144   1.581   7.480 -0.9913 -1.1549  0.5168
 1696SOL     OW16723   0.368   0.470  14.131  0.1839  0.0252 -0.2043
 1696SOL    HW116724   0.413   0.553  14.148  2.4269 -1.1205 -0.6458
 1696SOL    HW216725   0.429   0.409  14.172  2.7281  2.8631  0.2601
 1697SOL     OW16726   0.021   1.860   8.388 -0.2323  0.4432 -0.9658
 1697SOL    HW116727   0.011   1.832   8.297 -2.6352 -0.7928 -0.3193
 1697SOL    HW216728   0.089   1.928   8.384  0.1369  0.1363  0.0635
 1698SOL     OW16729   3.771   0.262   7.729  0.4991  0.1672 -0.0420
 1698SOL    HW116730   3.714   0.185   7.729  1.5496 -0.6102 -0.0976
 1698SOL    HW216731   3.771   0.286   7.636 -1.9203 -0.3615 -0.1972
 1699SOL     OW16732   0.128   0.920   7.575 -0.0735  0.4796  0.2943
 1699SOL    HW116733   0.110   1.009   7.543 -0.7633 -0.0886 -0.8980
 1699SOL    HW216734   0.126   0.867   7.495  0.4062 -1.8288  1.8274
 1700SOL     OW16735   0.952   0.381  13.433  0.2614  0.3766  0.1742
 1700SOL    HW116736   0.975   0.459  13.381  0.3229 -0.7764 -1.5133
 1700SOL    HW216737   0.929   0.423  13.516 -0.6129 -2.7692  1.5091
 1701SOL     OW16738   2.686   1.902  17.225  0.0910  0.1572  0.5739
 1701SOL    HW116739   2.744   1.943  17.289 -1.1828  0.4402  1.5615
 1701SOL    HW216740   2.754   1.846  17.189 -1.2614 -0.0553 -1.6546
 1702SOL     OW16741   1.529   4.556   7.813  0.4485 -0.3775  0.2915
 1702SOL    HW116742   1.474   4.624   7.852  0.6571 -0.6666  1.0774
 1702SOL    HW216743   1.473   4.480   7.825 -0.7685  0.2738 -1.2708
 1703SOL     OW16744   0.699   3.146   6.937  0.0226  0.1361 -0.3868
 1703SOL    HW116745   0.737   3.076   6.990 -3.1301  0.0515  1.7546
 1703SOL    HW216746   0.764   3.211   6.960  2.4204 -1.3055 -3.1285
 1704SOL     OW16747   2.323   1.508  11.616  0.2270  0.4777 -0.1225
 1704SOL    HW116748   2.269   1.440  11.576  1.5229  0.2320 -1.4545
 1704SOL    HW216749   2.255   1.539  11.675 -0.2096  0.9346 -0.8606
 1705SOL     OW16750   1.585   1.471   9.358  0.9163  0.7649 -0.1210
 1705SOL    HW116751   1.582   1.410   9.284  0.7388 -0.5319  0.9720
 1705SOL    HW216752   1.633   1.419   9.422 -0.7606  0.4318  0.8495
 1706SOL     OW16753   1.411   0.876   2.430  0.5509  0.5329 -0.1956
 1706SOL    HW116754   1.502   0.865   2.402 -0.3637 -0.7917 -2.6783
 1706SOL    HW216755   1.422   0.911   2.518  0.6975  1.2080 -0.4812
 1707SOL     OW16756   1.274   1.743   7.092  0.0855 -0.2122 -0.3590
 1707SOL    HW116757   1.332   1.686   7.143 -1.8941 -2.1545 -0.3252
 1707SOL    HW216758   1.250   1.688   7.019 -0.6373 -0.3812  0.0103
 1708SOL     OW16759   0.670   3.406   9.352  0.5485  0.2841 -0.2697
 1708SOL    HW116760   0.647   3.499   9.352 -0.3810  0.0510 -0.3281
 1708SOL    HW216761   0.754   3.421   9.396 -0.2298 -0.3204  1.4281
 1709SOL     OW16762   4.087   0.607   3.637 -0.4140  0.3747  0.2491
 1709SOL    HW116763   4.022   0.561   3.691 -0.1889 -0.3799 -0.1215
 1709SOL    HW216764   4.075   0.693   3.677  1.1200  1.3755 -1.4550
 1710SOL     OW16765   3.130   2.423  14.047  0.0959  0.3502  0.2022
 1710SOL    HW116766   3.198   2.356  14.043  0.3663  0.5520  1.2447
 1710SOL    HW216767   3.068   2.394  13.980  1.1968  0.0885 -0.7094
 1711SOL     OW16768   3.684   0.916   2.855 -0.0266 -0.0017  0.1775
 1711SOL    HW116769   3.756   0.973   2.826 -1.1145 -0.1080 -2.6959
 1711SOL    HW216770   3.692   0.840   2.798 -0.6075  0.9484 -1.1748
 1712SOL     OW16771   2.251   1.102   4.108 -0.1672  0.0270  0.3276
 1712SOL    HW116772   2.218   1.165   4.172  2.6928  1.3850  0.4628
 1712SOL    HW216773   2.235   1.135   4.020  0.2409 -1.8430 -0.4589
 1713SOL     OW16774   3.003   4.709   0.294 -0.3409 -0.2925 -0.1455
 1713SOL    HW116775   2.984   0.058   0.254  1.1950 -0.4527 -1.2198
 1713SOL    HW216776   2.913   4.678   0.295  0.1345 -1.7033 -1.1005
 1714SOL     OW16777   3.188   3.483  16.561  0.6847  0.0941  0.4959
 1714SOL    HW116778   3.160   3.398  16.595 -0.2178 -0.0245 -0.5337
 1714SOL    HW216779   3.275   3.489  16.601  0.2411  0.7628  1.3499
 1715SOL     OW16780   0.210   4.196   4.989  0.0181  0.0404 -0.6233
 1715SOL    HW116781   0.183   4.137   5.059  0.9813  1.0509  0.6252
 1715SOL    HW216782   0.124   4.203   4.948  0.4619 -0.2678 -1.6060
 1716SOL     OW16783   0.938   2.441   7.408  0.3654 -0.0920 -0.3602
 1716SOL    HW116784   1.009   2.498   7.437  0.0742  0.7964 -1.3889
 1716SOL    HW216785   0.933   2.362   7.461 -1.0434 -0.2630 -0.7441
 1717SOL     OW16786   0.844   2.105   3.122  0.3148 -0.8722 -0.1112
 1717SOL    HW116787   0.776   2.141   3.066  1.3297  0.2416 -0.6364
 1717SOL    HW216788   0.873   2.041   3.058 -0.5446 -0.3981 -0.9752
 1718SOL     OW16789   1.284   0.722   0.208  0.1517 -0.4341 -0.5804
 1718SOL    HW116790   1.370   0.747   0.174  0.6647  0.2694  1.2254
 1718SOL    HW216791   1.251   0.687   0.126  1.0665 -1.3787 -0.5369
 1719SOL     OW16792   4.399   2.183   7.091  0.2624 -0.6681  0.3425
 1719SOL    HW116793   4.348   2.253   7.131  0.4536 -0.4874  0.2689
 1719SOL    HW216794   4.333   2.114   7.088  1.0840 -1.5147  1.9899
 1720SOL     OW16795   0.369   2.103   5.858 -0.8474  0.5597  0.2156
 1720SOL    HW116796   0.426   2.070   5.928 -0.4137  1.8321  0.4488
 1720SOL    HW216797   0.303   2.147   5.912 -0.7523  1.0756 -0.0987
 1721SOL     OW16798   3.011   4.260   3.567  0.5348  0.4105  0.0188
 1721SOL    HW116799   2.918   4.240   3.559  0.8396 -1.3787  1.0307
 1721SOL    HW216800   3.021   4.351   3.540  1.5842  0.4310  0.4671
 1722SOL     OW16801   0.729   0.411   3.374 -0.2239 -0.0191 -0.2981
 1722SOL    HW116802   0.783   0.425   3.296  1.3611 -0.5438  0.6907
 1722SOL    HW216803   0.714   0.316   3.372  1.5997 -0.3267  0.1054
 1723SOL     OW16804   1.527   4.104  15.401 -0.1732  0.0574 -0.1875
 1723SOL    HW116805   1.540   4.129  15.310  2.1268 -1.5121 -0.3089
 1723SOL    HW216806   1.603   4.139  15.449 -1.1405  4.5057 -1.8862
 1724SOL     OW16807   2.295   1.302   3.566 -0.0261 -0.1288  0.1316
 1724SOL    HW116808   2.262   1.213   3.563 -0.9045  0.1416  1.8177
 1724SOL    HW216809   2.353   1.309   3.490  0.1738  0.9748  0.3844
 1725SOL     OW16810   3.507   1.192   2.210  0.6218  0.4152  0.0360
 1725SOL    HW116811   3.503   1.150   2.124 -0.4714 -2.7073  1.6077
 1725SOL    HW216812   3.576   1.149   2.260 -0.4843 -1.9930 -0.4900
 1726SOL     OW16813   4.268   1.308   2.939  0.4016  0.3454  0.4575
 1726SOL    HW116814   4.317   1.235   2.977 -0.0205 -1.1592 -1.9453
 1726SOL    HW216815   4.185   1.267   2.918  2.0538 -2.6137 -0.2556
 1727SOL     OW16816   0.954   1.999   7.534  0.5993 -0.2169  0.2859
 1727SOL    HW116817   0.908   2.083   7.534  2.7968  0.9994 -0.5537
 1727SOL    HW216818   1.024   2.027   7.475 -0.6240 -0.6026 -1.3370
 1728SOL     OW16819   2.823   4.208  14.279 -0.8306 -0.3198  0.3618
 1728SOL    HW116820   2.904   4.160  14.258 -0.3039  1.8699 -2.6904
 1728SOL    HW216821   2.757   4.147  14.246 -1.1776 -1.2239  2.7145
 1729SOL     OW16822   2.454   3.905   2.802 -0.2443 -0.1785  0.4529
 1729SOL    HW116823   2.523   3.900   2.735 -0.3677 -4.4438  0.6995
 1729SOL    HW216824   2.486   3.979   2.854  0.0770  1.1214 -1.5522
 1730SOL     OW16825   0.468   4.004   2.357 -0.3805  0.2689  0.3067
 1730SOL    HW116826   0.496   4.028   2.269 -2.1440  1.1181 -0.0087
 1730SOL    HW216827   0.387   3.958   2.335 -0.9620  0.9762  1.0000
 1731SOL     OW16828   2.974   0.329   7.425 -0.2412 -0.4286  0.0740
 1731SOL    HW116829   2.909   0.336   7.355 -0.8095  2.2909  0.8684
 1731SOL    HW216830   2.973   0.420   7.454 -1.6598  0.0662 -1.4858
 1732SOL     OW16831   4.732   4.004   4.502  0.4436  1.1690 -0.2214
 1732SOL    HW116832   4.686   3.988   4.419 -0.6238  1.0081  0.3925
 1732SOL    HW216833   0.087   3.995   4.475  0.6646  1.5271  0.4089
 1733SOL     OW16834   0.081   4.390   2.673 -0.0699  0.1795 -0.4930
 1733SOL    HW116835   0.044   4.305   2.648 -0.0708  0.2347 -0.6844
 1733SOL    HW216836   0.157   4.365   2.725  0.6632  1.3535 -0.9845
 1734SOL     OW16837   0.256   0.202   1.620  0.3865  0.4920 -0.4762
 1734SOL    HW116838   0.219   0.163   1.699 -1.0280  1.6633 -0.5706
 1734SOL    HW216839   0.307   0.128   1.585 -1.8535 -2.4020  2.3530
 1735SOL     OW16840   3.027   3.595   8.476 -0.1222 -0.8143  0.4979
 1735SOL    HW116841   2.941   3.612   8.513 -0.5968 -1.0220 -0.5132
 1735SOL    HW216842   3.061   3.532   8.539 -1.1918 -1.1687  0.7161
 1736SOL     OW16843   3.609   4.478   5.503 -0.4160  0.3828 -0.2518
 1736SOL    HW116844   3.559   4.414   5.452 -1.0386 -0.0936  0.9546
 1736SOL    HW216845   3.607   4.557   5.450 -0.5029  0.7698  0.3219
 1737SOL     OW16846   4.551   3.613   3.106 -0.3006  0.2830  0.4071
 1737SOL    HW116847   4.541   3.579   3.195 -0.6790  0.2198  0.3372
 1737SOL    HW216848   4.483   3.554   3.074 -0.1804 -0.5016  1.6011
 1738SOL     OW16849   0.589   3.399   3.245 -0.0718  0.8478  0.3494
 1738SOL    HW116850   0.498   3.376   3.229  0.3184 -1.5437  1.6563
 1738SOL    HW216851   0.590   3.413   3.339  0.4486 -1.5423  0.7069
 1739SOL     OW16852   0.038   3.264   3.793  0.0056 -0.1182 -0.1532
 1739SOL    HW116853   0.019   3.356   3.776  1.4858 -0.0054 -1.2034
 1739SOL    HW216854   0.095   3.250   3.717 -0.6339  1.2448 -0.8883
 1740SOL     OW16855   2.578   1.911   8.760 -0.1246  0.1185  0.2410
 1740SOL    HW116856   2.601   1.838   8.817  2.2188  1.6277  1.2212
 1740SOL    HW216857   2.665   1.923   8.721 -0.3224 -0.3080 -0.3315
 1741SOL     OW16858   3.460   3.087  10.220  0.6509  0.0263 -0.1310
 1741SOL    HW116859   3.364   3.087  10.223  0.7181  0.1459  1.8938
 1741SOL    HW216860   3.486   3.075  10.311  2.1932 -1.7414 -0.8171
 1742SOL     OW16861   3.648   4.611   3.323 -0.4137 -0.2302  0.1333
 1742SOL    HW116862   3.697   4.662   3.259  1.1018  1.4870  2.6463
 1742SOL    HW216863   3.678   4.666   3.395  1.8660  0.2052 -1.1555
 1743SOL     OW16864   1.581   2.344   1.933 -0.2206  0.1165  0.4876
 1743SOL    HW116865   1.620   2.259   1.955  2.1243  0.7692 -1.1064
 1743SOL    HW216866   1.661   2.392   1.909  0.2807 -0.8091  0.3279
 1744SOL     OW16867   0.916   4.418   5.223 -0.1366 -0.0121 -0.3547
 1744SOL    HW116868   0.989   4.366   5.190 -0.3669 -0.2074 -0.5573
 1744SOL    HW216869   0.965   4.485   5.271 -1.3148 -0.1839  1.0669
 1745SOL     OW16870   0.979   0.218   5.899  0.3235 -0.3975  0.1665
 1745SOL    HW116871   0.892   0.221   5.860  0.8379  1.4701 -0.8251
 1745SOL    HW216872   0.956   0.166   5.976  0.7721 -0.3276  0.3453
 1746SOL     OW16873   1.162   3.921  15.587 -0.3918  0.5001 -0.0973
 1746SOL    HW116874   1.144   3.858  15.518 -0.3379  0.8679 -0.4515
 1746SOL    HW216875   1.164   4.000  15.532  1.5282 -0.3141 -1.1616
 1747SOL     OW16876   1.211   0.256   3.062 -0.0689 -0.3061  0.4794
 1747SOL    HW116877   1.193   0.219   3.148  0.0623  1.7306  1.3762
 1747SOL    HW216878   1.306   0.254   3.054 -0.1794 -1.7785 -0.4852
 1748SOL     OW16879   1.960   2.939  15.961 -0.5210  0.4786  0.1978
 1748SOL    HW116880   1.878   2.955  16.009 -0.6784  2.3631 -0.7064
 1748SOL    HW216881   1.923   2.938  15.873 -1.4835 -0.2937  0.6083
 1749SOL     OW16882   4.678   2.303   4.492  0.1466 -0.2051 -0.6610
 1749SOL    HW116883   4.696   2.375   4.432  0.4348  0.1699 -0.1229
 1749SOL    HW216884   4.597   2.265   4.459 -0.3451 -1.0202  1.4564
 1750SOL     OW16885   2.181   4.130   2.804 -0.6240 -0.3040  0.2416
 1750SOL    HW116886   2.232   4.081   2.869 -0.1236 -2.8788 -2.0961
 1750SOL    HW216887   2.237   4.207   2.787 -1.2902  0.5574  1.9249
 1751SOL     OW16888   3.274   1.880  10.222  0.0704  0.0604  0.1469
 1751SOL    HW116889   3.204   1.907  10.282  1.6086  0.7484  1.6218
 1751SOL    HW216890   3.329   1.958  10.229 -1.6623  1.0306  2.9582
 1752SOL     OW16891   0.153   1.872   3.074 -0.3925  0.2870 -0.1350
 1752SOL    HW116892   0.139   1.883   2.980 -1.4380 -1.4821 -0.1992
 1752SOL    HW216893   0.089   1.802   3.088  0.5385 -0.2388  1.4883
 1753SOL     OW16894   3.353   0.810   6.706  0.2373 -0.5682  0.4358
 1753SOL    HW116895   3.439   0.819   6.748 -0.2857  1.5983  1.0311
 1753SOL    HW216896   3.333   0.718   6.727  0.7636 -0.8971 -0.5262
 1754SOL     OW16897   2.030   0.493   0.377 -0.2464  0.3948 -0.5740
 1754SOL    HW116898   2.101   0.429   0.383 -0.1556  0.7233  2.2709
 1754SOL    HW216899   1.956   0.443   0.345 -0.3256  0.6469 -0.7888
 1755SOL     OW16900   3.129   0.294   2.112 -0.1216 -0.0221  0.1951
 1755SOL    HW116901   3.063   0.243   2.065 -0.6637  1.8673 -1.1161
 1755SOL    HW216902   3.100   0.303   2.203 -2.0160  1.7165 -0.5810
 1756SOL     OW16903   1.516   2.928   2.344 -0.5346 -0.3280 -0.3491
 1756SOL    HW116904   1.520   2.938   2.248  1.1505 -2.7690 -0.5308
 1756SOL    HW216905   1.447   2.861   2.350 -0.6766 -0.1460  0.0435
 1757SOL     OW16906   2.097   2.899   2.414 -0.2808  0.2978  0.1415
 1757SOL    HW116907   2.140   2.892   2.499  0.5819  0.3789 -0.2961
 1757SOL    HW216908   2.170   2.931   2.360 -0.6101  0.7983 -0.0079
 1758SOL     OW16909   3.426   3.040   4.790 -0.3221 -0.6456  0.9377
 1758SOL    HW116910   3.502   2.984   4.805  0.1254 -0.7739 -1.8208
 1758SOL    HW216911   3.364   2.968   4.776  0.1862 -0.6714 -1.1142
 1759SOL     OW16912   0.586   2.886  13.005  0.0179  0.5076  0.3933
 1759SOL    HW116913   0.565   2.924  12.920 -0.2989  3.1596  1.6557
 1759SOL    HW216914   0.555   2.797  12.987 -0.8779  0.8165  0.4303
 1760SOL     OW16915   4.372   0.759   5.856 -0.0881 -0.2443 -0.1676
 1760SOL    HW116916   4.336   0.780   5.770  0.2246  0.2958 -0.1652
 1760SOL    HW216917   4.313   0.807   5.913  1.4563  0.0053  1.2248
 1761SOL     OW16918   2.285   2.331  15.793 -1.1454 -0.3452  0.0977
 1761SOL    HW116919   2.356   2.287  15.840 -3.1023 -0.1499  3.2014
 1761SOL    HW216920   2.208   2.290  15.831 -0.6357 -2.7272 -1.3739
 1762SOL     OW16921   1.587   3.289   8.003  0.1005  0.8520  0.3010
 1762SOL    HW116922   1.567   3.371   8.048 -0.9533  0.4837  0.5045
 1762SOL    HW216923   1.618   3.228   8.071 -0.6950 -1.9901 -1.8570
 1763SOL     OW16924   4.700   4.620   3.395  0.4602 -0.4246  0.2076
 1763SOL    HW116925   4.677   4.652   3.482  0.6590  0.9043 -0.2399
 1763SOL    HW216926   4.657   4.685   3.340 -1.2758 -0.6754  1.2759
 1764SOL     OW16927   4.205   0.806   5.652 -0.7711 -0.2055 -0.7139
 1764SOL    HW116928   4.152   0.860   5.594  1.2981  1.1592 -1.3333
 1764SOL    HW216929   4.202   0.732   5.591  0.9481  0.5259 -1.7114
 1765SOL     OW16930   2.176   3.592   2.529  0.2826 -0.0447 -0.4776
 1765SOL    HW116931   2.122   3.605   2.451  0.5006 -0.7734 -0.7513
 1765SOL    HW216932   2.172   3.496   2.526  0.7083 -0.1009  1.1144
 1766SOL     OW16933   4.319   4.727   3.759 -0.3451 -0.4591  0.3175
 1766SOL    HW116934   4.243   0.004   3.815 -0.6544  1.1332 -0.4669
 1766SOL    HW216935   4.397   0.026   3.802  0.4831 -1.5592 -0.2570
 1767SOL     OW16936   0.836   0.042   8.506 -0.0626 -0.3333  0.5469
 1767SOL    HW116937   0.883   0.119   8.539 -1.3123 -0.3072  2.2633
 1767SOL    HW216938   0.795   0.005   8.584 -3.6206  0.5850 -0.9159
 1768SOL     OW16939   4.679   4.669   4.355 -0.4746 -0.2769 -0.4740
 1768SOL    HW116940   4.630   4.596   4.392 -2.3041  0.2907 -1.7696
 1768SOL    HW216941   4.656   0.004   4.415 -0.3372  0.1941 -0.9697
 1769SOL     OW16942   2.309   0.263   3.202  0.1084  0.0830  0.4045
 1769SOL    HW116943   2.339   0.172   3.205 -0.9439 -0.2277  1.4694
 1769SOL    HW216944   2.369   0.298   3.136  0.5337 -1.0878  0.1697
 1770SOL     OW16945   0.341   2.219   8.604 -0.1331 -0.2156 -0.2238
 1770SOL    HW116946   0.404   2.255   8.666  0.9495 -2.3043 -0.1042
 1770SOL    HW216947   0.329   2.134   8.647 -0.4370 -0.1523 -0.1830
 1771SOL     OW16948   1.529   1.034   2.021 -0.0155  0.1385  0.1784
 1771SOL    HW116949   1.434   1.025   2.025 -0.0285 -0.0720 -0.6542
 1771SOL    HW216950   1.560   0.999   2.105 -1.4287  2.1241  1.5419
 1772SOL     OW16951   0.639   3.136   1.562 -0.1927 -0.4043  0.3904
 1772SOL    HW116952   0.649   3.154   1.469 -1.1820 -0.0200  0.3574
 1772SOL    HW216953   0.687   3.204   1.609  0.9422 -1.7008  1.0864
 1773SOL     OW16954   2.794   0.309   6.720  0.5810 -0.8513 -0.2626
 1773SOL    HW116955   2.872   0.257   6.701  1.4401  1.9937 -4.5189
 1773SOL    HW216956   2.798   0.364   6.642 -1.2272  2.0716  1.6845
 1774SOL     OW16957   0.077   2.917  10.752 -0.2973 -0.0037  0.9424
 1774SOL    HW116958   0.012   2.909  10.822  0.1884  2.4800  1.6645
 1774SOL    HW216959   0.077   2.826  10.721  1.1237  0.3452 -0.1208
 1775SOL     OW16960   3.534   4.316   2.525  0.7775  0.2574 -0.7925
 1775SOL    HW116961   3.601   4.266   2.479 -0.5428 -0.9168 -1.4374
 1775SOL    HW216962   3.480   4.249   2.567  0.3578  0.0053 -1.7364
 1776SOL     OW16963   4.573   2.169   7.399 -0.2175 -0.1379  0.7231
 1776SOL    HW116964   4.615   2.157   7.484 -1.7699 -0.9433  1.3654
 1776SOL    HW216965   4.527   2.252   7.407  2.0326  1.2103 -0.1748
 1777SOL     OW16966   0.829   3.590   3.557  0.1612  0.1132  0.6277
 1777SOL    HW116967   0.840   3.651   3.630 -0.0792  0.5678  0.2833
 1777SOL    HW216968   0.914   3.547   3.564  1.3881  2.4281  0.0669
 1778SOL     OW16969   1.172   2.057   5.537  0.0416 -0.4333 -0.6507
 1778SOL    HW116970   1.171   1.977   5.590 -1.8997 -1.3929 -2.1134
 1778SOL    HW216971   1.179   2.009   5.454  0.3828  0.6397 -1.2391
 1779SOL     OW16972   0.362   4.672   5.883 -0.2802  0.2574  0.0425
 1779SOL    HW116973   0.379   4.621   5.962 -0.1980  0.5168  0.1897
 1779SOL    HW216974   0.269   4.655   5.863 -0.7306  1.8308  0.8470
 1780SOL     OW16975   0.411   2.342   3.881 -0.1675 -0.3668 -0.3200
 1780SOL    HW116976   0.376   2.386   3.803  1.1574  0.0415 -0.6965
 1780SOL    HW216977   0.467   2.277   3.839  0.8654 -0.4811  1.2446
 1781SOL     OW16978   0.924   3.748   4.628 -0.2225  0.1350 -0.4802
 1781SOL    HW116979   0.893   3.722   4.715  2.5893 -3.4575 -0.5545
 1781SOL    HW216980   0.842   3.777   4.588 -0.6538 -0.4155 -0.0105
 1782SOL     OW16981   2.455   1.041   7.230 -0.1484  0.3872  0.2206
 1782SOL    HW116982   2.474   1.062   7.138 -2.2008  3.9198  0.5974
 1782SOL    HW216983   2.526   0.978   7.242  1.5084  1.5088 -3.4699
 1783SOL     OW16984   0.975   0.540   4.995  0.3081  0.2438 -0.8547
 1783SOL    HW116985   1.047   0.572   5.048  0.3861 -2.5948  0.7763
 1783SOL    HW216986   0.923   0.619   4.984 -1.1795 -0.5237  0.6084
 1784SOL     OW16987   1.099   3.040   8.998  0.0338 -0.3617 -0.0192
 1784SOL    HW116988   1.137   2.952   8.998  0.7878 -0.0421  0.1615
 1784SOL    HW216989   1.019   3.027   9.049 -0.1927  1.1626  0.0117
 1785SOL     OW16990   1.388   3.185   5.953 -0.8957 -0.1071 -0.0140
 1785SOL    HW116991   1.331   3.112   5.976 -0.8252  0.5529  2.2433
 1785SOL    HW216992   1.334   3.231   5.889  1.9165  2.6697 -0.3935
 1786SOL     OW16993   4.454   4.414   2.196  0.1244 -0.1357  0.3570
 1786SOL    HW116994   4.464   4.323   2.170  0.6025  0.3437 -1.1305
 1786SOL    HW216995   4.535   4.446   2.155 -0.2397  1.3383  0.7767
 1787SOL     OW16996   4.281   0.385  13.565  0.2277  0.1846  0.4511
 1787SOL    HW116997   4.214   0.435  13.517  0.5194 -0.8040 -0.9799
 1787SOL    HW216998   4.364   0.420  13.534  0.0472  1.2905  1.2160
 1788SOL     OW16999   2.584   3.154   3.197 -0.0483  0.5625 -0.6463
 1788SOL    HW117000   2.497   3.175   3.163 -1.2813 -1.3935  1.3501
 1788SOL    HW217001   2.603   3.064   3.171 -0.7745  0.5294 -1.0491
 1789SOL     OW17002   3.218   2.899   4.026  0.8776 -0.0682 -0.0180
 1789SOL    HW117003   3.276   2.893   4.103 -1.0865  1.4622  1.5627
 1789SOL    HW217004   3.136   2.909   4.073  1.1754  1.0410  0.2681
 1790SOL     OW17005   0.455   3.741   6.933  0.3784  0.3744 -0.8478
 1790SOL    HW117006   0.408   3.812   6.978  1.2520  0.6318 -0.3607
 1790SOL    HW217007   0.544   3.773   6.918  1.3742 -1.6272  0.9036
 1791SOL     OW17008   0.146   0.672   1.063  0.5081  0.0492 -0.5066
 1791SOL    HW117009   0.217   0.614   1.035  0.1142 -0.1073 -1.1737
 1791SOL    HW217010   0.066   0.622   1.050  0.9975 -0.5822 -1.0489
 1792SOL     OW17011   1.242   4.272   1.784 -0.1950  0.0808  0.0217
 1792SOL    HW117012   1.275   4.272   1.694  0.0224  0.4487  0.1025
 1792SOL    HW217013   1.222   4.365   1.796  2.2065  0.8919 -2.1463
 1793SOL     OW17014   2.521   3.288  12.309  0.1303  0.7698  0.0122
 1793SOL    HW117015   2.471   3.216  12.346  0.8961 -0.3248 -1.0896
 1793SOL    HW217016   2.454   3.356  12.311 -0.0925  0.4919  3.0823
 1794SOL     OW17017   3.807   4.117  12.482 -0.0342 -0.0708 -0.1203
 1794SOL    HW117018   3.858   4.112  12.564  0.5109  1.1903 -0.3850
 1794SOL    HW217019   3.749   4.190  12.503 -0.2767 -0.4878  0.6886
 1795SOL     OW17020   1.814   3.248   5.425 -0.1460  0.4433  0.3218
 1795SOL    HW117021   1.810   3.159   5.388 -0.4594  0.6039 -0.0336
 1795SOL    HW217022   1.909   3.262   5.427 -0.0847 -0.0781  0.8647
 1796SOL     OW17023   0.469   3.240   2.567 -0.1731  0.2910 -0.1057
 1796SOL    HW117024   0.547   3.291   2.544  0.5437  0.4642  2.7339
 1796SOL    HW217025   0.484   3.209   2.656 -2.1708 -0.0482  0.1054
 1797SOL     OW17026   2.317   4.513   7.962  0.1461 -0.1654  0.1656
 1797SOL    HW117027   2.347   4.461   8.037  1.9298 -1.1761 -1.2574
 1797SOL    HW217028   2.223   4.522   7.978  0.3080 -0.1832  1.1809
 1798SOL     OW17029   1.753   3.588  17.421 -0.0831 -0.2594  0.2324
 1798SOL    HW117030   1.846   3.607  17.429 -0.4863  0.9254  2.1642
 1798SOL    HW217031   1.733   3.675  17.385 -0.2581  0.5062  2.1552
 1799SOL     OW17032   3.435   4.470  11.352 -0.0416 -0.0797  0.0543
 1799SOL    HW117033   3.457   4.522  11.274  0.5841  1.2979  1.1455
 1799SOL    HW217034   3.501   4.491  11.418 -0.6868 -0.4389  0.8185
 1800SOL     OW17035   2.968   1.958  17.014  0.1837 -0.3928 -0.0691
 1800SOL    HW117036   2.999   1.898  17.082  1.7725  1.3119  0.7160
 1800SOL    HW217037   2.894   1.907  16.980 -0.3299  0.5917 -0.4308
 1801SOL     OW17038   0.165   1.471   0.930 -0.1505 -0.7729 -0.0745
 1801SOL    HW117039   0.153   1.485   0.836 -1.5577  0.4370  0.2828
 1801SOL    HW217040   0.200   1.554   0.962 -0.9595 -0.5824  0.3104
 1802SOL     OW17041   1.268   0.717  14.701  0.4826 -0.2666  0.7888
 1802SOL    HW117042   1.306   0.805  14.691  2.3063 -1.2258 -0.8834
 1802SOL    HW217043   1.275   0.679  14.614 -0.2905 -0.0248  0.6204
 1803SOL     OW17044   2.811   1.535   6.304  0.3339 -0.1331 -0.2783
 1803SOL    HW117045   2.886   1.508   6.251 -0.7431 -1.0540 -1.3497
 1803SOL    HW217046   2.855   1.610   6.343 -1.0997  0.8809 -0.6199
 1804SOL     OW17047   0.651   0.452   3.797  0.0871  0.3546  0.5060
 1804SOL    HW117048   0.652   0.380   3.860  1.0335 -0.6361 -0.6441
 1804SOL    HW217049   0.598   0.515   3.846  0.3331  0.1117  1.0873
 1805SOL     OW17050   4.273   3.168  16.725  0.3711  0.1538  0.0911
 1805SOL    HW117051   4.215   3.169  16.648  1.3447 -0.1422 -0.6401
 1805SOL    HW217052   4.214   3.122  16.784  1.8133  1.0371  2.1964
 1806SOL     OW17053   0.838   2.870   7.287  0.6067  0.0470 -0.0549
 1806SOL    HW117054   0.774   2.806   7.319 -1.0222  0.6481 -2.1153
 1806SOL    HW217055   0.858   2.903   7.375 -0.9698 -0.6406  0.5749
 1807SOL     OW17056   0.260   1.626  16.002  0.3353 -0.5664 -0.3577
 1807SOL    HW117057   0.197   1.573  16.051 -0.5925 -0.4998 -1.4786
 1807SOL    HW217058   0.221   1.713  15.998  0.6992 -0.3939 -0.0999
 1808SOL     OW17059   1.962   0.927  15.711 -0.0745 -0.2168  0.2023
 1808SOL    HW117060   2.051   0.897  15.726 -0.2182 -0.7009  0.0815
 1808SOL    HW217061   1.913   0.859  15.757 -1.1697  0.3575 -0.1164
 1809SOL     OW17062   0.187   2.389  17.301  0.7432 -0.7188 -0.0729
 1809SOL    HW117063   0.249   2.316  17.305 -0.3114 -1.6001  0.3011
 1809SOL    HW217064   0.245   2.465  17.305  1.3053 -1.3097  3.1991
 1810SOL     OW17065   0.472   1.792  13.293  0.0346  0.6697 -0.5983
 1810SOL    HW117066   0.377   1.785  13.289 -0.0480  1.0284  0.7308
 1810SOL    HW217067   0.497   1.738  13.218 -1.0167 -0.3013 -0.2421
 1811SOL     OW17068   0.888   1.088   0.135  0.2701  0.2258  0.0747
 1811SOL    HW117069   0.826   1.042   0.193 -3.2188  3.1880 -1.2526
 1811SOL    HW217070   0.952   1.019   0.119  2.1919  2.2335 -0.8413
 1812SOL     OW17071   1.833   1.162   9.484 -0.3479  0.3554  0.1634
 1812SOL    HW117072   1.904   1.136   9.544 -0.1249  0.7240  0.0586
 1812SOL    HW217073   1.816   1.247   9.524 -2.9343  0.2253 -0.6912
 1813SOL     OW17074   0.930   2.143   8.223 -0.2325  0.3197  0.2537
 1813SOL    HW117075   0.858   2.152   8.161  1.4782  0.0353 -1.7879
 1813SOL    HW217076   0.920   2.050   8.241  2.7041  0.2647  1.6917
 1814SOL     OW17077   2.685   2.549   1.061  0.0289 -0.1399 -0.5472
 1814SOL    HW117078   2.710   2.495   0.986 -0.2040 -1.5124  0.3483
 1814SOL    HW217079   2.602   2.503   1.078 -0.2596  0.9720  1.0910
 1815SOL     OW17080   1.374   4.173  14.790 -0.0788 -0.1980  0.2454
 1815SOL    HW117081   1.284   4.152  14.812 -0.2680  0.2372 -0.1019
 1815SOL    HW217082   1.368   4.183  14.695 -2.1019 -1.7493  0.2105
 1816SOL     OW17083   4.298   0.886   8.972 -0.1210 -0.2511  0.0631
 1816SOL    HW117084   4.346   0.818   9.020 -0.7203 -1.8565 -1.6232
 1816SOL    HW217085   4.362   0.957   8.975 -0.4873  0.0885 -0.2736
 1817SOL     OW17086   2.027   1.798  16.528  0.7991  0.4664 -0.2695
 1817SOL    HW117087   1.951   1.788  16.585 -0.7436 -1.6287 -2.7035
 1817SOL    HW217088   1.993   1.819  16.442 -0.7858  0.6215  0.3973
 1818SOL     OW17089   2.232   4.192   7.604  0.3783  0.2352  0.1672
 1818SOL    HW117090   2.227   4.128   7.675  0.2452  0.2031  0.1276
 1818SOL    HW217091   2.308   4.159   7.555 -0.9570 -0.2082 -1.5918
 1819SOL     OW17092   0.125   1.771   5.973  0.1119 -0.4221 -0.1409
 1819SOL    HW117093   0.079   1.733   5.898 -1.5795  1.0598  0.1444
 1819SOL    HW217094   0.049   1.787   6.030  0.0993  1.0280 -0.5555
 1820SOL     OW17095   0.421   2.968  15.425  0.3447 -0.8044 -0.2100
 1820SOL    HW117096   0.476   2.894  15.397  1.0655  0.7218 -2.7848
 1820SOL    HW217097   0.350   2.957  15.363  0.9695 -1.4523 -0.7984
 1821SOL     OW17098   0.503   1.768  13.647  0.1166 -0.3095 -0.1464
 1821SOL    HW117099   0.506   1.699  13.714 -2.1800 -0.1174  0.1520
 1821SOL    HW217100   0.464   1.840  13.697  0.5568 -1.1267  1.3705
 1822SOL     OW17101   3.215   4.310   5.879 -0.6092 -0.0090 -0.2823
 1822SOL    HW117102   3.242   4.316   5.788  1.0280  3.1955  0.4057
 1822SOL    HW217103   3.121   4.318   5.865 -0.3646 -0.0150 -1.9433
 1823SOL     OW17104   1.381   2.907  12.198 -0.2828 -0.8948 -0.0583
 1823SOL    HW117105   1.420   2.822  12.213  1.4753 -0.0681 -0.0080
 1823SOL    HW217106   1.296   2.896  12.240  0.1891 -0.0937  1.1060
 1824SOL     OW17107   4.206   2.786   2.823 -0.1888  0.2476  0.5446
 1824SOL    HW117108   4.156   2.706   2.840  1.3480 -0.8935 -0.3127
 1824SOL    HW217109   4.225   2.817   2.912 -0.8031 -0.7979  1.0407
 1825SOL     OW17110   0.638   1.832   1.173  0.3499 -0.0472  0.4609
 1825SOL    HW117111   0.702   1.902   1.171 -1.8868  1.9743 -0.4333
 1825SOL    HW217112   0.631   1.830   1.269 -0.8052 -0.1438  0.3730
 1826SOL     OW17113   4.672   4.097  15.205  0.1834 -0.4232  0.2254
 1826SOL    HW117114   4.662   4.013  15.162 -2.6827  1.1057 -2.0826
 1826SOL    HW217115   4.718   4.145  15.136 -1.2371  0.5308 -0.0494
 1827SOL     OW17116   1.754   3.776   4.119 -0.2327  0.1239 -0.2177
 1827SOL    HW117117   1.840   3.762   4.159 -0.1181 -1.7544 -1.1251
 1827SOL    HW217118   1.768   3.810   4.030 -0.3615  1.4363  0.2583
 1828SOL     OW17119   4.182   0.711   3.916 -0.2278  0.6262  0.3227
 1828SOL    HW117120   4.100   0.719   3.965 -0.7340  2.9039 -0.8672
 1828SOL    HW217121   4.247   0.711   3.986  0.4510 -0.2603 -0.2990
 1829SOL     OW17122   1.455   3.606   9.144  0.1622  0.0349 -0.3614
 1829SOL    HW117123   1.405   3.550   9.203  0.1414  0.9893  0.5200
 1829SOL    HW217124   1.454   3.551   9.065 -0.5206  1.4165 -1.3253
 1830SOL     OW17125   4.189   4.400   1.367  0.0074 -0.1509 -0.1035
 1830SOL    HW117126   4.186   4.495   1.381 -0.9185 -0.4862  1.9101
 1830SOL    HW217127   4.248   4.373   1.438  0.0459 -1.7593 -0.7445
 1831SOL     OW17128   2.056   0.575  15.708 -0.7338  0.1769 -0.3186
 1831SOL    HW117129   2.096   0.637  15.769  1.6735 -1.5926 -0.0859
 1831SOL    HW217130   1.988   0.628  15.667  1.5184  1.3639 -2.5570
 1832SOL     OW17131   0.614   0.011   6.068 -0.2444  0.2422 -0.5682
 1832SOL    HW117132   0.639   4.679   6.005  2.2575 -0.5065  1.2088
 1832SOL    HW217133   0.557   0.069   6.019 -2.3692 -1.5357 -0.1880
 1833SOL     OW17134   2.983   2.412   2.703  0.7314  0.0613 -0.2653
 1833SOL    HW117135   2.949   2.325   2.681  0.5594  0.4053 -1.3557
 1833SOL    HW217136   3.041   2.400   2.779  0.2532 -0.9824 -0.0540
 1834SOL     OW17137   1.693   4.027   8.378 -0.0049  0.2633 -0.2756
 1834SOL    HW117138   1.785   4.047   8.364 -0.7755  1.7897 -3.2233
 1834SOL    HW217139   1.683   4.065   8.465  2.9411  0.5667 -0.0717
 1835SOL     OW17140   4.231   2.363   7.199 -0.0502 -0.0045  0.3559
 1835SOL    HW117141   4.191   2.299   7.257 -2.4881  0.7225 -0.5293
 1835SOL    HW217142   4.199   2.444   7.239  0.9221 -0.0544  1.2586
 1836SOL     OW17143   1.282   2.988  16.453 -0.3318  0.3687  0.0006
 1836SOL    HW117144   1.255   2.898  16.469 -0.5366  0.5954  0.9439
 1836SOL    HW217145   1.328   2.984  16.369 -1.5857  1.9879 -0.7708
 1837SOL     OW17146   4.557   3.903   3.162  0.5953 -0.6708  0.3960
 1837SOL    HW117147   4.530   3.852   3.086  0.1315  2.7024 -1.6935
 1837SOL    HW217148   4.519   3.858   3.237 -0.1841  0.5352  0.7101
 1838SOL     OW17149   3.469   2.873   0.351  0.2600 -0.1222 -0.1885
 1838SOL    HW117150   3.504   2.907   0.268  0.4935  0.4611  0.1536
 1838SOL    HW217151   3.388   2.830   0.323 -0.1049 -0.7591  1.8862
 1839SOL     OW17152   0.876   2.677   1.081 -0.4315  0.1233 -0.1409
 1839SOL    HW117153   0.878   2.673   1.177  3.5591  0.9135 -0.1740
 1839SOL    HW217154   0.922   2.761   1.071 -2.1171  0.9597 -0.9142
 1840SOL     OW17155   0.704   4.572   6.707  0.1283 -0.3187  0.2812
 1840SOL    HW117156   0.613   4.545   6.711  0.5725 -1.7611  0.5636
 1840SOL    HW217157   0.734   4.561   6.798 -0.5648 -0.0354  0.5455
 1841SOL     OW17158   1.830   2.738  10.373  0.1369  0.5687 -0.3216
 1841SOL    HW117159   1.780   2.742  10.455  0.5737 -0.6408 -0.0032
 1841SOL    HW217160   1.760   2.699  10.322 -0.7613  0.3481  1.0794
 1842SOL     OW17161   0.177   3.790   2.874  0.1744  0.1318 -0.5889
 1842SOL    HW117162   0.153   3.857   2.938 -1.4750 -0.1059 -0.9462
 1842SOL    HW217163   0.093   3.750   2.850  1.2001 -1.6161 -1.3392
 1843SOL     OW17164   0.402   0.607  11.467  0.5584 -0.3549  0.7596
 1843SOL    HW117165   0.377   0.552  11.392  0.9671  2.5442 -1.4819
 1843SOL    HW217166   0.450   0.540  11.514  0.5293 -1.6062 -0.9564
 1844SOL     OW17167   1.759   4.220  15.511 -0.2165  0.3268 -0.2596
 1844SOL    HW117168   1.812   4.144  15.536  0.2505  0.9762  0.7444
 1844SOL    HW217169   1.821   4.288  15.536  1.4856 -1.7517  1.2136
 1845SOL     OW17170   1.218   0.110   0.617  0.4106  0.0526 -0.0838
 1845SOL    HW117171   1.171   0.192   0.634  0.7739 -0.1642  1.9639
 1845SOL    HW217172   1.180   0.088   0.532 -2.1429 -2.2022  1.6403
 1846SOL     OW17173   0.508   2.045   2.209 -0.1606 -0.6729  0.5613
 1846SOL    HW117174   0.517   2.060   2.115  1.4196  1.2592  1.0199
 1846SOL    HW217175   0.599   2.052   2.238 -0.5980  1.8043  1.3765
 1847SOL     OW17176   1.522   1.865  13.765  0.4269 -0.0740 -0.0653
 1847SOL    HW117177   1.531   1.950  13.809 -0.2664  0.8012 -1.6201
 1847SOL    HW217178   1.476   1.819  13.836  0.3920 -0.2119 -0.1769
 1848SOL     OW17179   2.561   1.033   2.104 -0.4288 -0.5396  0.2409
 1848SOL    HW117180   2.546   1.065   2.015 -0.1146 -0.1134  0.3411
 1848SOL    HW217181   2.644   1.074   2.127 -1.0085 -0.0093  1.4247
 1849SOL     OW17182   3.936   4.112   7.132  0.0496 -0.3935  0.2433
 1849SOL    HW117183   3.908   4.157   7.212  0.1892 -1.5499  0.9315
 1849SOL    HW217184   3.857   4.112   7.077  0.5320  0.8364 -0.4647
 1850SOL     OW17185   0.054   0.624  11.707 -0.0905 -0.2428  0.2443
 1850SOL    HW117186   0.115   0.662  11.770 -0.9170  2.6304 -0.6687
 1850SOL    HW217187   4.722   0.692  11.702 -0.1527 -0.3701 -0.7258
 1851SOL     OW17188   1.042   0.614  11.912  0.3968 -0.3668  0.2018
 1851SOL    HW117189   1.132   0.634  11.887 -0.6522  0.3920 -3.0085
 1851SOL    HW217190   0.995   0.636  11.831 -0.4516  3.0474  1.6513
 1852SOL     OW17191   4.498   2.296   3.035 -0.8262  0.1577 -0.2011
 1852SOL    HW117192   4.438   2.263   2.968  0.9702  0.1239 -1.7991
 1852SOL    HW217193   4.578   2.255   3.000 -2.7991 -1.2473 -3.0200
 1853SOL     OW17194   1.014   1.156   0.530 -0.0651  0.1378  0.0898
 1853SOL    HW117195   1.000   1.251   0.533  0.2513  0.1367  1.5833
 1853SOL    HW217196   1.073   1.142   0.456  1.4638 -0.4437  1.4043
 1854SOL     OW17197   2.504   4.020  16.818  0.2667  0.6922 -0.2807
 1854SOL    HW117198   2.535   3.964  16.890  2.4112 -1.2266 -2.7181
 1854SOL    HW217199   2.586   4.038  16.771  1.2969 -0.6216  1.0026
 1855SOL     OW17200   2.555   3.446   3.463 -0.0756  0.1316  0.0574
 1855SOL    HW117201   2.531   3.366   3.510 -1.5830  1.7112  1.9646
 1855SOL    HW217202   2.497   3.509   3.506 -0.6985  0.1755 -0.8406
 1856SOL     OW17203   4.624   3.335  12.972  0.7274  0.0817 -1.0223
 1856SOL    HW117204   4.545   3.301  12.931  0.2687 -0.6216  0.4488
 1856SOL    HW217205   4.668   3.386  12.904  2.2991  0.2267  0.1060
 1857SOL     OW17206   4.094   3.422  12.074 -0.2589 -0.1759 -0.2342
 1857SOL    HW117207   4.088   3.474  11.993  1.6854  0.2412 -0.0942
 1857SOL    HW217208   4.120   3.339  12.034 -0.2465  0.4641 -1.5554
 1858SOL     OW17209   2.175   3.090   9.877  0.5190 -0.2957 -0.7534
 1858SOL    HW117210   2.214   3.014   9.835  1.7664 -0.9998  1.6866
 1858SOL    HW217211   2.172   3.064   9.969  0.9916 -1.2847 -1.0247
 1859SOL     OW17212   0.118   1.770   5.036  0.2999  0.5917  0.0856
 1859SOL    HW117213   0.116   1.689   5.087  2.6703  0.3640 -0.1423
 1859SOL    HW217214   0.024   1.786   5.034  0.2150  0.1607  0.4706
 1860SOL     OW17215   4.669   4.697   2.383 -0.4714 -0.0255  0.7706
 1860SOL    HW117216   4.727   0.036   2.396 -0.0305 -0.5784  1.9360
 1860SOL    HW217217   4.713   4.645   2.316 -0.3476 -3.6130  3.6800
 1861SOL     OW17218   1.293   1.045   8.663 -0.1534 -0.2152  0.0711
 1861SOL    HW117219   1.303   1.089   8.578  2.9391 -0.4672  0.2897
 1861SOL    HW217220   1.207   1.079   8.686  0.2485  0.5130  0.4969
 1862SOL     OW17221   0.214   3.377   5.592 -0.0668  0.2477  0.5118
 1862SOL    HW117222   0.202   3.282   5.588  0.9363  0.1383  0.3025
 1862SOL    HW217223   0.280   3.385   5.661 -1.3524 -0.4419  1.8174
 1863SOL     OW17224   4.182   2.250   5.137 -0.6783  0.1644 -0.1306
 1863SOL    HW117225   4.277   2.245   5.137 -0.7343 -0.9138 -0.1586
 1863SOL    HW217226   4.169   2.257   5.042 -2.8531 -3.2347 -0.0718
 1864SOL     OW17227   2.421   1.980   0.462  0.2357  0.3476  0.2531
 1864SOL    HW117228   2.442   1.992   0.555  0.6874  2.6205 -0.1393
 1864SOL    HW217229   2.458   1.892   0.452  1.7305  0.6401  3.2311
 1865SOL     OW17230   4.060   2.142   5.840 -0.0810  0.1871  0.0685
 1865SOL    HW117231   4.141   2.124   5.889  1.1622  2.7821 -1.0634
 1865SOL    HW217232   4.078   2.106   5.753 -2.1829  2.6489 -1.3526
 1866SOL     OW17233   3.090   0.278   7.104 -0.8094 -0.1847  0.0180
 1866SOL    HW117234   3.100   0.344   7.036  1.5530 -0.7321 -0.1571
 1866SOL    HW217235   3.176   0.279   7.145 -0.7683  0.3954 -0.0924
 1867SOL     OW17236   1.679   2.428   4.162  0.2181  0.1549 -0.3627
 1867SOL    HW117237   1.683   2.405   4.070 -1.6037  0.5100 -0.5294
 1867SOL    HW217238   1.618   2.501   4.149  0.8067  0.7204  0.0066
 1868SOL     OW17239   1.251   1.228   3.359  0.4315 -0.2388 -0.3809
 1868SOL    HW117240   1.274   1.166   3.428  3.0630  0.4117 -0.6704
 1868SOL    HW217241   1.331   1.281   3.354  0.8384 -0.6494  1.8193
 1869SOL     OW17242   3.873   0.354   1.382 -0.0308  0.3719  0.6424
 1869SOL    HW117243   3.884   0.392   1.469  1.5083  1.1408  0.1027
 1869SOL    HW217244   3.790   0.311   1.403  0.1108  0.6994  1.9127
 1870SOL     OW17245   2.212   3.624   8.085  0.6399 -0.5933 -0.4706
 1870SOL    HW117246   2.297   3.665   8.070 -0.0457  0.2448 -2.0779
 1870SOL    HW217247   2.195   3.670   8.167 -0.4555 -1.8534  0.0023
 1871SOL     OW17248   1.561   2.314  10.030 -0.0209 -0.1464 -0.2180
 1871SOL    HW117249   1.590   2.295  10.119 -0.2233 -1.0704 -0.3456
 1871SOL    HW217250   1.565   2.226   9.992 -1.2159 -0.8194  1.2465
 1872SOL     OW17251   2.076   0.595   1.366  0.2092 -0.0623 -0.4140
 1872SOL    HW117252   2.094   0.688   1.352 -2.2472  0.5009  0.0936
 1872SOL    HW217253   2.029   0.577   1.284  0.4024  2.2209 -1.0220
 1873SOL     OW17254   4.119   0.285   4.962  0.1275  0.2818  0.1776
 1873SOL    HW117255   4.087   0.199   4.934 -0.2729  1.5247 -3.1556
 1873SOL    HW217256   4.051   0.312   5.024  0.9312  1.5047  0.5155
 1874SOL     OW17257   2.462   3.587   8.267  0.0213 -0.2036 -0.8893
 1874SOL    HW117258   2.429   3.645   8.199 -0.4839  0.2678 -0.2394
 1874SOL    HW217259   2.489   3.645   8.338  0.7119  1.1933 -2.2863
 1875SOL     OW17260   0.483   4.322   8.050  0.0842  0.1175  0.8949
 1875SOL    HW117261   0.495   4.399   7.996 -0.0700  0.7514  1.7643
 1875SOL    HW217262   0.463   4.360   8.136  2.6921  1.8130  0.7464
 1876SOL     OW17263   3.545   1.834   9.346 -0.0164  0.0127  0.3049
 1876SOL    HW117264   3.615   1.897   9.326 -0.6475  0.7741  0.4971
 1876SOL    HW217265   3.479   1.841   9.276  0.3773  0.7901  0.0134
 1877SOL     OW17266   1.820   0.251   6.817 -0.3813  0.7631  0.6278
 1877SOL    HW117267   1.900   0.283   6.859  1.1093 -0.9617 -0.9019
 1877SOL    HW217268   1.778   0.194   6.882 -2.2535  0.0369 -1.2490
 1878SOL     OW17269   4.561   1.890  17.580  0.0196 -0.0957  1.1294
 1878SOL    HW117270   4.558   1.827  17.651  0.5272  0.3578  1.5595
 1878SOL    HW217271   4.473   1.894  17.543 -0.8600 -1.0751  3.1328
 1879SOL     OW17272   2.282   2.538  12.050  0.1544 -0.5947  0.2467
 1879SOL    HW117273   2.375   2.557  12.037  0.5578 -2.7204 -0.0523
 1879SOL    HW217274   2.280   2.464  12.111  1.3706 -0.5176  0.3738
 1880SOL     OW17275   3.854   2.222   8.361  0.0940  0.4024 -0.6647
 1880SOL    HW117276   3.901   2.138   8.362 -3.2565 -1.4622  0.9731
 1880SOL    HW217277   3.783   2.215   8.296 -1.5558  0.9260  1.0924
 1881SOL     OW17278   3.252   4.615   7.243  0.4133  1.0927  0.5062
 1881SOL    HW117279   3.180   4.560   7.271  0.5757  1.4461  1.6265
 1881SOL    HW217280   3.246   4.686   7.307 -0.9367  1.1564  0.3063
 1882SOL     OW17281   3.309   1.001  14.268  0.0676 -0.0180  0.0947
 1882SOL    HW117282   3.225   1.029  14.305 -1.0309 -1.0970 -1.5828
 1882SOL    HW217283   3.343   0.953  14.343 -1.2391  2.1226  2.0433
 1883SOL     OW17284   3.839   3.087   7.242 -0.6351 -0.4379 -0.0643
 1883SOL    HW117285   3.821   3.002   7.202 -3.2313 -0.5733  1.4200
 1883SOL    HW217286   3.935   3.086   7.240 -0.5812 -1.1725  2.9484
 1884SOL     OW17287   2.200   0.988  13.256  0.2218  0.0512 -0.5212
 1884SOL    HW117288   2.184   0.911  13.309 -0.0677  1.0277  0.8069
 1884SOL    HW217289   2.170   1.050  13.323  0.7490 -1.6766  1.2949
 1885SOL     OW17290   2.547   0.692   0.609  0.3011 -0.2707  0.0016
 1885SOL    HW117291   2.482   0.662   0.673  0.5168 -2.9378 -1.0057
 1885SOL    HW217292   2.509   0.665   0.525  0.4692 -2.3742  0.5971
 1886SOL     OW17293   1.160   3.437   9.607 -0.7684  0.1383 -0.2289
 1886SOL    HW117294   1.206   3.356   9.628 -0.4369  0.1018 -1.0991
 1886SOL    HW217295   1.242   3.483   9.586 -0.6393  0.2282  0.4923
 1887SOL     OW17296   0.449   1.559   5.190 -0.3899  0.0168  0.1119
 1887SOL    HW117297   0.394   1.604   5.126 -0.1779 -0.2429 -0.2542
 1887SOL    HW217298   0.475   1.482   5.140  0.3266  0.0551  0.4259
 1888SOL     OW17299   0.862   2.461   9.900  0.3045 -0.3552 -0.1524
 1888SOL    HW117300   0.835   2.420   9.983 -2.3376 -1.0145 -1.3587
 1888SOL    HW217301   0.899   2.382   9.859  0.0232 -1.6596  2.0863
 1889SOL     OW17302   1.012   0.768  15.141 -0.2456  0.4792  0.0676
 1889SOL    HW117303   1.076   0.811  15.083  0.2920 -2.3374 -1.4107
 1889SOL    HW217304   1.064   0.761  15.221 -0.5916 -0.7891  0.1701
 1890SOL     OW17305   3.682   0.517  16.544  0.3519  0.2511  0.0864
 1890SOL    HW117306   3.658   0.607  16.565  1.7477  0.8665 -0.9187
 1890SOL    HW217307   3.631   0.495  16.466  3.2221  0.2375 -1.8235
 1891SOL     OW17308   2.159   2.040   6.346 -0.1081  0.1265 -0.2206
 1891SOL    HW117309   2.187   1.977   6.412  0.2092  0.9726  0.4439
 1891SOL    HW217310   2.075   2.069   6.383 -1.0535 -0.6314 -1.7669
 1892SOL     OW17311   3.789   1.924  10.860  0.4031  0.2952 -0.6380
 1892SOL    HW117312   3.751   2.002  10.899  1.7879  0.6027  0.0932
 1892SOL    HW217313   3.706   1.894  10.823  0.8561 -3.1375  1.1032
 1893SOL     OW17314   0.141   1.419   5.870  0.2581 -0.2817  0.2483
 1893SOL    HW117315   0.203   1.460   5.930 -2.1997  2.3862  0.9386
 1893SOL    HW217316   0.155   1.469   5.790  0.4729 -0.1618  0.3619
 1894SOL     OW17317   0.867   0.499   8.026 -0.1403  0.1593  0.2097
 1894SOL    HW117318   0.777   0.513   7.996  0.1683  1.4271 -0.1490
 1894SOL    HW217319   0.894   0.426   7.972 -0.9055 -0.5499  0.7897
 1895SOL     OW17320   4.385   3.101   9.133  0.0817 -0.5472  0.1621
 1895SOL    HW117321   4.346   3.118   9.047 -1.0167  0.6233  0.8953
 1895SOL    HW217322   4.352   3.178   9.180  2.0625 -0.6477  1.7278
 1896SOL     OW17323   3.428   0.051  10.077 -0.0492 -0.0906  0.5784
 1896SOL    HW117324   3.404   4.725  10.146 -0.4099 -1.0182 -0.3946
 1896SOL    HW217325   3.356   0.113  10.067 -0.0433 -0.3801 -1.2362
 1897SOL     OW17326   1.485   3.170   7.382  0.4643 -0.2970 -0.1172
 1897SOL    HW117327   1.416   3.192   7.319  0.2796  2.1465  0.9235
 1897SOL    HW217328   1.566   3.181   7.333 -0.7302  0.5344 -1.9532
 1898SOL     OW17329   0.676   3.096   5.131  0.6326  0.1112  0.1475
 1898SOL    HW117330   0.648   3.007   5.150 -1.2164  0.6686 -0.0083
 1898SOL    HW217331   0.762   3.074   5.094  0.5210  0.3585 -0.2611
 1899SOL     OW17332   3.444   2.545   6.098  0.1322  0.1335 -0.4560
 1899SOL    HW117333   3.380   2.577   6.161  0.6020 -0.2306  0.1997
 1899SOL    HW217334   3.456   2.455   6.127 -2.4594  0.3929  1.4162
 1900SOL     OW17335   2.353   0.151  14.961  0.7118 -0.2035  0.1514
 1900SOL    HW117336   2.265   0.124  14.937  0.8157 -1.1804  0.8667
 1900SOL    HW217337   2.358   0.228  14.905 -2.7739  0.0050  0.1558
 1901SOL     OW17338   1.062   3.887   9.032 -0.1683  0.0219 -0.3125
 1901SOL    HW117339   1.151   3.866   9.061 -0.3269 -0.4672 -0.1707
 1901SOL    HW217340   1.077   3.869   8.939  3.1048  1.1180  0.0155
 1902SOL     OW17341   2.447   0.807  12.200 -0.2075  0.4279  0.5783
 1902SOL    HW117342   2.428   0.762  12.282  1.3029  0.5024  0.9694
 1902SOL    HW217343   2.366   0.801  12.149 -1.2168  1.7628  2.0426
 1903SOL     OW17344   0.218   3.817   2.563 -0.7588  0.5846  0.3460
 1903SOL    HW117345   0.262   3.772   2.491 -0.4813 -0.4706  1.1780
 1903SOL    HW217346   0.133   3.773   2.557 -2.0327  3.0904  0.1063
 1904SOL     OW17347   1.174   4.506   7.616 -0.8974  0.6681 -0.8169
 1904SOL    HW117348   1.141   4.420   7.588  0.8230 -0.5670  0.9521
 1904SOL    HW217349   1.206   4.489   7.705 -0.0695 -0.8551 -1.4056
 1905SOL     OW17350   2.052   3.673   2.786  0.5154 -0.1436 -0.2254
 1905SOL    HW117351   2.080   3.652   2.697 -0.2371 -2.9345  0.1942
 1905SOL    HW217352   2.130   3.708   2.830 -0.0996  0.6224  0.2745
 1906SOL     OW17353   4.463   0.662   9.826 -0.1851  0.4465 -0.0597
 1906SOL    HW117354   4.541   0.660   9.770 -0.8323  1.3268 -1.0044
 1906SOL    HW217355   4.393   0.695   9.768 -0.0235 -0.5585 -0.8309
 1907SOL     OW17356   1.201   1.170   0.356  0.3207  0.6553 -0.3171
 1907SOL    HW117357   1.267   1.235   0.380 -1.0129  0.6728  3.2867
 1907SOL    HW217358   1.254   1.122   0.293  0.5964  1.2562 -0.5405
 1908SOL     OW17359   1.958   1.661   2.987 -0.3807  0.0051  0.5327
 1908SOL    HW117360   2.003   1.589   3.032  0.5783  0.7518  0.7765
 1908SOL    HW217361   1.873   1.663   3.030 -1.0910  0.1173 -0.8523
 1909SOL     OW17362   3.352   4.672   3.461 -0.1783  0.3714  0.3100
 1909SOL    HW117363   3.432   4.627   3.434  0.0578  0.4051  0.9538
 1909SOL    HW217364   3.390   0.005   3.516 -0.0064 -0.4230  1.1779
 1910SOL     OW17365   3.357   1.234  17.415 -0.6282  0.0859  0.1244
 1910SOL    HW117366   3.407   1.158  17.445  1.7618  1.7287  0.2593
 1910SOL    HW217367   3.287   1.223  17.480  1.5259  1.3062  2.6287
 1911SOL     OW17368   4.608   0.224   8.714 -0.1503 -0.0772 -0.2636
 1911SOL    HW117369   4.524   0.179   8.725  0.1060 -0.7286 -0.9727
 1911SOL    HW217370   4.578   0.307   8.676  2.3212  0.8216 -0.2566
 1912SOL     OW17371   2.775   1.094   3.572  0.0900 -0.2845  0.5691
 1912SOL    HW117372   2.761   1.158   3.502  2.8459  0.6968  0.9469
 1912SOL    HW217373   2.814   1.139   3.647  0.6457  1.2038 -0.6247
 1913SOL     OW17374   3.153   4.067   2.728  0.3855 -0.0761 -0.3742
 1913SOL    HW117375   3.149   4.117   2.647 -0.0633 -2.6244 -1.9000
 1913SOL    HW217376   3.220   4.008   2.694 -0.6585 -0.9829 -0.8332
 1914SOL     OW17377   3.099   4.386  12.445  0.2557  0.6906  0.1865
 1914SOL    HW117378   3.031   4.327  12.412 -0.5765  0.7838  1.7370
 1914SOL    HW217379   3.141   4.320  12.501 -1.1056  1.2351  1.8563
 1915SOL     OW17380   2.606   1.209   3.841  0.1205 -0.1204 -0.4270
 1915SOL    HW117381   2.616   1.294   3.796  3.6437 -0.1724  0.3145
 1915SOL    HW217382   2.645   1.225   3.926 -0.5373 -0.7828 -0.0030
 1916SOL     OW17383   0.804   1.411   9.269  0.0620  0.1511  0.6678
 1916SOL    HW117384   0.819   1.463   9.190 -0.3272  1.0997  1.2129
 1916SOL    HW217385   0.882   1.425   9.323  2.0780 -0.8286 -2.0574
 1917SOL     OW17386   0.534   1.365   4.996 -0.3808  0.0053 -0.1850
 1917SOL    HW117387   0.596   1.303   5.034 -0.1520  1.2280  1.4416
 1917SOL    HW217388   0.590   1.401   4.928 -0.8455 -2.0424 -1.6392
 1918SOL     OW17389   3.023   0.600   2.681  0.1038 -0.2479 -0.7817
 1918SOL    HW117390   3.103   0.566   2.721  1.0285  2.1455 -0.6083
 1918SOL    HW217391   3.039   0.693   2.668 -2.6679  0.0909 -1.6442
 1919SOL     OW17392   2.184   2.025   3.212  0.0769  0.6016  0.4154
 1919SOL    HW117393   2.260   2.077   3.238 -1.3320  2.1889  1.3237
 1919SOL    HW217394   2.200   2.031   3.118  0.4799  0.9918  0.5103
 1920SOL     OW17395   4.000   3.086   4.447 -0.0979 -0.3147  0.1791
 1920SOL    HW117396   3.912   3.087   4.410 -0.2857 -0.6660  0.6218
 1920SOL    HW217397   4.006   3.157   4.512 -1.8605 -1.8941  2.0555
 1921SOL     OW17398   4.135   0.396   8.377 -0.3186 -0.2908 -0.2200
 1921SOL    HW117399   4.113   0.314   8.333  1.4370 -0.4808 -0.7298
 1921SOL    HW217400   4.149   0.463   8.310  0.4674 -1.9934 -1.7393
 1922SOL     OW17401   0.823   3.524   7.869 -0.4349  0.3465 -0.0305
 1922SOL    HW117402   0.918   3.532   7.873 -0.4038 -0.4948  0.8501
 1922SOL    HW217403   0.793   3.571   7.947 -0.1404 -1.3790  1.1117
 1923SOL     OW17404   1.935   1.740   5.880  0.2105 -0.8014  0.0038
 1923SOL    HW117405   2.010   1.780   5.925  0.1734 -0.3753 -0.3107
 1923SOL    HW217406   1.891   1.709   5.959 -1.3621  0.0082 -0.5536
 1924SOL     OW17407   2.078   0.257   1.072  0.7066  0.6022 -0.0236
 1924SOL    HW117408   1.985   0.268   1.090  0.5148 -0.7961 -0.1959
 1924SOL    HW217409   2.124   0.217   1.146 -0.6368 -2.3447 -0.7701
 1925SOL     OW17410   0.325   0.355  12.456 -0.2330 -0.6858 -0.3346
 1925SOL    HW117411   0.295   0.272  12.420  1.0251 -1.7635  1.1434
 1925SOL    HW217412   0.253   0.399  12.411 -0.7022 -0.7447  0.3543
 1926SOL     OW17413   0.504   2.505   7.160 -0.1181 -0.2236 -0.6539
 1926SOL    HW117414   0.536   2.583   7.205  0.0759 -1.4457  1.3130
 1926SOL    HW217415   0.461   2.546   7.085  2.5455  2.6183 -0.6190
 1927SOL     OW17416   0.474   1.747   3.836 -0.2233  0.0829  0.0094
 1927SOL    HW117417   0.440   1.832   3.809 -2.5278 -0.7841  0.1612
 1927SOL    HW217418   0.562   1.756   3.799 -0.2204 -2.9818 -0.7916
 1928SOL     OW17419   2.100   2.982   9.567 -0.1526 -0.0145 -0.2550
 1928SOL    HW117420   2.072   3.073   9.555 -0.3117 -0.2682 -1.8176
 1928SOL    HW217421   2.023   2.934   9.539 -0.4200 -0.3677  1.1253
 1929SOL     OW17422   1.635   3.261  10.992  0.1858 -0.0807 -0.5055
 1929SOL    HW117423   1.621   3.315  10.914 -4.0272 -0.5301 -0.0476
 1929SOL    HW217424   1.641   3.326  11.061  2.3652 -1.6420  0.7872
 1930SOL     OW17425   2.504   2.410   7.143 -0.3568 -0.4804  0.3416
 1930SOL    HW117426   2.444   2.469   7.190 -1.6557 -0.4792 -1.3105
 1930SOL    HW217427   2.486   2.429   7.051 -3.7576  0.3680  1.1726
 1931SOL     OW17428   4.149   0.005   9.172  0.2257 -0.7568  0.1211
 1931SOL    HW117429   4.207   0.002   9.248  0.7063 -1.8942 -0.2781
 1931SOL    HW217430   4.209   4.699   9.110  0.5725  0.0415 -0.0823
 1932SOL     OW17431   3.150   3.521   3.344  0.3038  0.1460 -0.3876
 1932SOL    HW117432   3.081   3.458   3.322  0.0128 -0.2779  1.7477
 1932SOL    HW217433   3.228   3.466   3.351  0.0657 -0.3109 -1.3506
 1933SOL     OW17434   3.227   4.055   4.676 -0.1794  0.0778 -0.0527
 1933SOL    HW117435   3.191   4.071   4.763 -2.4924 -0.9159 -0.8291
 1933SOL    HW217436   3.149   4.087   4.629 -0.4734  0.8185  0.9553
 1934SOL     OW17437   2.627   4.070   6.046 -0.0656 -0.4384 -0.4848
 1934SOL    HW117438   2.691   4.067   5.975  1.5096 -1.5328  0.9748
 1934SOL    HW217439   2.692   4.065   6.117 -0.6134  1.4320  0.1503
 1935SOL     OW17440   4.328   0.997   6.341  0.1720  0.5060  0.1838
 1935SOL    HW117441   4.361   0.985   6.430 -2.1663 -0.4144  0.9322
 1935SOL    HW217442   4.378   0.935   6.289  1.8239  2.1608 -0.1994
 1936SOL     OW17443   1.248   0.545   1.406  0.1264  0.4135 -0.2102
 1936SOL    HW117444   1.335   0.506   1.394 -0.3163 -0.3688 -0.8303
 1936SOL    HW217445   1.201   0.505   1.333  0.2814 -0.9491  0.4550
 1937SOL     OW17446   4.611   4.186   6.327  0.2379  0.3415  0.0266
 1937SOL    HW117447   4.616   4.245   6.402  0.3811 -0.6966  0.8219
 1937SOL    HW217448   4.522   4.199   6.294  0.2689 -0.7366 -0.4904
 1938SOL     OW17449   3.207   0.526   9.112 -0.0701  0.1936 -0.6991
 1938SOL    HW117450   3.257   0.556   9.189 -0.2630 -1.7638  0.1858
 1938SOL    HW217451   3.134   0.589   9.108  0.7568  1.1678 -0.4496
 1939SOL     OW17452   2.477   3.763  15.850 -0.1207  0.1104  0.7089
 1939SOL    HW117453   2.454   3.684  15.800  1.8469  1.0437 -1.6959
 1939SOL    HW217454   2.553   3.799  15.805  1.1223  0.8231  3.4060
 1940SOL     OW17455   4.031   0.783   2.117  0.6007  0.4308 -0.1915
 1940SOL    HW117456   4.073   0.805   2.034  1.5913  1.1868  0.5089
 1940SOL    HW217457   3.940   0.806   2.099  0.4168 -0.1049  0.0715
 1941SOL     OW17458   2.159   1.259   0.012 -0.1258  0.3022  0.2888
 1941SOL    HW117459   2.076   1.279  17.711  0.2862  0.1924 -0.5711
 1941SOL    HW217460   2.171   1.351   0.037  3.3185 -0.0542 -0.0847
 1942SOL     OW17461   1.651   2.605  10.897  0.1012  0.2036  0.2844
 1942SOL    HW117462   1.617   2.524  10.859  1.5583 -0.3806  0.2219
 1942SOL    HW217463   1.712   2.575  10.965  1.4865  0.3390 -0.8832
 1943SOL     OW17464   1.453   2.461   6.790  0.1242  0.6117  0.0418
 1943SOL    HW117465   1.498   2.544   6.800 -0.3169  0.8657 -0.0981
 1943SOL    HW217466   1.367   2.489   6.758 -0.2902  0.9721  1.4773
 1944SOL     OW17467   3.890   4.402   8.666 -0.0017 -0.9809  0.4966
 1944SOL    HW117468   3.980   4.417   8.697 -0.4269 -0.9075  1.6912
 1944SOL    HW217469   3.847   4.387   8.750 -3.5145  1.5991 -0.8450
 1945SOL     OW17470   0.102   3.972  12.074 -0.7105 -0.0237  0.4842
 1945SOL    HW117471   0.092   3.980  11.979 -0.2678 -1.1918  0.3396
 1945SOL    HW217472   0.067   3.886  12.097 -0.8658 -0.2586 -0.6369
 1946SOL     OW17473   1.948   0.209   5.878 -0.0968 -0.2085 -0.3046
 1946SOL    HW117474   1.866   0.195   5.926  0.6927 -2.2939  0.4357
 1946SOL    HW217475   1.918   0.273   5.814 -0.6568  0.0248  0.1912
 1947SOL     OW17476   0.289   3.648   6.762  0.4863 -0.0051  0.7264
 1947SOL    HW117477   0.363   3.678   6.815 -0.1956  0.6124  1.3324
 1947SOL    HW217478   0.232   3.724   6.778  1.8106  1.3473 -0.9385
 1948SOL     OW17479   4.577   3.355   2.332 -0.0962 -0.2214  0.0530
 1948SOL    HW117480   4.558   3.312   2.249  1.1580 -1.9903  0.6744
 1948SOL    HW217481   4.517   3.428   2.345 -0.9147 -0.5109 -2.0912
 1949SOL     OW17482   2.523   4.264   3.281 -0.4425 -0.7444  0.2385
 1949SOL    HW117483   2.517   4.297   3.191  2.3844 -1.5644 -0.2396
 1949SOL    HW217484   2.468   4.332   3.321 -0.1411 -0.6535  0.4912
 1950SOL     OW17485   4.228   0.615   9.102 -0.1763  0.0776  0.3267
 1950SOL    HW117486   4.320   0.586   9.106 -0.0510  0.5591  0.9734
 1950SOL    HW217487   4.175   0.548   9.145  0.9140 -1.1764 -0.2751
 1951SOL     OW17488   4.251   0.838   8.257  0.0258 -0.3584 -0.3238
 1951SOL    HW117489   4.310   0.833   8.181  0.6925 -3.0948  0.3645
 1951SOL    HW217490   4.207   0.753   8.249 -0.6943 -0.2337  2.4390
 1952SOL     OW17491   4.732   2.551   5.410 -0.1242 -0.7042 -0.3462
 1952SOL    HW117492   0.011   2.641   5.381  1.5461 -0.7075  0.5280
 1952SOL    HW217493   4.636   2.553   5.409 -0.1724 -3.3722  0.7827
 1953SOL     OW17494   3.871   3.819   5.746 -0.1126  0.7196  0.0590
 1953SOL    HW117495   3.794   3.866   5.715 -1.4653 -0.3975  1.6911
 1953SOL    HW217496   3.874   3.748   5.682  0.4406 -0.2448  1.1476
 1954SOL     OW17497   1.142   0.980   2.074 -0.0283  0.7971  0.3855
 1954SOL    HW117498   1.150   0.999   1.981 -0.9687  0.1161  0.1705
 1954SOL    HW217499   1.213   1.035   2.107  0.9452  1.2363 -2.4555
 1955SOL     OW17500   0.475   0.703  17.062 -0.5954 -0.3859  0.0751
 1955SOL    HW117501   0.497   0.730  16.973  0.0897 -0.7610  0.1373
 1955SOL    HW217502   0.379   0.700  17.056 -0.5999 -0.2525  0.0955
 1956SOL     OW17503   2.739   2.524   2.745  0.1937  0.1833 -0.0196
 1956SOL    HW117504   2.831   2.518   2.771 -0.2162  0.1719  1.3933
 1956SOL    HW217505   2.730   2.582   2.670 -1.9727 -0.0394  0.0654
 1957SOL     OW17506   0.182   0.693   9.151 -0.0991 -0.1887  0.4630
 1957SOL    HW117507   0.101   0.687   9.201  0.4128 -1.5519  1.1551
 1957SOL    HW217508   0.166   0.636   9.076  0.3751 -1.4072  1.2881
 1958SOL     OW17509   2.030   0.639  12.308  0.1316 -0.1066  0.3186
 1958SOL    HW117510   1.955   0.661  12.364  1.2340  1.2926  1.2524
 1958SOL    HW217511   2.012   0.547  12.327  2.9366 -0.4847  1.2036
 1959SOL     OW17512   1.247   3.856   0.851  0.3555  0.2273  0.0514
 1959SOL    HW117513   1.172   3.868   0.910  1.1820  0.4743  1.0420
 1959SOL    HW217514   1.311   3.872   0.921  0.3416 -3.3565  0.8939
 1960SOL     OW17515   1.835   1.913   2.781 -0.4629 -0.5595  0.3217
 1960SOL    HW117516   1.907   1.920   2.718  0.3680 -1.2138  1.1995
 1960SOL    HW217517   1.820   1.818   2.781 -0.1468 -0.6004  3.2139
 1961SOL     OW17518   2.558   3.113   5.947 -0.2071  0.0216  0.5995
 1961SOL    HW117519   2.512   3.169   6.010 -1.0489 -2.2929  2.0443
 1961SOL    HW217520   2.590   3.038   5.996 -1.4110 -2.0109 -1.7098
 1962SOL     OW17521   0.187   0.352   6.469 -0.2874 -0.3349 -0.6601
 1962SOL    HW117522   0.146   0.438   6.461  1.8336  0.7121 -0.3652
 1962SOL    HW217523   0.187   0.337   6.563  0.2977 -2.9022 -1.0534
 1963SOL     OW17524   4.491   3.115   2.428 -0.1913 -0.5550 -0.5922
 1963SOL    HW117525   4.530   3.200   2.409 -0.8473 -0.3543 -1.0297
 1963SOL    HW217526   4.560   3.084   2.487  0.3936  1.3526 -0.2465
 1964SOL     OW17527   1.749   2.623  11.221 -0.1485  0.0093 -0.6542
 1964SOL    HW117528   1.668   2.583  11.253 -0.3730 -0.0388 -1.2919
 1964SOL    HW217529   1.741   2.707  11.268  1.6785  0.0436 -0.4168
 1965SOL     OW17530   0.942   0.802   2.646 -0.4803  0.4805 -0.3188
 1965SOL    HW117531   0.978   0.756   2.570  1.5129  0.7490  0.4535
 1965SOL    HW217532   0.974   0.741   2.713  0.0641 -0.6449 -1.6092
 1966SOL     OW17533   0.624   3.221  13.604  0.4737  0.0979 -0.3666
 1966SOL    HW117534   0.573   3.286  13.654 -1.1617 -1.5412  0.0897
 1966SOL    HW217535   0.599   3.228  13.512 -1.3611 -1.8728 -0.0071
 1967SOL     OW17536   0.979   0.743   6.913 -0.2552 -0.2608  0.3535
 1967SOL    HW117537   0.951   0.829   6.883 -1.7266 -0.9536 -0.2745
 1967SOL    HW217538   0.906   0.694   6.875 -0.5782  1.3568 -1.0939
 1968SOL     OW17539   3.595   4.538   2.643  0.1157  0.6031  0.3848
 1968SOL    HW117540   3.661   4.517   2.710 -0.1919 -1.6822 -0.0053
 1968SOL    HW217541   3.582   4.450   2.608  0.3113 -0.6108  3.3341
 1969SOL     OW17542   1.343   0.330   8.545 -0.0226  0.4981  0.3454
 1969SOL    HW117543   1.401   0.286   8.482 -0.2697 -0.4759  0.7899
 1969SOL    HW217544   1.257   0.325   8.503 -0.8785  0.6631  2.0643
 1970SOL     OW17545   1.519   0.028   6.227 -0.2639  0.6362 -0.8802
 1970SOL    HW117546   1.543   0.015   6.318 -0.0197 -2.9342 -1.4565
 1970SOL    HW217547   1.527   0.123   6.214  2.1169  0.5221 -0.2734
 1971SOL     OW17548   0.278   3.577  13.831 -0.4131 -0.5971 -0.3005
 1971SOL    HW117549   0.232   3.596  13.913 -0.8443 -3.0107  0.0268
 1971SOL    HW217550   0.205   3.579  13.770  0.0745  0.2840 -0.8550
 1972SOL     OW17551   0.618   1.227   7.881 -0.0020 -0.0859  0.8175
 1972SOL    HW117552   0.536   1.248   7.924 -0.7937 -0.2534 -0.6019
 1972SOL    HW217553   0.636   1.309   7.834 -2.7745 -0.1174 -0.2564
 1973SOL     OW17554   0.054   1.749   9.725  0.5740 -0.1400 -0.1763
 1973SOL    HW117555   0.125   1.723   9.667  0.7399  1.4907 -0.7277
 1973SOL    HW217556   0.071   1.842   9.740 -1.6169  0.5626 -1.9992
 1974SOL     OW17557   3.639   1.302   5.205 -0.3098 -0.4885 -0.0987
 1974SOL    HW117558   3.564   1.322   5.261 -0.7032  0.1769 -0.8483
 1974SOL    HW217559   3.597   1.288   5.120 -0.3267  1.1114 -0.3452
 1975SOL     OW17560   4.457   1.754  15.358 -0.1470 -0.0441 -0.0866
 1975SOL    HW117561   4.405   1.808  15.299  0.5800  0.2044 -0.5024
 1975SOL    HW217562   4.387   1.724  15.416 -0.6395 -0.7643 -1.0381
 1976SOL     OW17563   0.571   3.959  13.669  0.0828 -0.5323 -0.0471
 1976SOL    HW117564   0.666   3.968  13.655  0.1748 -0.6080  0.5206
 1976SOL    HW217565   0.566   3.885  13.730 -0.0376 -0.2366  0.2989
 1977SOL     OW17566   2.921   3.874   2.692  0.4024 -0.6627 -0.3803
 1977SOL    HW117567   2.974   3.811   2.741 -0.7204 -0.6681  0.8422
 1977SOL    HW217568   2.973   3.953   2.698 -1.3159  0.2954  1.8544
 1978SOL     OW17569   2.680   4.380   5.346 -0.6040 -0.1288 -0.0343
 1978SOL    HW117570   2.616   4.373   5.417 -0.0728  1.4254  0.6060
 1978SOL    HW217571   2.626   4.416   5.276 -1.5439 -0.8197  0.3347
 1979SOL     OW17572   4.230   0.099  13.486 -0.0569 -0.4734  0.3838
 1979SOL    HW117573   4.174   0.108  13.409 -1.3395  0.0607  1.3858
 1979SOL    HW217574   4.231   0.189  13.520  1.7841 -0.5759  0.6326
 1980SOL     OW17575   1.857   1.426   8.671 -0.3060  0.1515  0.1344
 1980SOL    HW117576   1.941   1.426   8.716  1.1719  0.5460 -2.6554
 1980SOL    HW217577   1.802   1.459   8.743 -1.4772 -2.6751  0.5311
 1981SOL     OW17578   1.178   4.249   6.716  0.4303  0.2122 -0.5876
 1981SOL    HW117579   1.122   4.307   6.768 -1.0980 -2.1017  0.2981
 1981SOL    HW217580   1.112   4.229   6.650  0.0256 -0.3935  0.0143
 1982SOL     OW17581   1.757   2.600   6.188  0.5725  0.2022 -0.0584
 1982SOL    HW117582   1.768   2.679   6.134  1.4793 -0.9784 -1.6084
 1982SOL    HW217583   1.684   2.565   6.137  0.5672 -0.2693  0.2770
 1983SOL     OW17584   3.676   2.186   8.167 -0.3895 -0.2713  0.6225
 1983SOL    HW117585   3.723   2.171   8.085 -0.2770 -2.2797  1.0378
 1983SOL    HW217586   3.603   2.244   8.144  0.6346  1.2190  1.2012
 1984SOL     OW17587   1.177   1.630   2.372  0.3950 -0.0721 -0.3869
 1984SOL    HW117588   1.120   1.587   2.308  0.1924  1.0681 -0.9872
 1984SOL    HW217589   1.118   1.641   2.447  0.5890  1.5572 -0.4731
 1985SOL     OW17590   4.147   1.407   6.179 -0.0047 -0.3566  0.0936
 1985SOL    HW117591   4.189   1.345   6.238  0.8909  1.4978  1.3869
 1985SOL    HW217592   4.220   1.428   6.120  0.0153 -0.0834  0.2129
 1986SOL     OW17593   3.326   1.702   8.328 -0.3988 -0.1944 -0.0734
 1986SOL    HW117594   3.296   1.676   8.416  0.0282  0.4502  0.2664
 1986SOL    HW217595   3.264   1.770   8.303 -0.5406  0.5888  2.3814
 1987SOL     OW17596   1.719   1.933  14.891  0.1860 -0.1150  0.3745
 1987SOL    HW117597   1.627   1.916  14.908 -0.2253  2.5868  0.8533
 1987SOL    HW217598   1.759   1.904  14.973  0.9631  0.6170  0.2545
 1988SOL     OW17599   0.882   3.346   5.473  0.0899  0.1531  0.0899
 1988SOL    HW117600   0.841   3.261   5.489 -3.0165  1.9667  1.9243
 1988SOL    HW217601   0.841   3.368   5.389  2.2683 -1.3453 -1.3634
 1989SOL     OW17602   3.338   2.565   6.668  0.0772  0.3405 -0.3912
 1989SOL    HW117603   3.311   2.616   6.745 -0.7280 -0.7386  0.0451
 1989SOL    HW217604   3.342   2.630   6.599  0.7327 -0.0583 -0.7221
 1990SOL     OW17605   3.742   3.301   8.793 -0.1965 -0.4346 -0.6563
 1990SOL    HW117606   3.778   3.350   8.867 -0.6376 -1.4272  0.2189
 1990SOL    HW217607   3.737   3.212   8.826  2.5758 -0.5909 -0.6074
 1991SOL     OW17608   3.159   0.569   5.682 -0.5897 -0.3873  0.8249
 1991SOL    HW117609   3.147   0.558   5.588  0.2422 -1.4712  0.8406
 1991SOL    HW217610   3.162   0.664   5.672  0.0698 -0.5244 -0.2679
 1992SOL     OW17611   4.645   4.652  12.344 -0.5320 -0.4519  0.3264
 1992SOL    HW117612   4.712   4.590  12.372 -0.9840 -1.4723 -0.8906
 1992SOL    HW217613   4.587   4.659  12.419 -0.6601 -1.5114  0.3259
 1993SOL     OW17614   3.722   0.846   3.318  0.1337 -0.2781  0.2399
 1993SOL    HW117615   3.686   0.891   3.242  0.8427 -0.3864 -0.1595
 1993SOL    HW217616   3.816   0.865   3.317 -0.0807  0.6442 -2.6903
 1994SOL     OW17617   0.729   0.797   8.102  0.4028  0.0582 -0.3696
 1994SOL    HW117618   0.723   0.713   8.148  3.7353  0.3223  0.5873
 1994SOL    HW217619   0.821   0.795   8.074 -0.1467  0.3233 -2.1747
 1995SOL     OW17620   0.618   0.556   7.964  0.1438  0.5639  0.4853
 1995SOL    HW117621   0.525   0.540   7.946  0.5564 -1.1022 -0.1976
 1995SOL    HW217622   0.637   0.635   7.915  1.1214  0.7511  1.1654
 1996SOL     OW17623   3.175   1.675   3.856  0.5975  0.6703  0.5358
 1996SOL    HW117624   3.160   1.692   3.763 -1.2345 -1.4993  0.4149
 1996SOL    HW217625   3.239   1.605   3.845 -0.8648 -0.8416  1.5766
 1997SOL     OW17626   1.721   0.023   0.740 -0.3939  0.1383  0.0490
 1997SOL    HW117627   1.761   0.065   0.663  2.9278  0.4162  1.9568
 1997SOL    HW217628   1.630   0.012   0.711 -0.8319  0.2039  1.4198
 1998SOL     OW17629   0.697   2.371   3.413 -0.3562 -0.4353  0.7628
 1998SOL    HW117630   0.707   2.465   3.402 -0.0927 -0.6806 -1.0677
 1998SOL    HW217631   0.619   2.352   3.362  1.2572 -2.5942 -0.9377
 1999SOL     OW17632   2.326   0.392   0.946  0.3895  0.8971 -0.5355
 1999SOL    HW117633   2.270   0.335   0.997  0.1530  0.4315 -1.3229
 1999SOL    HW217634   2.381   0.334   0.893  3.6289  1.8628  1.7117
 2000SOL     OW17635   1.503   3.849  11.309  0.0831  0.0000 -0.2800
 2000SOL    HW117636   1.459   3.790  11.370  2.1405 -0.3326  0.8812
 2000SOL    HW217637   1.551   3.788  11.253  1.4186 -0.6314  1.5472
 2001SOL     OW17638   0.387   4.540   2.400  0.3142 -0.6194 -0.3813
 2001SOL    HW117639   0.467   4.553   2.349 -0.0680  0.9296 -0.5968
 2001SOL    HW217640   0.404   4.450   2.428  0.2122 -0.2773  0.7482
 2002SOL     OW17641   1.835   4.168   4.161  0.3302  0.0053  0.5998
 2002SOL    HW117642   1.789   4.245   4.127  1.2608 -0.8253 -2.4975
 2002SOL    HW217643   1.911   4.159   4.104 -0.6692  1.0053 -0.9005
 2003SOL     OW17644   2.548   3.316   2.901 -0.1466  0.5981 -0.4790
 2003SOL    HW117645   2.524   3.381   2.967 -1.5557  0.5666 -0.9616
 2003SOL    HW217646   2.641   3.334   2.886  0.2163 -0.4569  0.5034
 2004SOL     OW17647   3.774   0.316   2.603  0.0686 -0.5869  0.4966
 2004SOL    HW117648   3.767   0.398   2.651 -0.1558 -0.1286 -0.3128
 2004SOL    HW217649   3.855   0.327   2.553 -1.0571  1.1077 -0.9533
 2005SOL     OW17650   0.053   1.006  16.115  0.6489 -0.5586 -0.5304
 2005SOL    HW117651   0.118   0.966  16.058  1.9913 -1.7831  1.8827
 2005SOL    HW217652   0.068   1.100  16.103  3.0155 -0.8198  0.5876
 2006SOL     OW17653   4.107   0.077   0.560  0.2952  0.0141  0.4478
 2006SOL    HW117654   4.144   0.017   0.624  0.0892 -1.2679 -0.6397
 2006SOL    HW217655   4.155   0.157   0.584  0.9071 -0.3122  0.3021
 2007SOL     OW17656   0.030   1.482   8.259  0.6654  0.7276 -0.3726
 2007SOL    HW117657   0.071   1.396   8.256 -0.1234  0.3610 -0.4369
 2007SOL    HW217658   0.023   1.490   8.354  3.0155 -1.0049 -0.0514
 2008SOL     OW17659   4.030   4.705   6.959  0.0679 -0.1082  0.0008
 2008SOL    HW117660   4.043   4.645   7.032 -1.1547  0.3271  0.5650
 2008SOL    HW217661   4.002   4.650   6.886 -2.8840  0.2361  0.8701
 2009SOL     OW17662   4.081   3.612   6.758 -0.3165 -0.7387  0.0686
 2009SOL    HW117663   4.175   3.599   6.757 -0.1369  0.4947  0.7428
 2009SOL    HW217664   4.077   3.706   6.777  2.4707  0.0177 -3.0856
 2010SOL     OW17665   0.033   4.449   4.658  0.5657 -0.1028 -0.3636
 2010SOL    HW117666   0.127   4.465   4.665  0.3063  1.3275 -0.2006
 2010SOL    HW217667   4.727   4.533   4.638 -1.1829 -1.1294 -1.0141
 2011SOL     OW17668   3.161   4.571   8.029  0.4959  0.0216 -0.6262
 2011SOL    HW117669   3.143   4.484   7.994 -1.8751  0.6660 -0.9999
 2011SOL    HW217670   3.109   4.627   7.971 -0.3009 -0.8217 -0.7232
 2012SOL     OW17671   2.456   2.156   2.226  0.3415  0.0385 -0.0369
 2012SOL    HW117672   2.390   2.092   2.253 -0.4719  0.1327 -1.7877
 2012SOL    HW217673   2.393   2.225   2.208  0.2865  0.4245  1.6500
 2013SOL     OW17674   1.416   3.685   4.618 -0.0549 -0.3079  0.0235
 2013SOL    HW117675   1.491   3.718   4.667  0.6141 -0.7225 -0.7249
 2013SOL    HW217676   1.352   3.751   4.642  0.8740  0.2580  0.9303
 2014SOL     OW17677   1.121   2.075   2.480 -0.1155 -0.1662 -0.6762
 2014SOL    HW117678   1.134   2.093   2.573 -1.7444  0.5619 -0.5836
 2014SOL    HW217679   1.212   2.061   2.451 -0.1549 -2.5378  0.4113
 2015SOL     OW17680   0.117   4.162   0.736  0.1017  0.2020  0.1504
 2015SOL    HW117681   0.206   4.197   0.726  0.4496 -1.3775 -2.3251
 2015SOL    HW217682   0.074   4.242   0.766 -0.0904  0.5263 -0.9908
 2016SOL     OW17683   4.470   4.260  15.594  0.1492  0.1670 -0.0271
 2016SOL    HW117684   4.520   4.321  15.649 -0.3403 -2.0425  2.9064
 2016SOL    HW217685   4.386   4.275  15.639 -0.4451 -0.1731 -1.0381
 2017SOL     OW17686   2.541   2.709  10.762 -0.6566  0.3793  0.3345
 2017SOL    HW117687   2.481   2.784  10.772 -0.3830  0.4983  1.0514
 2017SOL    HW217688   2.606   2.726  10.830  0.8202  1.9026 -1.4434
 2018SOL     OW17689   2.871   4.730   6.385 -0.4290  0.2343 -0.3211
 2018SOL    HW117690   2.872   0.047   6.305 -3.5322 -1.0596 -1.2415
 2018SOL    HW217691   2.795   0.031   6.431  0.1738  1.1920 -0.0814
 2019SOL     OW17692   2.349   2.237   4.089 -0.2009 -0.4002 -0.3130
 2019SOL    HW117693   2.424   2.231   4.149 -1.1975 -2.2628  0.7591
 2019SOL    HW217694   2.387   2.213   4.005  0.6848  0.1887 -0.0775
 2020SOL     OW17695   4.719   0.223   2.491  0.5950  0.4066 -0.6239
 2020SOL    HW117696   0.021   0.252   2.574  1.0550 -0.0451 -0.6758
 2020SOL    HW217697   4.734   0.301   2.437 -1.0474 -0.2845 -2.0853
 2021SOL     OW17698   2.085   2.854  10.391  0.2050  0.0282  0.3433
 2021SOL    HW117699   1.990   2.845  10.384  0.2547  1.5411 -2.3290
 2021SOL    HW217700   2.106   2.763  10.410 -1.3782 -0.4879 -0.3698
 2022SOL     OW17701   3.206   4.632   0.680  0.3756  0.3488 -0.6371
 2022SOL    HW117702   3.300   4.645   0.671  0.4956  0.2654  0.5576
 2022SOL    HW217703   3.198   4.698   0.748  5.1133  0.9740 -0.7211
 2023SOL     OW17704   0.855   1.701   8.021 -0.1408 -0.4003  0.3209
 2023SOL    HW117705   0.769   1.671   8.049 -1.0689 -0.5640 -2.7882
 2023SOL    HW217706   0.874   1.767   8.088 -1.9227  1.4478 -1.0371
 2024SOL     OW17707   0.130   1.292   0.051  0.0148 -0.8575  0.3860
 2024SOL    HW117708   0.043   1.263   0.022  0.2088  0.2609 -1.3348
 2024SOL    HW217709   0.133   1.263   0.142 -0.1504  0.0202  0.6733
 2025SOL     OW17710   1.371   1.803  14.783 -0.0210  0.6081 -0.0796
 2025SOL    HW117711   1.416   1.864  14.724  2.6277 -1.3082 -0.0538
 2025SOL    HW217712   1.397   1.719  14.745 -0.6579  1.1248 -1.6809
 2026SOL     OW17713   1.682   0.956   0.725  0.2701  0.1071  0.1014
 2026SOL    HW117714   1.599   0.928   0.687 -1.0870  1.1009  2.3391
 2026SOL    HW217715   1.681   1.051   0.726  1.7386  0.1180 -0.3245
 2027SOL     OW17716   2.106   0.614   5.862 -0.1766  0.7950  0.3624
 2027SOL    HW117717   2.176   0.656   5.912  0.6800  0.6300 -0.7060
 2027SOL    HW217718   2.030   0.618   5.921  1.3411  2.6304  2.2110
 2028SOL     OW17719   2.108   3.836   1.364  0.1091 -0.5917 -0.4171
 2028SOL    HW117720   2.178   3.771   1.359  0.4036 -0.4825  2.1463
 2028SOL    HW217721   2.146   3.908   1.314 -0.9640  1.0351  1.0925
 2029SOL     OW17722   4.606   3.673   4.031  0.9289 -0.3670 -0.0677
 2029SOL    HW117723   4.573   3.591   3.993 -1.8629  0.6863  0.1006
 2029SOL    HW217724   4.579   3.660   4.122  3.4203  0.3448  0.7606
 2030SOL     OW17725   4.373   0.681   2.474 -0.1043 -0.1621  0.3990
 2030SOL    HW117726   4.415   0.708   2.393  0.7887 -0.5937  0.7167
 2030SOL    HW217727   4.401   0.589   2.477  1.2718  0.2211 -1.1175
 2031SOL     OW17728   0.223   4.139  15.081  0.0309  0.5876  0.2353
 2031SOL    HW117729   0.216   4.085  15.160  0.4283 -1.2083 -0.9505
 2031SOL    HW217730   0.281   4.083  15.029 -1.1707  1.2347 -1.7946
 2032SOL     OW17731   4.144   1.557   6.571  0.2195 -0.1310 -0.9261
 2032SOL    HW117732   4.196   1.638   6.568 -1.5926  1.0886  0.6253
 2032SOL    HW217733   4.203   1.510   6.631  0.0325 -2.4561 -2.5647
 2033SOL     OW17734   3.911   0.543   7.572  0.6573  0.1435 -0.0333
 2033SOL    HW117735   3.849   0.603   7.614 -1.0223 -2.5402  1.3742
 2033SOL    HW217736   3.982   0.544   7.636 -0.1223  0.8201  0.8207
 2034SOL     OW17737   4.223   1.437  12.165  0.5871  0.0123 -0.0431
 2034SOL    HW117738   4.290   1.483  12.114  0.0671  1.8641  0.9325
 2034SOL    HW217739   4.261   1.438  12.253 -2.9239 -1.0829  1.4515
 2035SOL     OW17740   0.872   4.435   2.656 -0.5301 -0.3976  0.6957
 2035SOL    HW117741   0.872   4.512   2.712 -0.2642  0.5425 -0.5940
 2035SOL    HW217742   0.933   4.381   2.706  0.6748 -0.4639 -0.8644
 2036SOL     OW17743   1.239   3.003   2.620 -0.3899  0.3745 -0.2453
 2036SOL    HW117744   1.196   2.927   2.581 -1.1431 -0.2247  1.7681
 2036SOL    HW217745   1.211   3.005   2.712  0.3468  2.9878 -0.0785
 2037SOL     OW17746   2.540   4.167   0.711  0.1377 -0.0227  0.7113
 2037SOL    HW117747   2.459   4.121   0.690 -0.0379  1.7003 -2.4189
 2037SOL    HW217748   2.605   4.098   0.695 -0.4020 -0.3880  0.1099
 2038SOL     OW17749   2.763   3.762   3.350 -0.3006 -0.0555 -0.4693
 2038SOL    HW117750   2.765   3.855   3.329  1.0547 -0.1299 -0.6686
 2038SOL    HW217751   2.672   3.738   3.329  0.2667 -0.9949 -1.8671
 2039SOL     OW17752   2.601   2.265  14.232  0.5637  0.3415 -0.5412
 2039SOL    HW117753   2.604   2.343  14.288  0.3120 -0.6163  0.8000
 2039SOL    HW217754   2.661   2.295  14.163  0.5098 -0.4615 -0.9393
 2040SOL     OW17755   1.337   4.496  12.663  0.1950  0.3236 -0.0567
 2040SOL    HW117756   1.343   4.591  12.656 -2.6510  0.4165 -1.0717
 2040SOL    HW217757   1.262   4.475  12.607  0.1474 -1.0124  0.4920
 2041SOL     OW17758   0.209   0.400  11.949 -0.3763  0.1425 -0.0772
 2041SOL    HW117759   0.296   0.378  11.983 -0.6425 -0.0811  0.4685
 2041SOL    HW217760   0.157   0.441  12.018  0.8905  0.9066  0.4297
 2042SOL     OW17761   3.041   1.301  12.640 -0.0843  0.1988 -0.5963
 2042SOL    HW117762   3.132   1.330  12.629 -0.1710  0.8528  0.3526
 2042SOL    HW217763   3.055   1.208  12.652 -2.9788 -0.2262 -0.3977
 2043SOL     OW17764   4.391   1.236  14.011  0.0534  0.0351  0.1061
 2043SOL    HW117765   4.474   1.233  13.964 -0.2972  2.6710 -0.6672
 2043SOL    HW217766   4.414   1.201  14.097  0.5082 -1.4626 -0.6311
 2044SOL     OW17767   1.471   3.710  10.216 -0.0169 -0.3559  0.5597
 2044SOL    HW117768   1.427   3.754  10.144  0.8234 -0.5416 -0.0715
 2044SOL    HW217769   1.516   3.640  10.170 -1.0433 -0.5155 -0.2032
 2045SOL     OW17770   4.307   3.594   4.430  0.0340 -0.1691  0.2178
 2045SOL    HW117771   4.239   3.635   4.483  1.5827 -1.2311  3.0133
 2045SOL    HW217772   4.325   3.513   4.478  0.1833 -0.0896  0.2965
 2046SOL     OW17773   4.066   3.518  16.700  0.3870  0.4447 -0.0353
 2046SOL    HW117774   4.117   3.598  16.712 -0.6022  0.8489  1.5099
 2046SOL    HW217775   4.049   3.528  16.607  0.0408 -0.4373 -0.0676
 2047SOL     OW17776   1.146   0.439   6.750 -0.4822 -0.2698 -0.1811
 2047SOL    HW117777   1.195   0.358   6.762 -0.9884 -0.4757  0.4968
 2047SOL    HW217778   1.055   0.409   6.757  0.4815 -3.3039 -0.8849
 2048SOL     OW17779   3.988   4.349  10.580  0.5466 -0.5377 -0.0514
 2048SOL    HW117780   4.019   4.362  10.669 -0.5636  1.1509  0.0900
 2048SOL    HW217781   3.908   4.297  10.588  0.3216 -0.4154 -1.4752
 2049SOL     OW17782   1.135   3.985   3.954 -0.2410 -0.4503  0.4036
 2049SOL    HW117783   1.180   3.941   3.881 -1.1111  0.6752 -0.7997
 2049SOL    HW217784   1.195   3.962   4.025  0.0346 -0.1073  0.2833
 2050SOL     OW17785   4.527   3.076  16.854  0.4458  0.5845 -0.3141
 2050SOL    HW117786   4.489   3.009  16.910 -0.1255  1.1867  0.0174
 2050SOL    HW217787   4.448   3.120  16.824 -0.2900  0.5064  1.5172
 2051SOL     OW17788   4.626   1.117   4.979  0.3558 -0.8472 -0.1913
 2051SOL    HW117789   4.712   1.114   4.936  0.2249 -3.8107 -0.2509
 2051SOL    HW217790   4.576   1.060   4.920 -1.2716 -1.6872  2.0194
 2052SOL     OW17791   1.860   1.026  14.014  0.6258  0.0021  0.1667
 2052SOL    HW117792   1.814   1.088  14.070  1.1710  0.3364  0.2408
 2052SOL    HW217793   1.933   1.081  13.985  0.6482 -0.4083 -0.5641
 2053SOL     OW17794   2.242   2.150  16.622  0.3086 -0.4336 -0.0507
 2053SOL    HW117795   2.267   2.214  16.688 -0.5227  0.3126 -0.4519
 2053SOL    HW217796   2.246   2.069  16.673  0.9195  1.0076  2.1918
 2054SOL     OW17797   2.121   3.935  16.487 -0.7355  0.3550  0.3173
 2054SOL    HW117798   2.180   3.983  16.546 -0.9852 -0.4363  1.2201
 2054SOL    HW217799   2.121   3.848  16.528 -1.4267  0.1700 -0.0909
 2055SOL     OW17800   3.609   0.809   5.441  0.2999  0.1381  0.2908
 2055SOL    HW117801   3.689   0.764   5.413 -0.7014 -0.7878 -1.0865
 2055SOL    HW217802   3.639   0.887   5.488 -0.8788 -0.9074  2.7951
 2056SOL     OW17803   1.875   2.576   7.653 -0.2745  0.2857 -0.7445
 2056SOL    HW117804   1.909   2.655   7.612  0.6443 -0.2368 -0.9980
 2056SOL    HW217805   1.815   2.550   7.582 -1.0441 -0.5112  0.1910
 2057SOL     OW17806   3.832   4.351   8.922 -0.2546 -0.4404  0.3060
 2057SOL    HW117807   3.800   4.393   9.002 -0.3280 -2.5830  1.4130
 2057SOL    HW217808   3.748   4.319   8.889 -0.2300 -0.1319 -0.0508
 2058SOL     OW17809   3.454   4.484   7.702  0.0441  0.0327 -0.1152
 2058SOL    HW117810   3.441   4.404   7.651  0.2495 -0.3797  0.4768
 2058SOL    HW217811   3.379   4.533   7.669 -1.4513 -2.8098 -0.9338
 2059SOL     OW17812   0.288   0.253   1.996  0.1657 -0.0297 -0.5973
 2059SOL    HW117813   0.250   0.309   2.063  1.2380 -3.2020  2.6126
 2059SOL    HW217814   0.368   0.303   1.980  1.9096 -1.3515  4.0023
 2060SOL     OW17815   4.004   0.511   6.991 -0.8257 -0.3103 -0.2209
 2060SOL    HW117816   3.977   0.466   6.911  1.8192 -0.6424 -0.9139
 2060SOL    HW217817   4.072   0.565   6.952  0.2899 -0.0628  2.0238
 2061SOL     OW17818   0.224   1.936  14.358  0.0383 -0.3239 -0.3639
 2061SOL    HW117819   0.193   2.026  14.369  0.7524 -0.2118  0.7202
 2061SOL    HW217820   0.249   1.932  14.266  0.8004 -1.4406 -0.1081
 2062SOL     OW17821   1.167   3.801   9.854  0.4129  0.5381  0.5738
 2062SOL    HW117822   1.094   3.854   9.884  0.4511 -0.3621  2.2309
 2062SOL    HW217823   1.244   3.854   9.871 -0.4948  1.4149  1.9266
 2063SOL     OW17824   3.486   2.383   6.952  0.2778  0.3705  0.2269
 2063SOL    HW117825   3.548   2.319   6.918 -1.6096 -1.9084  1.0835
 2063SOL    HW217826   3.406   2.331   6.941 -0.0701  1.4380 -2.1640
 2064SOL     OW17827   4.469   2.447  13.129  0.0411  0.1731 -0.6158
 2064SOL    HW117828   4.457   2.537  13.160 -0.8364 -0.6961  1.5926
 2064SOL    HW217829   4.427   2.441  13.043 -0.5285  2.8655 -0.5115
 2065SOL     OW17830   1.670   0.137  15.603 -0.3104  0.4567 -0.2690
 2065SOL    HW117831   1.762   0.148  15.627 -1.0581 -0.9090  3.1944
 2065SOL    HW217832   1.657   0.043  15.620 -0.4635  0.5291  0.0153
 2066SOL     OW17833   2.289   3.565   4.800  0.2595  0.3266 -0.2714
 2066SOL    HW117834   2.335   3.648   4.810 -1.0242  0.7205  2.4658
 2066SOL    HW217835   2.229   3.590   4.730  0.5485  0.2132 -0.5599
 2067SOL     OW17836   1.258   2.529   6.215 -0.5390  0.5417  0.3773
 2067SOL    HW117837   1.215   2.452   6.176 -0.1263  0.4731  0.0559
 2067SOL    HW217838   1.279   2.500   6.304 -1.3611 -0.4821  0.2400
 2068SOL     OW17839   1.010   0.376   7.599 -0.3481 -1.2169  0.1895
 2068SOL    HW117840   1.044   0.295   7.560 -1.0122 -1.2305 -0.3557
 2068SOL    HW217841   1.034   0.376   7.692 -0.1293 -3.0997  0.1210
 2069SOL     OW17842   0.144   3.023  17.561 -0.4838 -0.5899  0.1945
 2069SOL    HW117843   0.218   3.079  17.537 -0.5661 -0.2278  0.7804
 2069SOL    HW217844   0.195   2.945  17.579  1.3727  0.4383 -0.6206
 2070SOL     OW17845   4.034   4.290   2.408  0.2122 -0.5000 -0.0579
 2070SOL    HW117846   4.042   4.235   2.330  3.5807  1.4744 -1.0911
 2070SOL    HW217847   4.128   4.307   2.416 -0.0381  0.8314 -0.0144
 2071SOL     OW17848   3.533   0.113  13.050 -0.0941  0.0941  0.5821
 2071SOL    HW117849   3.548   0.206  13.062  2.1113 -0.3861  1.6041
 2071SOL    HW217850   3.525   0.087  13.142  1.0638  0.2427  0.7292
 2072SOL     OW17851   4.098   0.902   7.112 -0.5436  0.1537 -0.9479
 2072SOL    HW117852   4.174   0.958   7.129 -0.7118 -0.4792  1.9200
 2072SOL    HW217853   4.090   0.858   7.196  1.9211  1.2348 -0.1537
 2073SOL     OW17854   1.991   4.733   4.844  0.6018 -0.2124 -0.9467
 2073SOL    HW117855   2.011   0.090   4.829  0.0821  0.0317 -0.1273
 2073SOL    HW217856   1.953   4.729   4.932  0.4245  3.2617 -0.8878
 2074SOL     OW17857   0.268   4.698   3.360 -0.1278  0.5577 -0.4398
 2074SOL    HW117858   0.275   0.014   3.280 -2.8058  2.3691  0.5172
 2074SOL    HW217859   0.256   4.612   3.318  0.7208  0.1331  0.1857
 2075SOL     OW17860   3.986   4.359  12.796 -0.1649  0.2863  0.2493
 2075SOL    HW117861   3.984   4.278  12.745 -2.9148  1.4414 -1.4564
 2075SOL    HW217862   3.904   4.346  12.843 -1.2801  1.4707 -1.3641
 2076SOL     OW17863   0.415   2.902   4.228 -0.3210  0.1511  0.0313
 2076SOL    HW117864   0.325   2.936   4.233 -0.9865 -1.4227 -1.4882
 2076SOL    HW217865   0.433   2.913   4.135 -1.7829 -1.2473 -0.4254
 2077SOL     OW17866   1.194   1.102   4.003  0.4167 -0.2255  0.3848
 2077SOL    HW117867   1.135   1.153   3.947  3.0200  1.1506 -1.1111
 2077SOL    HW217868   1.129   1.037   4.030 -2.4776  2.6595  0.4814
 2078SOL     OW17869   2.157   1.708   4.863  0.5294  0.0021 -0.1080
 2078SOL    HW117870   2.139   1.802   4.865 -0.5039 -0.1822 -0.9755
 2078SOL    HW217871   2.252   1.717   4.858  0.6065  0.2891  1.7942
 2079SOL     OW17872   3.988   2.718   6.300 -0.5136 -0.2090 -0.7551
 2079SOL    HW117873   4.024   2.656   6.364  1.3578  1.2355 -0.4137
 2079SOL    HW217874   4.065   2.769   6.276 -0.0324  0.1594  1.5719
 2080SOL     OW17875   2.147   1.596  12.276 -0.4319  0.3659 -0.1555
 2080SOL    HW117876   2.101   1.677  12.295 -1.9406 -0.3979 -0.5405
 2080SOL    HW217877   2.151   1.561  12.365 -1.5356  2.1100  0.5578
 2081SOL     OW17878   3.145   1.380   6.344 -0.0660  0.4455  0.3194
 2081SOL    HW117879   3.140   1.468   6.306 -2.7549 -0.5036 -1.5264
 2081SOL    HW217880   3.080   1.326   6.300  0.0429 -0.2557  1.0153
 2082SOL     OW17881   1.387   1.335   0.463  0.0061 -0.0615 -0.8215
 2082SOL    HW117882   1.467   1.359   0.417 -0.7425  5.5820  0.7886
 2082SOL    HW217883   1.334   1.413   0.449 -0.0326 -0.2084 -1.4755
 2083SOL     OW17884   4.515   2.651   2.177 -0.0292 -0.4811 -0.7046
 2083SOL    HW117885   4.454   2.612   2.115 -2.5927  0.4639  1.2401
 2083SOL    HW217886   4.548   2.727   2.129  1.3112  0.1496  1.1996
 2084SOL     OW17887   2.401   2.418   2.009 -0.1480  0.0106  0.4898
 2084SOL    HW117888   2.323   2.446   1.963 -0.0097  0.4706  0.5424
 2084SOL    HW217889   2.457   2.495   2.008 -1.7827  1.1630 -0.4205
 2085SOL     OW17890   4.633   2.995   5.239 -0.3549 -0.3486 -0.5611
 2085SOL    HW117891   4.670   3.061   5.180  2.1909 -0.1142  1.3051
 2085SOL    HW217892   4.712   2.957   5.277  0.2719  2.5656  1.0182
 2086SOL     OW17893   2.900   2.743  16.206  0.0380  0.0502 -0.1092
 2086SOL    HW117894   2.870   2.745  16.115 -2.5104 -0.0691  0.7434
 2086SOL    HW217895   2.831   2.792  16.250 -1.0374 -4.0599  2.7565
 2087SOL     OW17896   4.584   0.799   8.576 -0.2832  0.5112 -0.0836
 2087SOL    HW117897   4.545   0.771   8.659 -1.7078  1.1164 -0.5454
 2087SOL    HW217898   4.623   0.883   8.600  0.6506 -0.6356  2.3907
 2088SOL     OW17899   3.509   0.226  17.381 -0.0773  0.4628  0.2366
 2088SOL    HW117900   3.473   0.137  17.384  1.6590 -0.2596 -0.3192
 2088SOL    HW217901   3.439   0.273  17.426  0.2985  0.8903  0.3653
 2089SOL     OW17902   1.711   0.158  14.581 -0.1310 -0.5083 -0.4850
 2089SOL    HW117903   1.743   0.070  14.561  0.5732 -0.7120  1.5279
 2089SOL    HW217904   1.662   0.180  14.501  0.1894 -0.4173 -0.6581
 2090SOL     OW17905   4.346   1.562   9.795 -0.0608 -0.0348  0.0281
 2090SOL    HW117906   4.414   1.587   9.857 -2.0144 -0.8976  2.5224
 2090SOL    HW217907   4.325   1.472   9.820  2.6606 -0.8216 -0.4817
 2091SOL     OW17908   3.450   0.736  13.783 -0.4827 -0.1657  0.2569
 2091SOL    HW117909   3.427   0.710  13.872 -1.1477  0.3298  0.2233
 2091SOL    HW217910   3.520   0.798  13.804 -0.5699  0.0297 -0.0234
 2092SOL     OW17911   4.020   4.639   2.882  0.4839  0.4757 -0.4201
 2092SOL    HW117912   4.066   4.710   2.836  1.5601 -2.3384 -3.6344
 2092SOL    HW217913   3.957   4.611   2.816  0.8895 -1.1012 -0.1277
 2093SOL     OW17914   0.268   3.983   4.372  0.0274  0.5404 -0.2010
 2093SOL    HW117915   0.254   4.042   4.298  1.3985 -0.0120 -0.9227
 2093SOL    HW217916   0.272   3.896   4.332 -0.2268 -0.3886  1.8419
 2094SOL     OW17917   4.568   4.357   3.426 -0.5162  0.1209  0.5075
 2094SOL    HW117918   4.627   4.432   3.418 -1.0579  0.6794  1.7157
 2094SOL    HW217919   4.617   4.279   3.401 -0.3343  0.0121  1.2028
 2095SOL     OW17920   1.979   2.990   7.665  0.2211  0.1715  0.5550
 2095SOL    HW117921   1.961   3.022   7.753 -2.4918  0.9252 -0.2722
 2095SOL    HW217922   2.073   2.972   7.671 -0.3185 -2.3917  1.1537
 2096SOL     OW17923   3.109   2.800  10.181 -0.4098 -0.8959  0.1106
 2096SOL    HW117924   3.156   2.817  10.100  0.7933  0.1583  1.0276
 2096SOL    HW217925   3.056   2.726  10.151  1.1443 -1.5235 -1.1143
 2097SOL     OW17926   0.938   2.231   9.780  0.2543 -0.0689 -0.1818
 2097SOL    HW117927   0.968   2.196   9.696  0.2586  0.3737 -0.3643
 2097SOL    HW217928   1.003   2.201   9.843 -2.1882  1.6840  3.1952
 2098SOL     OW17929   1.197   1.156   6.387  0.3871  0.5282  0.3787
 2098SOL    HW117930   1.146   1.078   6.409 -0.7492  0.5521 -2.1932
 2098SOL    HW217931   1.279   1.117   6.354  0.1780 -1.6631  2.4070
 2099SOL     OW17932   2.679   4.522   1.556 -0.2707  0.0612 -0.0478
 2099SOL    HW117933   2.681   4.428   1.542 -0.0523 -0.0715  0.8591
 2099SOL    HW217934   2.670   4.557   1.467 -0.4705 -0.8294 -0.3789
 2100SOL     OW17935   3.999   2.940   2.164  0.0363 -0.2526 -0.4276
 2100SOL    HW117936   3.998   2.905   2.252  0.1577 -0.1526 -0.3864
 2100SOL    HW217937   4.071   3.002   2.177  2.1199 -2.3886 -1.7208
 2101SOL     OW17938   3.040   1.193   4.612  0.1965  0.0784 -0.2915
 2101SOL    HW117939   3.068   1.283   4.594 -1.0697  0.6914  0.8056
 2101SOL    HW217940   2.967   1.199   4.550 -0.8341 -0.2405  0.8983
 2102SOL     OW17941   2.261   1.039   5.183  0.6586  0.7438 -0.3144
 2102SOL    HW117942   2.347   1.080   5.183  2.0457 -2.1675  0.9306
 2102SOL    HW217943   2.207   1.107   5.142 -0.0824  1.1794  1.3348
 2103SOL     OW17944   4.111   3.015   6.205  0.1115 -0.1289 -0.1602
 2103SOL    HW117945   4.122   3.074   6.279  2.7602 -0.2369 -0.4898
 2103SOL    HW217946   4.021   3.035   6.179 -0.0047 -1.1408 -0.5421
 2104SOL     OW17947   3.001   4.720   7.851  0.2085 -0.3933  0.2175
 2104SOL    HW117948   2.969   4.708   7.762 -0.9097 -0.0065  0.5647
 2104SOL    HW217949   2.918   4.717   7.898  0.5556 -0.4050  0.8367
 2105SOL     OW17950   4.677   3.902  15.012 -0.8277  0.1359 -0.6258
 2105SOL    HW117951   4.633   3.935  14.933 -0.9532  1.4507  0.0014
 2105SOL    HW217952   4.694   3.810  14.989 -2.0643 -0.8348  2.3795
 2106SOL     OW17953   3.542   3.628   2.466 -0.6628  0.1666  0.3357
 2106SOL    HW117954   3.507   3.679   2.393  1.1977  0.7644 -0.1386
 2106SOL    HW217955   3.593   3.566   2.414 -2.1852 -1.4343  0.7302
 2107SOL     OW17956   0.832   0.149  14.961 -0.7086  0.3213  0.2752
 2107SOL    HW117957   0.844   0.242  14.943 -0.7114  0.4070  0.7238
 2107SOL    HW217958   0.864   0.093  14.890 -2.9961  1.3491 -1.5802
 2108SOL     OW17959   0.440   1.999   9.017 -0.8898  0.3072  0.3459
 2108SOL    HW117960   0.389   2.073   8.987 -0.0103 -0.0594 -2.0488
 2108SOL    HW217961   0.457   2.017   9.110  2.4941  0.3153 -0.2726
 2109SOL     OW17962   3.916   2.376  17.080  0.6654  0.1433 -0.1344
 2109SOL    HW117963   4.003   2.408  17.055 -0.4769  4.1185  0.9409
 2109SOL    HW217964   3.874   2.451  17.123 -1.0177 -1.4646  1.0086
 2110SOL     OW17965   0.130   3.226   8.450 -0.3995  0.3426  0.5552
 2110SOL    HW117966   0.128   3.311   8.494 -1.1589  0.6393 -0.0400
 2110SOL    HW217967   0.094   3.159   8.508 -2.4329  0.9078 -0.0331
 2111SOL     OW17968   0.546   2.343   8.764  0.3724  0.3896 -0.3688
 2111SOL    HW117969   0.518   2.435   8.763 -2.2574 -0.4120  2.2676
 2111SOL    HW217970   0.639   2.353   8.787  0.2927  0.4255 -0.0668
 2112SOL     OW17971   0.108   2.705  16.531 -0.0851  0.6249 -0.0792
 2112SOL    HW117972   0.059   2.747  16.602  1.8382  0.7813  1.1383
 2112SOL    HW217973   0.172   2.663  16.588 -0.7936 -0.4715 -0.1034
 2113SOL     OW17974   1.624   2.394   7.007 -0.1349 -0.0093 -0.1152
 2113SOL    HW117975   1.603   2.472   7.058 -0.4353  0.4159 -0.8901
 2113SOL    HW217976   1.564   2.394   6.933 -1.5174 -1.3454  1.0109
 2114SOL     OW17977   2.092   0.474   8.473 -0.3613  0.4844 -0.2036
 2114SOL    HW117978   2.009   0.499   8.433 -0.7357  4.1071  2.8237
 2114SOL    HW217979   2.126   0.563   8.482 -1.1304  0.9389 -1.9816
 2115SOL     OW17980   0.225   4.086   4.107  0.3065 -0.2734  0.0932
 2115SOL    HW117981   0.146   4.032   4.100  0.7313 -0.7526 -1.0180
 2115SOL    HW217982   0.199   4.162   4.055  1.4851  0.0384 -0.0493
 2116SOL     OW17983   1.486   0.017  15.441  0.7418 -0.7451 -0.5924
 2116SOL    HW117984   1.482   0.055  15.354  0.3671 -0.2549 -0.3628
 2116SOL    HW217985   1.538   0.089  15.479 -1.1541  0.5017 -0.3314
 2117SOL     OW17986   0.692   2.882  15.611  0.0603 -0.2930  0.0862
 2117SOL    HW117987   0.635   2.874  15.687  1.8200 -0.4831  1.3839
 2117SOL    HW217988   0.663   2.812  15.552 -1.1518 -0.3033  0.6922
 2118SOL     OW17989   4.319   1.167   7.384 -0.6657  0.0595  0.1979
 2118SOL    HW117990   4.327   1.116   7.465 -0.8546 -1.3443 -0.6799
 2118SOL    HW217991   4.320   1.255   7.422 -3.1891  0.5529 -0.8906
 2119SOL     OW17992   4.640   1.543   2.052 -0.0898  0.6915  0.3811
 2119SOL    HW117993   4.659   1.456   2.016  2.5875  1.0615  0.8944
 2119SOL    HW217994   4.680   1.603   1.990 -1.6885  0.0618 -1.2594
 2120SOL     OW17995   3.825   0.563   7.327 -0.3267 -0.0495 -0.2802
 2120SOL    HW117996   3.845   0.655   7.341 -0.3918 -0.2181  0.8877
 2120SOL    HW217997   3.847   0.529   7.413 -1.5592 -1.2205 -0.4167
 2121SOL     OW17998   1.396   1.145   8.161 -0.5829  0.0319 -0.6556
 2121SOL    HW117999   1.309   1.183   8.167 -0.7274  0.1638 -3.9028
 2121SOL    HW218000   1.376   1.054   8.185  0.3982 -0.1344 -0.4772
 2122SOL     OW18001   0.241   3.613   7.441 -0.1075 -0.7994  0.1159
 2122SOL    HW118002   0.254   3.654   7.355  0.5041 -0.1829  0.5046
 2122SOL    HW218003   0.146   3.616   7.451 -0.2444 -1.6663 -0.9139
 2123SOL     OW18004   4.098   0.495  16.654  0.0191  0.1036  0.9463
 2123SOL    HW118005   4.073   0.550  16.580  2.0969 -2.0144 -1.3057
 2123SOL    HW218006   4.053   0.416  16.625  1.6935 -0.8257  0.9466
 2124SOL     OW18007   2.464   2.753   9.099 -0.3031  0.7235  0.1529
 2124SOL    HW118008   2.550   2.743   9.059 -0.4633 -0.5573  0.1408
 2124SOL    HW218009   2.495   2.786   9.183  0.4429 -2.0806  0.9720
 2125SOL     OW18010   4.127   3.514   5.734  0.4407  0.8046  0.1363
 2125SOL    HW118011   4.180   3.498   5.656 -1.7556  0.5976 -1.2988
 2125SOL    HW218012   4.181   3.538   5.810 -3.0454  1.5736  2.3767
 2126SOL     OW18013   0.759   0.873   7.510 -0.0130  0.6632  0.3542
 2126SOL    HW118014   0.848   0.846   7.530 -1.2973 -3.5108  0.5233
 2126SOL    HW218015   0.734   0.921   7.589  0.0172 -0.1413  0.8489
 2127SOL     OW18016   0.127   1.346   7.114 -0.0290 -0.3700 -0.3224
 2127SOL    HW118017   0.047   1.396   7.098  0.6046  0.3077 -1.3769
 2127SOL    HW218018   0.162   1.381   7.196 -0.1405 -1.7759  0.3105
 2128SOL     OW18019   1.437   0.183  12.776 -0.5380  0.2626  0.0349
 2128SOL    HW118020   1.367   0.173  12.711  0.0106 -1.9727 -0.2299
 2128SOL    HW218021   1.455   0.090  12.792 -1.4629 -0.3048 -2.3201
 2129SOL     OW18022   0.689   3.665  10.076  0.4470 -0.2923 -0.2285
 2129SOL    HW118023   0.725   3.678  10.164  1.1266  0.0086 -0.5451
 2129SOL    HW218024   0.596   3.684  10.086  0.3427 -1.3274  0.6644
 2130SOL     OW18025   1.451   4.385   6.344 -0.1358 -0.5982 -0.3523
 2130SOL    HW118026   1.545   4.386   6.332 -0.4132  1.4985 -2.3189
 2130SOL    HW218027   1.446   4.388   6.440  0.2838  0.9505 -0.3855
 2131SOL     OW18028   1.620   4.487  12.307  0.5157 -0.5930 -0.0858
 2131SOL    HW118029   1.539   4.438  12.296 -0.2415  0.1147  2.2875
 2131SOL    HW218030   1.681   4.420  12.276 -0.4643 -1.8368  0.7109
 2132SOL     OW18031   2.570   3.797   7.337 -0.1005 -0.0722  0.2290
 2132SOL    HW118032   2.602   3.758   7.419  0.8668  0.1679 -0.0346
 2132SOL    HW218033   2.649   3.832   7.296 -0.4315 -2.6036 -2.5405
 2133SOL     OW18034   4.261   3.172   8.868  0.4938 -0.6101  0.1198
 2133SOL    HW118035   4.277   3.079   8.852 -0.2844 -0.8461  0.6940
 2133SOL    HW218036   4.322   3.205   8.802 -0.2650  1.8725  0.6609
 2134SOL     OW18037   0.008   0.007   2.051 -0.8100 -0.0102 -0.1958
 2134SOL    HW118038   4.658   4.736   2.093 -0.3189 -0.8244  0.6507
 2134SOL    HW218039   0.056   4.683   2.108  0.2287  0.2065 -0.8522
 2135SOL     OW18040   0.877   3.601   2.222  0.2554 -0.5727 -0.5088
 2135SOL    HW118041   0.954   3.545   2.211  1.4963  0.8841  0.7662
 2135SOL    HW218042   0.849   3.631   2.135  1.7010  1.7673 -0.1877
 2136SOL     OW18043   0.123   0.776   6.701 -0.2212  0.0988 -1.0079
 2136SOL    HW118044   0.195   0.744   6.755 -0.3109  1.9345  0.1724
 2136SOL    HW218045   0.108   0.695   6.651  3.4670 -0.7592 -0.7800
 2137SOL     OW18046   0.144   3.872  15.224  0.6170 -0.2535  0.2903
 2137SOL    HW118047   0.090   3.913  15.157 -1.0818  0.5783  2.1705
 2137SOL    HW218048   0.075   3.838  15.281  0.2531 -0.2489 -0.1424
 2138SOL     OW18049   1.835   3.860  10.471 -0.3657  0.0990 -0.1802
 2138SOL    HW118050   1.819   3.857  10.377  1.7862 -2.6421 -0.4700
 2138SOL    HW218051   1.745   3.868  10.503  0.0459 -0.5221  1.1290
 2139SOL     OW18052   3.472   1.686   5.983 -0.0488 -0.5046  0.1710
 2139SOL    HW118053   3.565   1.707   5.991  0.3566 -1.1596 -3.0407
 2139SOL    HW218054   3.466   1.595   5.955 -0.7119 -0.3854 -0.0683
 2140SOL     OW18055   2.772   0.407   8.628 -0.3712  0.2229 -1.1609
 2140SOL    HW118056   2.787   0.478   8.566  2.7107  1.0339  0.5166
 2140SOL    HW218057   2.812   0.436   8.710  0.7467 -1.0820 -1.2329
 2141SOL     OW18058   0.475   3.414   7.483  0.0408  0.0925 -0.6862
 2141SOL    HW118059   0.406   3.449   7.539 -0.6421  0.2348 -1.6169
 2141SOL    HW218060   0.552   3.464   7.512  1.3428 -1.6346 -1.2122
 2142SOL     OW18061   2.663   2.369  12.183  0.0701  0.2481  0.2673
 2142SOL    HW118062   2.642   2.284  12.223 -1.4075  0.4679 -0.0440
 2142SOL    HW218063   2.749   2.394  12.217  0.4510 -3.0285  1.7241
 2143SOL     OW18064   1.740   1.281   3.598 -0.4291 -0.2097 -0.3864
 2143SOL    HW118065   1.658   1.259   3.643 -0.7476  0.2755 -0.7274
 2143SOL    HW218066   1.753   1.373   3.624  1.7706 -0.3493 -0.9728
 2144SOL     OW18067   2.183   2.976   3.771 -0.2255 -0.3324 -0.1063
 2144SOL    HW118068   2.174   2.881   3.760 -0.3044 -0.5581  2.0337
 2144SOL    HW218069   2.108   2.996   3.716  0.5758  1.5302 -0.5284
 2145SOL     OW18070   0.834   2.495  11.704  0.3242  0.0725 -0.4329
 2145SOL    HW118071   0.781   2.568  11.672  0.3131  1.1742  2.0496
 2145SOL    HW218072   0.849   2.442  11.626  1.3345  1.2520 -1.0522
 2146SOL     OW18073   0.090   0.655   3.449 -0.0347 -0.7047 -0.1691
 2146SOL    HW118074   4.731   0.640   3.447 -0.0773 -0.4290 -0.1911
 2146SOL    HW218075   0.105   0.665   3.355  1.5075 -0.3138  0.1257
 2147SOL     OW18076   2.651   2.382   4.989 -0.1707  0.8302  0.4273
 2147SOL    HW118077   2.746   2.376   4.980 -0.4575  0.9925 -3.0293
 2147SOL    HW218078   2.632   2.330   5.067 -1.7115  1.0959  0.2287
 2148SOL     OW18079   3.194   3.515   9.478 -0.1483  0.1624 -0.1569
 2148SOL    HW118080   3.222   3.601   9.448 -0.5201  1.2036  2.4893
 2148SOL    HW218081   3.206   3.466   9.397  1.8496  2.3847 -1.1857
 2149SOL     OW18082   2.080   1.261  12.621 -0.7052 -0.2141 -1.0207
 2149SOL    HW118083   2.016   1.255  12.692 -0.2027  1.4319 -0.4377
 2149SOL    HW218084   2.053   1.190  12.563 -0.5599  0.9565 -2.5184
 2150SOL     OW18085   0.442   3.459   2.908 -0.5080  0.2942  0.0966
 2150SOL    HW118086   0.372   3.451   2.844 -0.3301  2.0670 -0.3166
 2150SOL    HW218087   0.394   3.463   2.990  1.0862  0.0651  1.0445
 2151SOL     OW18088   0.393   0.687  16.419  0.3724  0.2121 -0.0486
 2151SOL    HW118089   0.471   0.692  16.363  0.2523  1.0888 -0.1460
 2151SOL    HW218090   0.329   0.733  16.365 -0.9980 -0.6452  0.8757
 2152SOL     OW18091   2.144   4.706   2.668 -0.0648  0.0695 -0.7781
 2152SOL    HW118092   2.238   4.702   2.682 -0.0628 -1.9359 -1.3352
 2152SOL    HW218093   2.120   4.615   2.689 -2.4231  0.0261 -3.6540
 2153SOL     OW18094   4.734   4.253  14.926 -0.7161 -0.2729 -0.1772
 2153SOL    HW118095   0.014   4.187  14.858  0.3317  1.4154 -1.5797
 2153SOL    HW218096   0.069   4.248  14.990 -1.0864 -2.6857  0.0726
 2154SOL     OW18097   0.925   3.643   1.886 -0.2402 -0.1949 -0.2882
 2154SOL    HW118098   1.017   3.627   1.906 -0.0062 -0.0655 -1.2621
 2154SOL    HW218099   0.908   3.560   1.842 -3.0959 -0.0388  0.4975
 2155SOL     OW18100   0.562   1.329   8.861  0.1452  0.6267 -0.4108
 2155SOL    HW118101   0.546   1.413   8.904 -2.9529  0.1202 -0.5794
 2155SOL    HW218102   0.615   1.347   8.783 -0.3564 -0.0538 -0.9087
 2156SOL     OW18103   4.681   4.090  16.132 -0.2902 -0.2160 -0.7241
 2156SOL    HW118104   4.633   4.173  16.135 -0.6377 -0.4877  1.6728
 2156SOL    HW218105   4.617   4.038  16.083 -1.0621  3.3901 -3.5436
 2157SOL     OW18106   2.502   0.189  14.513 -0.6175  0.2126 -0.4198
 2157SOL    HW118107   2.413   0.155  14.513 -0.4761 -0.1488 -2.3408
 2157SOL    HW218108   2.560   0.114  14.500 -0.1825  0.7166 -1.3520
 2158SOL     OW18109   0.712   3.599  15.085  0.6412 -0.6033 -0.0807
 2158SOL    HW118110   0.743   3.539  15.153  1.5702  0.7812  0.6995
 2158SOL    HW218111   0.789   3.589  15.029  0.5594  1.3915 -0.5254
 2159SOL     OW18112   4.292   0.475   1.091  0.4212 -0.3538  0.0076
 2159SOL    HW118113   4.304   0.407   1.025 -4.1206 -1.9090  0.8377
 2159SOL    HW218114   4.212   0.518   1.061 -0.4715 -2.0582 -0.0391
 2160SOL     OW18115   4.458   4.664   7.118  0.0577 -0.0708  0.1455
 2160SOL    HW118116   4.393   4.608   7.162 -1.7145  1.9736  0.1084
 2160SOL    HW218117   4.488   4.602   7.051  0.5505  0.7100 -0.3486
 2161SOL     OW18118   2.717   0.172  12.810 -0.0146  1.2670  0.1679
 2161SOL    HW118119   2.810   0.163  12.832 -0.1136  1.7236  0.7846
 2161SOL    HW218120   2.682   0.160  12.899 -1.3373 -1.9596 -0.8148
 2162SOL     OW18121   4.541   4.039  12.990  0.6808 -0.4262 -0.0538
 2162SOL    HW118122   4.595   4.115  12.970  0.3328  0.2770  1.6780
 2162SOL    HW218123   4.517   4.046  13.082  0.5883  4.5281 -0.4530
 2163SOL     OW18124   1.661   3.520   9.579 -0.3752 -0.0061  0.2371
 2163SOL    HW118125   1.648   3.429   9.603 -0.1892  0.0410  0.5173
 2163SOL    HW218126   1.658   3.567   9.663 -0.7709  1.3076 -0.5066
 2164SOL     OW18127   4.306   3.648   5.947 -0.2223 -0.1684  0.3583
 2164SOL    HW118128   4.263   3.702   6.014 -3.5900 -1.4949 -0.7640
 2164SOL    HW218129   4.360   3.586   5.996  1.1077  0.1802 -0.6566
 2165SOL     OW18130   3.584   0.345   1.184 -0.6952  0.3236 -0.3392
 2165SOL    HW118131   3.522   0.338   1.257  2.8380  2.2309  2.8753
 2165SOL    HW218132   3.592   0.440   1.177 -0.5258  0.3911  0.7136
 2166SOL     OW18133   0.573   2.579   8.147 -0.1363 -0.3986  0.1945
 2166SOL    HW118134   0.654   2.528   8.145 -0.3207 -0.6933  0.2422
 2166SOL    HW218135   0.581   2.641   8.219  0.2790 -2.6718  2.1177
 2167SOL     OW18136   4.302   3.620   6.427  1.2295  0.0305 -0.1669
 2167SOL    HW118137   4.310   3.575   6.343 -1.4126  0.0467 -0.4384
 2167SOL    HW218138   4.210   3.646   6.430  1.2466 -0.1475  1.8062
 2168SOL     OW18139   0.247   1.680   8.557  0.1496  0.3162  0.2061
 2168SOL    HW118140   0.163   1.704   8.596 -0.9553 -3.4575  0.1265
 2168SOL    HW218141   0.268   1.602   8.608 -4.3682 -0.0037  1.4956
 2169SOL     OW18142   2.569   2.146  16.599 -0.3364  0.3767  1.1192
 2169SOL    HW118143   2.544   2.128  16.508 -0.9982  0.9210  1.2002
 2169SOL    HW218144   2.566   2.057  16.633  0.3151  0.9245  2.5823
 2170SOL     OW18145   0.891   4.713   2.803 -0.1314  0.2041 -0.0619
 2170SOL    HW118146   0.959   0.044   2.801 -0.3857  0.4966  1.4729
 2170SOL    HW218147   0.805   0.018   2.792  0.4531  1.1042 -1.2660
 2171SOL     OW18148   1.883   4.547  17.629 -0.6376  0.3980  0.0956
 2171SOL    HW118149   1.909   4.466  17.584  2.9045  2.1845 -1.0055
 2171SOL    HW218150   1.804   4.527  17.680 -2.4085  0.5745 -2.5523
 2172SOL     OW18151   1.404   3.173   5.368  0.0746 -0.2589 -0.1980
 2172SOL    HW118152   1.399   3.203   5.459  0.1656 -2.3941  0.5187
 2172SOL    HW218153   1.323   3.213   5.337  0.2801 -0.5784 -1.1274
 2173SOL     OW18154   2.041   2.495  13.340  0.5855  0.6707  0.0488
 2173SOL    HW118155   2.100   2.421  13.352  0.7811  1.3913  3.5662
 2173SOL    HW218156   1.995   2.493  13.423 -0.6327  1.3181 -0.6159
 2174SOL     OW18157   3.286   2.656   6.291  0.0518  0.3406 -0.0736
 2174SOL    HW118158   3.307   2.693   6.377  0.3047  1.5225 -0.6376
 2174SOL    HW218159   3.271   2.738   6.245  1.5182  0.6426 -0.0307
 2175SOL     OW18160   1.047   1.726   5.927 -0.2185 -0.3756 -0.4604
 2175SOL    HW118161   1.062   1.794   5.992 -0.3192 -1.2799  0.5067
 2175SOL    HW218162   0.965   1.687   5.958 -0.8861 -1.0202 -3.0192
 2176SOL     OW18163   1.732   3.402  14.377 -0.5262  0.1441  0.3200
 2176SOL    HW118164   1.664   3.423  14.442 -1.0465  0.6976 -0.3941
 2176SOL    HW218165   1.710   3.462  14.305 -1.9340 -0.8685 -0.1018
 2177SOL     OW18166   1.010   0.443  15.146 -0.4350 -0.2320  0.2627
 2177SOL    HW118167   1.064   0.367  15.170  2.3624  2.1434  1.4957
 2177SOL    HW218168   1.066   0.511  15.108  0.8792 -1.7131 -0.4726
 2178SOL     OW18169   2.630   0.578  15.523  0.0364  0.1434  0.6341
 2178SOL    HW118170   2.592   0.630  15.452 -1.6712  0.0995  1.5300
 2178SOL    HW218171   2.554   0.526  15.546 -0.7074  0.2056 -1.6256
 2179SOL     OW18172   0.766   1.220   1.868 -0.1954 -0.0225  0.1236
 2179SOL    HW118173   0.778   1.146   1.807  0.6680  0.3741 -0.1897
 2179SOL    HW218174   0.678   1.206   1.901 -0.6719  2.5421 -0.0745
 2180SOL     OW18175   3.221   2.911   2.341  0.1379  0.4854 -0.1133
 2180SOL    HW118176   3.229   2.827   2.296  2.3053 -0.4248  1.9915
 2180SOL    HW218177   3.129   2.938   2.334 -0.3949 -1.1570  0.5221
 2181SOL     OW18178   4.608   0.795  15.696 -0.5448 -0.3077  0.2990
 2181SOL    HW118179   4.653   0.863  15.746 -1.1876 -0.0216  0.4790
 2181SOL    HW218180   4.686   0.762  15.652 -1.6215 -0.3976 -1.5468
 2182SOL     OW18181   1.269   2.318   0.273  0.1323 -0.5017 -0.3489
 2182SOL    HW118182   1.197   2.266   0.238  1.1723 -2.1384 -0.0501
 2182SOL    HW218183   1.235   2.315   0.363 -1.5813  1.8167 -0.9071
 2183SOL     OW18184   4.693   1.824  12.349 -0.1059 -0.1336 -0.2047
 2183SOL    HW118185   0.036   1.843  12.401  0.1065 -0.1741 -0.5105
 2183SOL    HW218186   4.622   1.839  12.412 -2.4274  2.7810 -3.4792
 2184SOL     OW18187   0.687   2.544   8.868  0.4393 -0.0211 -0.3152
 2184SOL    HW118188   0.747   2.521   8.939 -0.6767 -0.2049  0.5739
 2184SOL    HW218189   0.751   2.596   8.819  0.6712 -0.0593 -0.0497
 2185SOL     OW18190   3.525   0.220   5.766 -0.7623 -0.6686  0.0987
 2185SOL    HW118191   3.498   0.308   5.740  0.1672 -0.8969 -1.6069
 2185SOL    HW218192   3.477   0.201   5.847 -1.5515  1.6549  0.1822
 2186SOL     OW18193   0.003   4.611   8.556  0.0655 -0.4067  0.0046
 2186SOL    HW118194   4.701   4.644   8.474  0.1082 -1.5360 -0.4778
 2186SOL    HW218195   0.018   4.518   8.536 -1.0612 -0.7113  0.5700
 2187SOL     OW18196   4.025   3.027   2.790  0.1167  0.3715  0.3883
 2187SOL    HW118197   4.113   3.058   2.811 -1.3615  2.8934  2.8056
 2187SOL    HW218198   4.000   2.984   2.871  0.1192 -2.3310 -1.0546
 2188SOL     OW18199   1.721   4.613  11.175 -0.8695  0.5781  0.3725
 2188SOL    HW118200   1.769   4.641  11.253 -0.9130 -0.3493  0.7278
 2188SOL    HW218201   1.754   4.524  11.164 -0.2302  0.8044  0.4521
 2189SOL     OW18202   0.478   1.778   1.817 -0.3071  0.0596 -0.2073
 2189SOL    HW118203   0.557   1.803   1.770  0.4042 -0.1062  0.8986
 2189SOL    HW218204   0.467   1.852   1.876 -1.2625 -1.8454  2.0363
 2190SOL     OW18205   3.827   3.760   2.610 -0.0198 -1.1105  0.5908
 2190SOL    HW118206   3.832   3.735   2.702  0.0215  2.5513  1.5946
 2190SOL    HW218207   3.736   3.789   2.602 -0.4675 -2.1356  1.9778
 2191SOL     OW18208   3.612   1.755  12.804  1.0223  0.2563 -0.3751
 2191SOL    HW118209   3.623   1.717  12.717  2.5521  1.0041 -0.5066
 2191SOL    HW218210   3.578   1.679  12.852  0.3793  0.5029 -0.4334
 2192SOL     OW18211   0.744   1.622   4.189  0.5288 -0.0614  0.1316
 2192SOL    HW118212   0.707   1.710   4.188  2.2263  0.6650  2.0091
 2192SOL    HW218213   0.761   1.613   4.095  1.2190 -0.5375  0.3045
 2193SOL     OW18214   3.477   3.678   9.799 -0.0073 -0.8734 -0.2333
 2193SOL    HW118215   3.426   3.629   9.863 -1.3044  2.0343  0.9247
 2193SOL    HW218216   3.474   3.612   9.729  2.3474 -1.8857  0.5936
 2194SOL     OW18217   0.888   2.473   6.131  0.2559  0.1870  0.3038
 2194SOL    HW118218   0.822   2.513   6.074 -0.4862 -1.1491  0.2236
 2194SOL    HW218219   0.894   2.387   6.091  2.1001  0.2146  0.5066
 2195SOL     OW18220   3.093   0.754   7.926 -0.0806  0.3835 -0.1960
 2195SOL    HW118221   3.076   0.846   7.946  0.0048 -0.1610  2.4373
 2195SOL    HW218222   3.182   0.740   7.958  0.3100  1.8190 -0.6394
 2196SOL     OW18223   1.505   2.498   5.862 -0.0775 -0.2729 -0.0969
 2196SOL    HW118224   1.490   2.539   5.947  0.9935  1.5076 -0.7857
 2196SOL    HW218225   1.543   2.413   5.886 -1.5596 -1.2485 -1.2270
 2197SOL     OW18226   1.155   1.431   8.354 -0.2252  0.2863 -0.4576
 2197SOL    HW118227   1.241   1.474   8.356  0.1382 -0.5084  0.4777
 2197SOL    HW218228   1.104   1.501   8.314 -0.3967 -0.3697 -1.3855
 2198SOL     OW18229   1.643   4.326  16.290  0.5092  0.1645  0.0383
 2198SOL    HW118230   1.717   4.356  16.343  0.3911  0.7205 -0.1094
 2198SOL    HW218231   1.645   4.230  16.293 -0.0081  0.0749 -3.1979
 2199SOL     OW18232   1.991   0.550   8.913  0.3723  0.1846 -0.5112
 2199SOL    HW118233   1.952   0.515   8.833  2.4142 -1.0061 -1.0018
 2199SOL    HW218234   2.042   0.622   8.876  1.1477  0.4954  1.1556
 2200SOL     OW18235   2.737   3.905  15.756 -0.0342  0.3935 -0.0461
 2200SOL    HW118236   2.803   3.969  15.725 -0.0640  1.5130  2.2033
 2200SOL    HW218237   2.795   3.850  15.808 -0.6393 -0.5826 -0.4197
 2201SOL     OW18238   0.804   1.856  11.141 -0.3998 -0.2963  0.2224
 2201SOL    HW118239   0.856   1.922  11.095 -0.6441  1.3419  2.3012
 2201SOL    HW218240   0.715   1.892  11.132 -0.4765 -0.1189  1.7172
 2202SOL     OW18241   2.353   0.329  13.473 -0.0373  0.4850 -0.3298
 2202SOL    HW118242   2.367   0.236  13.458 -0.9636  0.2247  0.4477
 2202SOL    HW218243   2.274   0.339  13.419  0.3267 -0.3384 -1.0222
 2203SOL     OW18244   1.868   0.446   2.584  0.2522  0.0369 -0.9307
 2203SOL    HW118245   1.944   0.467   2.639 -0.4755  1.5065 -0.4629
 2203SOL    HW218246   1.864   0.527   2.533 -1.1079  1.8847  2.0388
 2204SOL     OW18247   0.244   0.372  12.743  0.0973 -0.1111  0.6026
 2204SOL    HW118248   0.278   0.347  12.657  0.0441  0.2318  0.4783
 2204SOL    HW218249   0.218   0.461  12.718  0.9513  0.2195  0.8858
 2205SOL     OW18250   3.811   2.795   7.903  0.0635  0.0585 -0.5001
 2205SOL    HW118251   3.848   2.845   7.975 -0.2394 -2.0373  1.1050
 2205SOL    HW218252   3.802   2.706   7.938  0.0849 -0.3869 -1.6339
 2206SOL     OW18253   1.815   3.787   2.717  0.3070 -0.5891  0.2954
 2206SOL    HW118254   1.899   3.747   2.738  0.8987  0.0358 -0.8884
 2206SOL    HW218255   1.854   3.855   2.661 -1.5643  0.5671  0.3997
 2207SOL     OW18256   4.485   1.829   2.029 -0.0723  0.0823 -0.2758
 2207SOL    HW118257   4.547   1.784   1.972 -1.9516 -2.3482 -0.4013
 2207SOL    HW218258   4.466   1.760   2.092 -0.2375  0.4032  0.0286
 2208SOL     OW18259   2.637   0.030  15.621 -0.2972  0.0731  0.1888
 2208SOL    HW118260   2.672   0.002  15.536 -0.8873  0.3716 -0.1522
 2208SOL    HW218261   2.594   0.112  15.596 -0.2236  0.3119  0.8502
 2209SOL     OW18262   1.749   1.964   7.021 -0.3621  0.1326 -0.2812
 2209SOL    HW118263   1.762   1.942   7.113 -0.1505  1.2996 -0.0349
 2209SOL    HW218264   1.790   1.887   6.983 -0.0579 -0.3191  0.9532
 2210SOL     OW18265   0.635   4.451   3.679 -0.2809 -0.2880 -0.5048
 2210SOL    HW118266   0.661   4.542   3.696  0.9575 -1.1763  2.4649
 2210SOL    HW218267   0.569   4.442   3.748  1.5170 -0.4958  1.2193
 2211SOL     OW18268   4.583   2.133  12.959  0.2122  0.1578  0.1154
 2211SOL    HW118269   4.542   2.084  12.888 -3.2265  3.8989 -0.4710
 2211SOL    HW218270   4.509   2.171  13.006 -0.9721 -2.5074  0.4091
 2212SOL     OW18271   4.374   3.327   4.264  0.1939 -0.1823  0.1992
 2212SOL    HW118272   4.294   3.279   4.243  1.2011 -1.5040 -0.6090
 2212SOL    HW218273   4.353   3.381   4.341  2.4424  0.6947  0.2031
 2213SOL     OW18274   4.112   2.618  14.070  0.0317 -0.1805 -0.6709
 2213SOL    HW118275   4.070   2.690  14.024 -0.2014  0.8737  1.1808
 2213SOL    HW218276   4.154   2.562  14.004  0.8375  0.5373 -0.7672
 2214SOL     OW18277   0.662   2.060   4.977 -0.1238 -0.0783  0.2063
 2214SOL    HW118278   0.714   2.119   4.922 -1.5871  2.4231  1.5126
 2214SOL    HW218279   0.582   2.063   4.924  0.6454  1.3010 -0.8758
 2215SOL     OW18280   0.056   4.652   0.179  0.1460  0.3647  0.5645
 2215SOL    HW118281   0.032   0.009   0.182  1.7236  0.8110 -0.9162
 2215SOL    HW218282   0.028   4.630   0.090  1.3765 -0.8057  0.4716
 2216SOL     OW18283   3.000   0.874  13.836 -0.5625  0.5225  0.0729
 2216SOL    HW118284   3.020   0.862  13.744  0.4534  0.3966  0.3127
 2216SOL    HW218285   3.076   0.837  13.881  1.0070  2.2795 -1.1677
 2217SOL     OW18286   2.431   0.102  13.046  0.4720 -0.1557 -0.1549
 2217SOL    HW118287   2.485   0.097  13.125 -0.4940 -3.8867  0.2985
 2217SOL    HW218288   2.430   0.197  13.037 -1.0082 -0.0827  0.8474
 2218SOL     OW18289   2.951   3.448   6.588  0.1048 -0.2119  0.2970
 2218SOL    HW118290   3.038   3.426   6.557  0.1327 -0.4907  0.5728
 2218SOL    HW218291   2.956   3.394   6.667 -0.1398  0.9570  1.1164
 2219SOL     OW18292   4.039   3.509   7.974  0.3263  0.2493 -0.3448
 2219SOL    HW118293   4.033   3.587   8.028  2.4510 -0.0740  0.3726
 2219SOL    HW218294   4.129   3.487   7.997  0.0766 -1.0793 -0.6319
 2220SOL     OW18295   0.882   0.416  14.906  0.2237 -0.0297 -0.2490
 2220SOL    HW118296   0.923   0.432  14.990 -1.1254  0.8114  0.2533
 2220SOL    HW218297   0.921   0.480  14.846  0.9341 -0.3127 -0.0887
 2221SOL     OW18298   2.446   1.750  17.192 -0.3105  0.1095  0.3637
 2221SOL    HW118299   2.522   1.807  17.207  0.8358 -1.0219 -1.1906
 2221SOL    HW218300   2.487   1.666  17.173  0.7809  0.6493  0.3422
 2222SOL     OW18301   2.853   3.499   1.364  0.0384  0.3434  0.2645
 2222SOL    HW118302   2.905   3.419   1.375 -0.6040 -0.0765  0.2183
 2222SOL    HW218303   2.920   3.563   1.342 -0.4618  0.1642 -1.7706
 2223SOL     OW18304   1.377   4.657   6.482  0.1080 -0.8478 -0.3201
 2223SOL    HW118305   1.464   4.695   6.494 -0.3489 -0.1874  0.9470
 2223SOL    HW218306   1.386   4.574   6.530  0.7050  0.0666  1.1621
 2224SOL     OW18307   1.370   4.242   5.423  0.1521  0.0477 -0.4606
 2224SOL    HW118308   1.277   4.256   5.439 -0.0053 -0.2934 -1.0603
 2224SOL    HW218309   1.367   4.151   5.394  0.6571 -0.5292  1.3200
 2225SOL     OW18310   3.037   2.675   2.256 -0.5497 -0.1136  0.4878
 2225SOL    HW118311   3.118   2.625   2.264 -0.7998 -0.4943  0.6019
 2225SOL    HW218312   2.994   2.660   2.340  1.6178 -0.7413  1.4825
 2226SOL     OW18313   3.096   1.014   5.805 -0.6885  0.4690  0.1823
 2226SOL    HW118314   3.007   1.033   5.775 -0.3421  2.8059  0.5677
 2226SOL    HW218315   3.117   0.935   5.755 -2.9377 -0.9686  1.5219
 2227SOL     OW18316   0.159   1.746   4.397 -0.3068  0.8714 -0.2450
 2227SOL    HW118317   0.105   1.817   4.433 -0.6662  1.6969 -2.4081
 2227SOL    HW218318   0.250   1.775   4.395  0.3755 -1.0763  2.5569
 2228SOL     OW18319   3.977   4.664   5.956 -0.0404 -0.6181  0.1354
 2228SOL    HW118320   3.922   4.676   5.879  2.4547  0.7817 -1.4427
 2228SOL    HW218321   4.033   0.005   5.947 -0.9026 -0.3498 -2.6619
 2229SOL     OW18322   2.780   4.237   3.968 -0.2247  0.1394 -0.1168
 2229SOL    HW118323   2.756   4.203   4.054 -2.0175 -1.5805 -1.3057
 2229SOL    HW218324   2.843   4.167   3.951 -0.2878 -0.3818  1.8674
 2230SOL     OW18325   1.850   4.414  16.451  0.7517 -0.0063  0.2370
 2230SOL    HW118326   1.915   4.345  16.464  0.9331  0.2615  0.7768
 2230SOL    HW218327   1.823   4.434  16.541 -2.4647  2.7734 -1.3693
 2231SOL     OW18328   1.263   3.650   2.736 -0.6680 -0.2164 -0.4805
 2231SOL    HW118329   1.257   3.718   2.804  2.8560 -0.6808  0.2898
 2231SOL    HW218330   1.174   3.639   2.701 -0.1764 -0.7908 -1.5438
 2232SOL     OW18331   3.526   2.361   6.641 -0.2229  0.7511 -0.7397
 2232SOL    HW118332   3.463   2.418   6.684  0.7161  0.2476  1.3284
 2232SOL    HW218333   3.556   2.421   6.573  3.4280  0.8025  0.9091
 2233SOL     OW18334   4.477   3.126  12.856  0.1908  0.5329 -0.2894
 2233SOL    HW118335   4.387   3.113  12.827 -0.7033  2.3097  1.6642
 2233SOL    HW218336   4.506   3.036  12.843 -2.2401 -0.0818 -1.4319
 2234SOL     OW18337   1.433   2.202   8.675  0.4183 -0.6865  0.3675
 2234SOL    HW118338   1.520   2.164   8.679  1.2548  1.0684 -1.0658
 2234SOL    HW218339   1.455   2.283   8.721 -1.0128 -0.7151  1.1196
 2235SOL     OW18340   0.505   4.271  11.717 -0.1728 -0.5315 -0.6133
 2235SOL    HW118341   0.542   4.326  11.648 -1.7265  0.1090 -0.9499
 2235SOL    HW218342   0.435   4.234  11.664 -0.1055  0.6512 -1.5235
 2236SOL     OW18343   0.995   3.515   8.785  0.2148 -0.5623  0.5641
 2236SOL    HW118344   1.027   3.430   8.817  1.0042  0.2071  1.8002
 2236SOL    HW218345   0.908   3.514   8.824  0.7160 -1.4128  1.6631
 2237SOL     OW18346   0.792   2.184  16.634  0.5700 -0.2160 -0.1657
 2237SOL    HW118347   0.709   2.188  16.586  0.3586 -0.0680  0.2139
 2237SOL    HW218348   0.844   2.239  16.574 -2.9274  0.4373 -2.6092
 2238SOL     OW18349   1.290   2.833   9.808  0.4150 -0.6220  0.1476
 2238SOL    HW118350   1.197   2.847   9.791  0.7217  0.0378 -1.0050
 2238SOL    HW218351   1.316   2.902   9.870 -0.8208  0.3411 -0.4131
 2239SOL     OW18352   0.184   4.607   7.067 -0.2188  0.5877 -0.1965
 2239SOL    HW118353   0.170   4.535   7.005  0.4306  0.5327 -0.2856
 2239SOL    HW218354   0.272   4.589   7.101 -0.2799 -0.5667 -0.6588
 2240SOL     OW18355   1.363   3.884   3.734 -0.3122 -0.0128 -0.1215
 2240SOL    HW118356   1.443   3.934   3.718  0.3290 -1.5298 -1.6527
 2240SOL    HW218357   1.383   3.834   3.813 -0.4009  1.1088  0.6186
 2241SOL     OW18358   3.571   4.640   7.451  0.0943  0.3000  0.4723
 2241SOL    HW118359   3.637   4.709   7.440  0.5530 -0.3066 -0.5141
 2241SOL    HW218360   3.523   4.684   7.522  0.8692  0.2962  1.0021
 2242SOL     OW18361   4.394   2.040  10.396  0.1169 -0.7578  0.4962
 2242SOL    HW118362   4.328   2.000  10.452  1.3158  0.7912  3.0192
 2242SOL    HW218363   4.458   1.969  10.396 -0.5225 -1.3354 -0.3103
 2243SOL     OW18364   0.457   0.467   3.390  0.0004 -0.1297 -0.4675
 2243SOL    HW118365   0.455   0.440   3.481  2.9945  1.8856  0.1741
 2243SOL    HW218366   0.551   0.451   3.380 -0.1716  0.3064 -2.7689
 2244SOL     OW18367   1.732   0.670   6.334  0.5323  0.4907 -0.1596
 2244SOL    HW118368   1.637   0.665   6.343  0.4985 -1.6106 -1.7371
 2244SOL    HW218369   1.734   0.666   6.238 -0.6502  0.5230 -0.1806
 2245SOL     OW18370   0.612   2.717  15.354 -0.6046 -0.1841  0.0081
 2245SOL    HW118371   0.649   2.786  15.299  1.7068 -1.5537 -0.1310
 2245SOL    HW218372   0.578   2.654  15.290  0.2282  0.4711 -1.0818
 2246SOL     OW18373   0.051   2.571   6.670 -0.7654 -0.2588 -0.1733
 2246SOL    HW118374   0.104   2.559   6.749 -0.8259 -2.3128 -0.4439
 2246SOL    HW218375   0.124   2.589   6.611 -2.4740  0.0821 -2.2072
 2247SOL     OW18376   0.675   1.055   3.980 -0.0429  0.1941  0.0514
 2247SOL    HW118377   0.584   1.074   4.005  0.4987  0.2661  1.8965
 2247SOL    HW218378   0.722   1.049   4.063  1.1102  0.0378 -0.6239
 2248SOL     OW18379   1.733   3.071   1.421 -0.4560  0.3652 -0.7501
 2248SOL    HW118380   1.776   2.989   1.443 -0.8167  0.4614  0.2869
 2248SOL    HW218381   1.644   3.056   1.451 -0.9720  1.2178 -1.8247
 2249SOL     OW18382   1.676   4.094   6.327 -0.4593 -0.5673 -0.5889
 2249SOL    HW118383   1.696   4.184   6.354  0.9433 -0.7208 -1.1179
 2249SOL    HW218384   1.669   4.107   6.233  1.0448  1.2923 -0.4502
 2250SOL     OW18385   3.239   3.573  15.718 -0.8530 -0.4137 -0.4744
 2250SOL    HW118386   3.187   3.605  15.643 -0.8401  0.0639 -0.2796
 2250SOL    HW218387   3.307   3.527  15.669  0.8966  1.9602 -0.2803
 2251SOL     OW18388   0.544   1.450   0.884 -0.0839 -0.0260  0.6092
 2251SOL    HW118389   0.590   1.526   0.920  2.5089 -1.2917 -0.0226
 2251SOL    HW218390   0.546   1.381   0.951  2.0262 -0.9250 -0.3719
 2252SOL     OW18391   1.508   3.075   4.384 -0.2349 -0.6353  0.0306
 2252SOL    HW118392   1.518   2.982   4.408 -1.3783 -0.7856 -0.0760
 2252SOL    HW218393   1.423   3.072   4.341 -0.5063  2.0518  0.4159
 2253SOL     OW18394   0.022   2.371   2.143 -0.5454  0.2384  0.1484
 2253SOL    HW118395   0.054   2.305   2.204  1.8981 -1.1939 -2.7073
 2253SOL    HW218396   4.668   2.383   2.176  0.0125 -2.5025  2.6861
 2254SOL     OW18397   3.762   0.843   1.036 -0.3598 -0.0102 -0.0421
 2254SOL    HW118398   3.812   0.888   1.104 -1.3745 -1.2019  1.5178
 2254SOL    HW218399   3.694   0.900   1.000 -0.2999 -0.9014 -1.5680
 2255SOL     OW18400   1.498   1.182   0.665  0.0748 -0.1317  0.3495
 2255SOL    HW118401   1.427   1.199   0.727 -1.4994  0.4094 -1.6281
 2255SOL    HW218402   1.473   1.231   0.587  1.8308 -1.0300 -0.7670
 2256SOL     OW18403   3.901   1.094   9.042 -0.1804 -0.5377 -0.1498
 2256SOL    HW118404   3.931   1.016   9.088 -0.8387 -0.2681  0.7377
 2256SOL    HW218405   3.958   1.093   8.965  2.4034 -0.2442  1.7567
 2257SOL     OW18406   0.129   0.270   9.996  0.1106  1.0343 -0.2709
 2257SOL    HW118407   0.137   0.235  10.085 -0.9473 -0.5851 -0.8155
 2257SOL    HW218408   0.039   0.302  10.005  0.1725  1.2986 -0.5626
 2258SOL     OW18409   1.438   0.339  12.989  0.7185  0.1427  0.0979
 2258SOL    HW118410   1.391   0.279  13.047 -0.6378 -0.0085 -1.1508
 2258SOL    HW218411   1.438   0.296  12.904 -0.6914  1.8931 -0.7830
 2259SOL     OW18412   2.175   2.956   1.635  0.4425  0.0378 -0.5380
 2259SOL    HW118413   2.194   2.874   1.590  1.0775  0.8027 -1.6540
 2259SOL    HW218414   2.087   2.934   1.667  0.1966 -1.4705 -2.2328
 2260SOL     OW18415   2.558   2.203   5.265  0.3321 -0.2237  0.0964
 2260SOL    HW118416   2.608   2.265   5.318 -1.0767  1.5543 -0.6469
 2260SOL    HW218417   2.488   2.265   5.247 -0.7708 -0.2958  4.0439
 2261SOL     OW18418   2.306   4.660   6.677  0.8637 -0.0728  0.1699
 2261SOL    HW118419   2.229   4.699   6.720  2.5567  1.0155  2.2096
 2261SOL    HW218420   2.279   4.612   6.600 -1.7208 -1.2584  1.8005
 2262SOL     OW18421   4.173   3.024   3.575 -0.1804 -0.2791 -0.5239
 2262SOL    HW118422   4.242   3.081   3.543  0.4765 -0.6388  0.2516
 2262SOL    HW218423   4.221   2.993   3.652 -3.7532 -0.0886  1.7613
 2263SOL     OW18424   1.325   4.540   5.529  0.1659 -0.3222 -0.0005
 2263SOL    HW118425   1.250   4.485   5.552  0.0745  0.3597  1.3779
 2263SOL    HW218426   1.390   4.473   5.549  0.8945  0.2342 -0.4823
 2264SOL     OW18427   2.879   3.735   4.892  0.6252 -0.1034  0.7907
 2264SOL    HW118428   2.853   3.660   4.944 -0.9826  0.7140  1.1809
 2264SOL    HW218429   2.840   3.815   4.929 -0.2524 -1.0764  1.9455
 2265SOL     OW18430   1.610   2.949   6.736 -0.0047  0.0861 -0.8205
 2265SOL    HW118431   1.595   2.946   6.642 -1.4505 -3.5707 -0.4935
 2265SOL    HW218432   1.517   2.964   6.754 -0.4432 -1.2151 -2.0523
 2266SOL     OW18433   2.117   1.774   8.649 -0.0011  0.3117  0.4040
 2266SOL    HW118434   2.185   1.831   8.686 -0.5478  0.3216  1.3839
 2266SOL    HW218435   2.162   1.754   8.567  1.0856  1.2340  0.7707
 2267SOL     OW18436   3.247   2.050   8.620 -0.1139  0.4466 -0.3259
 2267SOL    HW118437   3.279   2.086   8.702 -0.5517  1.2158 -0.4893
 2267SOL    HW218438   3.175   2.107   8.595 -1.0060 -0.0994  1.0076
 2268SOL     OW18439   0.189   2.191   1.962 -0.3597 -0.3916  0.7386
 2268SOL    HW118440   0.104   2.231   1.981  0.3653  1.9861 -0.9687
 2268SOL    HW218441   0.245   2.207   2.038  2.2095  0.1353 -1.2701
 2269SOL     OW18442   0.703   4.648   7.694  0.1587 -0.0349 -0.0476
 2269SOL    HW118443   0.699   4.680   7.604 -0.4652 -1.0377 -0.3842
 2269SOL    HW218444   0.797   4.637   7.712  0.5110  0.9764 -1.3020
 2270SOL     OW18445   2.624   4.178   7.115 -0.4152  0.2548  0.4409
 2270SOL    HW118446   2.650   4.087   7.101  0.3553  0.7893 -1.5189
 2270SOL    HW218447   2.530   4.163   7.128 -0.2436 -1.1737  0.0736
 2271SOL     OW18448   1.236   2.936   5.959  0.2726 -0.2411  0.3013
 2271SOL    HW118449   1.149   2.905   5.983  0.1009 -0.8883 -1.1644
 2271SOL    HW218450   1.233   2.942   5.864 -2.3540  3.3425  0.6071
 2272SOL     OW18451   3.675   0.719   2.667 -0.5154  0.4778  0.3552
 2272SOL    HW118452   3.722   0.743   2.587 -1.8821 -1.2119 -0.9410
 2272SOL    HW218453   3.731   0.656   2.713 -0.4732 -0.0648 -0.4459
 2273SOL     OW18454   2.943   2.827   3.473 -0.2073  0.3761 -0.1823
 2273SOL    HW118455   2.853   2.852   3.457 -0.6438 -0.4245  1.0428
 2273SOL    HW218456   3.001   2.900   3.450 -0.2851  0.7286  0.7709
 2274SOL     OW18457   2.405   0.908  15.424  0.1130  0.3777  0.6376
 2274SOL    HW118458   2.391   0.895  15.517 -3.0422  0.4734  0.1551
 2274SOL    HW218459   2.314   0.900  15.397  0.4008 -1.9726  0.3229
 2275SOL     OW18460   0.431   3.971   3.362  0.7610  0.0191  0.3159
 2275SOL    HW118461   0.351   4.016   3.335  3.2505  1.8376 -3.9565
 2275SOL    HW218462   0.390   3.930   3.438 -2.1260  0.3174 -1.0806
 2276SOL     OW18463   2.146   3.306   2.513  0.2916  0.0072 -0.2751
 2276SOL    HW118464   2.194   3.292   2.595 -1.6735  0.4230  0.9398
 2276SOL    HW218465   2.106   3.222   2.492 -1.2461  0.1799  1.9439
 2277SOL     OW18466   3.620   3.710   6.262 -0.6725 -0.2118  0.0726
 2277SOL    HW118467   3.639   3.757   6.180 -0.8682  0.0027  0.1511
 2277SOL    HW218468   3.700   3.658   6.264 -1.7070 -1.9232 -2.7164
 2278SOL     OW18469   2.709   0.698   8.804  0.3631  0.0337 -0.0367
 2278SOL    HW118470   2.750   0.612   8.815  2.9313  1.1558 -0.9493
 2278SOL    HW218471   2.774   0.751   8.759 -0.1784  0.0768 -0.7703
 2279SOL     OW18472   2.432   4.565   4.462 -0.2008  0.1690 -0.1982
 2279SOL    HW118473   2.360   4.504   4.446 -0.0701 -0.6264  2.1593
 2279SOL    HW218474   2.383   4.635   4.505  0.0246  0.3551 -0.2430
 2280SOL     OW18475   3.305   3.878   0.556 -0.2684  0.1023  0.2012
 2280SOL    HW118476   3.365   3.890   0.630 -3.2168 -1.3615  2.7894
 2280SOL    HW218477   3.363   3.830   0.497  0.6411  1.1759  0.2101
 2281SOL     OW18478   3.133   1.284   3.120 -0.2858 -0.5539 -0.2254
 2281SOL    HW118479   3.095   1.279   3.208  1.1583  1.5264  0.5232
 2281SOL    HW218480   3.212   1.333   3.142  0.4492 -1.8744  0.0281
 2282SOL     OW18481   3.372   2.538  17.210  0.5642  0.8413 -0.1381
 2282SOL    HW118482   3.436   2.480  17.168 -0.7362 -0.1887 -0.6943
 2282SOL    HW218483   3.427   2.565  17.283 -0.9745  2.7173  0.3225
 2283SOL     OW18484   4.670   3.795   1.945 -0.0055  0.1951  0.0148
 2283SOL    HW118485   4.628   3.768   1.864 -1.6447  1.5751  0.3869
 2283SOL    HW218486   0.000   3.726   1.948  0.6668  0.7450 -2.2609
 2284SOL     OW18487   4.201   3.029   5.905 -0.3670 -0.0192  0.1169
 2284SOL    HW118488   4.168   3.060   5.990  1.3641 -0.4610  0.9474
 2284SOL    HW218489   4.241   2.951   5.944  0.8509 -0.9064 -2.9453
 2285SOL     OW18490   0.041   1.928   2.420 -0.2865  0.1633  0.0950
 2285SOL    HW118491   0.019   1.864   2.353  0.4142 -0.5036  0.5059
 2285SOL    HW218492   0.133   1.944   2.399 -0.2109  1.3108  1.2613
 2286SOL     OW18493   3.115   1.660   9.342  0.1471  0.2531 -0.1921
 2286SOL    HW118494   3.161   1.719   9.283  0.3921  0.6572  0.3977
 2286SOL    HW218495   3.115   1.710   9.424 -0.4154 -1.9727  1.1840
 2287SOL     OW18496   2.260   2.632   1.883 -0.0233 -0.2000 -0.2876
 2287SOL    HW118497   2.179   2.581   1.875 -0.1043 -0.1972  0.5557
 2287SOL    HW218498   2.277   2.655   1.792 -1.6969  0.3489 -0.4675
 2288SOL     OW18499   0.348   1.186   8.549 -0.2057 -0.3304 -0.3899
 2288SOL    HW118500   0.402   1.136   8.610  1.6691  1.7778 -0.3153
 2288SOL    HW218501   0.402   1.257   8.515 -1.5977  1.3006  0.7597
 2289SOL     OW18502   0.872   4.054   4.263 -0.0801  0.3690 -0.0702
 2289SOL    HW118503   0.884   4.068   4.169 -0.6468 -1.9320 -0.4674
 2289SOL    HW218504   0.845   4.144   4.285 -0.6242  0.5098 -1.3362
 2290SOL     OW18505   4.106   4.419  11.313 -0.1120 -0.2703  0.4068
 2290SOL    HW118506   4.092   4.344  11.255 -1.2678 -1.0718  1.7176
 2290SOL    HW218507   4.047   4.391  11.383 -0.3484 -0.0855  0.2770
 2291SOL     OW18508   3.056   0.322   8.945 -0.1473  0.1115  0.2290
 2291SOL    HW118509   3.085   0.269   8.871  1.7214 -0.5353  1.4118
 2291SOL    HW218510   3.136   0.368   8.972  0.0287  0.2358 -0.5121
 2292SOL     OW18511   0.244   1.079   5.874  0.4829  0.0120 -0.0110
 2292SOL    HW118512   0.224   1.150   5.934 -0.8022 -0.7697  0.4740
 2292SOL    HW218513   0.216   1.003   5.924 -0.8062  1.8543  2.0504
 2293SOL     OW18514   0.404   3.481   6.005  0.1174  0.6703 -0.1951
 2293SOL    HW118515   0.321   3.529   6.010 -0.9909 -1.4699  1.7525
 2293SOL    HW218516   0.433   3.507   6.092 -0.3345 -1.4290  0.5881
 2294SOL     OW18517   2.160   2.768   8.276 -0.0079 -0.1133 -0.6393
 2294SOL    HW118518   2.217   2.743   8.348 -1.6073  1.1253  1.0699
 2294SOL    HW218519   2.079   2.717   8.288  0.9291 -1.5319 -0.3615
 2295SOL     OW18520   4.262   4.205   5.813  0.1369 -0.0572 -0.3581
 2295SOL    HW118521   4.295   4.237   5.729 -2.1100  1.7847 -0.5284
 2295SOL    HW218522   4.238   4.114   5.796  0.2018 -0.1129 -0.1566
 2296SOL     OW18523   4.184   3.850   3.510 -0.7046  0.3340 -0.1419
 2296SOL    HW118524   4.120   3.794   3.468 -0.7150 -1.2789  2.0345
 2296SOL    HW218525   4.202   3.804   3.592  0.6776  0.6364 -0.2632
 2297SOL     OW18526   4.192   2.051  12.862 -0.5519 -0.0969 -0.0668
 2297SOL    HW118527   4.198   2.118  12.794 -1.2614  0.8233  0.7547
 2297SOL    HW218528   4.107   2.009  12.856 -0.7724  0.1865  1.0533
 2298SOL     OW18529   1.262   4.497   9.065 -0.4813  0.3585  0.1395
 2298SOL    HW118530   1.232   4.422   9.117  0.6162 -0.4350 -0.3605
 2298SOL    HW218531   1.247   4.479   8.972  1.6839  1.8050 -0.4771
 2299SOL     OW18532   3.727   1.314   9.139 -0.4720  0.1642  0.1357
 2299SOL    HW118533   3.815   1.339   9.169 -0.7795  0.7971  0.5144
 2299SOL    HW218534   3.741   1.248   9.071  0.7627  0.2947  0.2557
 2300SOL     OW18535   1.347   3.137   6.884  0.4188 -0.5648 -0.1592
 2300SOL    HW118536   1.325   3.170   6.797  1.6004  0.5436 -0.0384
 2300SOL    HW218537   1.287   3.064   6.895 -0.2053 -0.2114 -1.2019
 2301SOL     OW18538   0.240   3.114  10.652  0.0230 -0.4112 -0.0539
 2301SOL    HW118539   0.182   3.176  10.608  1.6204 -0.4104 -2.1480
 2301SOL    HW218540   0.187   3.035  10.661 -0.3623 -0.3288 -1.5784
 2302SOL     OW18541   2.460   3.884   6.455  0.1977  0.4021  0.5498
 2302SOL    HW118542   2.375   3.891   6.413  0.0627  1.7420  1.0724
 2302SOL    HW218543   2.522   3.879   6.382  1.2661 -1.3419  1.5695
 2303SOL     OW18544   2.837   4.013   6.240  0.1377  0.1548  0.4420
 2303SOL    HW118545   2.777   3.942   6.264  0.2577  0.0476  0.4250
 2303SOL    HW218546   2.887   3.963   6.176  0.6320  0.0806  0.8829
 2304SOL     OW18547   2.724   3.793   4.002  0.6541  0.0888  0.2105
 2304SOL    HW118548   2.693   3.857   3.937  3.9607  0.7891 -0.7228
 2304SOL    HW218549   2.677   3.721   3.961 -2.5318  1.2526  1.8696
 2305SOL     OW18550   1.669   3.318   2.987  0.5500 -0.1410 -0.4409
 2305SOL    HW118551   1.617   3.336   2.909  1.2058  3.1267 -0.0919
 2305SOL    HW218552   1.670   3.223   2.971 -1.1229 -0.1555 -0.4782
 2306SOL     OW18553   2.409   1.211  15.395 -0.0593 -0.0729  0.0712
 2306SOL    HW118554   2.499   1.244  15.390 -0.2707  0.9286  2.5177
 2306SOL    HW218555   2.421   1.122  15.429 -0.1270  0.1068  0.5692
 2307SOL     OW18556   2.140   0.544   4.538  0.2866 -0.6104  0.0577
 2307SOL    HW118557   2.077   0.607   4.572 -0.3673 -2.8249  2.9769
 2307SOL    HW218558   2.190   0.592   4.473 -1.2894  0.7391 -0.1518
 2308SOL     OW18559   3.867   1.141   7.821  0.6144 -0.1192 -0.1192
 2308SOL    HW118560   3.897   1.228   7.794  0.0652  0.4392  1.0764
 2308SOL    HW218561   3.775   1.157   7.800  0.8016  0.2492 -0.6621
 2309SOL     OW18562   3.614   3.327   6.154  0.8961  0.1066  0.1983
 2309SOL    HW118563   3.642   3.335   6.062 -1.2740  2.4965 -0.2585
 2309SOL    HW218564   3.531   3.374   6.152 -1.1714 -3.4902  2.3968
 2310SOL     OW18565   4.064   1.479   8.691 -0.4407  0.1627  0.1996
 2310SOL    HW118566   4.056   1.490   8.786  3.0357  0.0235  0.5025
 2310SOL    HW218567   4.139   1.420   8.679 -0.8063  0.5180 -4.0395
 2311SOL     OW18568   4.107   2.270   9.573  0.2685  0.6040  0.2060
 2311SOL    HW118569   4.175   2.328   9.538  0.4259  0.0468 -0.3991
 2311SOL    HW218570   4.122   2.276   9.667  0.9430 -1.9163  0.2355
 2312SOL     OW18571   0.943   0.869  13.492  0.4608 -0.7470  0.0661
 2312SOL    HW118572   0.890   0.794  13.519 -1.7928  0.3251 -1.4279
 2312SOL    HW218573   0.886   0.939  13.522  0.8847 -0.5193  0.3361
 2313SOL     OW18574   3.343   3.897   2.941 -0.1968  0.4737  0.0373
 2313SOL    HW118575   3.257   3.855   2.934  0.6361 -1.5393  1.8370
 2313SOL    HW218576   3.401   3.821   2.945 -0.1453  0.6103  1.7348
 2314SOL     OW18577   1.171   0.067   5.525  0.0139 -0.1400 -0.1096
 2314SOL    HW118578   1.229   4.730   5.506 -1.1721 -1.6664  2.0900
 2314SOL    HW218579   1.191   0.079   5.618 -1.5080 -0.8906  0.3114
 2315SOL     OW18580   1.958   2.459  11.175 -0.1375  0.2068  0.3143
 2315SOL    HW118581   1.911   2.539  11.196  0.4425  0.2865  1.3252
 2315SOL    HW218582   1.895   2.428  11.110  1.0208 -0.0019 -0.7230
 2316SOL     OW18583   2.902   1.992  17.331  0.1356 -0.4321 -0.0253
 2316SOL    HW118584   2.968   1.963  17.394  0.4921 -0.4396 -0.4022
 2316SOL    HW218585   2.956   2.021  17.258 -0.6627 -0.0807 -0.4849
 2317SOL     OW18586   1.992   0.427   1.969  0.4098  0.3912  0.1101
 2317SOL    HW118587   1.974   0.520   1.979 -0.3978  0.2270  0.1956
 2317SOL    HW218588   2.004   0.421   1.874 -3.3316 -0.2293 -0.3229
 2318SOL     OW18589   3.185   1.345   7.630 -0.0476  0.1404 -0.0516
 2318SOL    HW118590   3.140   1.419   7.589  0.6077 -0.2571 -1.4930
 2318SOL    HW218591   3.219   1.304   7.550 -1.7765  1.7360 -1.6236
 2319SOL     OW18592   4.502   1.066   7.844  0.3991  0.3055 -0.1227
 2319SOL    HW118593   4.479   1.052   7.752  1.4535 -0.2391 -0.3071
 2319SOL    HW218594   4.576   1.006   7.851 -0.2181 -0.6210 -1.3481
 2320SOL     OW18595   2.758   3.070  13.181  0.3040  0.1732 -0.8896
 2320SOL    HW118596   2.751   3.126  13.104 -0.2954 -0.4846 -1.3118
 2320SOL    HW218597   2.672   3.027  13.184  0.5705 -0.1466  2.0615
 2321SOL     OW18598   3.995   4.306   6.844  0.2911  0.2327  0.3174
 2321SOL    HW118599   3.972   4.395   6.817  1.6673  0.7080  0.7541
 2321SOL    HW218600   3.909   4.263   6.849  0.0999  0.5270 -0.4745
 2322SOL     OW18601   2.256   2.356   2.233  0.3594  0.0466 -0.6900
 2322SOL    HW118602   2.171   2.339   2.193 -0.5199  2.6970  0.1258
 2322SOL    HW218603   2.311   2.400   2.168 -0.2377  0.3797 -0.9620
 2323SOL     OW18604   3.702   1.021   4.779 -0.3982 -0.1720 -0.3484
 2323SOL    HW118605   3.657   1.004   4.697  1.9030 -0.6044 -1.5233
 2323SOL    HW218606   3.771   0.955   4.781  0.7467  1.0593  0.7978
 2324SOL     OW18607   1.106   4.206   4.153 -0.3995 -0.1421 -0.2759
 2324SOL    HW118608   1.130   4.147   4.082  1.1286 -0.6644  0.6663
 2324SOL    HW218609   1.058   4.282   4.119 -1.4639 -0.1694  1.1599
 2325SOL     OW18610   1.664   2.993   1.815 -0.4803  0.5227  0.3207
 2325SOL    HW118611   1.607   2.917   1.827  0.2545  0.1473  1.4549
 2325SOL    HW218612   1.602   3.043   1.763 -0.9467 -0.2657  0.1276
 2326SOL     OW18613   1.469   1.315   5.038  0.5278  0.5181 -0.4638
 2326SOL    HW118614   1.551   1.355   5.010  2.2448 -0.8748  2.5472
 2326SOL    HW218615   1.409   1.388   5.025  2.6059  1.8713 -2.3679
 2327SOL     OW18616   1.327   2.358   1.856 -0.0681  0.2624 -0.2982
 2327SOL    HW118617   1.422   2.362   1.860 -0.1182  0.4898  0.6905
 2327SOL    HW218618   1.301   2.326   1.943  1.4883 -1.8214 -0.5949
 2328SOL     OW18619   1.774   0.669   5.520 -0.8975 -0.8387  0.1940
 2328SOL    HW118620   1.791   0.666   5.426  0.8638  0.5038  0.4564
 2328SOL    HW218621   1.687   0.709   5.524 -1.0553 -0.9074 -2.4978
 2329SOL     OW18622   2.088   3.339   5.176 -0.2411 -0.6697 -0.6934
 2329SOL    HW118623   2.142   3.273   5.133  1.0446 -0.4411  0.5689
 2329SOL    HW218624   2.104   3.302   5.263 -1.4188  1.8266  0.5933
 2330SOL     OW18625   1.460   2.578   8.702 -0.5283  0.3272  0.4669
 2330SOL    HW118626   1.465   2.620   8.787 -1.1682  0.7406  0.2996
 2330SOL    HW218627   1.478   2.488   8.731  1.3658  0.5857  0.1227
 2331SOL     OW18628   2.692   1.401   9.472 -0.5141 -0.1884  0.3023
 2331SOL    HW118629   2.610   1.391   9.423 -0.8239  1.1422  0.5720
 2331SOL    HW218630   2.749   1.423   9.398  0.3478  0.1592  1.0698
 2332SOL     OW18631   0.162   1.952   9.513  0.5747  0.3566  0.0894
 2332SOL    HW118632   0.246   1.935   9.557  0.9593 -1.4723 -1.3187
 2332SOL    HW218633   0.169   2.039   9.475  2.1331 -0.0316 -0.5516
 2333SOL     OW18634   2.574   2.480  16.006  0.4822  0.5419 -0.6237
 2333SOL    HW118635   2.596   2.388  15.998 -2.5037 -0.2647  0.2832
 2333SOL    HW218636   2.655   2.531  16.000  1.7370 -1.1161  2.4185
 2334SOL     OW18637   0.144   2.192  14.078 -0.0380 -0.5651  0.2003
 2334SOL    HW118638   0.083   2.188  14.005 -0.8048 -0.2869  0.8144
 2334SOL    HW218639   0.196   2.272  14.069  0.4584 -0.7048  1.7872
 2335SOL     OW18640   3.226   0.932   0.085  0.4642 -0.1177 -0.4209
 2335SOL    HW118641   3.214   0.934   0.180 -1.5967  0.0792 -0.6846
 2335SOL    HW218642   3.151   0.885   0.050 -0.7085  0.2155  1.6181
 2336SOL     OW18643   3.434   4.435   6.469  0.2076  0.2588  0.4945
 2336SOL    HW118644   3.418   4.361   6.409 -1.9202 -1.0190  2.6470
 2336SOL    HW218645   3.432   4.388   6.552  1.5715 -1.8020 -0.6211
 2337SOL     OW18646   2.048   1.450   6.848  0.0267 -0.3001 -0.2011
 2337SOL    HW118647   2.085   1.475   6.764 -3.7237  0.8172 -1.5309
 2337SOL    HW218648   1.956   1.466   6.826 -0.4465 -1.5357  0.8135
 2338SOL     OW18649   3.263   1.186   5.684 -0.0980 -1.0056 -0.4014
 2338SOL    HW118650   3.195   1.127   5.716  1.3094 -2.5655 -0.2970
 2338SOL    HW218651   3.343   1.140   5.710 -1.4179 -2.0259  1.8775
 2339SOL     OW18652   0.428   1.657   5.448 -1.2505  0.3541 -0.1856
 2339SOL    HW118653   0.443   1.653   5.353  4.7947  2.6727  0.7019
 2339SOL    HW218654   0.467   1.571   5.464  0.1541  1.3361  1.6194
 2340SOL     OW18655   1.775   3.537   4.331  0.0449  0.1275  0.0633
 2340SOL    HW118656   1.714   3.464   4.325  0.3901 -0.2251  0.9611
 2340SOL    HW218657   1.854   3.505   4.287 -0.4465  1.1332 -1.5722
 2341SOL     OW18658   3.204   3.354   6.530 -0.1477  0.6333 -0.2239
 2341SOL    HW118659   3.291   3.366   6.568  0.1381  1.8673 -1.2588
 2341SOL    HW218660   3.206   3.259   6.538  0.0025  0.3265 -3.8691
 2342SOL     OW18661   4.723   2.728  16.200  0.0167 -1.0563  0.0587
 2342SOL    HW118662   0.056   2.749  16.136 -1.8973  1.1446 -1.2837
 2342SOL    HW218663   0.017   2.643  16.232  2.4824  0.4361  1.7835
 2343SOL     OW18664   2.065   0.664   1.031 -0.4542  0.0831  0.5131
 2343SOL    HW118665   2.160   0.674   1.044 -0.5778 -0.0940  1.6022
 2343SOL    HW218666   2.050   0.668   0.937  1.4603 -2.3955  0.1057
 2344SOL     OW18667   0.066   0.341   2.740  0.7563 -0.2987 -0.0180
 2344SOL    HW118668   0.019   0.404   2.794 -0.8990  0.0738 -1.9196
 2344SOL    HW218669   0.147   0.381   2.708 -0.2258  1.9596  0.3551
 2345SOL     OW18670   0.131   1.557  17.699  0.2543 -0.7508 -0.4894
 2345SOL    HW118671   0.164   1.479   0.002 -1.0011 -0.5005  0.8685
 2345SOL    HW218672   0.038   1.542  17.714  0.0381 -0.7609 -1.8519
 2346SOL     OW18673   3.181   2.286   3.222 -0.4668  0.1557 -0.1226
 2346SOL    HW118674   3.250   2.313   3.282 -0.5579 -1.3109  0.6421
 2346SOL    HW218675   3.174   2.193   3.244 -1.3649  0.1272 -0.5376
 2347SOL     OW18676   3.277   3.395  13.652 -0.3963 -0.3779  0.2370
 2347SOL    HW118677   3.191   3.403  13.612  0.7462  2.2285 -1.6828
 2347SOL    HW218678   3.336   3.447  13.597 -1.1742 -1.3155 -1.4894
 2348SOL     OW18679   2.080   1.152   1.674  0.6404  0.5351  0.5344
 2348SOL    HW118680   2.010   1.130   1.613 -0.2688 -0.8083  2.0767
 2348SOL    HW218681   2.045   1.128   1.760 -0.4773  0.0349 -0.0547
 2349SOL     OW18682   3.870   2.877   3.897  0.2491 -0.3557  0.5800
 2349SOL    HW118683   3.823   2.859   3.815  0.1676  0.4746  0.4519
 2349SOL    HW218684   3.789   2.886   3.947 -1.3627  1.0360 -2.2591
 2350SOL     OW18685   3.091   4.665   8.348  0.1887 -0.4349 -0.1372
 2350SOL    HW118686   2.999   4.649   8.331 -0.3888 -0.5635  3.0007
 2350SOL    HW218687   3.113   4.579   8.384 -1.0938 -0.6063  0.2195
 2351SOL     OW18688   1.761   0.559   3.771  0.5365 -0.0058  0.3018
 2351SOL    HW118689   1.730   0.648   3.787 -0.4766 -0.6538  1.8901
 2351SOL    HW218690   1.851   0.575   3.743 -0.6460  3.0910 -1.8116
 2352SOL     OW18691   2.397   2.043   7.257  0.4208 -0.3267 -0.3699
 2352SOL    HW118692   2.385   2.075   7.346  3.6676 -2.0294  0.6513
 2352SOL    HW218693   2.489   2.067   7.248  0.4720  0.3670  1.9506
 2353SOL     OW18694   0.677   4.362   3.202 -0.2793 -0.4466 -0.1283
 2353SOL    HW118695   0.603   4.353   3.263  0.3619  0.0871  0.7338
 2353SOL    HW218696   0.710   4.272   3.197  2.1522  0.2953  2.1491
 2354SOL     OW18697   3.175   0.922   0.343  0.2369 -0.1808  0.0509
 2354SOL    HW118698   3.110   0.974   0.389 -0.5604  0.1955 -1.4886
 2354SOL    HW218699   3.129   0.838   0.348  0.4472 -0.2739  0.4103
 2355SOL     OW18700   2.777   2.607   7.811  0.2174  0.0319  0.2179
 2355SOL    HW118701   2.828   2.537   7.852  1.1131  0.0668 -0.8392
 2355SOL    HW218702   2.767   2.560   7.728 -1.5679  0.5283  0.1574
 2356SOL     OW18703   1.214   2.105  11.669 -0.0397 -0.3865 -0.0179
 2356SOL    HW118704   1.243   2.049  11.741 -0.5478 -0.2613  0.2866
 2356SOL    HW218705   1.127   2.064  11.663  0.0908 -0.9342  1.8286
 2357SOL     OW18706   3.302   3.744   6.623  0.5208 -0.1011  0.1271
 2357SOL    HW118707   3.398   3.748   6.631  0.3610 -0.2447  2.2434
 2357SOL    HW218708   3.288   3.678   6.691 -1.9614  0.5143  0.2200
 2358SOL     OW18709   3.526   0.625   3.855 -0.0613 -0.3722 -0.2187
 2358SOL    HW118710   3.486   0.626   3.942  1.5071 -0.0205  0.4811
 2358SOL    HW218711   3.479   0.562   3.800 -0.1909 -0.5461  0.0898
 2359SOL     OW18712   1.282   3.206   6.623  0.4278 -0.0551 -0.4434
 2359SOL    HW118713   1.230   3.285   6.609  0.5115 -0.1905 -1.5357
 2359SOL    HW218714   1.241   3.157   6.552  0.0911 -1.7029  0.8876
 2360SOL     OW18715   4.502   0.966   4.688  0.2917  0.3542 -0.1626
 2360SOL    HW118716   4.550   0.892   4.725  0.1841  1.5752  2.4299
 2360SOL    HW218717   4.432   0.915   4.648  1.8530 -1.1194 -1.0368
 2361SOL     OW18718   2.480   0.774   9.448  0.4773  0.1435  0.1236
 2361SOL    HW118719   2.539   0.748   9.377  1.1118 -0.8126  1.0066
 2361SOL    HW218720   2.504   0.865   9.465  0.4266  0.1019  0.4153
 2362SOL     OW18721   1.681   2.371  13.706  0.1415 -0.7173 -0.0445
 2362SOL    HW118722   1.611   2.437  13.699  0.4255  0.1716  5.0967
 2362SOL    HW218723   1.639   2.294  13.668 -1.3768  0.0141  0.1454
 2363SOL     OW18724   1.740   3.326   9.878 -0.6246 -0.2330  0.0955
 2363SOL    HW118725   1.793   3.332   9.957  0.7541 -1.1860 -0.7665
 2363SOL    HW218726   1.770   3.408   9.838 -1.0739  0.2432  0.7287
 2364SOL     OW18727   2.456   1.647  11.996 -0.4704  0.4040  0.2308
 2364SOL    HW118728   2.435   1.559  11.966  0.0294  0.3358  0.0790
 2364SOL    HW218729   2.534   1.657  11.941 -0.8016 -1.2780 -0.5300
 2365SOL     OW18730   0.933   2.881  14.053  0.3285  0.0819  0.2995
 2365SOL    HW118731   0.840   2.900  14.041  1.0498  0.8843 -3.9603
 2365SOL    HW218732   0.973   2.887  13.967 -1.8147 -0.3064 -0.7077
 2366SOL     OW18733   0.639   2.919   3.303  0.3064 -0.1919 -0.3023
 2366SOL    HW118734   0.720   2.966   3.323 -0.5865  0.6615  1.3169
 2366SOL    HW218735   0.579   2.965   3.362  2.6136  2.6143 -0.1608
 2367SOL     OW18736   1.627   2.893   7.597  0.5158 -0.0107 -0.5077
 2367SOL    HW118737   1.533   2.907   7.610  0.5820 -0.4886  0.5718
 2367SOL    HW218738   1.633   2.806   7.557 -1.1520  1.3842 -3.7909
 2368SOL     OW18739   2.967   4.507   0.118  0.2665  0.4364 -0.3921
 2368SOL    HW118740   2.971   4.443   0.189 -0.7455 -0.5700 -1.2422
 2368SOL    HW218741   3.003   4.582   0.165 -0.3766 -0.2506  1.1967
 2369SOL     OW18742   0.256   1.601   2.811  0.0176  0.4760 -1.0049
 2369SOL    HW118743   0.255   1.556   2.727  0.5918  0.2678 -0.9006
 2369SOL    HW218744   0.165   1.631   2.812 -0.5713 -1.2922 -0.1972
 2370SOL     OW18745   0.360   2.587   0.599  0.1100 -0.3723 -0.1153
 2370SOL    HW118746   0.409   2.544   0.529 -0.3662 -0.9384 -0.1072
 2370SOL    HW218747   0.291   2.623   0.543 -0.6123 -0.4973  0.6937
 2371SOL     OW18748   2.367   0.095  12.763  0.4183 -0.2802  0.0527
 2371SOL    HW118749   2.377   0.001  12.778  1.0266  0.1755  2.4771
 2371SOL    HW218750   2.341   0.129  12.848  1.3177 -0.1348  0.2734
 2372SOL     OW18751   4.668   4.289   9.605 -0.3641  0.7595  0.1907
 2372SOL    HW118752   4.667   4.194   9.617 -0.9506  0.4654 -2.1919
 2372SOL    HW218753   0.023   4.314   9.586  1.3059 -4.5063  1.5106
 2373SOL     OW18754   2.706   3.306   5.697 -0.0074 -0.2407 -0.2555
 2373SOL    HW118755   2.618   3.288   5.663 -0.5366 -0.9299  1.4919
 2373SOL    HW218756   2.745   3.218   5.693  1.5815  0.5663 -2.6764
 2374SOL     OW18757   0.914   0.002   5.570 -0.2120 -0.0013 -0.4285
 2374SOL    HW118758   0.892   4.717   5.661  0.6447 -3.5370 -0.9933
 2374SOL    HW218759   1.007   0.023   5.580  0.7057 -4.6279  1.0539
 2375SOL     OW18760   3.059   4.303  14.429 -0.4489 -0.4244  0.0240
 2375SOL    HW118761   3.028   4.213  14.427  0.4438 -0.7086 -0.9362
 2375SOL    HW218762   3.152   4.284  14.421 -0.5310 -0.7349 -0.1639
 2376SOL     OW18763   3.498   3.673  11.017 -0.5264 -0.2928 -0.0170
 2376SOL    HW118764   3.457   3.737  10.959  0.6565  0.5926  0.1359
 2376SOL    HW218765   3.441   3.597  11.002 -1.1889  0.2043  0.0157
 2377SOL     OW18766   2.826   1.104   2.128 -0.1972 -0.2034 -0.5766
 2377SOL    HW118767   2.860   1.016   2.111 -1.0199 -0.9265  1.3975
 2377SOL    HW218768   2.879   1.153   2.065  1.2605  0.9588  1.5526
 2378SOL     OW18769   3.495   0.812   3.528 -0.1828 -0.6572  0.1204
 2378SOL    HW118770   3.425   0.764   3.483 -0.8851 -0.9752  1.5502
 2378SOL    HW218771   3.572   0.813   3.472  0.0699 -0.3397  0.4742
 2379SOL     OW18772   3.353   2.684  14.036  0.5811  0.3944  0.3962
 2379SOL    HW118773   3.419   2.742  14.074  0.9002 -0.4144  1.0926
 2379SOL    HW218774   3.297   2.668  14.111 -1.0797  0.7864 -0.7631
 2380SOL     OW18775   4.141   4.465   8.737 -0.3726  0.2628 -0.0572
 2380SOL    HW118776   4.190   4.389   8.704 -1.1710 -1.0784  1.8480
 2380SOL    HW218777   4.171   4.457   8.827 -1.8193 -0.5775  0.3673
 2381SOL     OW18778   2.536   4.615   1.789 -0.1110  0.7969  0.2179
 2381SOL    HW118779   2.543   4.565   1.707 -1.3115  0.3379  0.3979
 2381SOL    HW218780   2.605   4.581   1.847 -1.9018 -3.6614 -0.2187
 2382SOL     OW18781   3.691   0.416   8.292  0.0336 -0.2633 -0.3057
 2382SOL    HW118782   3.612   0.362   8.302 -1.0954  1.6662  1.2232
 2382SOL    HW218783   3.688   0.455   8.379  1.3257 -0.6183 -0.1056
 2383SOL     OW18784   2.960   2.049   2.966 -0.0589 -0.4148  0.0231
 2383SOL    HW118785   3.013   2.115   2.922 -0.2115 -0.4627 -0.2353
 2383SOL    HW218786   2.892   2.102   3.006 -1.1502 -1.9109  0.1474
 2384SOL     OW18787   0.480   1.900  15.939 -0.4287 -0.5258 -0.5241
 2384SOL    HW118788   0.395   1.906  15.895  0.1978  1.9820 -1.3905
 2384SOL    HW218789   0.500   1.991  15.958  2.3287 -0.8985 -1.7388
 2385SOL     OW18790   2.213   3.441  13.477 -0.5117  0.0332 -0.2648
 2385SOL    HW118791   2.131   3.489  13.470  0.1728  1.2373 -0.0939
 2385SOL    HW218792   2.279   3.507  13.498  0.5095 -0.9109 -0.5046
 2386SOL     OW18793   4.436   3.124  13.680  0.4100  0.2653 -0.4816
 2386SOL    HW118794   4.405   3.043  13.638 -0.4891 -2.2024  4.9313
 2386SOL    HW218795   4.452   3.178  13.603  1.8961  2.5363  1.4239
 2387SOL     OW18796   1.786   3.557   8.231  0.3302 -0.1937 -0.4538
 2387SOL    HW118797   1.822   3.521   8.312  1.9384  3.2137  0.3282
 2387SOL    HW218798   1.844   3.528   8.161 -0.6021 -1.2359 -0.7986
 2388SOL     OW18799   0.709   0.762   2.447 -0.7991  0.3821 -0.0531
 2388SOL    HW118800   0.783   0.817   2.421  0.0900 -1.1110 -0.6659
 2388SOL    HW218801   0.752   0.691   2.495 -1.1194  1.4585  1.8050
 2389SOL     OW18802   4.387   4.693   2.348  0.2468 -0.2085  0.2953
 2389SOL    HW118803   4.478   4.665   2.355  0.7042  1.4576  0.8446
 2389SOL    HW218804   4.347   4.606   2.361  0.4717 -0.1275  1.4916
 2390SOL     OW18805   2.793   4.045   5.277 -0.1453 -0.0132  0.1124
 2390SOL    HW118806   2.873   4.008   5.240 -1.3483 -2.3798 -0.1034
 2390SOL    HW218807   2.761   4.101   5.206  0.8175  0.4548  0.0420
 2391SOL     OW18808   1.561   1.799  12.152 -0.2010  0.6719 -0.5301
 2391SOL    HW118809   1.584   1.749  12.230 -1.7242 -0.4529 -0.8078
 2391SOL    HW218810   1.478   1.841  12.174  0.1149  0.2389  1.4277
 2392SOL     OW18811   0.082   4.129   2.229 -0.1372  0.0856  0.6950
 2392SOL    HW118812   0.141   4.056   2.248  0.9610  0.7275 -0.3337
 2392SOL    HW218813   0.060   4.151   2.320  0.6611 -0.3549  0.9904
 2393SOL     OW18814   3.896   2.980   8.078  0.0243  0.4130  0.2018
 2393SOL    HW118815   3.885   3.072   8.056  0.2116  0.5536  0.6910
 2393SOL    HW218816   3.966   2.986   8.143  1.2611  0.9596 -1.1793
 2394SOL     OW18817   3.613   4.422   6.942 -0.5967 -0.2867 -0.1883
 2394SOL    HW118818   3.552   4.488   6.975  1.2238  1.0829  0.4364
 2394SOL    HW218819   3.695   4.446   6.986 -0.6217  0.7210 -0.6832
 2395SOL     OW18820   1.982   1.656   4.645  0.0555  0.3414 -0.8648
 2395SOL    HW118821   1.994   1.743   4.607  0.5914  1.2709  1.4630
 2395SOL    HW218822   2.053   1.657   4.710 -1.2456  1.0754  0.5290
 2396SOL     OW18823   2.361   4.209   2.172 -0.2676 -0.3607  0.1286
 2396SOL    HW118824   2.304   4.179   2.101 -0.5471 -3.0859  1.4750
 2396SOL    HW218825   2.313   4.180   2.250 -1.0895 -0.6399 -0.4771
 2397SOL     OW18826   0.801   1.872  11.926  0.2192  0.0114 -0.3310
 2397SOL    HW118827   0.820   1.964  11.947 -0.4631 -0.2486  1.4203
 2397SOL    HW218828   0.885   1.830  11.945  0.1118  0.3138  0.8074
 2398SOL     OW18829   4.692   0.556   9.290 -0.4829  0.1722  0.4551
 2398SOL    HW118830   0.028   0.513   9.335 -0.0245 -2.5564 -2.8424
 2398SOL    HW218831   4.621   0.560   9.354 -1.2905 -0.4775 -0.4002
 2399SOL     OW18832   3.616   0.779   4.966  0.1871  0.1484 -0.2691
 2399SOL    HW118833   3.536   0.742   4.929 -0.0414  0.1727  0.2059
 2399SOL    HW218834   3.631   0.731   5.048 -0.1396  1.9296  0.8373
 2400SOL     OW18835   1.973   4.588   3.509  0.3385  0.0164  0.2551
 2400SOL    HW118836   2.025   4.641   3.570  0.3242 -1.0939  1.2393
 2400SOL    HW218837   1.891   4.637   3.506 -0.3753 -1.0259  2.5928
 2401SOL     OW18838   1.402   1.011   4.508 -0.2855  0.1772 -0.0890
 2401SOL    HW118839   1.378   0.963   4.429 -1.0577 -0.3445  0.4548
 2401SOL    HW218840   1.346   0.969   4.574 -0.4334  0.1502 -0.2317
 2402SOL     OW18841   2.610   1.548  17.107 -0.4233 -0.2601  0.4197
 2402SOL    HW118842   2.683   1.487  17.108 -0.3909 -0.2168  0.5892
 2402SOL    HW218843   2.553   1.502  17.045  3.0202 -2.3194 -1.2165
 2403SOL     OW18844   2.365   2.120   7.547 -0.0950  0.6180 -0.7040
 2403SOL    HW118845   2.310   2.046   7.571  1.3211 -0.2832 -0.2577
 2403SOL    HW218846   2.392   2.147   7.635  3.0478  2.2070 -2.1662
 2404SOL     OW18847   1.859   1.211   8.219  0.2780  0.2285 -0.3692
 2404SOL    HW118848   1.872   1.304   8.234  1.5852 -0.1139  0.6146
 2404SOL    HW218849   1.941   1.180   8.181 -0.5288 -1.6278 -0.6244
 2405SOL     OW18850   0.321   4.659   6.373  0.2622 -0.3766 -0.1527
 2405SOL    HW118851   0.296   4.589   6.313  0.2720  0.7517 -1.4909
 2405SOL    HW218852   0.297   4.730   6.314 -0.1630 -0.8819 -0.5839
 2406SOL     OW18853   4.493   1.156   8.777 -0.3150 -0.2834 -0.0311
 2406SOL    HW118854   4.502   1.106   8.858  2.3942  0.0491 -0.1436
 2406SOL    HW218855   4.554   1.112   8.718 -1.1790 -2.8377  0.9654
 2407SOL     OW18856   2.790   3.367   2.528 -0.3078 -0.7330  0.8837
 2407SOL    HW118857   2.840   3.360   2.609  1.0934 -1.7320 -0.0891
 2407SOL    HW218858   2.699   3.357   2.558 -0.1428  0.6500  1.8646
 2408SOL     OW18859   1.788   2.320   7.220  0.4425 -0.6693 -0.4645
 2408SOL    HW118860   1.701   2.315   7.260 -0.4052  0.8836 -2.1414
 2408SOL    HW218861   1.772   2.290   7.131  0.1866 -1.0974 -0.2749
 2409SOL     OW18862   4.517   0.349   3.177  0.0527 -0.3029 -0.5218
 2409SOL    HW118863   4.543   0.390   3.259  1.9397  0.6407 -1.5985
 2409SOL    HW218864   4.601   0.336   3.134  0.0918 -0.0468 -0.5222
 2410SOL     OW18865   2.158   0.405  17.157  0.0986 -0.3181  0.5830
 2410SOL    HW118866   2.155   0.381  17.250  1.6923 -0.9337  0.4787
 2410SOL    HW218867   2.068   0.376  17.142 -0.1138 -1.2069  3.6553
 2411SOL     OW18868   2.167   3.312  13.825 -0.2661  0.0936 -0.0584
 2411SOL    HW118869   2.158   3.407  13.820 -1.0444 -0.2571 -5.4649
 2411SOL    HW218870   2.090   3.293  13.878  0.3427 -1.5171  0.2465
 2412SOL     OW18871   2.231   0.919   6.859 -0.3828  0.0130  0.0688
 2412SOL    HW118872   2.214   0.836   6.813  0.2957  0.4432 -0.9564
 2412SOL    HW218873   2.160   0.937   6.921  0.3597  0.2418  0.8467
 2413SOL     OW18874   1.285   0.995   1.838 -0.4659  0.4504 -0.0481
 2413SOL    HW118875   1.328   1.043   1.767 -1.0164 -1.1402 -1.4538
 2413SOL    HW218876   1.306   0.903   1.822  0.7670  1.1740 -2.5227
 2414SOL     OW18877   1.409   1.384   2.596  0.4651  0.5218 -0.4690
 2414SOL    HW118878   1.407   1.453   2.662  0.2394 -0.3606  0.4474
 2414SOL    HW218879   1.452   1.437   2.529  0.8003 -0.4610 -1.0431
 2415SOL     OW18880   3.109   2.976   6.795  0.1819 -0.2511  0.7706
 2415SOL    HW118881   3.163   2.992   6.872 -0.2578 -0.6469  1.1642
 2415SOL    HW218882   3.106   2.881   6.782  0.3822 -0.3432  1.3873
 2416SOL     OW18883   3.639   2.615   7.065 -0.2784 -0.0405  0.5351
 2416SOL    HW118884   3.707   2.554   7.096  0.3280  0.4036  0.0858
 2416SOL    HW218885   3.603   2.553   7.002 -2.6555  0.5536  1.3433
 2417SOL     OW18886   1.990   0.486   7.186  0.0800 -0.1547  0.0976
 2417SOL    HW118887   1.895   0.480   7.199  0.0712 -0.5992 -0.1843
 2417SOL    HW218888   2.024   0.435   7.258 -1.0945 -0.5521  0.3742
 2418SOL     OW18889   3.251   0.253   1.611  0.1869  0.0740 -0.3030
 2418SOL    HW118890   3.184   0.203   1.657 -1.5921 -0.1755 -3.1619
 2418SOL    HW218891   3.297   0.271   1.693  0.2408 -1.9738  0.1287
 2419SOL     OW18892   3.365   2.514   5.630 -0.2028  0.4502 -0.4087
 2419SOL    HW118893   3.319   2.527   5.713  2.1510 -0.5389  1.0522
 2419SOL    HW218894   3.439   2.463   5.661 -1.6719 -1.9513 -0.8537
 2420SOL     OW18895   4.372   1.267   6.603  0.1316  0.3219  0.2186
 2420SOL    HW118896   4.337   1.193   6.652  0.4037 -0.2694 -0.4727
 2420SOL    HW218897   4.348   1.339   6.662 -0.4524 -0.3990  0.8544
 2421SOL     OW18898   2.214   4.087   4.703  0.0098  0.1203 -0.3083
 2421SOL    HW118899   2.157   4.161   4.683 -0.8845 -0.7736 -1.0469
 2421SOL    HW218900   2.192   4.019   4.640 -0.2904 -1.3049  1.3515
 2422SOL     OW18901   1.305   0.551   7.186  0.7025 -0.2850 -0.3995
 2422SOL    HW118902   1.282   0.458   7.181 -0.7390 -0.0698  2.5703
 2422SOL    HW218903   1.258   0.573   7.106  3.0481 -1.0257 -2.0131
 2423SOL     OW18904   1.393   0.989   0.269  0.0772 -0.5859  0.4822
 2423SOL    HW118905   1.431   0.923   0.327 -3.6657 -1.7917  1.5205
 2423SOL    HW218906   1.474   1.014   0.225 -1.1155 -0.8137 -1.7960
 2424SOL     OW18907   3.457   4.069   3.149 -0.8109 -0.0743 -0.0622
 2424SOL    HW118908   3.387   4.038   3.092 -0.4807 -2.3585  0.7740
 2424SOL    HW218909   3.503   3.987   3.164  1.6048  1.1479 -0.7459
 2425SOL     OW18910   1.237   3.777   5.226 -1.1137  0.2559 -0.4790
 2425SOL    HW118911   1.247   3.702   5.285 -1.4352 -1.9157 -3.1985
 2425SOL    HW218912   1.143   3.776   5.207 -0.9450 -0.0705 -1.2683
 2426SOL     OW18913   4.702   1.897  15.573  0.4157  0.1991 -0.4217
 2426SOL    HW118914   0.032   1.827  15.572  0.9200  0.6800 -0.7265
 2426SOL    HW218915   0.018   1.971  15.604  1.3927 -0.3480 -0.7341
 2427SOL     OW18916   1.291   3.767   7.254  0.4651  0.0532 -0.1237
 2427SOL    HW118917   1.325   3.744   7.341 -0.2802  0.6230  0.3174
 2427SOL    HW218918   1.337   3.698   7.206 -0.2546 -1.1314  0.8702
 2428SOL     OW18919   2.644   2.038   3.250  0.7063  0.1632  0.0923
 2428SOL    HW118920   2.609   2.073   3.332  1.6338 -0.2687  0.6712
 2428SOL    HW218921   2.625   1.945   3.264 -2.6391  0.7190 -0.6919
 2429SOL     OW18922   1.166   3.369   4.182  0.3753 -0.3874 -0.5197
 2429SOL    HW118923   1.148   3.283   4.221 -0.6682  0.8736  1.8298
 2429SOL    HW218924   1.078   3.386   4.148  0.1416  0.3667  0.4519
 2430SOL     OW18925   0.016   0.857   8.087  0.1431  0.5641 -0.7450
 2430SOL    HW118926   4.687   0.787   8.102  0.6644  0.7524  2.4687
 2430SOL    HW218927   0.020   0.863   7.992 -2.8838 -1.8142 -1.0231
 2431SOL     OW18928   0.987   0.854   3.619 -0.1631  0.2973  0.4440
 2431SOL    HW118929   0.990   0.811   3.704  0.9130 -0.7602 -0.1338
 2431SOL    HW218930   0.917   0.806   3.575 -0.8960 -0.2282  2.1848
 2432SOL     OW18931   3.493   3.750   0.421  0.1623 -0.3150  0.2789
 2432SOL    HW118932   3.518   3.689   0.352 -1.3083  0.5593 -1.0247
 2432SOL    HW218933   3.577   3.794   0.434  0.9331 -2.1000  1.3891
 2433SOL     OW18934   2.674   4.558   1.287  0.4254  0.2037  0.4605
 2433SOL    HW118935   2.586   4.521   1.274  1.7011 -2.1978 -1.3264
 2433SOL    HW218936   2.712   4.523   1.207 -1.7111  0.4323 -0.6558
 2434SOL     OW18937   4.723   3.810   7.021 -0.0667 -0.1069 -0.7008
 2434SOL    HW118938   4.703   3.726   6.978 -1.4534  1.1077 -2.4424
 2434SOL    HW218939   4.698   3.797   7.112 -0.2935  2.3359 -0.4162
 2435SOL     OW18940   1.514   1.242   3.744  0.2134 -0.2878 -0.4562
 2435SOL    HW118941   1.487   1.154   3.772  0.0315 -0.2748 -0.5969
 2435SOL    HW218942   1.458   1.266   3.671  0.8168  0.7498 -0.5809
 2436SOL     OW18943   0.333   2.271   2.196 -0.3427 -0.3374 -0.7580
 2436SOL    HW118944   0.255   2.231   2.233 -0.9956  0.1725 -1.6159
 2436SOL    HW218945   0.400   2.210   2.229 -0.4705 -0.6619 -1.0990
 2437SOL     OW18946   0.276   0.271  15.667  0.3192 -0.4760 -0.1115
 2437SOL    HW118947   0.345   0.288  15.731  1.6224 -1.8740 -1.1442
 2437SOL    HW218948   0.266   0.361  15.637 -0.4196 -0.0520  1.4039
 2438SOL     OW18949   2.941   3.708   3.777  0.0243  0.2762 -0.3279
 2438SOL    HW118950   2.972   3.630   3.823  1.1094 -0.3466 -2.1164
 2438SOL    HW218951   2.872   3.667   3.724  0.6035 -1.0743 -0.0488
 2439SOL     OW18952   2.680   0.899   0.712 -0.2990  0.1345  1.1248
 2439SOL    HW118953   2.637   0.819   0.681 -0.4124 -0.0776  1.8459
 2439SOL    HW218954   2.603   0.951   0.736 -1.7901 -2.7336  2.5471
 2440SOL     OW18955   0.589   0.111  13.053 -0.0029 -0.4759  0.6260
 2440SOL    HW118956   0.549   0.134  12.969 -0.2667  2.1511  1.4870
 2440SOL    HW218957   0.663   0.055  13.029  0.9465  1.3420 -0.6866
 2441SOL     OW18958   3.473   3.608   1.189 -0.2306  0.3775  0.7623
 2441SOL    HW118959   3.481   3.674   1.120  0.4144  0.3312  0.7957
 2441SOL    HW218960   3.390   3.640   1.226  0.1575  3.1867 -0.8139
 2442SOL     OW18961   1.067   2.283  11.041  0.0049  0.0444  0.2253
 2442SOL    HW118962   1.025   2.277  10.955  1.5389 -1.3607 -0.4378
 2442SOL    HW218963   1.066   2.375  11.066 -1.2887  0.7989 -2.5639
 2443SOL     OW18964   1.550   0.765  12.754 -0.4946  0.4588 -0.0265
 2443SOL    HW118965   1.482   0.721  12.806  0.9096  0.6812  2.0143
 2443SOL    HW218966   1.530   0.854  12.782  0.7443  0.8420 -0.3992
 2444SOL     OW18967   3.832   3.538   6.223  0.0775 -0.5921  0.6884
 2444SOL    HW118968   3.847   3.444   6.226  1.5285 -0.4395 -2.3313
 2444SOL    HW218969   3.855   3.552   6.131  2.4535  3.9449  2.0003
 2445SOL     OW18970   2.365   0.683   2.310 -0.0520  0.5902  0.1918
 2445SOL    HW118971   2.385   0.596   2.278 -0.9291  0.4461  0.0432
 2445SOL    HW218972   2.447   0.728   2.289  1.3604 -1.6013  1.0555
 2446SOL     OW18973   1.308   0.417   8.805  0.1131 -0.2583 -0.0376
 2446SOL    HW118974   1.329   0.395   8.714  1.3835 -0.7164  0.3674
 2446SOL    HW218975   1.213   0.430   8.809  0.5886  2.4375  3.0510
 2447SOL     OW18976   2.872   4.303  14.863  0.1258  0.2600 -0.2265
 2447SOL    HW118977   2.908   4.319  14.950 -0.9669 -2.0122  0.6134
 2447SOL    HW218978   2.784   4.339  14.851 -1.0440 -1.8041  2.1784
 2448SOL     OW18979   3.237   3.982  15.580 -0.2043 -0.4853  0.2212
 2448SOL    HW118980   3.221   3.938  15.497 -0.0078 -0.5728  0.2285
 2448SOL    HW218981   3.210   3.914  15.641 -1.3468 -2.2473 -2.2833
 2449SOL     OW18982   4.652   0.797  16.450  0.9063 -0.3722 -0.3582
 2449SOL    HW118983   4.659   0.890  16.428 -1.5692 -0.4506 -1.4359
 2449SOL    HW218984   0.002   0.761  16.426  0.4010 -0.2190 -2.3720
 2450SOL     OW18985   0.635   0.722  16.306  0.1718  0.2243  0.0466
 2450SOL    HW118986   0.638   0.752  16.215 -0.8860 -0.4227 -0.2089
 2450SOL    HW218987   0.726   0.694  16.308  0.5370  1.4002 -0.5183
 2451SOL     OW18988   0.486   1.581   3.313  0.2512 -0.0202  0.1580
 2451SOL    HW118989   0.521   1.517   3.251  1.8023 -1.3176  2.3772
 2451SOL    HW218990   0.440   1.637   3.251  0.5427 -0.1542 -0.1794
 2452SOL     OW18991   1.384   2.170  12.130 -0.1484 -0.5773  0.5881
 2452SOL    HW118992   1.472   2.205  12.119  0.1274 -1.2734  0.6228
 2452SOL    HW218993   1.385   2.102  12.197 -0.3683 -3.3390 -2.1838
 2453SOL     OW18994   0.365   0.831   2.724  0.3847  0.0391  0.0781
 2453SOL    HW118995   0.414   0.780   2.659  3.2802  0.1137  2.2391
 2453SOL    HW218996   0.364   0.767   2.796 -2.7860 -1.3310 -1.1592
 2454SOL     OW18997   0.288   3.909   3.592 -0.7240 -0.7596  0.1584
 2454SOL    HW118998   0.312   3.831   3.642 -0.7637  0.2242  1.6990
 2454SOL    HW218999   0.210   3.941   3.637 -0.4114  1.8007 -1.1037
 2455SOL     OW19000   0.649   3.177  16.337 -0.2675 -0.9092  0.0212
 2455SOL    HW119001   0.672   3.267  16.316 -1.2711 -0.8804 -0.9531
 2455SOL    HW219002   0.662   3.175  16.432  0.4218  3.3979 -0.0134
 2456SOL     OW19003   4.431   1.004   7.599  0.3655  0.6179  0.2911
 2456SOL    HW119004   4.396   0.915   7.611  1.0118  0.1860 -0.9462
 2456SOL    HW219005   4.505   0.990   7.539  1.9829 -3.9828  3.2928
 2457SOL     OW19006   4.419   0.096   4.006  0.2958 -0.4349  0.3141
 2457SOL    HW119007   4.431   0.001   4.007 -0.3726 -0.4902  2.8720
 2457SOL    HW219008   4.502   0.127   4.040 -0.3679  1.3100  0.3326
 2458SOL     OW19009   4.351   2.965   9.374 -0.1983  0.5878  0.7295
 2458SOL    HW119010   4.391   2.884   9.405  0.9134  0.1060 -1.9361
 2458SOL    HW219011   4.385   2.987   9.287 -1.4925 -2.2028 -0.4936
 2459SOL     OW19012   2.744   0.361  16.021  0.4949  0.6126  0.2007
 2459SOL    HW119013   2.752   0.265  16.024  1.8235  0.7249  0.2640
 2459SOL    HW219014   2.733   0.369  15.926  1.4338  3.3475  0.3215
 2460SOL     OW19015   3.536   3.757   6.803  0.0304 -0.2281 -0.2806
 2460SOL    HW119016   3.603   3.691   6.787 -0.8752 -1.3297  0.4229
 2460SOL    HW219017   3.508   3.726   6.890 -0.7749 -0.3958 -0.5929
 2461SOL     OW19018   4.187   1.427   8.935  0.1138  0.2124  0.3211
 2461SOL    HW119019   4.199   1.413   9.029  0.7394 -0.9365  0.0689
 2461SOL    HW219020   4.271   1.418   8.891 -0.6199 -0.2547 -0.9690
 2462SOL     OW19021   3.954   2.912   3.032 -0.3940 -0.0532  0.0786
 2462SOL    HW119022   3.965   2.818   3.044 -2.4913 -0.3805 -0.6139
 2462SOL    HW219023   3.972   2.942   3.121  0.8239  0.4149 -0.3260
 2463SOL     OW19024   3.438   1.017   5.830 -0.5215 -0.1558  0.4679
 2463SOL    HW119025   3.418   0.924   5.834  1.4195 -0.6939 -1.7104
 2463SOL    HW219026   3.502   1.012   5.901 -2.5385 -1.3934  2.1854
 2464SOL     OW19027   3.370   1.967   2.286 -0.0362 -0.3186  0.1832
 2464SOL    HW119028   3.320   1.999   2.361  3.0515  0.3926  1.9673
 2464SOL    HW219029   3.328   1.883   2.270 -1.0373  0.3432 -0.6644
 2465SOL     OW19030   2.045   3.701   7.906  0.4208  0.0854  0.2501
 2465SOL    HW119031   2.074   3.674   7.819  0.4234  1.0262 -0.0419
 2465SOL    HW219032   2.100   3.656   7.971  0.9666 -1.7708 -1.5044
 2466SOL     OW19033   0.123   2.317   9.817  0.3217  0.2836 -0.5125
 2466SOL    HW119034   0.150   2.377   9.887 -0.4113  1.2875 -1.0786
 2466SOL    HW219035   0.142   2.365   9.736 -0.4708 -1.6044 -1.8227
 2467SOL     OW19036   0.352   0.113  15.109  0.1554  0.1531  0.3673
 2467SOL    HW119037   0.401   0.113  15.191 -0.8423 -0.9224  0.9713
 2467SOL    HW219038   0.395   0.046  15.056  0.1565 -1.0325  1.8479
 2468SOL     OW19039   0.896   1.851   6.882  0.2609 -0.2999  0.1506
 2468SOL    HW119040   0.821   1.905   6.908  2.0501  1.8508  0.7750
 2468SOL    HW219041   0.897   1.787   6.953  0.0260  0.9781  1.3021
 2469SOL     OW19042   1.631   0.908   4.671  0.2214  0.1468  0.2726
 2469SOL    HW119043   1.696   0.950   4.727  0.5592 -1.7073  1.2805
 2469SOL    HW219044   1.572   0.975   4.638  0.5929  0.7110  0.7474
 2470SOL     OW19045   3.242   1.059  10.914 -1.0895 -0.1602 -0.6276
 2470SOL    HW119046   3.279   1.067  10.826 -0.9242 -2.9334 -0.8070
 2470SOL    HW219047   3.231   0.964  10.911 -1.9394 -0.1527  1.9200
 2471SOL     OW19048   2.761   4.635   8.276  0.4095 -0.2705  0.0349
 2471SOL    HW119049   2.743   4.721   8.315 -1.4499 -0.3615 -0.6391
 2471SOL    HW219050   2.669   4.610   8.278 -0.2950  2.1761 -0.9786
 2472SOL     OW19051   0.102   2.645   9.216  0.0135 -0.2052 -0.1951
 2472SOL    HW119052   0.188   2.684   9.199  1.7104 -4.3260 -1.0265
 2472SOL    HW219053   0.131   2.567   9.264 -0.7604 -0.0293  0.5578
 2473SOL     OW19054   3.470   3.125  10.486 -0.4971 -0.3496  0.8694
 2473SOL    HW119055   3.431   3.062  10.546 -1.0286  0.5825  1.4928
 2473SOL    HW219056   3.559   3.110  10.515  0.7779  0.2866 -2.6660
 2474SOL     OW19057   3.825   1.610   7.104 -0.2133 -0.5793  0.2758
 2474SOL    HW119058   3.839   1.520   7.134 -1.5917 -0.9663 -0.2290
 2474SOL    HW219059   3.832   1.654   7.188  2.5819  0.9006 -0.7575
 2475SOL     OW19060   2.374   0.079  16.304 -0.3729  0.1195 -0.8554
 2475SOL    HW119061   2.364   0.054  16.395  2.4808  2.5386  0.0923
 2475SOL    HW219062   2.459   0.041  16.285  0.1156  0.9433 -0.2991
 2476SOL     OW19063   3.654   4.452   5.962  0.3115 -0.2450  0.2476
 2476SOL    HW119064   3.577   4.410   6.000  0.0340  1.9793  2.1782
 2476SOL    HW219065   3.608   4.505   5.897  2.3779 -0.0738 -1.0672
 2477SOL     OW19066   1.108   4.574   5.311  0.7370 -0.3154  0.3824
 2477SOL    HW119067   1.090   4.614   5.396  2.5360  0.1686  0.5311
 2477SOL    HW219068   1.173   4.637   5.279 -1.5178  1.3757 -0.8833
 2478SOL     OW19069   0.267   2.573  11.940 -0.0516  0.8430 -0.4623
 2478SOL    HW119070   0.219   2.509  11.888  0.8519  1.4323 -2.0325
 2478SOL    HW219071   0.236   2.658  11.907  0.9098  0.9277 -1.1703
 2479SOL     OW19072   2.592   3.947   0.304 -0.1719 -0.2347  0.1499
 2479SOL    HW119073   2.668   3.967   0.250  1.5070 -1.4026  2.0979
 2479SOL    HW219074   2.563   3.857   0.292  1.0530 -0.4851 -0.9214
 2480SOL     OW19075   2.105   2.825   3.129  0.6517  0.5012 -0.3134
 2480SOL    HW119076   2.065   2.738   3.130  0.9056  0.3938  0.9536
 2480SOL    HW219077   2.068   2.854   3.046  1.3558  1.6790 -0.2266
 2481SOL     OW19078   3.892   3.665  16.957 -0.2599  0.2251 -0.6392
 2481SOL    HW119079   3.821   3.667  17.021 -0.1528  1.2068 -0.5533
 2481SOL    HW219080   3.927   3.577  16.973  0.6069  0.7308  0.2271
 2482SOL     OW19081   2.623   0.015   7.337 -0.2088  0.2846 -0.4448
 2482SOL    HW119082   2.701   0.062   7.306 -0.3395  1.1766  0.5729
 2482SOL    HW219083   2.628   0.028   7.432 -3.0579 -2.0188  0.0055
 2483SOL     OW19084   1.121   3.068   2.979 -0.1554  0.1089  0.0326
 2483SOL    HW119085   1.099   3.108   3.063 -2.3386  0.0630 -0.5162
 2483SOL    HW219086   1.039   3.088   2.934 -0.8299  1.0044  1.6858
 2484SOL     OW19087   3.179   1.518   3.295  0.0043 -0.2438 -0.1480
 2484SOL    HW119088   3.261   1.471   3.311  0.2316 -0.2617 -1.3719
 2484SOL    HW219089   3.199   1.584   3.229  0.9944 -0.0372  0.3636
 2485SOL     OW19090   1.725   1.725  12.359  0.4533  0.6802  1.0063
 2485SOL    HW119091   1.715   1.636  12.325  0.7928  1.3490 -0.8419
 2485SOL    HW219092   1.814   1.740  12.326  1.0348  0.6885  2.5699
 2486SOL     OW19093   3.572   3.979   2.409  0.6001  0.3896 -0.2249
 2486SOL    HW119094   3.583   4.052   2.347 -1.2793 -0.0333 -1.0611
 2486SOL    HW219095   3.564   3.906   2.347  0.8999 -1.1703  1.5756
 2487SOL     OW19096   4.687   0.964   8.349  0.2067  0.4831  0.6233
 2487SOL    HW119097   4.682   0.881   8.395  1.9723 -0.2784 -0.5423
 2487SOL    HW219098   4.694   0.933   8.259 -2.1149  1.7822 -0.0019
 2488SOL     OW19099   2.537   3.902   6.730 -0.0733 -0.5934 -0.2772
 2488SOL    HW119100   2.630   3.922   6.736 -0.7698  2.7769 -0.9549
 2488SOL    HW219101   2.519   3.877   6.639  0.8668  0.6959 -0.8154
 2489SOL     OW19102   1.422   3.213   2.052  0.0486  0.0343  0.4784
 2489SOL    HW119103   1.474   3.259   1.986 -0.8983  0.9465  0.3622
 2489SOL    HW219104   1.485   3.208   2.124  0.0490 -0.6677  0.4323
 2490SOL     OW19105   0.379   1.378   9.137 -0.1913  0.3020  0.4375
 2490SOL    HW119106   0.445   1.333   9.189 -1.5568 -1.8777  0.2447
 2490SOL    HW219107   0.428   1.458   9.116  0.3505  0.3568  1.8934
 2491SOL     OW19108   2.273   2.124   5.985 -0.0922 -0.2364 -0.3870
 2491SOL    HW119109   2.297   2.173   5.907 -0.3735  0.6753  0.1068
 2491SOL    HW219110   2.278   2.031   5.962  1.8627 -0.9575  2.8624
 2492SOL     OW19111   3.347   2.647   2.092 -0.2106 -0.0508 -0.2218
 2492SOL    HW119112   3.380   2.568   2.047 -1.2744 -0.0766 -0.9519
 2492SOL    HW219113   3.296   2.690   2.024  1.7420  2.1003 -0.3170
 2493SOL     OW19114   4.297   2.474   0.897 -0.0393  0.4196 -0.0229
 2493SOL    HW119115   4.356   2.547   0.880 -0.5306  1.1509  1.4072
 2493SOL    HW219116   4.231   2.469   0.828 -0.3554 -2.6276  0.4756
 2494SOL     OW19117   3.141   3.186   7.165  0.4730  0.3128 -0.0430
 2494SOL    HW119118   3.157   3.112   7.106 -2.0222 -1.3280  1.3331
 2494SOL    HW219119   3.048   3.199   7.151 -0.3664 -4.1646  1.2092
 2495SOL     OW19120   3.384   0.479   3.669  0.5670 -0.0308 -0.4774
 2495SOL    HW119121   3.337   0.398   3.649 -0.3400 -0.1089  1.9164
 2495SOL    HW219122   3.337   0.537   3.609 -0.6478 -1.6793 -1.1179
 2496SOL     OW19123   0.190   0.447   9.388  0.2655  0.6280 -0.3839
 2496SOL    HW119124   0.237   0.490   9.459 -1.0735  1.0810  0.2335
 2496SOL    HW219125   0.247   0.464   9.313  0.1060  1.9167 -0.2075
 2497SOL     OW19126   0.397   3.798  10.873 -0.0776 -0.0347 -0.1208
 2497SOL    HW119127   0.401   3.890  10.847 -2.5101  0.0984 -0.0769
 2497SOL    HW219128   0.326   3.791  10.937 -2.0916 -0.8407 -2.4262
 2498SOL     OW19129   3.403   1.398   5.386 -0.0193 -0.1043  0.2470
 2498SOL    HW119130   3.325   1.369   5.434 -0.0611  0.7534  0.7075
 2498SOL    HW219131   3.444   1.435   5.465  1.3288  2.0171 -1.4540
 2499SOL     OW19132   1.011   2.906   0.110  0.7591 -0.0659  0.0394
 2499SOL    HW119133   1.042   2.995   0.124 -0.8519  0.8366 -2.0332
 2499SOL    HW219134   1.091   2.853   0.112 -0.9295 -2.6265 -0.2225
 2500SOL     OW19135   3.909   3.930   2.372 -0.0802  0.8085 -0.2032
 2500SOL    HW119136   3.851   3.877   2.317  1.4596  0.3179 -1.3694
 2500SOL    HW219137   3.896   3.903   2.462  3.5375  1.5316  0.5387
 2501SOL     OW19138   3.866   0.871   6.961  0.7991 -0.8906  0.4413
 2501SOL    HW119139   3.799   0.845   7.023  0.6580  0.1133  0.7190
 2501SOL    HW219140   3.941   0.888   7.019  1.2304  0.1468 -0.4144
 2502SOL     OW19141   0.353   3.547   3.487 -0.2020  1.1078 -0.6086
 2502SOL    HW119142   0.264   3.574   3.509 -0.8327 -0.9642 -0.6077
 2502SOL    HW219143   0.365   3.597   3.407  1.0990  0.3961 -0.8533
 2503SOL     OW19144   4.613   3.849   6.278  0.7327  0.4378 -0.1326
 2503SOL    HW119145   4.528   3.843   6.320  1.0898  1.2394  0.6975
 2503SOL    HW219146   4.598   3.927   6.224 -2.0582 -0.7094 -0.9726
 2504SOL     OW19147   1.693   0.201   5.556  0.3584 -0.0578 -0.3792
 2504SOL    HW119148   1.642   0.124   5.581 -2.6843  1.9830 -0.3091
 2504SOL    HW219149   1.625   0.266   5.572  3.4844  2.8260  1.2406
 2505SOL     OW19150   1.934   4.177   4.635 -0.6258  0.0624 -0.0567
 2505SOL    HW119151   1.901   4.257   4.596 -0.4346  0.2710  0.2107
 2505SOL    HW219152   1.873   4.109   4.604  0.3706 -0.9453  0.2035
 2506SOL     OW19153   2.830   3.314  16.782 -0.7759  0.2054  0.2229
 2506SOL    HW119154   2.843   3.240  16.840 -2.1612  0.1769  0.4999
 2506SOL    HW219155   2.914   3.316  16.736  0.0488 -1.7241  1.6606
 2507SOL     OW19156   1.533   4.133   2.738 -0.0001  0.3110 -0.1746
 2507SOL    HW119157   1.533   4.045   2.775  0.2515 -0.9116 -3.0854
 2507SOL    HW219158   1.441   4.138   2.712  0.0487 -1.9935 -0.7821
 2508SOL     OW19159   0.932   2.638   1.818 -0.2675  1.0212 -0.9531
 2508SOL    HW119160   0.845   2.658   1.853 -0.5143  0.4563 -1.2412
 2508SOL    HW219161   0.958   2.564   1.873  0.4467  2.1997  0.3229
 2509SOL     OW19162   2.929   2.468   8.949 -0.2425  0.0157  0.0224
 2509SOL    HW119163   2.840   2.435   8.934 -0.7406  1.1508  0.4952
 2509SOL    HW219164   2.933   2.535   8.881 -1.8324  1.0235  0.9183
 2510SOL     OW19165   4.329   1.550   9.514  0.0724 -0.5461  0.2499
 2510SOL    HW119166   4.386   1.473   9.511  1.0306  0.2474 -1.7061
 2510SOL    HW219167   4.353   1.590   9.597 -2.7796 -0.2454  0.9563
 2511SOL     OW19168   3.777   0.701   3.787  0.0006 -0.2103  0.4555
 2511SOL    HW119169   3.822   0.623   3.819 -1.0523 -1.7532 -1.7895
 2511SOL    HW219170   3.691   0.680   3.823  1.7411 -1.6455  3.7380
 2512SOL     OW19171   3.724   3.437  17.710 -0.2631  0.0268  0.1081
 2512SOL    HW119172   3.764   3.352  17.728 -2.0270 -0.4828  1.5965
 2512SOL    HW219173   3.645   3.407  17.665  1.4989 -1.0161 -2.3029
 2513SOL     OW19174   2.764   0.894  13.052  0.2660 -0.2272 -0.5747
 2513SOL    HW119175   2.728   0.870  13.137  2.2304  0.0825  0.3417
 2513SOL    HW219176   2.687   0.871  13.000  0.5675 -3.0187  0.2049
 2514SOL     OW19177   0.886   3.890   1.807  0.0031 -0.1784  0.3607
 2514SOL    HW119178   0.899   3.796   1.820 -0.8230 -0.4829 -1.0598
 2514SOL    HW219179   0.920   3.912   1.894  1.5713  0.9883 -0.5582
 2515SOL     OW19180   0.084   3.239   4.672 -0.2880 -0.2699 -0.4127
 2515SOL    HW119181   0.023   3.291   4.724  1.9496  0.1397  1.8340
 2515SOL    HW219182   0.013   3.210   4.616  0.2942  0.5705 -1.5943
 2516SOL     OW19183   2.317   0.802   9.005  0.6188 -0.0004 -0.7945
 2516SOL    HW119184   2.246   0.771   8.949 -1.1635  0.0489  1.4595
 2516SOL    HW219185   2.278   0.842   9.082  0.0131 -1.9314 -0.1021
 2517SOL     OW19186   0.687   1.662   2.639  0.6069  0.0975  0.0673
 2517SOL    HW119187   0.669   1.656   2.733  3.6833 -0.4260  0.6489
 2517SOL    HW219188   0.636   1.736   2.608  1.7625  1.4351  1.3057
 2518SOL     OW19189   2.958   0.005   2.456  0.4606  0.1399 -0.6293
 2518SOL    HW119190   2.961   0.053   2.539  1.3180  0.2844 -0.7513
 2518SOL    HW219191   2.866   0.004   2.428 -0.3609 -1.1817  2.1360
 2519SOL     OW19192   1.345   1.609  17.286  0.3335 -0.2026 -0.4395
 2519SOL    HW119193   1.407   1.675  17.256 -0.0482  0.3078 -0.1218
 2519SOL    HW219194   1.264   1.634  17.242  1.4792  1.2645 -1.7084
 2520SOL     OW19195   0.201   3.371   2.219  0.0685 -0.4232 -0.0480
 2520SOL    HW119196   0.154   3.386   2.137 -1.4234  1.2222  1.1137
 2520SOL    HW219197   0.261   3.445   2.219 -0.2816 -0.1095 -3.7630
 2521SOL     OW19198   0.459   0.869   8.090  0.3768  0.5466  0.2707
 2521SOL    HW119199   0.450   0.853   7.996  1.3769  0.0127  0.2662
 2521SOL    HW219200   0.554   0.882   8.099  0.5953 -3.0818  3.0716
 2522SOL     OW19201   3.403   3.482  12.682 -0.0542 -0.0401  0.4134
 2522SOL    HW119202   3.450   3.565  12.671  0.2439  0.1023  2.8208
 2522SOL    HW219203   3.469   3.420  12.653 -0.0985 -0.4051  1.0978
 2523SOL     OW19204   1.764   4.155   0.623  0.1464  0.0226  0.2616
 2523SOL    HW119205   1.692   4.104   0.660 -1.0808  2.6090  1.4250
 2523SOL    HW219206   1.764   4.239   0.668 -3.0376 -0.1368  0.5133
 2524SOL     OW19207   1.292   1.724   6.210 -0.2117  0.1798  0.0538
 2524SOL    HW119208   1.366   1.686   6.257 -0.1095 -0.7239 -0.8394
 2524SOL    HW219209   1.252   1.777   6.279  2.2221  1.9842  0.1141
 2525SOL     OW19210   3.930   0.557   2.667 -0.1373 -0.1245 -0.3369
 2525SOL    HW119211   3.917   0.503   2.746  0.2002  1.3336  0.7110
 2525SOL    HW219212   4.004   0.614   2.686 -0.4213  0.1195  0.0380
 2526SOL     OW19213   3.097   4.170   9.757 -0.1980  0.0843  0.3025
 2526SOL    HW119214   3.004   4.151   9.744 -0.5260  2.7708 -1.3711
 2526SOL    HW219215   3.099   4.211   9.844 -0.2611  2.5334 -0.8411
 2527SOL     OW19216   1.737   3.843   2.013 -0.0719 -0.4071 -0.1921
 2527SOL    HW119217   1.794   3.821   2.087  0.6012  3.9601  0.6066
 2527SOL    HW219218   1.654   3.800   2.034  1.8112 -3.3182  1.1814
 2528SOL     OW19219   2.832   3.344  15.129 -0.1403 -1.0110 -0.3197
 2528SOL    HW119220   2.867   3.420  15.175  2.2741 -0.5129 -3.0170
 2528SOL    HW219221   2.886   3.273  15.166  1.2271 -0.3058 -0.9761
 2529SOL     OW19222   1.901   2.454  13.836 -0.0456 -0.2338 -0.1134
 2529SOL    HW119223   1.914   2.447  13.931  0.0551  1.0215 -0.0298
 2529SOL    HW219224   1.807   2.437  13.826  0.0067 -0.4753 -0.1807
 2530SOL     OW19225   4.196   1.825   4.372  0.3064 -0.0103 -0.2704
 2530SOL    HW119226   4.218   1.802   4.463 -0.5709  0.9197  0.1751
 2530SOL    HW219227   4.105   1.855   4.373  0.1677 -0.4523  0.3485
 2531SOL     OW19228   3.993   0.305  16.989  0.1576  0.6510  0.3865
 2531SOL    HW119229   3.955   0.218  16.977  2.3664 -0.0289 -1.7327
 2531SOL    HW219230   3.926   0.351  16.938 -0.4591 -0.7716 -0.0827
 2532SOL     OW19231   3.395   1.868  12.638 -0.6085  0.6610 -0.1214
 2532SOL    HW119232   3.490   1.867  12.627 -0.4460  2.5031  1.1232
 2532SOL    HW219233   3.383   1.836  12.727 -0.0697 -0.2504 -0.3807
 2533SOL     OW19234   2.410   2.294   0.187  0.8192 -0.0859 -0.0179
 2533SOL    HW119235   2.382   2.248   0.108  0.5586  1.8375 -1.0469
 2533SOL    HW219236   2.475   2.357   0.154 -0.7110  0.2243 -2.4557
 2534SOL     OW19237   4.387   2.390  12.887  0.3362 -0.3350  0.0149
 2534SOL    HW119238   4.441   2.387  12.808 -2.7488  1.2776 -2.1722
 2534SOL    HW219239   4.303   2.368  12.846  0.0077  0.2706  0.3683
 2535SOL     OW19240   3.801   4.613   3.043 -0.0177  0.1146 -0.0866
 2535SOL    HW119241   3.824   4.523   3.068 -0.7680 -0.2998 -0.8791
 2535SOL    HW219242   3.879   4.656   3.009  0.5015 -1.5942 -1.0332
 2536SOL     OW19243   2.234   0.003   1.044 -0.1186  0.3651  0.1721
 2536SOL    HW119244   2.255   0.062   1.116 -0.5938  2.2359 -1.2416
 2536SOL    HW219245   2.262   0.057   0.970  1.5902 -0.9189 -0.1339
 2537SOL     OW19246   1.686   2.384   5.333  0.6155  0.2907  0.1869
 2537SOL    HW119247   1.596   2.378   5.367 -0.3457  0.0883 -2.3674
 2537SOL    HW219248   1.684   2.312   5.270 -1.7045  1.0825 -0.6663
 2538SOL     OW19249   2.571   2.049  16.348 -0.5253 -0.5100  0.0863
 2538SOL    HW119250   2.532   1.961  16.352  0.2422 -0.8820 -0.5584
 2538SOL    HW219251   2.659   2.037  16.314  0.3653 -0.9154  2.5488
 2539SOL     OW19252   1.640   0.004   1.101  0.1623  0.1225 -0.0937
 2539SOL    HW119253   1.698   4.670   1.071  0.5298  1.0557 -1.5191
 2539SOL    HW219254   1.616   0.040   1.016 -0.2387 -0.6025 -0.2857
 2540SOL     OW19255   2.481   2.543   5.432 -0.2886 -0.4870 -0.0992
 2540SOL    HW119256   2.504   2.618   5.487  0.2743 -0.4307 -0.4093
 2540SOL    HW219257   2.565   2.499   5.424  0.9629  1.7358  0.7219
 2541SOL     OW19258   4.591   4.454   4.867 -0.6902  0.4282  0.4687
 2541SOL    HW119259   4.640   4.447   4.785 -0.6438 -1.2275  0.6432
 2541SOL    HW219260   4.654   4.498   4.924 -0.7592  1.7783 -0.5067
 2542SOL     OW19261   1.773   3.823   6.521  0.4332  0.1204 -0.4233
 2542SOL    HW119262   1.860   3.832   6.561 -0.5258 -2.0701  2.1276
 2542SOL    HW219263   1.719   3.869   6.586 -0.0340 -1.0773  0.0445
 2543SOL     OW19264   0.842   3.427   5.193  0.6114 -0.3362 -0.1352
 2543SOL    HW119265   0.772   3.492   5.203 -0.9314 -2.0785  0.3698
 2543SOL    HW219266   0.865   3.427   5.100  0.5435 -0.5753 -0.1512
 2544SOL     OW19267   2.249   1.033   3.537 -0.1253 -0.4414 -0.0697
 2544SOL    HW119268   2.283   0.992   3.458  1.9674 -0.4876  0.8550
 2544SOL    HW219269   2.155   1.015   3.538  0.1264 -1.6848  0.5740
 2545SOL     OW19270   1.224   2.041   6.161  0.7148 -0.2305  0.2099
 2545SOL    HW119271   1.269   1.973   6.111 -0.5007  0.3178 -1.6271
 2545SOL    HW219272   1.134   2.008   6.161  0.9185 -0.7810  1.8113
 2546SOL     OW19273   2.529   0.186   3.578  0.3035 -0.2514  0.2539
 2546SOL    HW119274   2.572   0.248   3.636  0.0087 -1.1206  1.4006
 2546SOL    HW219275   2.581   0.200   3.498 -0.6036  2.3633  0.1216
 2547SOL     OW19276   1.477   1.122  17.509 -0.3052 -0.0810 -0.4226
 2547SOL    HW119277   1.564   1.083  17.513  0.5068  1.5662 -2.6041
 2547SOL    HW219278   1.491   1.186  17.439  0.0174  2.1677  1.6977
 2548SOL     OW19279   2.908   1.488  11.671 -0.0233 -0.0894 -0.6680
 2548SOL    HW119280   2.853   1.473  11.594 -0.7084 -2.6297  0.3207
 2548SOL    HW219281   2.952   1.404  11.684  1.9732  0.7571 -1.9399
 2549SOL     OW19282   4.414   1.866   3.039  0.0599 -0.6574 -0.0414
 2549SOL    HW119283   4.334   1.909   3.069  1.2391  0.9255  0.8050
 2549SOL    HW219284   4.403   1.774   3.061  0.6827 -0.7335 -0.0482
 2550SOL     OW19285   0.195   1.417   2.618 -0.0611  0.6089  0.1411
 2550SOL    HW119286   0.181   1.326   2.643 -0.2857  0.5976 -0.0274
 2550SOL    HW219287   0.284   1.406   2.586 -0.8896 -0.1118 -1.8983
 2551SOL     OW19288   1.756   4.356   6.318 -0.5793  0.1958  0.5954
 2551SOL    HW119289   1.840   4.387   6.353  0.2960  0.1015 -1.3660
 2551SOL    HW219290   1.756   4.404   6.235 -0.5992 -3.0522 -1.3011
 2552SOL     OW19291   2.723   2.369   5.412  0.3566 -0.3117  0.5534
 2552SOL    HW119292   2.793   2.369   5.348 -0.4011 -0.0425 -0.2766
 2552SOL    HW219293   2.752   2.398   5.499  1.3004 -0.0427  0.1439
 2553SOL     OW19294   1.418   3.209   9.130 -0.4089  0.0963  0.1692
 2553SOL    HW119295   1.433   3.287   9.075  0.8279 -0.3293 -0.0925
 2553SOL    HW219296   1.343   3.246   9.176 -0.1173  0.5452  0.2907
 2554SOL     OW19297   2.485   0.067   4.911  0.7160  0.0578  0.2256
 2554SOL    HW119298   2.479   0.161   4.923  2.7094  0.2171  0.0299
 2554SOL    HW219299   2.558   0.038   4.967  0.8552  0.4646  0.2519
 2555SOL     OW19300   3.990   1.891  11.459  0.2465 -0.2034 -0.2655
 2555SOL    HW119301   4.013   1.976  11.420  0.1617  0.3627  0.9295
 2555SOL    HW219302   4.006   1.896  11.553 -1.7008  0.6184  0.0247
 2556SOL     OW19303   1.725   0.149  12.796  0.0724  0.1006 -0.3424
 2556SOL    HW119304   1.635   0.178  12.814  0.8706  1.6908  1.0970
 2556SOL    HW219305   1.729   0.209  12.722  1.1824  0.7207  0.2284
 2557SOL     OW19306   1.937   1.664   4.233 -0.0557  0.0961 -0.6797
 2557SOL    HW119307   1.902   1.606   4.166 -0.1141  0.6237 -1.1111
 2557SOL    HW219308   1.882   1.741   4.214 -0.2733  0.0222 -0.3403
 2558SOL     OW19309   0.913   0.984   5.632  0.2999 -0.1367 -0.7909
 2558SOL    HW119310   0.993   1.006   5.584 -0.4805  2.5036 -0.8956
 2558SOL    HW219311   0.887   0.898   5.597  0.2965 -0.5180  0.1572
 2559SOL     OW19312   3.138   1.640  11.168 -0.6067  0.2185 -0.2582
 2559SOL    HW119313   3.154   1.714  11.227  0.0422  0.9904 -1.3960
 2559SOL    HW219314   3.147   1.569  11.232  3.5069 -0.4785 -1.6050
 2560SOL     OW19315   0.554   1.656   2.347 -0.3512 -0.0673  0.6810
 2560SOL    HW119316   0.645   1.684   2.343 -0.3860 -0.1014 -0.3951
 2560SOL    HW219317   0.525   1.736   2.391  2.6055  1.0104  0.6210
 2561SOL     OW19318   3.682   4.084   0.845  0.0957  0.1372 -0.4503
 2561SOL    HW119319   3.777   4.080   0.837  0.3325  0.4805  2.0208
 2561SOL    HW219320   3.680   4.179   0.856  0.7636  0.0487  0.4462
 2562SOL     OW19321   2.968   3.415  11.927 -0.5353  0.4644  0.2205
 2562SOL    HW119322   2.937   3.442  11.840  1.5477 -0.0514 -0.6684
 2562SOL    HW219323   2.880   3.391  11.958 -1.7503  4.4115 -0.2611
 2563SOL     OW19324   1.291   1.376   7.381 -0.4003  0.0837 -0.9507
 2563SOL    HW119325   1.307   1.457   7.333  0.8452  0.8852  0.8031
 2563SOL    HW219326   1.232   1.347   7.312 -0.6655  0.5430 -0.9163
 2564SOL     OW19327   1.400   2.899   8.239  0.1529 -0.0149 -0.2538
 2564SOL    HW119328   1.433   2.860   8.320  1.5243  1.4847 -0.0818
 2564SOL    HW219329   1.369   2.983   8.274  2.4766  0.7607 -0.0506
 2565SOL     OW19330   0.904   4.076   1.595  0.5758  0.0830  0.0400
 2565SOL    HW119331   0.882   4.143   1.660  1.8936  1.5888 -1.0646
 2565SOL    HW219332   0.894   4.000   1.653  0.9224  1.2827  1.7008
 2566SOL     OW19333   3.741   2.222   6.248  0.0762 -0.1008 -0.3653
 2566SOL    HW119334   3.650   2.252   6.256 -0.1725 -0.9093 -0.0720
 2566SOL    HW219335   3.776   2.255   6.331  2.2130  0.7591 -1.6377
 2567SOL     OW19336   1.808   1.838  16.666  0.3236 -0.0076  0.2110
 2567SOL    HW119337   1.725   1.818  16.624  0.1567  2.0808 -0.4217
 2567SOL    HW219338   1.788   1.895  16.740 -2.2584 -0.4571 -0.1660
 2568SOL     OW19339   0.383   2.764   6.730  0.5695  0.0712 -0.1282
 2568SOL    HW119340   0.459   2.711   6.708  0.0754 -0.6250 -0.1693
 2568SOL    HW219341   0.414   2.846   6.691  1.8223 -1.4000 -2.2308
 2569SOL     OW19342   4.652   0.065   1.677  0.5351  0.2964  0.3236
 2569SOL    HW119343   4.599   4.727   1.708  1.5366 -0.0866  1.1261
 2569SOL    HW219344   4.722   0.069   1.742  0.7368  1.6154  0.0396
 2570SOL     OW19345   0.639   3.731   7.496  0.4151  0.4323 -0.4017
 2570SOL    HW119346   0.580   3.783   7.551  0.3626  0.5116 -0.5342
 2570SOL    HW219347   0.611   3.768   7.412  0.3362 -4.6925 -2.6730
 2571SOL     OW19348   3.598   2.526   7.741 -0.1560  0.7088 -0.3369
 2571SOL    HW119349   3.547   2.459   7.695 -1.4307  1.4950 -0.0673
 2571SOL    HW219350   3.629   2.471   7.813 -2.7237 -1.8024 -1.1278
 2572SOL     OW19351   3.712   3.802   3.553  0.0131 -0.3167 -0.7496
 2572SOL    HW119352   3.633   3.750   3.568 -1.2116  2.3037  1.6734
 2572SOL    HW219353   3.667   3.869   3.503 -1.0558 -0.2791  0.2535
 2573SOL     OW19354   1.082   3.472   2.090  0.0734  0.5457  0.3967
 2573SOL    HW119355   1.172   3.498   2.075 -0.4490  1.6859 -0.7862
 2573SOL    HW219356   1.053   3.447   2.002  1.0200  1.7161 -0.2364
 2574SOL     OW19357   1.820   3.206   2.658  0.7743  0.1820 -0.3330
 2574SOL    HW119358   1.736   3.160   2.656 -0.6219  2.7596 -0.8231
 2574SOL    HW219359   1.791   3.295   2.676 -0.7608 -0.9263  2.6524
 2575SOL     OW19360   0.891   2.923   2.092 -0.3092 -0.1553 -0.9890
 2575SOL    HW119361   0.956   2.873   2.141 -3.1312 -1.7130  1.1478
 2575SOL    HW219362   0.930   2.927   2.004  1.3772  0.0567 -0.2406
 2576SOL     OW19363   3.269   3.676   3.943 -0.1738 -0.6114  0.3247
 2576SOL    HW119364   3.178   3.652   3.961  0.2257 -1.5908  1.0358
 2576SOL    HW219365   3.319   3.686   4.024  1.6459  1.9527 -1.1270
 2577SOL     OW19366   0.341   0.908  12.217 -0.6692  0.0316  0.4971
 2577SOL    HW119367   0.397   0.974  12.177  0.3334 -2.0756 -1.5869
 2577SOL    HW219368   0.299   0.963  12.283 -0.1405  1.6146 -0.4971
 2578SOL     OW19369   3.345   1.944   4.308  0.1353 -0.4698  0.4699
 2578SOL    HW119370   3.341   1.849   4.294 -0.1973 -0.1763 -1.3701
 2578SOL    HW219371   3.251   1.962   4.298  0.3288  0.0966 -0.3120
 2579SOL     OW19372   0.958   0.408   0.891 -0.2199  0.1697  0.6078
 2579SOL    HW119373   0.864   0.408   0.908 -0.6386 -0.9316 -1.6649
 2579SOL    HW219374   0.982   0.483   0.946 -0.3024 -0.4020  1.4206
 2580SOL     OW19375   3.565   0.181  16.536 -0.6277 -0.2680 -0.6117
 2580SOL    HW119376   3.562   0.215  16.625  1.4608 -0.7841 -0.3462
 2580SOL    HW219377   3.568   0.265  16.489  0.5307  1.4893  2.6159
 2581SOL     OW19378   3.138   3.469   8.736 -0.0269 -0.3950  0.2341
 2581SOL    HW119379   3.174   3.555   8.757 -0.4109 -0.1033 -0.2888
 2581SOL    HW219380   3.223   3.435   8.710  0.9443  1.1911  1.3597
 2582SOL     OW19381   3.487   3.150  16.152 -0.0221  0.0837  0.3533
 2582SOL    HW119382   3.538   3.222  16.188 -0.5275  0.0701  1.0950
 2582SOL    HW219383   3.502   3.161  16.058 -1.3659 -0.3807  0.0776
 2583SOL     OW19384   4.280   1.443   9.191  0.1961  0.2921 -0.7007
 2583SOL    HW119385   4.249   1.506   9.256  1.3788  0.2857 -0.1161
 2583SOL    HW219386   4.350   1.490   9.145 -0.4662  2.0212  0.0602
 2584SOL     OW19387   3.339   0.447  17.459 -0.3124 -0.4731  0.3671
 2584SOL    HW119388   3.385   0.526  17.432 -1.8139  0.4653  0.5678
 2584SOL    HW219389   3.299   0.470  17.543 -1.7535  0.5957 -0.6173
 2585SOL     OW19390   1.972   1.142  11.421 -0.1573 -0.3126  0.6111
 2585SOL    HW119391   1.963   1.188  11.338  0.0923  0.7526  1.1731
 2585SOL    HW219392   2.040   1.190  11.469  1.3092  0.6930 -2.4863
 2586SOL     OW19393   4.118   1.178   6.985  0.8003 -0.0910 -0.5872
 2586SOL    HW119394   4.083   1.186   7.074  0.7142  0.0895 -0.6375
 2586SOL    HW219395   4.074   1.257   6.952  1.3498  0.4143 -0.1056
 2587SOL     OW19396   2.706   1.489  10.448 -0.2804 -0.0715  0.5288
 2587SOL    HW119397   2.625   1.519  10.489 -0.1192 -1.0128  1.5183
 2587SOL    HW219398   2.676   1.403  10.419 -0.4004  0.3683 -0.6510
 2588SOL     OW19399   0.767   2.657   5.412 -0.1865  0.6310 -0.0625
 2588SOL    HW119400   0.777   2.562   5.411  2.1021  0.8696 -2.5665
 2588SOL    HW219401   0.769   2.680   5.319 -3.7062 -0.2800 -0.3391
 2589SOL     OW19402   2.640   2.850   5.770  0.4437  0.2691  0.1879
 2589SOL    HW119403   2.723   2.884   5.805  1.2726  1.0930 -2.5771
 2589SOL    HW219404   2.614   2.803   5.850  1.7781  1.2490  1.2102
 2590SOL     OW19405   2.074   0.722   3.379 -0.1100  0.0799 -0.4077
 2590SOL    HW119406   2.057   0.628   3.377 -0.3486  0.1235 -0.3460
 2590SOL    HW219407   2.007   0.757   3.437 -0.5626 -0.5028 -0.5909
 2591SOL     OW19408   2.425   4.028   1.541 -0.5180 -0.0645  0.1462
 2591SOL    HW119409   2.367   4.016   1.616 -1.1040 -0.6184 -0.3834
 2591SOL    HW219410   2.456   3.939   1.524 -1.8470 -0.3285 -0.9202
 2592SOL     OW19411   1.891   0.532   1.188 -0.0354 -0.2045 -0.5502
 2592SOL    HW119412   1.806   0.567   1.160 -0.6251 -0.8710  0.4063
 2592SOL    HW219413   1.940   0.585   1.125 -1.6546  1.7789 -0.1488
 2593SOL     OW19414   1.500   1.211   6.186  0.1692 -0.2878 -0.2159
 2593SOL    HW119415   1.448   1.140   6.224  0.9104  0.1142  1.5608
 2593SOL    HW219416   1.453   1.292   6.208  1.4054  0.8401 -1.7877
 2594SOL     OW19417   4.239   3.130  13.843  0.2607 -0.7748  0.1103
 2594SOL    HW119418   4.315   3.118  13.787  1.2234  1.2834  1.0027
 2594SOL    HW219419   4.182   3.059  13.812 -1.0674 -0.7556  2.4621
 2595SOL     OW19420   4.558   2.410   0.527 -0.7961  0.5008  0.2446
 2595SOL    HW119421   4.481   2.418   0.471 -0.9276  2.2533  0.6941
 2595SOL    HW219422   4.543   2.334   0.583 -0.2246  1.1502  1.2799
 2596SOL     OW19423   0.981   2.325   3.223  0.0438 -0.7090 -0.5925
 2596SOL    HW119424   0.905   2.270   3.205 -0.7768  0.3476 -0.3422
 2596SOL    HW219425   0.998   2.337   3.129  3.4056  0.1700  0.1343
 2597SOL     OW19426   0.422   3.642  12.533 -0.2810 -0.0980 -0.7801
 2597SOL    HW119427   0.462   3.719  12.492  0.0446  0.8841  1.3940
 2597SOL    HW219428   0.493   3.578  12.529  0.7747  1.0805 -0.9300
 2598SOL     OW19429   1.684   1.307   7.901  1.1002  0.1932  0.1846
 2598SOL    HW119430   1.750   1.320   7.834 -0.2439 -0.6614 -1.3014
 2598SOL    HW219431   1.600   1.337   7.865  1.3083  0.1047 -0.3638
 2599SOL     OW19432   0.392   2.195   6.902 -0.6118 -0.1746 -0.6223
 2599SOL    HW119433   0.302   2.191   6.933 -0.5805  0.9250 -0.3929
 2599SOL    HW219434   0.433   2.186   6.988 -0.3220  0.3791 -0.7021
 2600SOL     OW19435   0.786   1.307  13.232 -0.2807  0.8109  0.5485
 2600SOL    HW119436   0.834   1.389  13.226  0.0530  0.5127 -0.8149
 2600SOL    HW219437   0.720   1.325  13.165  1.1163  0.3039 -0.9545
 2601SOL     OW19438   0.503   0.611   6.071 -0.7095 -0.0104 -0.7697
 2601SOL    HW119439   0.549   0.687   6.105 -0.3169 -0.3854 -0.4591
 2601SOL    HW219440   0.466   0.571   6.150 -1.7665  1.8839 -0.3202
 2602SOL     OW19441   3.401   0.231   6.001  0.4302  0.2297  0.1475
 2602SOL    HW119442   3.399   0.248   6.095  0.3818  0.6518  0.0695
 2602SOL    HW219443   3.336   0.161   5.998  1.7678 -0.9626 -1.2149
 2603SOL     OW19444   1.983   1.465   9.765 -0.3456 -0.2177  0.1362
 2603SOL    HW119445   1.931   1.545   9.773 -0.1645 -0.0693 -0.1633
 2603SOL    HW219446   1.938   1.394   9.811 -0.7960 -0.2678 -0.3719
 2604SOL     OW19447   2.016   1.939   4.613 -0.4271 -0.5789  0.9929
 2604SOL    HW119448   1.937   1.973   4.571 -0.5601 -0.5061  1.3023
 2604SOL    HW219449   2.008   1.973   4.702  0.8799  2.2622  0.0402
 2605SOL     OW19450   4.133   3.334  13.580  0.8536  0.3587 -0.3565
 2605SOL    HW119451   4.190   3.314  13.654  1.2720  1.6148 -0.3422
 2605SOL    HW219452   4.117   3.249  13.538  0.3871 -1.6416  3.8582
 2606SOL     OW19453   3.810   0.857   5.213 -0.3666 -0.2950  0.0249
 2606SOL    HW119454   3.831   0.879   5.122 -0.5387  0.3886  0.1478
 2606SOL    HW219455   3.787   0.944   5.246 -0.6658 -0.0950 -0.7040
 2607SOL     OW19456   1.047   0.453   2.917 -0.3549 -0.2903 -0.4509
 2607SOL    HW119457   1.114   0.396   2.955 -0.3149  0.5709  0.7821
 2607SOL    HW219458   1.058   0.453   2.822  0.2847 -1.4615 -0.3744
 2608SOL     OW19459   3.432   0.390   7.987  0.3192 -0.1869 -0.4391
 2608SOL    HW119460   3.451   0.482   8.005  0.8360 -0.9678  2.9803
 2608SOL    HW219461   3.406   0.393   7.895 -0.0426  2.2803 -0.2431
 2609SOL     OW19462   3.089   1.714  13.560 -0.7864 -0.0289  0.4243
 2609SOL    HW119463   3.108   1.705  13.467 -2.3597 -0.2683  0.1308
 2609SOL    HW219464   3.175   1.712  13.601 -0.9095 -1.0481  0.6435
 2610SOL     OW19465   0.583   1.554  10.571 -0.1793  0.0536 -0.1613
 2610SOL    HW119466   0.636   1.481  10.539 -2.7211 -0.7182 -2.6818
 2610SOL    HW219467   0.652   1.615  10.598  2.0782 -1.8695 -1.6144
 2611SOL     OW19468   2.630   2.120  11.355  0.2342 -0.1806  0.3657
 2611SOL    HW119469   2.552   2.149  11.402  0.0757 -2.3141  1.4611
 2611SOL    HW219470   2.636   2.028  11.383  0.0952 -0.6554 -1.1618
 2612SOL     OW19471   1.024   0.006   3.611 -0.0483 -0.3015 -0.3203
 2612SOL    HW119472   0.984   0.071   3.553  0.1324 -0.0343 -0.1474
 2612SOL    HW219473   0.958   4.675   3.593  0.4769 -1.2114  1.0882
 2613SOL     OW19474   1.477   1.841   2.369  0.6569  0.6516 -0.1377
 2613SOL    HW119475   1.479   1.745   2.365  0.1104  0.5664  1.9188
 2613SOL    HW219476   1.414   1.870   2.434 -1.6401  0.0691 -2.1072
 2614SOL     OW19477   1.944   2.107   3.582  0.8045  0.2443 -0.0352
 2614SOL    HW119478   1.859   2.140   3.553  0.2863 -0.5047  0.6483
 2614SOL    HW219479   2.001   2.159   3.526 -0.6234  1.9324  0.0612
 2615SOL     OW19480   4.284   2.696   7.904  0.0729 -0.3487 -0.0576
 2615SOL    HW119481   4.308   2.613   7.946 -0.4808  0.6781  2.2948
 2615SOL    HW219482   4.337   2.693   7.824  0.9512 -1.8705  0.5845
 2616SOL     OW19483   3.231   4.352   1.505  0.8287  0.3059  0.0318
 2616SOL    HW119484   3.178   4.385   1.433  1.8881 -0.2904 -1.0387
 2616SOL    HW219485   3.277   4.283   1.456  1.1201 -1.3063  2.5552
 2617SOL     OW19486   2.225   4.548   5.524 -0.1779 -0.4295  0.0446
 2617SOL    HW119487   2.163   4.487   5.564 -1.0170  1.3978  1.4844
 2617SOL    HW219488   2.200   4.633   5.560 -0.2748 -0.4167 -0.0513
 2618SOL     OW19489   1.861   4.539  15.966 -0.0052  0.1571  0.5094
 2618SOL    HW119490   1.894   4.604  16.027 -1.0666  0.5216  0.6940
 2618SOL    HW219491   1.810   4.587  15.901 -0.9456  0.6110  1.6019
 2619SOL     OW19492   2.382   4.216  11.896 -0.4948 -0.3494 -0.1262
 2619SOL    HW119493   2.354   4.124  11.892 -0.0878 -0.4939  0.4218
 2619SOL    HW219494   2.319   4.254  11.834 -0.2898 -1.5540 -1.0859
 2620SOL     OW19495   2.135   2.378   1.814 -0.3970  0.0458  0.5959
 2620SOL    HW119496   2.082   2.345   1.887  0.2214 -0.4626  0.8070
 2620SOL    HW219497   2.147   2.295   1.768  0.5566  0.3040  0.3960
 2621SOL     OW19498   2.696   4.102   1.816  0.1848  0.4790 -0.5174
 2621SOL    HW119499   2.655   4.129   1.898  0.3992 -1.2403  0.1626
 2621SOL    HW219500   2.780   4.145   1.830  1.3674 -1.2455 -2.3072
 2622SOL     OW19501   1.208   3.745   7.933  0.1595  0.0197  0.5875
 2622SOL    HW119502   1.257   3.753   8.015 -1.4958 -1.1465  1.6815
 2622SOL    HW219503   1.120   3.749   7.971  0.3584 -1.8961  1.2309
 2623SOL     OW19504   2.965   3.487   2.759 -0.2751  0.0607 -0.3275
 2623SOL    HW119505   2.874   3.506   2.785 -0.0418  2.9164 -1.5908
 2623SOL    HW219506   2.994   3.429   2.830 -1.4739 -0.2178 -0.0700
 2624SOL     OW19507   3.220   4.598   0.408 -0.2729  0.1104  0.7486
 2624SOL    HW119508   3.211   4.605   0.503 -0.3143 -0.1272  0.7625
 2624SOL    HW219509   3.143   4.645   0.374  1.0450  1.1109 -0.8261
 2625SOL     OW19510   0.337   2.605   2.837  0.4387 -0.3221  0.3408
 2625SOL    HW119511   0.264   2.552   2.870 -0.2342  0.6774  0.4707
 2625SOL    HW219512   0.415   2.566   2.874  0.8767  0.7275  0.5185
 2626SOL     OW19513   4.185   0.612   1.914  0.3247 -0.3375 -0.2663
 2626SOL    HW119514   4.207   0.683   1.854  0.0339 -0.2363 -0.2533
 2626SOL    HW219515   4.253   0.627   1.980 -0.7944 -0.6008  0.9380
 2627SOL     OW19516   1.850   4.495   7.441  0.5891 -0.5511 -0.0588
 2627SOL    HW119517   1.852   4.503   7.536 -0.9964 -1.2321  0.0436
 2627SOL    HW219518   1.759   4.511   7.416  0.5599  0.4722  0.7020
 2628SOL     OW19519   1.034   2.718   6.201 -0.1277  0.3392  0.2004
 2628SOL    HW119520   1.117   2.673   6.187 -0.7050 -0.7073  0.2166
 2628SOL    HW219521   0.977   2.644   6.218 -0.7627  0.2068 -2.4368
 2629SOL     OW19522   4.135   3.729   6.161  0.2761  0.5251 -0.2829
 2629SOL    HW119523   4.085   3.718   6.242 -3.0169 -1.0919 -2.5164
 2629SOL    HW219524   4.090   3.804   6.123  0.9498  0.6712 -0.7829
 2630SOL     OW19525   0.102   3.894   1.319  0.0236  0.1811  0.2169
 2630SOL    HW119526   0.117   3.848   1.236 -0.8206  1.2066 -0.4963
 2630SOL    HW219527   0.085   3.824   1.382  0.4757 -0.1663 -0.0469
 2631SOL     OW19528   2.665   3.880  15.485 -0.8144  0.8596  0.0538
 2631SOL    HW119529   2.675   3.881  15.581 -1.2423  3.7822  0.0601
 2631SOL    HW219530   2.573   3.856  15.472 -1.7630  3.6964  1.3839
 2632SOL     OW19531   4.392   1.245  13.122 -0.6440 -0.1983 -0.7786
 2632SOL    HW119532   4.442   1.238  13.041  0.1879 -0.3247 -0.2554
 2632SOL    HW219533   4.353   1.332  13.111 -0.1525  0.2066  0.7170
 2633SOL     OW19534   2.256   2.380  16.132  0.0539  0.2246  0.4046
 2633SOL    HW119535   2.186   2.345  16.077  0.8198 -1.2284  0.3655
 2633SOL    HW219536   2.247   2.325  16.210 -0.5026 -0.8292 -0.4023
 2634SOL     OW19537   3.143   3.066   1.997  0.0119  0.3192  0.4627
 2634SOL    HW119538   3.053   3.092   2.017 -0.5377 -0.7897 -0.5439
 2634SOL    HW219539   3.135   2.972   1.979  1.9433  0.0488  0.9273
 2635SOL     OW19540   2.928   3.754   5.241  0.1750  0.5925  0.3740
 2635SOL    HW119541   2.835   3.745   5.263  0.0964 -3.4817 -1.6299
 2635SOL    HW219542   2.972   3.687   5.294  0.8791 -0.0344 -1.0245
 2636SOL     OW19543   2.857   4.585   3.378 -0.0488 -0.0497 -0.2564
 2636SOL    HW119544   2.877   4.572   3.470  1.2393  0.0157 -0.5347
 2636SOL    HW219545   2.930   4.643   3.357 -0.4825  0.5674 -0.0758
 2637SOL     OW19546   4.043   1.201   8.840  0.3018 -0.7038  0.3950
 2637SOL    HW119547   4.090   1.224   8.920 -0.1202  1.1626  0.0974
 2637SOL    HW219548   4.087   1.246   8.768 -0.3668 -0.6722  0.0031
 2638SOL     OW19549   1.387   0.429   7.771 -0.0526 -0.5088 -0.9286
 2638SOL    HW119550   1.385   0.333   7.764 -0.8475 -0.8120  3.1300
 2638SOL    HW219551   1.296   0.434   7.802  1.1189  3.1805  1.7886
 2639SOL     OW19552   0.121   2.431   8.523 -0.3992  0.2505 -0.2372
 2639SOL    HW119553   0.214   2.413   8.529 -0.6766 -1.1375 -0.1449
 2639SOL    HW219554   0.108   2.507   8.465  0.5737  2.4720  2.4534
 2640SOL     OW19555   4.255   3.262  11.952 -0.2596  0.4960 -0.8144
 2640SOL    HW119556   4.338   3.302  11.923 -0.4058  0.1431 -1.7156
 2640SOL    HW219557   4.247   3.186  11.895 -0.6756  0.0454 -0.1468
 2641SOL     OW19558   1.262   3.821   6.287 -0.1037  0.4274  0.0841
 2641SOL    HW119559   1.350   3.829   6.323 -0.9873  0.3190  2.2796
 2641SOL    HW219560   1.238   3.740   6.332  1.5866  0.3448  0.8270
 2642SOL     OW19561   2.190   3.907   5.282 -0.2325  0.1863 -0.4630
 2642SOL    HW119562   2.187   3.906   5.377  1.1807  0.2704 -0.4203
 2642SOL    HW219563   2.117   3.849   5.263 -0.6846  1.6503 -3.1828
 2643SOL     OW19564   2.745   4.494   1.030 -0.1635  0.1318 -0.2190
 2643SOL    HW119565   2.767   4.573   0.980 -0.3045  0.3272  0.0316
 2643SOL    HW219566   2.690   4.450   0.965 -1.1944  1.0351  0.0658
 2644SOL     OW19567   0.006   2.721   7.157 -0.0821  0.1555  0.5534
 2644SOL    HW119568   0.066   2.757   7.092 -1.5961  1.4018 -0.1518
 2644SOL    HW219569   0.062   2.660   7.204  1.5825  0.7993 -0.6075
 2645SOL     OW19570   2.761   3.032   0.911  0.1222 -0.2030  0.8269
 2645SOL    HW119571   2.748   2.973   0.836  1.3316  0.7264 -0.0988
 2645SOL    HW219572   2.670   3.031   0.941 -0.5603 -3.0713 -1.2333
 2646SOL     OW19573   0.106   0.955  16.652 -0.1546  0.7926 -0.4620
 2646SOL    HW119574   0.114   0.962  16.557 -0.5463  1.1035 -0.4701
 2646SOL    HW219575   0.155   0.873  16.664  0.6750  1.4553  0.6548
 2647SOL     OW19576   3.580   2.495   2.734 -0.1650  0.1686  0.5789
 2647SOL    HW119577   3.553   2.418   2.783  1.4302 -0.7304  0.0479
 2647SOL    HW219578   3.595   2.444   2.654 -0.2507 -0.2275  0.8168
 2648SOL     OW19579   4.286   0.816   2.922  0.5719  0.5124  0.3489
 2648SOL    HW119580   4.313   0.739   2.872  0.9008  1.0092 -0.2406
 2648SOL    HW219581   4.258   0.877   2.854  1.9140  0.6900 -0.0415
 2649SOL     OW19582   1.396   1.489  10.736 -0.4039  0.3367 -0.4106
 2649SOL    HW119583   1.421   1.463  10.824 -0.5445  0.0952 -0.4436
 2649SOL    HW219584   1.321   1.430  10.736 -0.1266 -0.0218 -0.0416
 2650SOL     OW19585   1.192   1.004   8.971 -0.0704 -0.4535  0.3120
 2650SOL    HW119586   1.171   0.968   8.885  0.6458 -0.1385  0.0027
 2650SOL    HW219587   1.137   0.951   9.029  0.2296  0.3869  1.3675
 2651SOL     OW19588   4.565   3.842   9.687  0.4571  0.0851  0.0589
 2651SOL    HW119589   4.502   3.770   9.690  0.6264 -0.0604  0.0886
 2651SOL    HW219590   4.640   3.805   9.734 -0.8088  0.2590  2.1942
 2652SOL     OW19591   0.577   2.751   5.585 -0.0804 -0.3501  0.3722
 2652SOL    HW119592   0.629   2.694   5.529 -0.0787  1.2275 -1.2118
 2652SOL    HW219593   0.563   2.688   5.656 -0.9579  1.7919  2.1170
 2653SOL     OW19594   2.302   1.328   8.860  0.3181 -0.3202  0.3634
 2653SOL    HW119595   2.252   1.326   8.942 -1.3883  3.0453 -0.5802
 2653SOL    HW219596   2.228   1.357   8.806  0.2091 -0.0230  0.6695
 2654SOL     OW19597   0.414   0.608   9.270 -0.3973 -0.8898  0.4216
 2654SOL    HW119598   0.461   0.685   9.300  1.0525 -1.5308 -0.1810
 2654SOL    HW219599   0.354   0.648   9.207  2.7719 -0.4159 -2.3097
 2655SOL     OW19600   3.776   1.726   5.991  0.4367 -0.3178  0.3451
 2655SOL    HW119601   3.800   1.806   6.038  1.3646 -0.1302 -0.4345
 2655SOL    HW219602   3.773   1.658   6.058 -1.3602  0.0768  0.6505
 2656SOL     OW19603   0.964   4.406   8.565 -0.5049  0.0726  0.0897
 2656SOL    HW119604   1.028   4.439   8.502 -1.0193  1.6438  0.3701
 2656SOL    HW219605   0.879   4.418   8.522  0.4796  1.3412 -1.5216
 2657SOL     OW19606   1.669   0.343   7.644 -0.0783 -0.6235  0.4670
 2657SOL    HW119607   1.684   0.254   7.677  0.4223  0.2305  2.5525
 2657SOL    HW219608   1.760   0.372   7.649  0.6383 -2.6167 -0.9213
 2658SOL     OW19609   3.013   3.261   1.368  0.3951  0.0368  0.2764
 2658SOL    HW119610   3.047   3.174   1.391 -0.5342 -0.8601 -1.7966
 2658SOL    HW219611   2.971   3.243   1.284 -1.1303  0.5704  0.9310
 2659SOL     OW19612   3.513   3.362  15.211  0.5060 -0.0411 -0.0457
 2659SOL    HW119613   3.596   3.348  15.257  0.1799 -2.4116 -0.2050
 2659SOL    HW219614   3.493   3.450  15.242 -0.9118 -0.4376  0.1640
 2660SOL     OW19615   3.921   2.183   7.168  0.2375 -0.1519 -0.0425
 2660SOL    HW119616   4.003   2.138   7.147  0.3117  0.8473 -1.8155
 2660SOL    HW219617   3.917   2.164   7.262  2.0995  1.9422  0.4755
 2661SOL     OW19618   4.110   1.751   6.321  0.0852  0.2308  0.1994
 2661SOL    HW119619   4.087   1.703   6.401 -0.7114 -1.5006 -1.0934
 2661SOL    HW219620   4.181   1.693   6.292 -1.0390 -0.9743 -0.1081
 2662SOL     OW19621   4.733   2.625   8.917 -0.2129 -0.8591  0.3644
 2662SOL    HW119622   0.018   2.574   8.995 -0.8385 -1.5313  0.0929
 2662SOL    HW219623   0.026   2.565   8.847  1.2201 -1.1522  1.2107
 2663SOL     OW19624   0.272   1.434  16.373 -0.4974  0.7804 -0.1957
 2663SOL    HW119625   0.190   1.479  16.354 -1.3712 -0.3631  0.8458
 2663SOL    HW219626   0.337   1.504  16.373  1.2991 -0.8974 -1.8175
 2664SOL     OW19627   2.150   0.390  11.832 -0.3029  0.8151  0.4925
 2664SOL    HW119628   2.094   0.468  11.832 -0.7305  0.5084  0.3747
 2664SOL    HW219629   2.105   0.330  11.891 -0.0408 -0.8962 -1.0673
 2665SOL     OW19630   1.326   2.584  10.999 -0.2055 -0.1877  0.1108
 2665SOL    HW119631   1.353   2.532  10.924 -0.7201 -0.5733  0.1955
 2665SOL    HW219632   1.394   2.648  10.978 -0.2596  0.3027  1.4294
 2666SOL     OW19633   3.511   2.552   0.843  0.5416 -0.3204 -0.3491
 2666SOL    HW119634   3.472   2.531   0.927  1.9065  0.1845  0.4059
 2666SOL    HW219635   3.436   2.557   0.784  0.4446  2.2241  0.0181
 2667SOL     OW19636   3.513   2.972  11.794 -0.3058 -0.3984 -0.2539
 2667SOL    HW119637   3.480   2.941  11.710  1.8989  0.2080 -1.3561
 2667SOL    HW219638   3.472   3.059  11.799  0.6519  0.1166 -1.4168
 2668SOL     OW19639   1.566   0.993   8.659  0.1701  0.8396  0.4083
 2668SOL    HW119640   1.477   1.029   8.661  0.0311  0.2234  4.5115
 2668SOL    HW219641   1.575   0.966   8.567 -3.2473 -0.4521  0.4533
 2669SOL     OW19642   2.097   0.902   2.440 -0.2578  0.6395 -0.0901
 2669SOL    HW119643   2.136   0.821   2.407 -2.0833  0.6727 -2.3292
 2669SOL    HW219644   2.044   0.879   2.516 -0.1878  1.2410  0.1384
 2670SOL     OW19645   2.766   2.002   3.933  0.2276  0.0713  0.1362
 2670SOL    HW119646   2.792   2.085   3.893 -3.8418  0.9406 -0.6691
 2670SOL    HW219647   2.782   2.013   4.027  0.4750  0.4642  0.0478
 2671SOL     OW19648   4.173   0.023  12.221 -0.1830  0.1577 -0.6993
 2671SOL    HW119649   4.082   4.732  12.205 -0.9719  0.8439  2.6731
 2671SOL    HW219650   4.218   0.013  12.137 -0.9911 -0.7523 -1.0334
 2672SOL     OW19651   3.497   0.066   4.666  0.4583  0.2116 -0.2567
 2672SOL    HW119652   3.499   4.707   4.650 -1.3805 -0.2535  2.3038
 2672SOL    HW219653   3.447   0.099   4.591 -0.5205 -0.0274  0.2886
 2673SOL     OW19654   1.345   1.004   3.787  0.6458 -0.2631  0.0129
 2673SOL    HW119655   1.392   0.927   3.820 -2.6022 -0.4003  4.4457
 2673SOL    HW219656   1.292   1.020   3.865 -0.8285  0.0085 -1.0522
 2674SOL     OW19657   2.033   3.269   4.908  0.1543  0.3077 -0.3218
 2674SOL    HW119658   1.967   3.313   4.854  0.1413  1.3110  0.5070
 2674SOL    HW219659   2.020   3.313   4.992 -1.1669 -0.0995 -0.3227
 2675SOL     OW19660   0.078   1.318   4.395 -0.0936 -0.5871 -0.4807
 2675SOL    HW119661   0.035   1.392   4.437 -1.2205 -2.1942  1.1720
 2675SOL    HW219662   0.131   1.277   4.463  0.4368  0.5726 -0.1972
 2676SOL     OW19663   4.111   0.862   7.699 -0.2096  0.0300 -0.6718
 2676SOL    HW119664   4.071   0.781   7.732  1.2181 -0.6206 -0.5425
 2676SOL    HW219665   4.156   0.848   7.616  0.7594  2.0830 -0.4836
 2677SOL     OW19666   2.446   0.679   4.028 -0.2698 -0.1250 -0.0044
 2677SOL    HW119667   2.363   0.677   3.981 -0.7399  0.2123  0.8084
 2677SOL    HW219668   2.479   0.767   4.009  1.3008 -0.6903  0.1017
 2678SOL     OW19669   2.909   4.459  15.853 -0.2056  0.1642 -0.6834
 2678SOL    HW119670   2.929   4.392  15.918 -1.2460 -0.3286 -0.8718
 2678SOL    HW219671   2.928   4.422  15.766  2.3381  0.9908 -0.4772
 2679SOL     OW19672   2.854   2.721   2.067  0.0635 -0.0227  0.0177
 2679SOL    HW119673   2.855   2.814   2.044  0.7399 -0.0593 -0.1044
 2679SOL    HW219674   2.938   2.717   2.113  0.6538 -2.0646 -1.2468
 2680SOL     OW19675   3.477   2.630   3.439  0.3885 -0.3426  0.2669
 2680SOL    HW119676   3.414   2.665   3.503  0.9251 -2.0001  1.6882
 2680SOL    HW219677   3.555   2.682   3.455 -0.3969  0.6355  0.9622
 2681SOL     OW19678   3.466   2.995   3.643 -0.2884 -0.2374  0.2654
 2681SOL    HW119679   3.475   3.042   3.726  1.9336 -2.7998  1.5008
 2681SOL    HW219680   3.374   2.969   3.655 -0.8312  1.0229 -1.0720
 2682SOL     OW19681   2.166   3.964   7.948 -0.4797  0.1370  0.7221
 2682SOL    HW119682   2.127   3.877   7.938  1.0445 -0.3496 -1.1176
 2682SOL    HW219683   2.249   3.954   7.901 -0.9058 -2.4500  0.5230
 2683SOL     OW19684   0.465   4.311   6.001 -0.2974  0.3035 -0.2782
 2683SOL    HW119685   0.379   4.296   5.960 -0.1052 -2.6471  0.4360
 2683SOL    HW219686   0.455   4.263   6.083  0.6719 -2.7447 -1.9246
 2684SOL     OW19687   1.596   0.173   7.873 -0.1227  0.3090 -0.0549
 2684SOL    HW119688   1.507   0.140   7.862  0.5919 -2.1358  1.5321
 2684SOL    HW219689   1.641   0.095   7.905 -1.5229  0.0124  1.2050
 2685SOL     OW19690   1.638   1.235   9.220 -0.6056  0.0782 -0.3226
 2685SOL    HW119691   1.556   1.194   9.191 -1.6471  2.7907 -1.1272
 2685SOL    HW219692   1.652   1.161   9.279  0.0720  0.9395  0.5917
 2686SOL     OW19693   1.321   2.801   3.279  0.1511 -0.5883  0.4177
 2686SOL    HW119694   1.316   2.878   3.335  1.4425 -0.7492  0.7646
 2686SOL    HW219695   1.332   2.842   3.193 -0.7807 -0.2506  0.4654
 2687SOL     OW19696   1.913   0.713  15.465 -0.4847 -0.7790 -0.7289
 2687SOL    HW119697   1.836   0.751  15.508  1.5114  1.9457  0.4395
 2687SOL    HW219698   1.876   0.630  15.433  0.2696 -0.7108 -1.7850
 2688SOL     OW19699   1.202   4.055   7.269 -0.2133 -0.3314 -0.0263
 2688SOL    HW119700   1.245   4.047   7.355  1.8507 -0.8525 -1.0906
 2688SOL    HW219701   1.219   3.961   7.264  1.2917 -0.1350  1.1557
 2689SOL     OW19702   3.738   0.701   6.217  0.0643  0.4150  0.0576
 2689SOL    HW119703   3.766   0.788   6.188  0.0089  0.6069  0.5843
 2689SOL    HW219704   3.712   0.716   6.308 -0.6757  1.7385 -0.3716
 2690SOL     OW19705   1.038   4.458  15.858 -0.3476 -0.1040 -0.4950
 2690SOL    HW119706   1.060   4.443  15.949  0.5285 -0.8863 -0.8343
 2690SOL    HW219707   0.943   4.453  15.871 -0.4614 -0.0546 -1.2723
 2691SOL     OW19708   2.935   2.180  14.243  0.6380  0.4736  0.6038
 2691SOL    HW119709   2.995   2.178  14.317 -0.1149  0.3202  1.1995
 2691SOL    HW219710   2.995   2.162  14.171  0.8906  1.2348  0.6184
 2692SOL     OW19711   3.131   1.605   6.195 -0.4991 -0.0249  0.3510
 2692SOL    HW119712   3.133   1.540   6.125 -0.5179 -0.0835  0.4045
 2692SOL    HW219713   3.084   1.679   6.157  0.2423  1.1443  1.6928
 2693SOL     OW19714   0.360   3.128   8.113  0.0792  0.5679 -0.1676
 2693SOL    HW119715   0.439   3.085   8.081 -0.8005 -0.4188 -1.0175
 2693SOL    HW219716   0.302   3.056   8.140 -2.1882  1.9342 -1.3920
 2694SOL     OW19717   2.390   0.120   4.655 -0.7869 -0.2660  0.9065
 2694SOL    HW119718   2.432   0.080   4.731 -0.9637 -0.8941  0.6693
 2694SOL    HW219719   2.358   0.202   4.694  1.9010  0.8282  0.7809
 2695SOL     OW19720   4.687   1.003   3.352 -0.6580 -0.1065  0.3103
 2695SOL    HW119721   4.672   0.910   3.338 -0.3235 -0.2498  0.9245
 2695SOL    HW219722   4.711   1.001   3.444 -0.0925 -1.0066  0.1446
 2696SOL     OW19723   1.959   1.494   7.119  0.6827  1.0935 -0.0049
 2696SOL    HW119724   1.936   1.402   7.132 -2.1447  1.6999 -0.5761
 2696SOL    HW219725   1.980   1.495   7.025  0.2371 -1.2831 -0.1238
 2697SOL     OW19726   4.528   4.210   7.735 -0.3066  0.1348  0.3150
 2697SOL    HW119727   4.509   4.157   7.812  0.4826  0.0322  0.4377
 2697SOL    HW219728   4.453   4.269   7.727 -2.7718 -3.1040 -0.1732
 2698SOL     OW19729   3.424   3.088   6.108 -0.2426 -0.1133  0.5420
 2698SOL    HW119730   3.413   3.183   6.099 -1.0430 -0.4477 -1.8713
 2698SOL    HW219731   3.495   3.082   6.171  0.0049 -1.3116  0.1399
 2699SOL     OW19732   1.271   3.111   7.915 -0.4765 -0.5053  0.7571
 2699SOL    HW119733   1.175   3.116   7.922 -0.6594 -2.5052 -0.4790
 2699SOL    HW219734   1.298   3.102   8.006 -0.8850  2.8782  1.2508
 2700SOL     OW19735   1.997   3.003  17.123  0.6947 -0.6045 -0.2854
 2700SOL    HW119736   2.033   3.030  17.038  2.3802  0.1110  0.6755
 2700SOL    HW219737   1.923   3.063  17.137  0.4693 -0.8905 -0.2512
 2701SOL     OW19738   0.870   1.552   9.004 -0.5590  0.1547 -0.1813
 2701SOL    HW119739   0.818   1.524   8.929 -2.7006 -0.7227  1.6328
 2701SOL    HW219740   0.825   1.636   9.013  1.6072  1.2783  0.2825
 2702SOL     OW19741   3.493   0.751   5.688 -0.5528  0.3635 -0.6237
 2702SOL    HW119742   3.527   0.780   5.603  2.6075 -0.2175  0.4350
 2702SOL    HW219743   3.573   0.743   5.740  0.7438  0.3413 -2.5990
 2703SOL     OW19744   0.207   0.813  11.462 -0.0841 -0.1355  0.7344
 2703SOL    HW119745   0.212   0.845  11.552  1.0175  2.3548 -0.2075
 2703SOL    HW219746   0.255   0.731  11.471  2.0472  0.7222 -2.9829
 2704SOL     OW19747   4.470   0.466   4.655 -0.0334 -1.0796  0.3118
 2704SOL    HW119748   4.425   0.436   4.735  2.5399 -1.0646  1.7701
 2704SOL    HW219749   4.559   0.440   4.682  0.2721 -0.7746 -0.4303
 2705SOL     OW19750   3.247   1.150  16.779  0.0136 -0.4994  0.3499
 2705SOL    HW119751   3.236   1.063  16.740  1.2637 -1.2611  1.6628
 2705SOL    HW219752   3.264   1.204  16.702  1.4067 -1.7129 -0.1860
 2706SOL     OW19753   3.674   2.998   3.465  0.3579 -0.0027  0.2901
 2706SOL    HW119754   3.651   3.082   3.426 -1.0286 -0.3870  0.2749
 2706SOL    HW219755   3.604   3.003   3.531 -1.3885  1.9225 -1.7408
 2707SOL     OW19756   1.913   1.082   3.643  0.0753 -0.2770 -0.6857
 2707SOL    HW119757   1.885   1.173   3.639  1.3928  0.2125  0.9597
 2707SOL    HW219758   1.943   1.078   3.734 -0.6687  0.4502 -0.4143
 2708SOL     OW19759   4.233   2.370  17.733 -0.8557 -0.4512 -0.8492
 2708SOL    HW119760   4.204   2.461  17.734  1.6543  0.3553 -1.6666
 2708SOL    HW219761   4.328   2.373  17.726 -0.7397  1.1415  1.7806
 2709SOL     OW19762   1.676   0.270   2.600  0.6768 -0.1910 -0.3601
 2709SOL    HW119763   1.667   0.213   2.524 -1.1700 -0.0553 -0.2446
 2709SOL    HW219764   1.755   0.321   2.589 -0.2787  0.9307 -1.9589
 2710SOL     OW19765   2.736   1.270   6.544 -0.3595 -0.5100 -0.3296
 2710SOL    HW119766   2.672   1.317   6.597  1.8325  0.5374  1.3713
 2710SOL    HW219767   2.690   1.276   6.460 -1.6696  4.3678  0.7145
 2711SOL     OW19768   1.753   0.431   0.885 -0.5842  0.1886  0.0233
 2711SOL    HW119769   1.763   0.392   0.971 -0.9410  1.7248  0.7554
 2711SOL    HW219770   1.749   0.524   0.908 -0.3504  0.7463 -2.1267
 2712SOL     OW19771   4.263   2.582   8.496  0.3644 -0.4690  0.1454
 2712SOL    HW119772   4.224   2.505   8.537  0.8292 -0.3338  0.8379
 2712SOL    HW219773   4.190   2.609   8.440  0.6084  0.7581  0.4219
 2713SOL     OW19774   2.134   1.146   8.627  0.2540 -0.2874  0.8156
 2713SOL    HW119775   2.068   1.088   8.665  0.3643 -2.4888 -2.3575
 2713SOL    HW219776   2.213   1.100   8.655  0.2407 -0.1712  1.0432
 2714SOL     OW19777   2.502   3.104   6.572 -0.2901 -0.4638  0.0276
 2714SOL    HW119778   2.481   3.108   6.479  0.2899  0.2326 -0.0701
 2714SOL    HW219779   2.417   3.108   6.615  0.7746 -0.5975  2.1385
 2715SOL     OW19780   2.574   1.298   8.371 -0.2916  0.7372  0.2943
 2715SOL    HW119781   2.493   1.292   8.422  0.1387  0.4561  0.9467
 2715SOL    HW219782   2.567   1.382   8.325  1.1590  0.5803 -0.2239
 2716SOL     OW19783   1.265   2.883   4.093  0.0525 -0.1976 -0.1752
 2716SOL    HW119784   1.244   2.794   4.064  1.9104 -1.0966  1.2351
 2716SOL    HW219785   1.213   2.892   4.172  1.6962 -1.0947  1.0150
 2717SOL     OW19786   0.819   4.585   3.477 -0.1531  0.3433  0.0860
 2717SOL    HW119787   0.726   4.580   3.456  0.5834  0.5185 -3.2089
 2717SOL    HW219788   0.855   4.585   3.388 -0.0788  0.2805  0.1161
 2718SOL     OW19789   2.507   0.175   2.936 -0.4964  1.1791 -0.2464
 2718SOL    HW119790   2.476   0.116   3.005  1.1855 -0.9769 -1.3221
 2718SOL    HW219791   2.573   0.208   2.996  2.1414 -1.7501 -1.5230
 2719SOL     OW19792   0.697   0.428  14.232 -0.0157  0.4315 -0.0552
 2719SOL    HW119793   0.677   0.507  14.282 -1.3766  0.8411 -1.2497
 2719SOL    HW219794   0.674   0.358  14.292  0.1053  0.4396  0.0018
 2720SOL     OW19795   1.547   4.370   3.271  0.2087 -0.2854 -0.2973
 2720SOL    HW119796   1.591   4.425   3.206  0.6235  2.8023  2.6422
 2720SOL    HW219797   1.576   4.412   3.351 -0.8284  1.5782 -0.9046
 2721SOL     OW19798   0.611   2.329   0.577 -0.0104 -0.3482  0.1161
 2721SOL    HW119799   0.554   2.377   0.517  0.4008  0.1615  0.1392
 2721SOL    HW219800   0.554   2.253   0.588  0.3686 -0.6189  0.2211
 2722SOL     OW19801   3.780   1.116  15.262  0.1328  0.2837  0.0710
 2722SOL    HW119802   3.725   1.058  15.211  0.9419  0.6421 -1.2063
 2722SOL    HW219803   3.839   1.055  15.306  1.7862  1.2611 -0.7881
 2723SOL     OW19804   0.171   1.642  11.810  0.0276 -1.0547  0.0879
 2723SOL    HW119805   0.149   1.735  11.802 -0.4485 -1.0248  1.9619
 2723SOL    HW219806   0.230   1.631  11.736  0.3441 -0.7925  0.3033
 2724SOL     OW19807   1.985   1.258   4.730  0.1746  0.2203 -0.3566
 2724SOL    HW119808   2.075   1.232   4.710 -0.6666 -0.7496 -2.9069
 2724SOL    HW219809   2.002   1.349   4.753 -0.1044  0.4961 -1.2292
 2725SOL     OW19810   3.843   2.127   5.403  0.2289  0.0066 -0.2234
 2725SOL    HW119811   3.764   2.077   5.424  0.1481 -1.1787 -3.4055
 2725SOL    HW219812   3.866   2.093   5.316 -3.5869 -3.2508  0.0014
 2726SOL     OW19813   4.027   4.113  12.682 -0.3065  0.2554 -0.1921
 2726SOL    HW119814   4.034   4.033  12.630 -2.0320  0.5984 -0.9552
 2726SOL    HW219815   4.109   4.156  12.659 -0.1820 -0.8877 -1.8363
 2727SOL     OW19816   2.303   0.330   3.479 -0.1736  0.0053  0.3987
 2727SOL    HW119817   2.370   0.278   3.524 -0.2754  0.9225  1.6044
 2727SOL    HW219818   2.319   0.306   3.388  0.6330  0.5065  0.4084
 2728SOL     OW19819   3.243   4.024   6.838 -0.5197  0.4746 -0.7129
 2728SOL    HW119820   3.299   3.971   6.781  0.2731 -0.5622  1.0071
 2728SOL    HW219821   3.165   3.974   6.861 -0.0895 -0.8612 -2.1261
 2729SOL     OW19822   0.873   4.041   3.965  0.0028 -0.2645  0.4622
 2729SOL    HW119823   0.841   4.056   3.876  0.8421 -0.9881  0.0349
 2729SOL    HW219824   0.961   4.004   3.951 -0.5364  0.0032 -3.4924
 2730SOL     OW19825   4.498   1.724  14.503 -0.1817  0.0825  0.3166
 2730SOL    HW119826   4.524   1.662  14.435 -0.3576 -0.0111  0.3334
 2730SOL    HW219827   4.585   1.747  14.535 -0.8880  1.1463  1.4741
 2731SOL     OW19828   3.167   2.471   7.102  0.1734  0.3592 -0.7880
 2731SOL    HW119829   3.250   2.426   7.121  0.0000  0.2080 -0.3899
 2731SOL    HW219830   3.170   2.466   7.006 -0.7116 -2.8621 -0.6577
 2732SOL     OW19831   2.770   3.806   8.428  0.1378 -0.4561 -0.3180
 2732SOL    HW119832   2.853   3.845   8.456 -0.1577  1.3552 -1.9184
 2732SOL    HW219833   2.720   3.815   8.509  1.1557 -1.1375  0.3880
 2733SOL     OW19834   3.447   0.394   2.112 -0.0269 -0.5555  0.2528
 2733SOL    HW119835   3.532   0.402   2.155  0.1382  0.9903 -0.3493
 2733SOL    HW219836   3.401   0.337   2.174 -0.1271  0.0354  0.7216
 2734SOL     OW19837   2.641   4.323   7.686  0.2373  0.3902  0.0623
 2734SOL    HW119838   2.563   4.351   7.638  1.0637  1.9915 -0.3504
 2734SOL    HW219839   2.697   4.374   7.627 -0.5367  2.0695  0.8038
 2735SOL     OW19840   0.997   1.135   3.631  0.1525  0.1180  0.7398
 2735SOL    HW119841   0.994   1.044   3.601  2.5362  0.1322  0.5139
 2735SOL    HW219842   0.922   1.149   3.689 -0.1790  0.9656  0.1283
 2736SOL     OW19843   0.051   1.175   9.384 -0.0657  0.0540 -0.2072
 2736SOL    HW119844   0.077   1.245   9.324 -0.9483  1.6933  1.3562
 2736SOL    HW219845   0.065   1.215   9.470 -1.8377 -1.2215  0.6780
 2737SOL     OW19846   2.874   3.752   4.632  0.6159 -0.0358  0.1866
 2737SOL    HW119847   2.898   3.777   4.721  1.2367 -2.5672  0.7397
 2737SOL    HW219848   2.941   3.687   4.612  0.6643  0.1300 -0.1940
 2738SOL     OW19849   2.366   1.994  16.119  0.1132 -0.2433  0.6963
 2738SOL    HW119850   2.393   1.919  16.173  2.0229 -0.4058 -0.4928
 2738SOL    HW219851   2.345   2.055  16.190  2.3568 -0.2437  1.3606
 2739SOL     OW19852   1.168   3.067  11.080  0.8563  0.5012  0.3648
 2739SOL    HW119853   1.084   3.094  11.117 -0.0463 -1.7071 -0.1034
 2739SOL    HW219854   1.145   3.047  10.989 -1.5345  1.7447  0.6983
 2740SOL     OW19855   2.062   1.906   2.607 -0.3852 -0.3131  0.3264
 2740SOL    HW119856   2.104   1.821   2.592 -1.5259 -1.2203  2.1821
 2740SOL    HW219857   2.064   1.956   2.525  0.6424 -1.5581 -0.3978
 2741SOL     OW19858   0.367   3.492   8.249 -0.1076 -0.1694  0.4287
 2741SOL    HW119859   0.393   3.470   8.338 -1.7733  3.6608  1.8417
 2741SOL    HW219860   0.291   3.545   8.271 -0.1423 -1.5204  3.5703
 2742SOL     OW19861   0.908   1.490   7.228  0.4400 -0.1484 -0.0575
 2742SOL    HW119862   0.825   1.472   7.272  0.8457  1.1618  1.2493
 2742SOL    HW219863   0.958   1.520   7.304  0.6105 -0.2164 -0.1432
 2743SOL     OW19864   0.787   0.037  12.167 -0.1031  0.4455 -0.1248
 2743SOL    HW119865   0.738   0.044  12.249 -2.1777 -0.2874 -1.2908
 2743SOL    HW219866   0.853   0.106  12.173  1.6482 -1.4552  2.4924
 2744SOL     OW19867   1.868   1.527   3.645 -0.0324  0.3406  0.2200
 2744SOL    HW119868   1.832   1.582   3.576 -2.0238  0.0169  1.0059
 2744SOL    HW219869   1.919   1.591   3.695  1.9713  1.2207 -2.9428
 2745SOL     OW19870   1.919   3.393   2.874  0.1915 -0.4480 -0.0065
 2745SOL    HW119871   1.835   3.391   2.920 -0.1621 -1.5539 -0.6885
 2745SOL    HW219872   1.913   3.464   2.810 -0.6655  0.8648  1.5245
 2746SOL     OW19873   3.724   1.498   3.123 -0.2284  0.0660  0.2475
 2746SOL    HW119874   3.705   1.492   3.216 -0.8958  0.4337  0.1403
 2746SOL    HW219875   3.800   1.556   3.110  0.3476 -0.7701 -0.1058
 2747SOL     OW19876   2.573   0.936   4.658  0.0666  0.6726 -0.4066
 2747SOL    HW119877   2.665   0.931   4.632 -0.2293 -0.7691 -1.1518
 2747SOL    HW219878   2.530   0.993   4.595  2.0741  0.8281 -1.6190
 2748SOL     OW19879   3.352   1.826   7.914  0.5135 -0.4612 -0.1489
 2748SOL    HW119880   3.435   1.791   7.945  1.0340 -1.0349 -2.2208
 2748SOL    HW219881   3.359   1.914   7.952  2.2394 -1.4909  1.8980
 2749SOL     OW19882   4.731   2.664   0.879 -0.3922 -0.0247  0.1800
 2749SOL    HW119883   0.081   2.650   0.839 -1.3074 -1.8178 -1.1274
 2749SOL    HW219884   0.023   2.713   0.957 -0.3127 -0.3955  0.3874
 2750SOL     OW19885   0.326   3.988   6.768  0.6309 -0.1993 -0.1106
 2750SOL    HW119886   0.388   4.061   6.757  0.9609 -0.4915 -0.2134
 2750SOL    HW219887   0.336   3.950   6.855 -0.6667 -0.8340 -0.2398
 2751SOL     OW19888   3.056   0.017  17.012  0.4396 -0.2564  0.0767
 2751SOL    HW119889   3.111   4.675  17.004  0.2997 -0.4453  0.9356
 2751SOL    HW219890   3.118   0.078  17.053  2.2401 -2.6811  0.9925
 2752SOL     OW19891   4.259   3.932  11.395  0.0159 -0.3532  0.0470
 2752SOL    HW119892   4.179   3.923  11.447 -0.9004  2.9783 -0.7897
 2752SOL    HW219893   4.246   4.005  11.334  0.7516  1.4554  2.0522
 2753SOL     OW19894   2.391   3.782  16.330  0.0259 -0.4633 -0.6230
 2753SOL    HW119895   2.451   3.766  16.257  1.0645 -1.4426  0.4558
 2753SOL    HW219896   2.443   3.747  16.402 -0.7221 -0.7818 -0.2524
 2754SOL     OW19897   2.343   0.104   0.370 -0.2623 -0.8461  0.1312
 2754SOL    HW119898   2.438   0.099   0.364 -0.2065  0.8128 -0.2992
 2754SOL    HW219899   2.324   0.081   0.279  0.1295 -0.1755 -0.1214
 2755SOL     OW19900   2.113   1.772   9.013  0.2782  0.7260  0.0299
 2755SOL    HW119901   2.158   1.688   9.017 -0.9602  0.0483 -0.4707
 2755SOL    HW219902   2.039   1.768   9.073 -1.7687 -0.9518 -2.6334
 2756SOL     OW19903   4.578   3.461   3.376 -0.3589  0.2207 -0.4031
 2756SOL    HW119904   4.602   3.376   3.337 -1.2133  0.1215 -0.7161
 2756SOL    HW219905   4.656   3.486   3.425 -2.0787  2.0949  1.3668
 2757SOL     OW19906   0.060   3.866   5.990  0.1544 -0.4791  0.5960
 2757SOL    HW119907   0.022   3.877   6.078 -0.2013  0.2439  0.3443
 2757SOL    HW219908   4.722   3.839   5.934  1.3912  2.2305 -2.3060
 2758SOL     OW19909   0.910   2.702   4.882  0.3772 -0.9691 -0.2165
 2758SOL    HW119910   0.853   2.766   4.839 -1.6489 -0.9151  2.6305
 2758SOL    HW219911   0.946   2.661   4.803 -2.3247 -0.5263 -1.6854
 2759SOL     OW19912   2.185   1.728   6.307 -0.6688 -0.4229  0.1196
 2759SOL    HW119913   2.108   1.678   6.333 -0.2333 -1.0280  0.2414
 2759SOL    HW219914   2.232   1.744   6.389  0.3990  2.2530 -1.0056
 2760SOL     OW19915   3.938   1.711   5.744 -0.4462 -0.2696  0.6309
 2760SOL    HW119916   4.007   1.658   5.785  0.2554  1.1295  1.2428
 2760SOL    HW219917   3.871   1.712   5.812 -1.4630 -0.8973 -0.3755
 2761SOL     OW19918   2.341   2.232  17.676 -0.0316  0.9921  0.4441
 2761SOL    HW119919   2.380   2.230  17.589 -0.3860 -0.3008  0.3177
 2761SOL    HW219920   2.253   2.197  17.661  0.5082 -0.1379 -0.0830
 2762SOL     OW19921   3.165   2.485   7.554 -0.4332  0.3563 -0.2054
 2762SOL    HW119922   3.175   2.500   7.648  2.3144 -0.0591 -0.4019
 2762SOL    HW219923   3.158   2.389   7.554  1.2999  0.2285  1.3961
 2763SOL     OW19924   0.831   1.654  10.528  0.7302 -0.0640  0.4029
 2763SOL    HW119925   0.888   1.595  10.577 -1.2008 -0.3713  2.2837
 2763SOL    HW219926   0.898   1.716  10.500 -0.7639  0.2748 -2.4269
 2764SOL     OW19927   2.710   4.117   2.400 -0.0240  0.3826  0.2201
 2764SOL    HW119928   2.749   4.183   2.342 -1.5735  0.2331 -0.9802
 2764SOL    HW219929   2.706   4.042   2.341  0.5798  0.0436  0.6000
 2765SOL     OW19930   4.163   0.377   5.987 -0.1812  0.6121 -0.6028
 2765SOL    HW119931   4.087   0.419   6.026  0.0702 -0.3573  0.9307
 2765SOL    HW219932   4.218   0.372   6.065 -2.8286 -1.6992  1.0929
 2766SOL     OW19933   3.319   1.151   4.490 -0.4953  0.0256  0.2698
 2766SOL    HW119934   3.248   1.118   4.545 -0.8418 -2.3489 -1.6214
 2766SOL    HW219935   3.253   1.185   4.429 -2.5923 -1.5848  1.6374
 2767SOL     OW19936   3.474   0.687   1.505  0.4168 -0.5867  0.4363
 2767SOL    HW119937   3.487   0.782   1.511  0.8050 -0.7659  2.4624
 2767SOL    HW219938   3.559   0.668   1.465  0.4332  0.8138 -0.1889
 2768SOL     OW19939   1.685   2.131   8.942  0.1769 -0.4858 -0.0295
 2768SOL    HW119940   1.702   2.146   8.849 -2.3906  0.2221 -0.3845
 2768SOL    HW219941   1.770   2.097   8.970  0.1983  0.6842  1.3631
 2769SOL     OW19942   1.655   0.901   1.814  0.0924 -0.3621  0.3341
 2769SOL    HW119943   1.592   0.927   1.881  0.2006  0.6918  0.0163
 2769SOL    HW219944   1.621   0.946   1.737  2.1669  2.8997  1.3434
 2770SOL     OW19945   1.188   4.079   3.109 -0.1610  0.0724  0.0883
 2770SOL    HW119946   1.230   4.133   3.042 -0.3210 -0.1130 -0.1594
 2770SOL    HW219947   1.216   4.128   3.187  0.8390  2.6097 -1.8566
 2771SOL     OW19948   2.557   3.623   3.845 -0.2341  0.1297  0.3322
 2771SOL    HW119949   2.510   3.577   3.775  1.0971  1.2218 -1.2739
 2771SOL    HW219950   2.504   3.585   3.915 -0.4266 -0.2182  0.0046
 2772SOL     OW19951   1.247   4.340   2.776  0.1532 -0.4958 -0.1456
 2772SOL    HW119952   1.302   4.330   2.854 -2.5986  0.4971  1.9101
 2772SOL    HW219953   1.225   4.248   2.763 -2.3757 -0.0803  1.1933
 2773SOL     OW19954   0.782   1.818   6.003 -0.8105  0.0013  0.0885
 2773SOL    HW119955   0.690   1.797   5.987 -0.0200 -2.2114 -1.4838
 2773SOL    HW219956   0.795   1.871   5.925  1.9894 -1.9539 -0.7686
 2774SOL     OW19957   2.931   4.279   2.263  0.1875  0.5138 -0.2145
 2774SOL    HW119958   2.886   4.362   2.280 -1.5401 -0.8649  1.8990
 2774SOL    HW219959   3.018   4.317   2.246 -0.9117  2.7063 -1.0409
 2775SOL     OW19960   1.045   3.404  16.881 -0.1417  0.8006 -0.1823
 2775SOL    HW119961   1.112   3.456  16.926 -0.3305  1.7513 -1.0079
 2775SOL    HW219962   1.060   3.416  16.788  1.5198  0.9743  0.1159
 2776SOL     OW19963   2.482   2.767   7.920 -1.2368  0.2257 -0.4112
 2776SOL    HW119964   2.505   2.749   7.829  1.6121 -1.0588  0.5801
 2776SOL    HW219965   2.403   2.822   7.913 -0.4700  1.3610 -0.1849
 2777SOL     OW19966   2.101   3.481  15.671 -0.6338 -0.1124  0.2305
 2777SOL    HW119967   2.048   3.468  15.749  0.0927 -1.1842  0.5439
 2777SOL    HW219968   2.052   3.445  15.597  1.0594  0.6022 -1.2314
 2778SOL     OW19969   4.168   0.900  17.605 -0.4154  0.2102 -0.0900
 2778SOL    HW119970   4.091   0.845  17.624 -0.3243  0.8400  2.1301
 2778SOL    HW219971   4.175   0.934  17.694 -0.0322 -0.1691  0.0252
 2779SOL     OW19972   0.840   0.174   7.018 -0.2822 -0.4536 -0.3241
 2779SOL    HW119973   0.758   0.205   6.981 -0.1537  0.5526  0.2555
 2779SOL    HW219974   0.874   0.258   7.050  0.0007 -1.5975  2.3437
 2780SOL     OW19975   3.463   3.359   4.890  0.0858 -0.2979 -1.1608
 2780SOL    HW119976   3.462   3.436   4.947  0.2885 -0.3783 -1.0486
 2780SOL    HW219977   3.395   3.306   4.931 -1.0468  2.6649  0.7874
 2781SOL     OW19978   3.641   0.782   6.469  0.2823  0.0400  0.3581
 2781SOL    HW119979   3.683   0.853   6.518  0.3422  1.3320 -1.5431
 2781SOL    HW219980   3.662   0.709   6.528 -0.5168 -0.9149 -0.5527
 2782SOL     OW19981   1.403   1.540   8.378  0.6950  0.0928  0.6552
 2782SOL    HW119982   1.486   1.570   8.416  1.8231 -1.5170 -0.5600
 2782SOL    HW219983   1.388   1.606   8.310 -0.3216 -2.6026 -1.7122
 2783SOL     OW19984   1.396   1.708   4.131  0.4248 -0.3174 -0.0075
 2783SOL    HW119985   1.411   1.671   4.218 -1.9620 -0.5150  0.3296
 2783SOL    HW219986   1.313   1.672   4.100  1.1368 -2.2269  0.3073
 2784SOL     OW19987   2.469   1.879   6.070  0.1155 -0.1117 -0.3585
 2784SOL    HW119988   2.438   1.789   6.060  0.8568 -0.6194  1.8683
 2784SOL    HW219989   2.550   1.856   6.115  0.0764 -0.0840 -0.2746
 2785SOL     OW19990   2.950   3.058   8.585 -0.0128  0.4113 -0.2000
 2785SOL    HW119991   2.922   3.028   8.498  2.0581 -0.7695 -0.4576
 2785SOL    HW219992   3.031   3.103   8.561  0.5619  0.0767  1.1470
 2786SOL     OW19993   3.645   4.158   7.021  0.1204 -0.0813  0.0555
 2786SOL    HW119994   3.614   4.103   6.949  1.8260  0.1264 -0.8661
 2786SOL    HW219995   3.592   4.237   7.013 -0.8634 -0.8524 -0.9940
 2787SOL     OW19996   4.540   4.362  12.469  0.2690  0.1920  0.2176
 2787SOL    HW119997   4.622   4.313  12.466 -0.3738 -0.9776  1.3399
 2787SOL    HW219998   4.544   4.395  12.559 -0.2536  0.9188 -0.0282
 2788SOL     OW19999   3.760   0.076   8.990 -0.1311  0.3930 -0.1780
 2788SOL    HW120000   3.853   0.097   8.999 -0.1916  0.0659  1.1335
 2788SOL    HW220001   3.718   0.161   9.003 -1.3947 -0.0286 -1.4645
 2789SOL     OW20002   0.638   4.483   4.462  0.3261  0.5509 -0.9182
 2789SOL    HW120003   0.551   4.443   4.461  0.7096 -0.2973 -0.8900
 2789SOL    HW220004   0.627   4.573   4.492 -0.8875 -0.4288  1.5848
 2790SOL     OW20005   3.593   0.239   8.614  0.2179  0.8226  0.4856
 2790SOL    HW120006   3.550   0.259   8.530 -0.1611  1.4930  0.8400
 2790SOL    HW220007   3.553   0.311   8.662 -0.6611  0.6051  0.0897
 2791SOL     OW20008   3.025   1.883   8.328 -0.6647  0.2607 -0.5832
 2791SOL    HW120009   3.031   1.844   8.241 -0.5012 -2.1115  0.4984
 2791SOL    HW220010   3.018   1.975   8.305  1.5339  0.5939  0.1504
 2792SOL     OW20011   3.337   0.291  15.377 -0.5634 -0.5952  0.3195
 2792SOL    HW120012   3.306   0.305  15.467 -0.5070  0.6275  0.1447
 2792SOL    HW220013   3.286   0.211  15.361 -0.5975 -0.9225  2.0384
 2793SOL     OW20014   1.342   3.358   6.144 -0.0276 -0.1458 -0.1914
 2793SOL    HW120015   1.380   3.292   6.087 -0.5436  0.1171 -0.8348
 2793SOL    HW220016   1.249   3.344   6.125  0.1549  1.3204 -2.1889
 2794SOL     OW20017   0.411   2.155   0.657 -0.2210 -0.1994  0.4866
 2794SOL    HW120018   0.435   2.162   0.749 -0.6762  0.8850  0.5203
 2794SOL    HW220019   0.321   2.186   0.668 -0.3835 -0.2965 -0.5694
 2795SOL     OW20020   1.139   1.914   4.865  0.1155  0.2845 -0.1475
 2795SOL    HW120021   1.187   1.832   4.858 -0.4269  0.0275 -0.8376
 2795SOL    HW220022   1.047   1.886   4.870  0.8563 -1.7612  2.0728
 2796SOL     OW20023   3.373   3.448   5.827 -0.4839 -0.5799 -0.9390
 2796SOL    HW120024   3.295   3.416   5.782  0.1277 -2.6140 -0.5403
 2796SOL    HW220025   3.446   3.407   5.781  0.2388  0.7209 -0.9427
 2797SOL     OW20026   2.261   0.339   4.751 -0.4370 -0.0858  0.0010
 2797SOL    HW120027   2.275   0.422   4.706  1.7511 -0.8359 -0.7203
 2797SOL    HW220028   2.167   0.342   4.769  0.1130  3.4734  2.2486
 2798SOL     OW20029   2.274   0.379   0.283  0.1244  0.3713  0.4724
 2798SOL    HW120030   2.322   0.319   0.340 -0.0578  0.1380  0.3837
 2798SOL    HW220031   2.259   0.322   0.208 -1.2073  2.5568 -0.9321
 2799SOL     OW20032   2.916   4.241  15.146 -0.4354  0.2559  0.2079
 2799SOL    HW120033   2.865   4.167  15.180  0.0747  0.2044  0.8566
 2799SOL    HW220034   2.873   4.316  15.188  1.9565  0.1470  2.8664
 2800SOL     OW20035   3.044   1.006  14.072 -0.2124 -0.2057 -0.2835
 2800SOL    HW120036   3.116   0.942  14.079  0.5233  0.7955  1.4388
 2800SOL    HW220037   3.026   0.993  13.979 -0.9815 -1.2626  0.0093
 2801SOL     OW20038   4.032   1.633   8.451  0.6918 -0.0924 -0.1130
 2801SOL    HW120039   3.942   1.603   8.442  0.1115  1.4995  0.3775
 2801SOL    HW220040   4.051   1.597   8.538 -1.3405 -3.7582 -1.1971
 2802SOL     OW20041   0.886   2.668  11.467  0.1082 -0.1934 -0.1262
 2802SOL    HW120042   0.974   2.633  11.480  0.7438  1.5559  0.3270
 2802SOL    HW220043   0.835   2.590  11.486  1.5128 -0.5911  1.9913
 2803SOL     OW20044   2.254   2.370   2.508 -0.2109  0.4459  0.3446
 2803SOL    HW120045   2.280   2.406   2.423  0.8193  0.6172  0.7256
 2803SOL    HW220046   2.337   2.329   2.532 -0.2891 -0.2897 -0.6601
 2804SOL     OW20047   1.356   3.537   3.773  0.2266  0.0299  0.0476
 2804SOL    HW120048   1.381   3.594   3.846  0.5915 -0.0154 -0.0436
 2804SOL    HW220049   1.288   3.478   3.806 -0.3118 -0.0710 -1.2338
 2805SOL     OW20050   4.476   2.844   3.388  0.2781 -0.2122  0.1413
 2805SOL    HW120051   4.391   2.803   3.406 -0.7577  1.1432 -1.7221
 2805SOL    HW220052   4.488   2.871   3.480 -2.1102  0.1851  0.3325
 2806SOL     OW20053   0.652   3.109   9.287 -1.2261  0.2499 -0.0702
 2806SOL    HW120054   0.655   3.200   9.316 -0.2284  0.3300 -0.4366
 2806SOL    HW220055   0.699   3.059   9.354 -1.1486  0.2612 -0.1167
 2807SOL     OW20056   3.487   1.300  13.378 -0.1514 -0.0050  0.4108
 2807SOL    HW120057   3.420   1.362  13.349  0.4717  0.8766  0.8259
 2807SOL    HW220058   3.512   1.355  13.453  1.7806 -0.7795  0.3516
 2808SOL     OW20059   3.812   0.265   5.748 -0.0585  0.2970 -0.2821
 2808SOL    HW120060   3.725   0.230   5.768  0.1115 -0.4762 -0.9142
 2808SOL    HW220061   3.852   0.274   5.835 -1.5626 -1.7401  0.6117
 2809SOL     OW20062   0.800   4.701   5.813  0.2439 -0.3124 -0.1883
 2809SOL    HW120063   0.733   0.026   5.780 -1.1070 -1.1410  1.0482
 2809SOL    HW220064   0.746   4.627   5.841 -0.5330 -0.4946 -2.1304
 2810SOL     OW20065   4.627   1.949   0.249  0.1992  0.0305  0.4886
 2810SOL    HW120066   4.559   1.975   0.312 -0.0879 -1.9614  0.9805
 2810SOL    HW220067   4.627   2.019   0.184  0.8110 -0.8046 -0.4001
 2811SOL     OW20068   2.064   1.434   2.423  0.2585 -0.1532  0.2090
 2811SOL    HW120069   2.023   1.439   2.336 -0.5264  2.0533  0.6948
 2811SOL    HW220070   2.147   1.392   2.403 -0.0838  0.9115 -3.5145
 2812SOL     OW20071   1.971   1.143   5.478  0.2917  0.1172  0.3798
 2812SOL    HW120072   1.885   1.101   5.477 -0.1118  0.9721 -0.3975
 2812SOL    HW220073   2.018   1.059   5.479  0.1430  0.0302 -0.5983
 2813SOL     OW20074   3.041   0.909   6.941  0.0893  0.3945  0.3037
 2813SOL    HW120075   3.082   0.930   6.857  0.4909  0.9786  0.6419
 2813SOL    HW220076   2.953   0.947   6.929 -0.1441 -1.1107 -2.6315
 2814SOL     OW20077   3.167   4.268   9.277 -0.3491 -0.2607 -0.1019
 2814SOL    HW120078   3.196   4.333   9.341  0.9871 -1.1756  0.2224
 2814SOL    HW220079   3.124   4.206   9.335 -4.1821  2.2298 -0.2900
 2815SOL     OW20080   4.072   1.990   5.244 -0.0625  0.1315  0.0728
 2815SOL    HW120081   3.989   1.984   5.197  0.4570  0.2496 -0.8471
 2815SOL    HW220082   4.103   2.067   5.196 -0.9063  0.9175  0.7951
 2816SOL     OW20083   4.720   4.697  12.967 -0.3015 -0.4600  0.2961
 2816SOL    HW120084   4.677   0.028  12.914 -2.2399 -1.6065  0.3935
 2816SOL    HW220085   4.729   4.628  12.901  0.6208  1.8856 -2.0410
 2817SOL     OW20086   2.847   1.838   3.363 -0.8754  0.0638 -0.0937
 2817SOL    HW120087   2.776   1.847   3.426 -0.4286  3.7071 -0.1101
 2817SOL    HW220088   2.873   1.746   3.358 -1.2578 -0.1288  1.4525
 2818SOL     OW20089   2.385   1.136  14.464  0.1182  0.0701  0.9645
 2818SOL    HW120090   2.438   1.138  14.384  0.2673 -1.2459  1.0354
 2818SOL    HW220091   2.425   1.205  14.516 -2.0786  1.4937  0.7582
 2819SOL     OW20092   1.438   0.325   6.816 -0.6636 -0.2374  0.1656
 2819SOL    HW120093   1.408   0.286   6.734  0.8552 -0.1059 -0.4491
 2819SOL    HW220094   1.506   0.373   6.770  0.0519 -0.9271  0.4970
 2820SOL     OW20095   0.414   2.508   2.371 -0.0327  0.4153  0.5424
 2820SOL    HW120096   0.366   2.480   2.293  0.4090  1.4454 -0.0906
 2820SOL    HW220097   0.453   2.426   2.403 -0.9160 -0.3840 -0.4017
 2821SOL     OW20098   2.003   1.659   7.806  0.2079  0.3204  0.0130
 2821SOL    HW120099   2.055   1.657   7.726 -0.1525  1.3045 -0.2379
 2821SOL    HW220100   2.037   1.728   7.863 -1.3698  1.1863 -0.0981
 2822SOL     OW20101   3.775   0.532   9.020 -0.0846 -0.1276 -0.2097
 2822SOL    HW120102   3.697   0.578   9.052  0.0104  0.9468 -1.5340
 2822SOL    HW220103   3.802   0.595   8.953 -0.7671 -0.2330 -0.5812
 2823SOL     OW20104   3.947   1.194  16.263 -0.3828 -0.3614  0.3641
 2823SOL    HW120105   4.039   1.196  16.290  0.0581 -2.1783 -0.9818
 2823SOL    HW220106   3.900   1.196  16.346 -0.3566 -0.7152  0.3884
 2824SOL     OW20107   2.536   3.745  16.109 -0.5906  0.5955 -0.3890
 2824SOL    HW120108   2.501   3.733  16.020  0.7988  0.0556 -0.8650
 2824SOL    HW220109   2.580   3.828  16.087 -2.4158  1.0167 -2.4856
 2825SOL     OW20110   0.172   0.182   7.080 -0.2134 -0.0499 -0.3168
 2825SOL    HW120111   0.096   0.172   7.024  1.2405  1.5122 -2.5709
 2825SOL    HW220112   0.212   0.096   7.064  0.5419  0.1633  0.3802
 2826SOL     OW20113   2.032   2.336  15.633 -0.0590  0.2218 -0.3070
 2826SOL    HW120114   2.098   2.362  15.697 -0.0300  0.1502 -0.3082
 2826SOL    HW220115   1.976   2.286  15.692  0.6953  2.7722  2.5834
 2827SOL     OW20116   4.064   2.044   3.793 -0.0950 -0.5317  0.4448
 2827SOL    HW120117   4.020   2.127   3.773 -0.8846 -0.6896  1.5678
 2827SOL    HW220118   3.993   2.004   3.843 -0.7478 -1.7591 -1.4596
 2828SOL     OW20119   4.453   4.703   2.098 -0.1192  0.5599  0.1360
 2828SOL    HW120120   4.409   4.731   2.178 -1.2403 -0.7699 -0.0166
 2828SOL    HW220121   4.414   4.617   2.081 -2.4220  2.4685 -4.0760
 2829SOL     OW20122   2.469   3.606   6.064  0.0993  0.2021 -0.1064
 2829SOL    HW120123   2.407   3.625   6.134  1.2893 -2.1934  1.6175
 2829SOL    HW220124   2.427   3.524   6.037  0.4146  0.2788 -0.8276
 2830SOL     OW20125   1.714   4.423   8.971  0.3456 -0.0798  0.2260
 2830SOL    HW120126   1.736   4.510   9.004 -0.7739  0.5294 -0.6300
 2830SOL    HW220127   1.800   4.404   8.934 -0.2416 -0.6648 -0.8327
 2831SOL     OW20128   3.769   2.027   2.506  0.5141 -0.5876 -0.2732
 2831SOL    HW120129   3.736   2.043   2.418  0.7054  1.4293  0.0168
 2831SOL    HW220130   3.781   1.933   2.498 -0.1450 -0.5644 -1.5167
 2832SOL     OW20131   3.688   2.287   0.275  0.3781 -0.1076  0.1653
 2832SOL    HW120132   3.667   2.292   0.181  1.2423 -0.2700 -0.0412
 2832SOL    HW220133   3.623   2.227   0.313  0.6418  0.1385  0.9823
 2833SOL     OW20134   3.032   0.911   1.303  0.2878 -0.7457  0.1274
 2833SOL    HW120135   3.066   0.823   1.316 -1.0049 -1.2250  0.2541
 2833SOL    HW220136   3.111   0.953   1.269 -1.1386  0.4567 -1.7114
 2834SOL     OW20137   1.898   1.697   5.052  0.2635  0.2831 -0.3704
 2834SOL    HW120138   1.916   1.623   5.109  1.1874  1.2470  0.5847
 2834SOL    HW220139   1.921   1.660   4.966  0.2459 -1.0116  0.1951
 2835SOL     OW20140   2.232   3.539   4.227  0.0856 -0.3034 -0.0109
 2835SOL    HW120141   2.297   3.491   4.176  1.7846  2.5670 -0.5257
 2835SOL    HW220142   2.288   3.560   4.301  0.9554  1.5831 -1.2265
 2836SOL     OW20143   1.495   4.113   8.178 -0.0549  0.0140 -0.3552
 2836SOL    HW120144   1.546   4.086   8.254 -1.2133  0.1694  0.4768
 2836SOL    HW220145   1.541   4.189   8.141  0.7803 -1.1959 -1.7899
 2837SOL     OW20146   2.018   3.190   4.088 -0.1276 -0.0378  0.1888
 2837SOL    HW120147   2.016   3.255   4.159  0.7085  0.4041 -0.1924
 2837SOL    HW220148   1.938   3.216   4.044  0.6291 -1.6462 -2.0732
 2838SOL     OW20149   2.541   1.384  14.052  0.4362  0.5845 -0.8369
 2838SOL    HW120150   2.602   1.371  14.124  0.0716 -2.4315 -1.0414
 2838SOL    HW220151   2.602   1.432  13.997  2.1451 -1.2426 -0.5616
 2839SOL     OW20152   3.163   2.365  17.259  0.4212  0.0870 -0.0521
 2839SOL    HW120153   3.240   2.417  17.238  2.4649 -2.2914  1.5260
 2839SOL    HW220154   3.140   2.308  17.185 -1.2456 -1.0925  1.3592
 2840SOL     OW20155   3.517   2.641   8.390  0.8348  0.3801  0.3592
 2840SOL    HW120156   3.451   2.710   8.382  0.5459  0.1191  0.4611
 2840SOL    HW220157   3.596   2.694   8.381  1.1209  0.2063  1.9249
 2841SOL     OW20158   1.184   2.017  13.753  0.2183  0.3379 -0.1819
 2841SOL    HW120159   1.253   2.043  13.692 -1.1491  0.4997 -1.6512
 2841SOL    HW220160   1.125   1.959  13.704  1.1097 -0.3785 -0.3945
 2842SOL     OW20161   2.405   0.588  17.473 -0.0513  0.1235 -0.0739
 2842SOL    HW120162   2.411   0.513  17.414 -1.8795  0.2811 -0.4523
 2842SOL    HW220163   2.455   0.647  17.418  2.3762 -0.2186  1.7439
 2843SOL     OW20164   0.438   4.370   0.177 -0.3241 -0.1648  0.0188
 2843SOL    HW120165   0.440   4.456   0.219 -3.2504  0.2969 -0.8108
 2843SOL    HW220166   0.349   4.339   0.159 -0.0529 -0.6867 -0.4460
 2844SOL     OW20167   2.268   2.505   4.141 -0.9339  0.2250 -0.1233
 2844SOL    HW120168   2.288   2.526   4.232  0.0176 -1.5733  0.0837
 2844SOL    HW220169   2.263   2.412   4.161  1.3878 -0.5794 -3.2104
 2845SOL     OW20170   0.392   2.208   6.206 -0.4781  0.1835 -0.1252
 2845SOL    HW120171   0.345   2.210   6.290  0.2056 -1.0415  0.2837
 2845SOL    HW220172   0.328   2.248   6.147 -0.4222  1.3334  0.5869
 2846SOL     OW20173   0.994   0.911   7.316 -0.2281 -0.0856  0.2483
 2846SOL    HW120174   1.006   0.956   7.399  0.3072 -1.7381  1.0608
 2846SOL    HW220175   1.059   0.959   7.264  0.1012 -2.0542 -1.1426
 2847SOL     OW20176   2.853   3.744   7.773 -0.8707 -0.1767 -0.2680
 2847SOL    HW120177   2.851   3.698   7.857 -0.9342  0.3353  0.0092
 2847SOL    HW220178   2.847   3.833   7.808 -1.1523  0.0352 -0.8449
 2848SOL     OW20179   2.218   1.434  16.521  0.0253 -0.1149 -0.3657
 2848SOL    HW120180   2.242   1.385  16.443  2.5065 -0.2672  0.4781
 2848SOL    HW220181   2.132   1.401  16.546  0.0751  1.7929  2.3357
 2849SOL     OW20182   1.563   0.963   6.011  0.0248 -0.4041  0.1272
 2849SOL    HW120183   1.645   0.938   5.967  0.0814  0.8872 -0.5033
 2849SOL    HW220184   1.599   1.000   6.091  1.1020  0.2128 -0.6359
 2850SOL     OW20185   3.706   1.654  13.497  0.2053 -0.1778  0.1748
 2850SOL    HW120186   3.747   1.573  13.468 -1.3305 -0.9666  0.2187
 2850SOL    HW220187   3.782   1.707  13.520  0.5139 -0.2016 -0.7754
 2851SOL     OW20188   3.826   0.957   3.593  0.1049 -0.0404  0.4846
 2851SOL    HW120189   3.842   1.015   3.667 -2.8173  1.3832  0.0222
 2851SOL    HW220190   3.743   0.922   3.625 -1.3773  1.9467 -1.1741
 2852SOL     OW20191   2.720   2.956  11.640  0.8697 -0.4195  0.1472
 2852SOL    HW120192   2.691   2.904  11.715 -0.1031 -0.6755 -0.4043
 2852SOL    HW220193   2.755   3.037  11.676  2.4857  0.3172 -3.1189
 2853SOL     OW20194   1.242   1.626   7.997  0.8040  0.0924 -0.5192
 2853SOL    HW120195   1.308   1.569   8.035  0.1261  0.8819  1.9029
 2853SOL    HW220196   1.176   1.563   7.968 -1.8487  3.0850 -1.0480
 2854SOL     OW20197   1.426   1.018   9.490 -0.2272 -0.0429 -0.3049
 2854SOL    HW120198   1.385   0.965   9.423  2.5568 -2.7898  0.1544
 2854SOL    HW220199   1.359   1.085   9.504 -0.8453 -0.4739 -1.2717
 2855SOL     OW20200   3.043   3.399  12.810 -0.1763 -0.0060  0.1581
 2855SOL    HW120201   2.985   3.323  12.816 -0.7288  0.4304  0.2798
 2855SOL    HW220202   3.079   3.396  12.721  0.2487  2.9411  0.2349
 2856SOL     OW20203   3.020   0.310   8.499  0.7862 -0.1284 -0.5619
 2856SOL    HW120204   3.041   0.337   8.410  1.1654 -1.2905 -0.8260
 2856SOL    HW220205   2.927   0.291   8.494  1.0040 -1.2113 -0.4372
 2857SOL     OW20206   0.840   0.722   4.085  0.4318  0.0575  0.5523
 2857SOL    HW120207   0.768   0.770   4.127 -0.2654  0.0345 -0.6197
 2857SOL    HW220208   0.823   0.638   4.127  0.3855 -0.1732  0.0720
 2858SOL     OW20209   2.672   0.454  12.698  0.4101 -0.0728  0.0486
 2858SOL    HW120210   2.636   0.368  12.679  1.4196 -0.7027  1.0115
 2858SOL    HW220211   2.765   0.437  12.688  0.3972 -0.0824 -0.0530
 2859SOL     OW20212   4.297   1.137   8.045  0.6674  0.2946 -0.0006
 2859SOL    HW120213   4.219   1.110   7.996  0.6992 -0.0354  0.1334
 2859SOL    HW220214   4.369   1.104   7.991 -0.6142 -2.5156  0.0047
 2860SOL     OW20215   3.378   4.610   3.876 -0.4178 -0.7858  0.5813
 2860SOL    HW120216   3.450   4.563   3.920 -1.6157 -1.2819  2.0034
 2860SOL    HW220217   3.350   4.552   3.806  0.5049 -0.1117 -0.3497
 2861SOL     OW20218   2.632   4.192   1.560  0.1605  0.6495 -0.5105
 2861SOL    HW120219   2.579   4.115   1.538 -1.2115  1.2712  0.5938
 2861SOL    HW220220   2.649   4.174   1.653 -0.2764  2.0773 -0.1614
 2862SOL     OW20221   2.025   4.503   8.027  0.1430  0.0084  0.0237
 2862SOL    HW120222   2.016   4.415   8.064 -1.5869  0.7978  1.5326
 2862SOL    HW220223   1.974   4.552   8.092  0.1518 -1.4317  1.1377
 2863SOL     OW20224   3.695   1.498   6.431  0.3062 -0.4410  0.4518
 2863SOL    HW120225   3.715   1.562   6.363  1.4718  0.3202  1.5040
 2863SOL    HW220226   3.761   1.437   6.399 -1.0647 -0.5977 -2.0413
 2864SOL     OW20227   0.511   3.393  14.050  0.3611 -0.6718  0.0315
 2864SOL    HW120228   0.545   3.386  14.139  0.3661  0.3363  0.1054
 2864SOL    HW220229   0.416   3.408  14.051  0.4230 -0.3105  0.2208
 2865SOL     OW20230   2.457   3.188   6.996 -0.3970  0.4252 -0.2081
 2865SOL    HW120231   2.412   3.270   7.019 -2.2779 -0.8182  0.6259
 2865SOL    HW220232   2.384   3.133   6.968 -0.5111 -0.0244  0.9713
 2866SOL     OW20233   0.478   2.979   4.855  0.5351 -0.0514  0.5780
 2866SOL    HW120234   0.563   3.023   4.853  0.7401 -0.4594  0.3911
 2866SOL    HW220235   0.413   3.028   4.805 -0.3791 -0.0368  1.7581
 2867SOL     OW20236   3.750   1.766   4.157 -0.2132  0.1271 -0.1498
 2867SOL    HW120237   3.661   1.780   4.124 -1.2717 -3.5668  1.1770
 2867SOL    HW220238   3.745   1.809   4.243  0.2858 -2.4151  1.1318
 2868SOL     OW20239   2.789   3.606   3.576 -0.0461  0.0154  0.8848
 2868SOL    HW120240   2.698   3.578   3.586  0.2570 -1.1779  0.3601
 2868SOL    HW220241   2.771   3.680   3.518  1.8300  0.3476  0.7418
 2869SOL     OW20242   2.278   3.405   7.712 -0.3174 -0.1517  0.5501
 2869SOL    HW120243   2.329   3.460   7.652  1.0851 -0.7528  1.1853
 2869SOL    HW220244   2.207   3.467   7.725  0.9495  1.4102  0.0269
 2870SOL     OW20245   2.409   0.060   4.098  0.7299  0.3221  0.1064
 2870SOL    HW120246   2.347   0.039   4.168 -1.2383 -2.5680 -2.5250
 2870SOL    HW220247   2.496   0.032   4.127  0.6564  2.3717  2.2509
 2871SOL     OW20248   3.641   2.009   8.768 -0.3190  0.0713  0.1600
 2871SOL    HW120249   3.610   1.919   8.776  1.2870 -0.6737 -2.1183
 2871SOL    HW220250   3.557   2.056   8.776 -0.2993  0.2882 -0.9128
 2872SOL     OW20251   0.574   1.028  16.240  0.2374 -0.5934  0.2399
 2872SOL    HW120252   0.483   1.003  16.254  0.4389 -0.3431  1.9930
 2872SOL    HW220253   0.607   0.956  16.187  2.3814  0.9368 -0.5115
 2873SOL     OW20254   1.842   3.431   5.159  0.3284 -0.3289  0.0899
 2873SOL    HW120255   1.784   3.386   5.220 -0.9987  1.5676  0.2204
 2873SOL    HW220256   1.916   3.371   5.161 -0.0230 -0.9136 -3.4854
 2874SOL     OW20257   0.647   3.551  11.536 -0.1335 -0.7024 -1.1486
 2874SOL    HW120258   0.555   3.523  11.539 -0.3396  0.2138  1.7085
 2874SOL    HW220259   0.690   3.497  11.602 -0.2648  1.1506  0.4536
 2875SOL     OW20260   1.567   0.281  11.881  0.0712  0.0059  0.2576
 2875SOL    HW120261   1.650   0.294  11.927  0.4183 -0.0037 -0.3648
 2875SOL    HW220262   1.565   0.185  11.873 -0.4222 -0.2088  3.1082
 2876SOL     OW20263   0.076   2.247   6.361 -0.4343 -0.0273 -0.0856
 2876SOL    HW120264   0.012   2.247   6.432  1.0509  0.4881  1.2510
 2876SOL    HW220265   0.023   2.193   6.303  0.2006 -0.2704 -0.4492
 2877SOL     OW20266   1.244   1.528   5.968  0.3231  0.6318 -0.2700
 2877SOL    HW120267   1.173   1.592   5.964 -0.0787  0.1368 -0.9907
 2877SOL    HW220268   1.276   1.519   5.878  1.8217  0.9032  0.2415
 2878SOL     OW20269   0.526   0.315  11.354  0.4789  0.5958 -0.6548
 2878SOL    HW120270   0.446   0.340  11.308  0.0520 -1.7747 -1.2162
 2878SOL    HW220271   0.511   0.226  11.387  0.4020  0.4091 -1.1854
 2879SOL     OW20272   3.030   0.917   2.127 -0.6408  0.0220  0.3829
 2879SOL    HW120273   3.079   0.968   2.191  0.3593 -0.7565  0.2456
 2879SOL    HW220274   3.103   0.870   2.086 -1.4653 -1.0072  0.0829
 2880SOL     OW20275   1.497   2.080   5.102 -0.3359  0.2146 -0.2639
 2880SOL    HW120276   1.537   2.146   5.045  0.8122 -1.5524 -1.5000
 2880SOL    HW220277   1.563   2.054   5.166 -2.2795 -1.4619  1.0549
 2881SOL     OW20278   3.956   0.744   4.044  0.1553 -0.5482 -0.7981
 2881SOL    HW120279   3.877   0.700   4.074 -0.0626  1.5075  1.6566
 2881SOL    HW220280   3.916   0.801   3.978  1.1806  1.0182 -0.0678
 2882SOL     OW20281   1.957   1.889   3.270  0.3242 -0.0001  0.0060
 2882SOL    HW120282   2.029   1.950   3.257  0.2459 -0.7530 -3.9368
 2882SOL    HW220283   1.898   1.906   3.196 -1.1273 -0.8406  0.9607
 2883SOL     OW20284   4.008   4.285   6.274 -0.0517  0.5875  0.3465
 2883SOL    HW120285   3.940   4.278   6.341  0.1952 -0.5337  0.4868
 2883SOL    HW220286   3.966   4.321   6.196  0.1369 -0.4888 -0.2502
 2884SOL     OW20287   4.566   1.928  13.178  0.6092  0.0491 -0.3600
 2884SOL    HW120288   4.548   2.021  13.190  0.3796  0.0292 -0.5594
 2884SOL    HW220289   4.489   1.892  13.135  1.4162 -1.5624 -0.4826
 2885SOL     OW20290   0.655   0.966   3.077 -0.8844  0.0754  0.7504
 2885SOL    HW120291   0.599   0.976   3.000 -1.4570 -3.4032  0.7103
 2885SOL    HW220292   0.692   0.879   3.062 -0.9150  0.2110 -0.1128
 2886SOL     OW20293   4.118   0.973   5.236  0.6560 -0.1200  0.1816
 2886SOL    HW120294   4.208   0.945   5.222  0.8177  2.1708 -3.3471
 2886SOL    HW220295   4.079   0.970   5.148 -1.2548  0.8255  0.9977
 2887SOL     OW20296   1.100   4.071   9.353 -0.1835  0.2456 -0.0682
 2887SOL    HW120297   1.124   3.981   9.334 -1.0271 -0.7234  3.5467
 2887SOL    HW220298   1.067   4.070   9.443  2.0184 -0.1969  0.7350
 2888SOL     OW20299   1.920   4.630   7.203 -0.5504 -0.4379 -0.0917
 2888SOL    HW120300   1.893   4.550   7.157  3.1691 -0.3333 -2.4087
 2888SOL    HW220301   1.916   4.601   7.294 -0.9661 -2.2809 -0.7114
 2889SOL     OW20302   2.069   1.896   3.680  0.1138 -0.8769 -0.1316
 2889SOL    HW120303   2.129   1.917   3.751  0.0522  1.6365 -0.8428
 2889SOL    HW220304   2.056   1.980   3.636 -2.6948 -1.0324  0.4230
 2890SOL     OW20305   4.116   4.465   7.570  0.6241  0.2913 -0.2075
 2890SOL    HW120306   4.027   4.434   7.588  0.1436  1.6529 -0.1551
 2890SOL    HW220307   4.114   4.501   7.481 -1.4259 -0.5705 -0.5065
 2891SOL     OW20308   3.865   0.176   6.546 -0.0021  0.2827  0.5399
 2891SOL    HW120309   3.841   0.088   6.518  1.9664  0.4952 -1.8464
 2891SOL    HW220310   3.842   0.223   6.465 -0.0610 -0.5776  0.0606
 2892SOL     OW20311   1.770   4.281  12.201  0.9072  0.5375 -0.0762
 2892SOL    HW120312   1.844   4.304  12.144 -0.4168  2.2620 -1.1110
 2892SOL    HW220313   1.796   4.196  12.236  0.1990  0.7612  1.0182
 2893SOL     OW20314   0.072   3.550   3.545  0.6202  0.5604  0.6970
 2893SOL    HW120315   0.020   3.629   3.528  0.7282  0.5137  0.1674
 2893SOL    HW220316   0.012   3.495   3.596 -0.2930  2.2292  1.4421
 2894SOL     OW20317   4.087   0.892  13.366  0.0148 -0.2159  0.5347
 2894SOL    HW120318   4.152   0.938  13.312  0.3386 -1.3771 -0.0519
 2894SOL    HW220319   4.007   0.945  13.364  1.7549  2.3986 -0.4394
 2895SOL     OW20320   3.004   0.316   2.350  0.2701  0.5519 -0.0485
 2895SOL    HW120321   2.911   0.294   2.350  0.7226 -1.3259 -1.1481
 2895SOL    HW220322   3.036   0.247   2.408  0.8869 -1.1501 -2.4437
 2896SOL     OW20323   4.649   2.115   4.236  0.2608 -0.4208 -0.2732
 2896SOL    HW120324   4.699   2.077   4.164  0.6450  1.9542 -1.2866
 2896SOL    HW220325   4.571   2.061   4.228  0.3498 -0.5063 -0.5750
 2897SOL     OW20326   1.974   4.450   8.851  0.1827  0.0614 -0.1007
 2897SOL    HW120327   2.039   4.397   8.805  0.7859  1.2285 -0.5820
 2897SOL    HW220328   2.023   4.526   8.879  1.6160 -0.7438 -0.4132
 2898SOL     OW20329   2.687   2.005   2.194  0.0060 -0.0262 -0.1019
 2898SOL    HW120330   2.610   2.056   2.221 -1.5217 -0.9832 -2.6469
 2898SOL    HW220331   2.758   2.064   2.220 -0.8438  1.7403 -1.7770
 2899SOL     OW20332   1.991   3.123   7.114 -0.0318 -0.4221 -0.1904
 2899SOL    HW120333   1.915   3.078   7.078 -1.6641  0.2892  2.3687
 2899SOL    HW220334   1.970   3.216   7.112  5.1524  0.6856 -2.3187
 2900SOL     OW20335   1.475   1.845  15.035 -0.1381  0.0694 -0.2233
 2900SOL    HW120336   1.446   1.852  14.944  1.8063 -0.5562 -0.8767
 2900SOL    HW220337   1.387   1.832  15.071 -0.9332  2.1665 -1.3889
 2901SOL     OW20338   3.863   4.568  16.307  0.2924 -0.6768  0.4124
 2901SOL    HW120339   3.795   4.544  16.245  1.8405 -1.9954 -0.7592
 2901SOL    HW220340   3.844   4.652  16.349  0.9888 -0.0300 -0.5831
 2902SOL     OW20341   0.103   4.170  13.039  0.1242  0.3374 -0.1032
 2902SOL    HW120342   0.107   4.254  13.085  1.8114  0.2017 -0.0039
 2902SOL    HW220343   0.148   4.108  13.097 -2.2959  1.6306  3.1342
 2903SOL     OW20344   2.362   2.984   3.105  0.1567 -0.0977 -0.4362
 2903SOL    HW120345   2.303   2.928   3.155  0.1463 -0.1895 -0.5521
 2903SOL    HW220346   2.316   3.066   3.123 -0.6087 -1.3727  3.4079
 2904SOL     OW20347   3.241   1.148   2.723  0.1900 -0.5119  0.5121
 2904SOL    HW120348   3.295   1.069   2.716 -0.3182 -1.0008  2.1921
 2904SOL    HW220349   3.297   1.199   2.664 -0.2998 -0.0277  0.4677
 2905SOL     OW20350   4.473   0.853   6.172  0.2800 -0.4761 -0.3317
 2905SOL    HW120351   4.563   0.849   6.205  0.1647  2.1804  0.2857
 2905SOL    HW220352   4.470   0.772   6.121  2.2994 -0.3388 -0.6501
 2906SOL     OW20353   1.463   3.435   8.697  0.1623 -0.0815  0.2960
 2906SOL    HW120354   1.412   3.365   8.657 -0.5140  0.6341 -0.0947
 2906SOL    HW220355   1.552   3.416   8.667  0.3588 -0.4094  1.0969
 2907SOL     OW20356   4.491   0.535   5.734  0.1036 -0.1282  0.3352
 2907SOL    HW120357   4.474   0.608   5.793  1.6749  2.0643 -1.8830
 2907SOL    HW220358   4.572   0.562   5.690 -1.3093  1.1557 -1.4836
 2908SOL     OW20359   3.037   2.760   4.201 -1.0712 -0.2449  0.0641
 2908SOL    HW120360   3.034   2.714   4.117 -1.3438  0.6201 -0.3961
 2908SOL    HW220361   3.005   2.692   4.261  1.2013 -0.7923  0.6538
 2909SOL     OW20362   3.169   1.877   5.097 -0.2204  0.1434 -0.4373
 2909SOL    HW120363   3.251   1.914   5.064 -0.7533  0.1411 -1.7652
 2909SOL    HW220364   3.108   1.884   5.024  0.3739 -0.1923 -0.9612
 2910SOL     OW20365   0.396   1.743   3.117 -0.3313  0.1653  0.0032
 2910SOL    HW120366   0.453   1.819   3.103  0.2595 -0.0653  1.1260
 2910SOL    HW220367   0.308   1.780   3.108 -0.1561  0.5867  0.0035
 2911SOL     OW20368   1.373   1.592   5.735  0.0112 -0.1525 -0.0170
 2911SOL    HW120369   1.317   1.575   5.659 -0.6155  0.3319  0.3375
 2911SOL    HW220370   1.450   1.540   5.710  0.4420  0.9851 -1.0249
 2912SOL     OW20371   2.157   2.044   4.408  0.1814 -0.0001  0.6244
 2912SOL    HW120372   2.096   2.087   4.348  2.3773 -0.7535 -2.1605
 2912SOL    HW220373   2.106   2.015   4.483  0.1451 -3.1528 -0.6232
 2913SOL     OW20374   0.100   0.681  16.283  0.3268 -0.3210 -0.4528
 2913SOL    HW120375   0.142   0.762  16.255  0.1669  0.3894  1.4024
 2913SOL    HW220376   0.051   0.667  16.202 -0.3745  1.0835 -0.2795
 2914SOL     OW20377   1.065   3.171   9.978 -0.5487 -0.0966  0.5179
 2914SOL    HW120378   1.040   3.083   9.948  1.7615 -0.2248 -1.0192
 2914SOL    HW220379   1.003   3.222   9.927 -2.0702 -1.8232  0.6521
 2915SOL     OW20380   0.101   3.097   6.670 -0.7169  0.1034  0.2951
 2915SOL    HW120381   0.116   3.015   6.623  1.8484 -0.4278  2.0610
 2915SOL    HW220382   0.187   3.139   6.664 -0.3211 -0.7445  0.0043
 2916SOL     OW20383   0.363   4.727   2.638  0.3618 -0.3702  0.2415
 2916SOL    HW120384   0.348   4.642   2.599 -1.9727 -1.3588  3.2867
 2916SOL    HW220385   0.395   0.037   2.560 -1.3424 -0.8809 -0.7466
 2917SOL     OW20386   1.059   2.904   1.895  0.4917 -0.0295 -0.6611
 2917SOL    HW120387   1.024   2.920   1.808 -0.7358 -0.0555 -0.1779
 2917SOL    HW220388   1.059   2.809   1.901 -0.8794  0.1152  1.7731
 2918SOL     OW20389   0.227   1.834   5.346 -0.4544  0.7494 -0.1239
 2918SOL    HW120390   0.263   1.769   5.405  0.2884 -1.1859 -2.7004
 2918SOL    HW220391   0.141   1.799   5.322 -0.7386  0.9422  0.6377
 2919SOL     OW20392   0.791   1.143   8.314  0.5022 -0.2489  0.6912
 2919SOL    HW120393   0.877   1.145   8.356 -0.0660  0.9743  1.8177
 2919SOL    HW220394   0.760   1.058   8.344  0.9988 -0.7537 -0.2255
 2920SOL     OW20395   2.899   3.669   8.221  0.2983  0.0405  0.5711
 2920SOL    HW120396   2.983   3.695   8.258  1.7356 -0.4888 -2.3037
 2920SOL    HW220397   2.845   3.725   8.277 -0.2447  2.3460 -2.2358
 2921SOL     OW20398   2.708   1.424   1.453  0.1597 -0.0680  0.2254
 2921SOL    HW120399   2.786   1.370   1.456  0.7328  0.8559  1.7725
 2921SOL    HW220400   2.669   1.401   1.368  0.7316 -0.6046  0.1145
 2922SOL     OW20401   2.951   4.265  15.666  0.5808 -0.2487  0.3637
 2922SOL    HW120402   2.967   4.181  15.708 -0.0210  1.0134  3.0993
 2922SOL    HW220403   3.013   4.259  15.593 -3.2141  1.2329 -3.0157
 2923SOL     OW20404   3.751   3.964  13.644  0.2763  0.0808 -0.5615
 2923SOL    HW120405   3.752   4.028  13.573  2.7921  0.3137 -0.3270
 2923SOL    HW220406   3.812   4.002  13.707 -0.2876 -2.5312  1.5508
 2924SOL     OW20407   3.536   0.167  17.098 -0.4929 -0.5186 -0.0061
 2924SOL    HW120408   3.548   0.072  17.087  0.7609 -0.1582 -1.7436
 2924SOL    HW220409   3.501   0.171  17.187  1.7053 -0.9772  0.8851
 2925SOL     OW20410   4.655   4.082  12.287  0.3423 -0.4743 -0.2988
 2925SOL    HW120411   4.719   4.060  12.220  0.5727  1.2888 -0.6395
 2925SOL    HW220412   4.709   4.069  12.365  0.1866  1.9819  0.2036
 2926SOL     OW20413   4.074   2.772   3.533  0.3119  0.1134  0.1063
 2926SOL    HW120414   4.094   2.866   3.535  0.6247  0.1058 -1.8732
 2926SOL    HW220415   4.118   2.742   3.612  2.5216  0.5033 -0.9721
 2927SOL     OW20416   3.216   3.241   7.420  0.1790 -0.0663  0.1021
 2927SOL    HW120417   3.201   3.189   7.341 -1.0892  0.6226 -0.1141
 2927SOL    HW220418   3.129   3.278   7.436  0.4952  0.5254  0.4377
 2928SOL     OW20419   2.956   3.379   7.507  0.3276  0.2179 -0.0536
 2928SOL    HW120420   2.991   3.426   7.583 -1.7713  0.8402  0.5375
 2928SOL    HW220421   2.879   3.345   7.553 -0.1611  0.8039 -0.4408
 2929SOL     OW20422   3.562   3.783   4.400  0.5406 -0.7889  0.0589
 2929SOL    HW120423   3.618   3.761   4.475 -0.1595 -0.0550  0.8020
 2929SOL    HW220424   3.481   3.817   4.439  0.6846 -1.7004  1.1475
 2930SOL     OW20425   4.008   3.352   2.946  0.1400 -0.7109  0.3102
 2930SOL    HW120426   3.947   3.337   2.874 -0.9073  0.3036  0.9867
 2930SOL    HW220427   4.055   3.426   2.906 -3.2285  0.6118 -1.2003
 2931SOL     OW20428   3.819   1.361   3.692  0.7997 -0.1550  0.1268
 2931SOL    HW120429   3.828   1.456   3.697  0.2610 -0.0422 -0.9900
 2931SOL    HW220430   3.820   1.326   3.603  1.0519  0.7196 -0.2131
 2932SOL     OW20431   3.524   3.129  14.544 -0.0547 -0.0581  0.2601
 2932SOL    HW120432   3.498   3.091  14.628  1.4129  1.2737  1.2925
 2932SOL    HW220433   3.478   3.075  14.479 -1.7510  3.4160 -1.4367
 2933SOL     OW20434   2.668   4.591   3.999 -0.2365 -0.4253  0.3081
 2933SOL    HW120435   2.676   4.684   3.976  0.8492 -1.0703 -1.9141
 2933SOL    HW220436   2.661   4.605   4.093 -0.2228 -0.3027  0.2908
 2934SOL     OW20437   0.267   0.263   3.814 -0.0965 -0.4124  0.4383
 2934SOL    HW120438   0.171   0.265   3.813 -0.1081 -0.1729  1.9129
 2934SOL    HW220439   0.285   0.183   3.864  1.3370  0.1138  0.7496
 2935SOL     OW20440   2.508   3.103   7.523  0.4629  0.0637 -0.1902
 2935SOL    HW120441   2.467   3.177   7.478  0.2452  0.6425  0.9663
 2935SOL    HW220442   2.440   3.036   7.510 -0.8993  1.1643  1.2205
 2936SOL     OW20443   2.854   1.501   9.279 -0.3936 -0.5283 -0.7255
 2936SOL    HW120444   2.947   1.523   9.278  0.3039 -3.4362  2.7216
 2936SOL    HW220445   2.818   1.590   9.276  2.5391  0.7628  2.7456
 2937SOL     OW20446   3.574   4.514   1.252  0.0146  0.2791  0.4622
 2937SOL    HW120447   3.658   4.494   1.293  1.1569  0.5288 -1.7599
 2937SOL    HW220448   3.551   4.428   1.218  0.4647 -0.6089  2.3892
 2938SOL     OW20449   2.245   0.133   0.109  0.4147 -0.1818 -0.8746
 2938SOL    HW120450   2.157   0.096   0.117  0.3791  0.9275  3.6821
 2938SOL    HW220451   2.234   0.169   0.021  0.5033  1.5315 -0.1937
 2939SOL     OW20452   3.661   1.859   0.140  1.3852  0.2937 -0.0232
 2939SOL    HW120453   3.670   1.819   0.227  1.7021 -1.0512 -0.6732
 2939SOL    HW220454   3.711   1.801   0.083  1.0002  0.9621 -1.0425
 2940SOL     OW20455   0.691   4.447  12.688 -0.2877 -0.0767 -0.7568
 2940SOL    HW120456   0.706   4.352  12.696  2.1736  0.5309  1.7178
 2940SOL    HW220457   0.626   4.444  12.618  0.4699  0.1261 -1.4693
 2941SOL     OW20458   0.653   3.605   5.173 -0.6877  0.3399  0.0374
 2941SOL    HW120459   0.604   3.661   5.113  0.8111 -1.1261 -2.5206
 2941SOL    HW220460   0.584   3.571   5.230 -1.8812 -0.7694 -2.0481
 2942SOL     OW20461   3.741   2.800   8.413 -0.1914  0.7371  0.3670
 2942SOL    HW120462   3.735   2.895   8.406  2.1704  0.7956 -0.7607
 2942SOL    HW220463   3.828   2.784   8.376  0.7730  0.3889  2.7448
 2943SOL     OW20464   4.145   3.853  13.647  0.2217 -0.3924 -0.0497
 2943SOL    HW120465   4.190   3.929  13.610 -1.7174  1.6115  1.7056
 2943SOL    HW220466   4.066   3.855  13.594 -0.2765 -1.1951  0.6622
 2944SOL     OW20467   1.821   2.375   1.613 -0.3796 -0.7591 -0.6179
 2944SOL    HW120468   1.879   2.349   1.542  0.4486 -0.1414 -0.1653
 2944SOL    HW220469   1.860   2.450   1.659 -1.6500 -1.0712  0.9751
 2945SOL     OW20470   1.203   0.396   6.377 -0.4296 -0.1759 -0.5224
 2945SOL    HW120471   1.158   0.468   6.332 -0.7824 -0.4760 -0.6444
 2945SOL    HW220472   1.137   0.328   6.386  0.1307 -0.7380 -0.6974
 2946SOL     OW20473   3.690   2.939   4.781  0.1355  0.1262  0.1255
 2946SOL    HW120474   3.786   2.943   4.784  0.2641 -3.3119  0.7208
 2946SOL    HW220475   3.672   2.856   4.737  0.9275  0.9866 -1.8460
 2947SOL     OW20476   1.766   3.138   8.179 -0.6428 -0.2518  0.3000
 2947SOL    HW120477   1.760   3.043   8.182 -1.9058 -0.1298  1.5830
 2947SOL    HW220478   1.814   3.154   8.260  0.5897  0.5361 -0.5675
 2948SOL     OW20479   3.422   4.725   4.929  0.2487  0.0831  0.0598
 2948SOL    HW120480   3.408   4.630   4.935 -0.9924  0.3731  1.8698
 2948SOL    HW220481   3.474   4.734   4.849 -1.2373 -0.9418 -1.0221
 2949SOL     OW20482   1.113   1.606  17.191 -0.0965  0.5736 -0.5662
 2949SOL    HW120483   1.076   1.570  17.110 -3.6517  1.1367  0.7861
 2949SOL    HW220484   1.074   1.550  17.257  1.8813 -1.6165 -1.2553
 2950SOL     OW20485   1.225   2.075   3.846  0.2041  0.5331 -0.1789
 2950SOL    HW120486   1.273   2.002   3.806 -0.6536  1.0319 -2.1131
 2950SOL    HW220487   1.295   2.140   3.856  1.1197 -0.7378  1.7068
 2951SOL     OW20488   2.163   4.022   5.554  0.0572  0.0756  0.0474
 2951SOL    HW120489   2.183   3.953   5.617  0.8113 -0.6349 -0.9766
 2951SOL    HW220490   2.068   4.012   5.543  0.0566 -0.1429  0.2408
 2952SOL     OW20491   0.836   1.806   6.521 -0.1482  0.2999 -0.1070
 2952SOL    HW120492   0.870   1.717   6.508 -1.2730  0.1598 -2.0503
 2952SOL    HW220493   0.902   1.855   6.570  0.9534 -2.9382  1.6453
 2953SOL     OW20494   2.371   4.095   9.581 -0.2564 -0.0680 -0.0385
 2953SOL    HW120495   2.293   4.077   9.634  1.7409 -2.2398  2.1405
 2953SOL    HW220496   2.440   4.055   9.633 -0.5584  0.4872  0.7997
 2954SOL     OW20497   0.827   2.181   1.492 -0.3970  0.1798 -0.1316
 2954SOL    HW120498   0.909   2.139   1.519 -0.3144 -0.0494 -0.7377
 2954SOL    HW220499   0.861   2.269   1.472 -0.0161  0.0321 -0.1444
 2955SOL     OW20500   2.425   1.575  15.459  0.3262  0.3908 -0.4224
 2955SOL    HW120501   2.417   1.655  15.408  0.0899  0.1031 -0.8349
 2955SOL    HW220502   2.520   1.573  15.474  0.3276 -1.8869 -0.6994
 2956SOL     OW20503   1.343   2.342   3.870  0.0193 -0.1517  0.4029
 2956SOL    HW120504   1.432   2.376   3.860  1.3837 -4.4416 -1.9228
 2956SOL    HW220505   1.305   2.388   3.794 -0.1326 -1.4305 -0.2903
 2957SOL     OW20506   1.954   2.212   6.707  0.0202  0.0956 -0.0680
 2957SOL    HW120507   1.865   2.181   6.692  0.0397  0.3459 -0.7085
 2957SOL    HW220508   1.961   2.214   6.802  1.8161  0.2744 -0.1917
 2958SOL     OW20509   4.114   2.092  16.805 -0.4410  0.6328  0.0300
 2958SOL    HW120510   4.153   2.086  16.718  5.0702 -0.3108  2.5874
 2958SOL    HW220511   4.032   2.139  16.788 -0.9700 -0.3072 -0.0379
 2959SOL     OW20512   3.847   2.454   7.141  0.3329 -0.2197 -0.0906
 2959SOL    HW120513   3.899   2.380   7.109 -0.2560 -1.2417  1.3217
 2959SOL    HW220514   3.920   2.500   7.181  1.4204 -0.3092 -1.9975
 2960SOL     OW20515   0.029   0.951   3.008  0.3466  0.1324 -0.0727
 2960SOL    HW120516   4.720   1.019   2.957  1.8711 -0.0201 -1.5951
 2960SOL    HW220517   4.720   0.875   2.972  0.1568  1.5234 -2.7457
 2961SOL     OW20518   0.938   0.744   8.989  0.1535 -0.3237 -0.3324
 2961SOL    HW120519   0.999   0.722   8.918 -0.1417 -0.3082 -0.5926
 2961SOL    HW220520   0.900   0.660   9.016 -0.5783 -0.5214 -1.9080
 2962SOL     OW20521   3.616   2.885   8.107  0.1431  0.1141 -0.2216
 2962SOL    HW120522   3.692   2.939   8.088  0.7436 -0.3675  0.8531
 2962SOL    HW220523   3.611   2.900   8.201 -0.4913  0.6316 -0.3385
 2963SOL     OW20524   0.926   2.467  11.982  0.1334  0.1091 -0.2547
 2963SOL    HW120525   0.935   2.503  11.893 -3.7929 -0.2080 -0.7813
 2963SOL    HW220526   1.014   2.433  11.995 -1.3606 -3.4403  0.6233
 2964SOL     OW20527   2.679   2.890   3.373 -0.1473 -0.7910 -0.6129
 2964SOL    HW120528   2.636   2.866   3.291  0.8523  1.6106 -1.8397
 2964SOL    HW220529   2.619   2.849   3.436  0.6052  1.0932  1.3361
 2965SOL     OW20530   3.757   2.535  16.488 -0.4440  0.5109 -0.0418
 2965SOL    HW120531   3.798   2.452  16.512 -0.0191  1.0430  1.0665
 2965SOL    HW220532   3.835   2.589  16.498  0.3275 -0.1755 -2.2708
 2966SOL     OW20533   3.674   0.250   5.350 -0.0117  0.1305 -0.5337
 2966SOL    HW120534   3.737   0.185   5.318  2.7268  1.7500  1.6317
 2966SOL    HW220535   3.659   0.292   5.265 -1.5056 -0.0945 -0.3792
 2967SOL     OW20536   2.551   2.868   6.316 -1.0062 -0.4676  0.0269
 2967SOL    HW120537   2.489   2.937   6.342 -1.4606 -0.9750  0.3126
 2967SOL    HW220538   2.527   2.800   6.380  0.4471 -0.3264  0.7263
 2968SOL     OW20539   1.431   1.976  12.625 -0.3473 -0.1019  0.1381
 2968SOL    HW120540   1.474   2.052  12.586 -0.8524  0.6768  1.0915
 2968SOL    HW220541   1.493   1.904  12.626  0.8768  0.9680  1.2967
 2969SOL     OW20542   0.371   2.355   1.851 -0.2431 -0.3222  0.1638
 2969SOL    HW120543   0.326   2.427   1.895 -2.4013  0.0835 -2.6848
 2969SOL    HW220544   0.298   2.294   1.844 -0.4484  0.1187 -1.7209
 2970SOL     OW20545   0.629   2.901   2.120 -0.3496 -0.0607 -0.1714
 2970SOL    HW120546   0.615   2.917   2.213 -1.5306  0.2016 -0.3857
 2970SOL    HW220547   0.724   2.895   2.120 -0.4130 -1.0785 -1.7761
 2971SOL     OW20548   0.727   3.412  11.755 -0.1880 -0.5487  0.2691
 2971SOL    HW120549   0.766   3.397  11.841 -1.3507  1.4309  1.1415
 2971SOL    HW220550   0.643   3.368  11.773  0.1028 -0.7326  1.1875
 2972SOL     OW20551   0.486   4.239  15.133  0.2266  0.4886 -0.0807
 2972SOL    HW120552   0.393   4.216  15.133  0.4115 -0.2845 -2.0530
 2972SOL    HW220553   0.490   4.322  15.180 -2.1588 -1.1121  2.9028
 2973SOL     OW20554   3.101   2.270   2.358  0.4854  0.4405 -0.1208
 2973SOL    HW120555   3.181   2.241   2.313  1.7319  1.8365  1.1847
 2973SOL    HW220556   3.136   2.353   2.392 -2.5141  1.3889  0.6218
 2974SOL     OW20557   4.087   2.513  15.308 -0.4587 -0.2809  0.1998
 2974SOL    HW120558   4.121   2.457  15.379  0.2125 -0.6568 -0.4168
 2974SOL    HW220559   4.048   2.446  15.252  0.2349  0.5329 -1.2350
 2975SOL     OW20560   2.358   0.943  15.000  0.2070 -0.2579  0.5429
 2975SOL    HW120561   2.302   0.867  14.987  0.0715  0.2762 -2.0658
 2975SOL    HW220562   2.337   0.986  15.082 -0.5786  0.5697 -0.1016
 2976SOL     OW20563   4.483   2.861   8.587 -0.0377  0.1838  0.1064
 2976SOL    HW120564   4.500   2.775   8.624  2.2584  0.2334 -0.8053
 2976SOL    HW220565   4.478   2.832   8.496 -4.0837  0.5579  0.2061
 2977SOL     OW20566   0.388   2.598   8.771  0.4078 -1.0318  0.1865
 2977SOL    HW120567   0.312   2.614   8.714 -0.0856 -1.3044  0.7709
 2977SOL    HW220568   0.457   2.622   8.709 -0.0449 -0.9941 -0.3044
 2978SOL     OW20569   4.216   1.526   7.029  0.1946  0.2265  0.0224
 2978SOL    HW120570   4.274   1.601   7.016 -0.7917  0.6645 -1.8850
 2978SOL    HW220571   4.171   1.555   7.107  1.8121 -0.5216  1.2481
 2979SOL     OW20572   0.746   1.380   2.495 -0.5560  0.2261 -0.6644
 2979SOL    HW120573   0.810   1.363   2.564 -1.0857 -1.8701 -0.6837
 2979SOL    HW220574   0.708   1.460   2.531 -0.0710 -0.8372  2.2055
 2980SOL     OW20575   3.579   2.071  17.233  0.2918  0.1379  0.1878
 2980SOL    HW120576   3.497   2.028  17.207  0.6180 -0.7283  0.6045
 2980SOL    HW220577   3.575   2.050  17.326  0.9382  0.6673  0.3342
 2981SOL     OW20578   1.125   2.810  15.990  0.0075  0.2724  0.0618
 2981SOL    HW120579   1.120   2.884  16.051 -1.3220  0.3099 -0.0931
 2981SOL    HW220580   1.220   2.805  15.975  0.1465 -0.9363  1.2922
 2982SOL     OW20581   4.107   1.465   2.583  0.3455 -0.1830 -0.2275
 2982SOL    HW120582   4.088   1.508   2.666  1.5346  0.3944 -0.2521
 2982SOL    HW220583   4.103   1.528   2.511 -0.0715  2.5764  2.2307
 2983SOL     OW20584   1.581   4.360   8.744 -0.1125  0.3049 -0.1299
 2983SOL    HW120585   1.490   4.344   8.771 -0.3573  0.3941 -0.8747
 2983SOL    HW220586   1.627   4.386   8.823 -0.7798 -1.2332  0.7430
 2984SOL     OW20587   0.140   4.437  12.206 -0.2019  0.1651  0.2035
 2984SOL    HW120588   0.200   4.386  12.152 -2.3913 -0.3819 -1.7686
 2984SOL    HW220589   0.088   4.460  12.129 -0.6967  0.9225  0.7628
 2985SOL     OW20590   1.455   3.936   8.856 -0.8844 -0.0297  0.4144
 2985SOL    HW120591   1.419   4.025   8.864  1.5068  0.7457  2.3389
 2985SOL    HW220592   1.458   3.924   8.761  0.8445 -0.3854  0.5057
 2986SOL     OW20593   2.901   4.143  13.159  0.5320 -0.1716 -0.3587
 2986SOL    HW120594   2.976   4.186  13.201  0.1181 -0.8450  1.0565
 2986SOL    HW220595   2.820   4.175  13.197 -0.0149  0.1086 -1.7458
 2987SOL     OW20596   0.438   3.724   3.226  0.1155 -0.5989  0.1630
 2987SOL    HW120597   0.515   3.673   3.251  0.3346  0.9747  2.6949
 2987SOL    HW220598   0.454   3.804   3.276  0.1709 -0.0743 -0.6905
 2988SOL     OW20599   2.062   2.280  15.262  0.0610  0.0019  0.0938
 2988SOL    HW120600   1.990   2.274  15.324 -0.7095 -0.6615 -0.8712
 2988SOL    HW220601   2.022   2.265  15.177  0.7789 -0.1703 -0.2129
 2989SOL     OW20602   0.257   0.760   4.603  0.5818  0.4640 -0.5768
 2989SOL    HW120603   0.220   0.845   4.625  0.7170  0.3146  0.2307
 2989SOL    HW220604   0.191   0.714   4.551 -1.1079  1.3270  0.7900
 2990SOL     OW20605   3.447   0.462   5.708 -0.5342  0.4070 -0.6320
 2990SOL    HW120606   3.495   0.543   5.723  1.2938 -0.7965 -0.1141
 2990SOL    HW220607   3.357   0.493   5.724 -0.7986 -1.5399  1.5748
 2991SOL     OW20608   2.118   3.630  10.688 -0.2139 -0.1549  0.4466
 2991SOL    HW120609   2.202   3.665  10.717 -0.5003  1.0825 -0.2291
 2991SOL    HW220610   2.066   3.710  10.688 -0.0521 -0.0377 -1.8809
 2992SOL     OW20611   1.148   0.842   0.395 -0.8394  0.3016  0.0393
 2992SOL    HW120612   1.201   0.813   0.322 -1.0956  0.1629 -0.0920
 2992SOL    HW220613   1.060   0.829   0.358 -0.2985  0.3131 -1.2236
 2993SOL     OW20614   1.476   1.999   0.542 -0.5280 -0.3516  0.6944
 2993SOL    HW120615   1.562   1.976   0.577 -0.9293 -0.6873  1.4388
 2993SOL    HW220616   1.460   1.932   0.476  2.6482 -0.7903  0.3506
 2994SOL     OW20617   1.181   1.561   4.626  0.0128  0.4196 -0.2115
 2994SOL    HW120618   1.089   1.559   4.599  0.2247 -0.9141 -0.8192
 2994SOL    HW220619   1.231   1.582   4.547  1.3193 -2.3013 -0.1038
 2995SOL     OW20620   1.372   1.607   4.409  0.2112  0.1505 -0.5863
 2995SOL    HW120621   1.464   1.635   4.405  0.9788 -2.3599 -0.3830
 2995SOL    HW220622   1.374   1.518   4.372  1.7908 -0.0015 -0.1256
 2996SOL     OW20623   3.142   1.249   4.260 -0.3970  0.4441 -0.2794
 2996SOL    HW120624   3.079   1.182   4.232  0.7739 -0.2637 -1.2575
 2996SOL    HW220625   3.087   1.315   4.300 -0.5705  0.0697  0.0988
 2997SOL     OW20626   0.682   1.822  13.454  0.0894  0.4798 -0.2176
 2997SOL    HW120627   0.611   1.808  13.391 -0.5599 -1.6120  0.9915
 2997SOL    HW220628   0.637   1.789  13.532  3.1793 -0.5694  1.0982
 2998SOL     OW20629   3.173   3.643   4.934 -0.6145 -0.0736  0.2179
 2998SOL    HW120630   3.090   3.690   4.944  1.1136  2.4786  2.4253
 2998SOL    HW220631   3.232   3.714   4.961 -0.1281 -0.9649  1.5002
 2999SOL     OW20632   4.011   3.683  11.544 -0.8775 -0.3442  0.0046
 2999SOL    HW120633   3.972   3.667  11.458 -0.1046 -0.8497 -0.2572
 2999SOL    HW220634   4.026   3.593  11.574 -0.7760 -0.3433 -0.0449
 3000SOL     OW20635   3.700   2.456   7.365  0.6508 -0.1090  0.4860
 3000SOL    HW120636   3.762   2.462   7.292  0.1040 -2.4136 -0.1687
 3000SOL    HW220637   3.682   2.362   7.373 -1.6150  0.3267  0.5121
 3001SOL     OW20638   1.769   4.688   2.538 -0.1206 -0.1222 -0.5103
 3001SOL    HW120639   1.706   4.632   2.582  1.6546 -2.5371 -1.0566
 3001SOL    HW220640   1.834   4.629   2.502 -1.0797 -1.3975 -0.1430
 3002SOL     OW20641   3.508   0.766   9.385 -0.5300 -0.1489 -0.7478
 3002SOL    HW120642   3.543   0.680   9.361  0.5693  0.0964 -0.0243
 3002SOL    HW220643   3.591   0.810   9.402 -2.0944  1.4725  2.6950
 3003SOL     OW20644   0.546   1.909   5.526 -0.3538  0.2053  0.2516
 3003SOL    HW120645   0.538   1.824   5.569 -0.0466  1.6225  3.1022
 3003SOL    HW220646   0.458   1.895   5.490  0.1333 -1.1808 -0.4096
 3004SOL     OW20647   2.077   1.816  10.062  1.1858 -0.4125  0.1288
 3004SOL    HW120648   2.104   1.905  10.083 -0.9580  0.6935 -1.8654
 3004SOL    HW220649   2.052   1.818   9.969 -1.5236  2.5556  0.9400
 3005SOL     OW20650   1.865   3.907  10.187 -0.1459 -0.2085  0.0299
 3005SOL    HW120651   1.854   3.996  10.221  2.6965  0.2075 -0.0975
 3005SOL    HW220652   1.958   3.918  10.168 -0.4252 -1.4929 -2.1011
 3006SOL     OW20653   1.046   3.590   6.856  0.0688  0.0894 -0.3819
 3006SOL    HW120654   1.102   3.667   6.847 -0.5655  0.1805 -3.5015
 3006SOL    HW220655   1.015   3.592   6.947  2.0902 -2.0087  0.3721
 3007SOL     OW20656   1.377   4.699   5.160  0.6427 -0.4581  0.4563
 3007SOL    HW120657   1.363   4.719   5.067  0.2287  1.4047  0.9311
 3007SOL    HW220658   1.381   4.604   5.149  1.2899 -0.2117 -1.3155
 3008SOL     OW20659   0.415   1.874   4.281 -0.0690  0.8690 -1.0619
 3008SOL    HW120660   0.500   1.881   4.238  1.1916  2.5606  1.7069
 3008SOL    HW220661   0.409   1.962   4.318  1.7609  0.4155  0.2953
 3009SOL     OW20662   4.090   2.861   5.202  0.0708  0.2920  0.3691
 3009SOL    HW120663   4.125   2.931   5.147 -1.2419  0.8989  0.2950
 3009SOL    HW220664   4.165   2.802   5.192  1.4435  2.5684 -2.7565
 3010SOL     OW20665   3.811   1.744  11.129 -0.0516  0.0227  0.1689
 3010SOL    HW120666   3.727   1.783  11.156  0.4990  1.3209  0.0125
 3010SOL    HW220667   3.879   1.781  11.185 -2.0185  1.2781  1.7209
 3011SOL     OW20668   1.895   3.826   8.962  0.0744 -0.7042  0.4402
 3011SOL    HW120669   1.932   3.809   9.049 -2.1347 -1.9450  1.1114
 3011SOL    HW220670   1.804   3.803   8.981 -0.0118 -0.6038  0.1440
 3012SOL     OW20671   3.292   2.793   5.465  0.4027 -0.0492 -0.0849
 3012SOL    HW120672   3.355   2.731   5.429 -1.3535 -2.1074  0.3365
 3012SOL    HW220673   3.250   2.817   5.382  0.1548  0.3627  0.1566
 3013SOL     OW20674   4.291   1.697   8.276 -0.0742  0.4661  0.0459
 3013SOL    HW120675   4.307   1.623   8.334  0.0904 -0.1222 -0.7538
 3013SOL    HW220676   4.351   1.760   8.316  1.7190 -0.9731 -0.4114
 3014SOL     OW20677   1.951   3.449   0.314 -0.9892  0.0512 -0.2182
 3014SOL    HW120678   2.025   3.398   0.348 -0.8470 -0.3948 -1.1855
 3014SOL    HW220679   1.977   3.450   0.222  0.3009  0.2097  0.1476
 3015SOL     OW20680   0.442   4.339   3.337  0.3365 -0.0580  0.0221
 3015SOL    HW120681   0.403   4.353   3.424  2.5182 -0.9452  1.1361
 3015SOL    HW220682   0.373   4.364   3.275  0.2143  0.4289  0.3553
 3016SOL     OW20683   2.152   3.974   2.555  0.4449  0.1399  0.1749
 3016SOL    HW120684   2.187   3.954   2.642 -0.4200 -1.2461  0.1999
 3016SOL    HW220685   2.188   4.060   2.533  0.6199 -0.2776 -1.1361
 3017SOL     OW20686   1.710   1.851   6.329 -0.2396 -0.0746 -0.6521
 3017SOL    HW120687   1.732   1.776   6.273  0.2170 -0.5580  0.1811
 3017SOL    HW220688   1.786   1.908   6.331 -0.5523  0.3142  0.0848
 3018SOL     OW20689   1.109   3.749  15.397  0.0223  0.5190 -0.1577
 3018SOL    HW120690   1.027   3.797  15.385  0.9103  2.1537  0.3999
 3018SOL    HW220691   1.083   3.660  15.371 -1.5165  1.3618 -1.5066
 3019SOL     OW20692   2.515   1.777   6.694  0.0297  0.2483 -0.2914
 3019SOL    HW120693   2.599   1.738   6.669  0.9078  1.4143  0.8217
 3019SOL    HW220694   2.547   1.853   6.744  4.2931 -2.1164  0.5877
 3020SOL     OW20695   1.373   3.729  12.145  0.0165 -0.2498 -0.2163
 3020SOL    HW120696   1.376   3.641  12.184  1.3841  0.1031  0.4638
 3020SOL    HW220697   1.412   3.704  12.062  0.3104  1.9282 -0.7391
 3021SOL     OW20698   2.518   4.350  17.538  0.6441  0.9009 -0.0751
 3021SOL    HW120699   2.509   4.408  17.613 -0.2117  0.4616  0.1669
 3021SOL    HW220700   2.610   4.324  17.539 -0.4392 -2.8950  1.3214
 3022SOL     OW20701   0.044   2.337   8.785  0.6119  0.6972 -0.4829
 3022SOL    HW120702   4.696   2.311   8.745 -0.0094  0.0378  1.2444
 3022SOL    HW220703   0.090   2.366   8.706  0.7839  0.6501 -0.3985
 3023SOL     OW20704   3.073   2.988   7.819 -0.1799 -0.5168 -0.5030
 3023SOL    HW120705   3.066   3.068   7.870 -3.2030 -0.9309 -0.3171
 3023SOL    HW220706   3.144   2.996   7.755 -0.2317 -1.6901 -0.7117
 3024SOL     OW20707   2.430   1.288  10.691 -0.0492  0.3969  0.1991
 3024SOL    HW120708   2.435   1.290  10.787 -2.6914 -0.1998  0.3537
 3024SOL    HW220709   2.458   1.198  10.675 -1.5758  0.2720 -1.6630
 3025SOL     OW20710   0.795   0.708   4.780 -0.3601 -0.3998  0.1261
 3025SOL    HW120711   0.778   0.633   4.724 -2.0329 -0.4372  0.6648
 3025SOL    HW220712   0.754   0.686   4.864 -1.3687 -0.2986 -0.3323
 3026SOL     OW20713   3.493   4.240  15.065 -0.1168  0.2968  0.5548
 3026SOL    HW120714   3.512   4.157  15.021 -1.0062 -1.7846  4.1407
 3026SOL    HW220715   3.401   4.240  15.089 -0.5272  0.0404 -1.0338
 3027SOL     OW20716   3.591   2.223   7.452 -0.3905 -0.2644 -0.6114
 3027SOL    HW120717   3.604   2.224   7.547 -0.2994 -0.7287 -0.6212
 3027SOL    HW220718   3.592   2.128   7.439 -0.7312 -0.2066 -1.0591
 3028SOL     OW20719   2.353   2.546   6.678  0.4821 -0.4379 -0.3360
 3028SOL    HW120720   2.283   2.484   6.656  1.2340 -0.5112 -2.5921
 3028SOL    HW220721   2.333   2.624   6.626  2.5628  0.5175  0.2943
 3029SOL     OW20722   3.703   0.254   2.287 -0.3779  0.0321  0.3345
 3029SOL    HW120723   3.679   0.164   2.265 -0.4706  1.1170 -4.0104
 3029SOL    HW220724   3.787   0.234   2.328 -0.6714  0.7190  1.2693
 3030SOL     OW20725   2.923   0.830   8.684 -0.2626  0.6601  0.5403
 3030SOL    HW120726   2.896   0.855   8.596 -1.1492 -0.7767  0.4075
 3030SOL    HW220727   2.946   0.917   8.718 -1.3282  0.3538  2.0809
 3031SOL     OW20728   0.675   4.574   9.058  0.2986  0.4186 -0.2391
 3031SOL    HW120729   0.728   4.510   9.106  0.7389  0.4752 -0.6470
 3031SOL    HW220730   0.737   4.618   9.000  0.8549 -0.5336 -0.3720
 3032SOL     OW20731   1.489   0.753   5.569  0.3329  0.2177  0.2954
 3032SOL    HW120732   1.397   0.740   5.547  0.6649  1.7012 -1.9972
 3032SOL    HW220733   1.488   0.818   5.639 -0.4571  1.0304 -0.4721
 3033SOL     OW20734   2.817   1.961   6.850  0.4271  0.6472 -0.2098
 3033SOL    HW120735   2.808   1.907   6.929  2.6456  1.1719  0.4163
 3033SOL    HW220736   2.835   1.891   6.787  1.5882  1.5595 -0.9044
 3034SOL     OW20737   4.524   4.600   1.236 -0.1876  0.6075  0.4922
 3034SOL    HW120738   4.581   4.567   1.306 -2.6031 -1.1389  1.6459
 3034SOL    HW220739   4.444   4.620   1.284 -0.3462  1.6389 -0.2151
 3035SOL     OW20740   1.744   2.796  10.674  0.0711 -0.4386  0.2459
 3035SOL    HW120741   1.735   2.708  10.639  0.1311 -1.0264  1.7001
 3035SOL    HW220742   1.716   2.776  10.763 -1.9182  0.0572 -0.2594
 3036SOL     OW20743   2.718   0.900  13.404 -0.4742 -0.2848 -0.0624
 3036SOL    HW120744   2.781   0.858  13.463 -0.2036 -0.6308 -0.6012
 3036SOL    HW220745   2.650   0.932  13.463 -0.0502  0.1951  0.1758
 3037SOL     OW20746   4.282   1.799   2.755 -0.4062  0.4044  0.2214
 3037SOL    HW120747   4.220   1.747   2.806  1.8423 -1.1410  1.3885
 3037SOL    HW220748   4.237   1.883   2.765 -1.0251  0.0466  0.4379
 3038SOL     OW20749   4.066   0.198   6.299  0.4193 -0.0272  0.1644
 3038SOL    HW120750   4.153   0.235   6.283  0.7256 -0.5912  0.5199
 3038SOL    HW220751   4.013   0.278   6.301 -1.3777 -1.2218  0.2066
 3039SOL     OW20752   3.591   1.665   8.341  0.1714  0.2754  0.2266
 3039SOL    HW120753   3.498   1.686   8.345  0.2488  1.0936 -2.5545
 3039SOL    HW220754   3.617   1.723   8.270  1.7559 -2.3888 -1.3643
 3040SOL     OW20755   1.182   2.341   6.441  0.0874 -0.2477 -0.5145
 3040SOL    HW120756   1.146   2.261   6.479 -0.3778  0.3313  0.2503
 3040SOL    HW220757   1.100   2.391   6.439  1.6660  2.3922  0.4906
 3041SOL     OW20758   0.139   0.918   4.014 -0.2597 -0.1911 -0.1883
 3041SOL    HW120759   0.166   0.840   3.966  1.6525  1.3358 -1.5944
 3041SOL    HW220760   0.085   0.964   3.950 -0.0131  0.3518 -0.0085
 3042SOL     OW20761   3.793   1.457   4.409 -0.5319  0.3345 -0.4237
 3042SOL    HW120762   3.838   1.372   4.404 -1.1601 -0.0787  0.7991
 3042SOL    HW220763   3.710   1.421   4.442 -1.2543  2.2084 -0.2071
 3043SOL     OW20764   3.246   0.355   4.517 -0.5248  0.3451 -0.1988
 3043SOL    HW120765   3.271   0.303   4.593  1.2969  2.0757  0.3826
 3043SOL    HW220766   3.289   0.298   4.452 -2.9518 -3.0147  1.1732
 3044SOL     OW20767   0.884   3.943   8.349 -0.0877  0.6850 -0.2592
 3044SOL    HW120768   0.898   3.971   8.439  0.4492  1.4035 -0.5613
 3044SOL    HW220769   0.807   3.887   8.357  0.8651 -0.9780 -2.6258
 3045SOL     OW20770   3.292   3.783  14.860  0.0744 -0.6712 -0.7137
 3045SOL    HW120771   3.341   3.764  14.780 -0.6362  1.1581 -1.5826
 3045SOL    HW220772   3.311   3.703  14.909  2.3117  1.0484  1.2375
 3046SOL     OW20773   3.978   1.419  13.714 -0.0771 -0.1823 -0.3129
 3046SOL    HW120774   3.965   1.506  13.753 -0.7019 -0.3889 -0.0587
 3046SOL    HW220775   4.041   1.388  13.778  2.3751  1.7670 -1.7771
 3047SOL     OW20776   4.568   4.605   1.839 -0.3395  0.2508 -0.0605
 3047SOL    HW120777   4.477   4.600   1.867 -0.2560  1.4627  0.4486
 3047SOL    HW220778   4.613   4.588   1.922 -0.5756 -0.0674  0.0034
 3048SOL     OW20779   4.666   4.238   6.011  0.4806  0.6382  0.0796
 3048SOL    HW120780   4.604   4.168   6.034  1.1619 -0.2461 -0.7874
 3048SOL    HW220781   4.607   4.308   6.039  0.1782 -0.2447  1.6909
 3049SOL     OW20782   0.523   0.868   9.320 -0.0873  0.0305  0.1919
 3049SOL    HW120783   0.589   0.937   9.325 -0.4040  0.3980 -0.8049
 3049SOL    HW220784   0.451   0.910   9.368 -0.9503  0.1233 -1.1946
 3050SOL     OW20785   0.477   4.014   3.061  0.8322  0.5729 -0.1638
 3050SOL    HW120786   0.490   4.062   2.979 -0.1205 -0.5642 -0.9887
 3050SOL    HW220787   0.483   3.923   3.031  2.5789  0.2468  1.1823
 3051SOL     OW20788   1.485   0.022   5.501 -0.0389  0.4598 -0.1957
 3051SOL    HW120789   1.544   4.716   5.439  1.0886  0.9994  0.5035
 3051SOL    HW220790   1.442   4.684   5.544 -1.5190  2.1994  1.3024
 3052SOL     OW20791   3.868   4.091  15.967  0.1872  0.2109 -0.0632
 3052SOL    HW120792   3.890   3.998  15.959 -2.6922 -0.5695  0.9915
 3052SOL    HW220793   3.952   4.125  15.999  0.9085 -1.4602 -0.1859
 3053SOL     OW20794   2.206   3.785   8.321  0.3207 -0.5072 -0.1517
 3053SOL    HW120795   2.220   3.746   8.408  0.4806  0.4200  0.2362
 3053SOL    HW220796   2.176   3.873   8.342 -0.3867 -0.7815 -0.0282
 3054SOL     OW20797   4.384   0.970   7.205 -0.1156  0.3311  0.9512
 3054SOL    HW120798   4.361   1.057   7.238  0.3733  0.0351  2.0694
 3054SOL    HW220799   4.457   0.961   7.266  1.0872 -1.5202 -0.7503
 3055SOL     OW20800   1.619   2.715   7.057 -1.0487  0.0123  0.0327
 3055SOL    HW120801   1.579   2.704   6.971 -1.7931  1.3546  0.2157
 3055SOL    HW220802   1.575   2.793   7.090  2.5911  1.5215  1.3167
 3056SOL     OW20803   3.057   1.833  15.964 -0.2460  0.0984  0.4929
 3056SOL    HW120804   2.998   1.775  15.917  1.4333 -0.1231 -1.3559
 3056SOL    HW220805   3.118   1.871  15.900 -0.2421 -0.0299  0.4219
 3057SOL     OW20806   2.610   2.619  16.324  0.1409 -0.1563 -0.2743
 3057SOL    HW120807   2.650   2.705  16.310  0.2918 -0.0435  0.8443
 3057SOL    HW220808   2.684   2.558  16.328  0.9917  0.7937 -1.7481
 3058SOL     OW20809   2.953   4.021   7.644  0.0561  0.3134 -0.2989
 3058SOL    HW120810   2.905   3.993   7.566  0.8989 -1.3310 -0.2279
 3058SOL    HW220811   2.971   3.933   7.677 -0.7886 -0.0435 -0.7799
 3059SOL     OW20812   2.293   1.796   7.296 -0.5317  0.1214 -0.0403
 3059SOL    HW120813   2.344   1.873   7.271  0.7687 -0.2047  1.6384
 3059SOL    HW220814   2.213   1.818   7.247 -0.9940  1.3309  1.2571
 3060SOL     OW20815   4.186   0.131  12.781 -0.0389  0.1015  0.2298
 3060SOL    HW120816   4.152   0.132  12.692  1.9929 -3.1528 -0.5619
 3060SOL    HW220817   4.115   0.081  12.823 -0.2875 -0.1200 -0.4630
 3061SOL     OW20818   2.012   2.319   8.632  0.0397 -0.1620  0.1876
 3061SOL    HW120819   1.996   2.405   8.670  0.3396 -0.4172  0.8890
 3061SOL    HW220820   1.929   2.317   8.584  0.9761 -1.3108 -1.3881
 3062SOL     OW20821   1.582   0.003   4.290  0.5908 -0.3211  0.1710
 3062SOL    HW120822   1.630   4.693   4.360  0.3392 -0.0216  0.5382
 3062SOL    HW220823   1.624   0.089   4.284  2.8739 -1.3420  1.2103
 3063SOL     OW20824   1.137   3.126   4.320  1.0315  0.3576  0.1983
 3063SOL    HW120825   1.121   3.172   4.403  1.5162 -0.9021  0.9785
 3063SOL    HW220826   1.137   3.033   4.340  1.4853  0.6035  1.3470
 3064SOL     OW20827   0.426   0.477   6.697 -0.2185  0.3303  0.1393
 3064SOL    HW120828   0.390   0.391   6.676 -1.5238  0.6254  1.2205
 3064SOL    HW220829   0.507   0.482   6.646 -1.5114 -2.3796 -2.1837
 3065SOL     OW20830   0.968   1.599   2.999  0.0877  0.1052 -0.3824
 3065SOL    HW120831   1.026   1.522   3.000 -0.3535 -0.2080  1.5072
 3065SOL    HW220832   0.889   1.545   2.990 -1.5636  2.4063  0.4706
 3066SOL     OW20833   2.289   1.839   3.492  0.2343  0.1914  0.1060
 3066SOL    HW120834   2.306   1.822   3.400 -1.0164  1.8892 -0.4271
 3066SOL    HW220835   2.194   1.830   3.491  0.1929  0.7085 -0.4646
 3067SOL     OW20836   0.748   0.404  10.950 -0.5213  0.0383 -0.2011
 3067SOL    HW120837   0.799   0.438  11.023 -0.5798  1.0718 -0.6298
 3067SOL    HW220838   0.803   0.428  10.875 -1.6905 -0.3497 -1.1934
 3068SOL     OW20839   0.760   4.138   2.417 -0.2768 -0.0609 -0.2500
 3068SOL    HW120840   0.775   4.058   2.368  1.1348  0.9091 -1.3972
 3068SOL    HW220841   0.793   4.108   2.502 -0.9117 -1.4544 -0.4980
 3069SOL     OW20842   2.091   0.702   9.439  0.8640  0.2067  0.0153
 3069SOL    HW120843   2.153   0.655   9.494  0.7835 -0.2833 -0.3087
 3069SOL    HW220844   2.134   0.780   9.405 -0.6649  1.8162  1.8062
 3070SOL     OW20845   1.879   1.185   4.448 -0.1303  0.3870 -0.2198
 3070SOL    HW120846   1.788   1.216   4.448 -0.6386 -1.1140  1.0065
 3070SOL    HW220847   1.888   1.149   4.536  1.7260 -0.9412 -0.9526
 3071SOL     OW20848   1.463   0.617  17.424 -0.2474 -0.1814 -0.8335
 3071SOL    HW120849   1.525   0.588  17.491  0.7129  1.3317 -1.0435
 3071SOL    HW220850   1.430   0.698  17.463 -0.6070 -1.1407  0.8536
 3072SOL     OW20851   4.453   1.129   3.594 -0.3022 -0.2777 -0.6228
 3072SOL    HW120852   4.444   1.104   3.686 -0.4388  1.6875 -0.1192
 3072SOL    HW220853   4.466   1.042   3.555  0.9448 -0.2068 -0.3772
 3073SOL     OW20854   1.040   2.232   7.033 -0.0278  0.0457 -0.0206
 3073SOL    HW120855   1.020   2.148   7.075  0.8298 -0.0405  0.2207
 3073SOL    HW220856   1.133   2.220   7.012 -0.4562 -1.4613 -1.0879
 3074SOL     OW20857   3.498   1.114  14.085 -0.2101  0.4868  0.3506
 3074SOL    HW120858   3.433   1.077  14.144  0.2935 -1.0904 -0.0908
 3074SOL    HW220859   3.566   1.048  14.097  0.4658  1.1522  0.2398
 3075SOL     OW20860   2.791   0.889  15.535  0.3232  0.1831  0.5230
 3075SOL    HW120861   2.806   0.914  15.444 -0.8430  1.1026  0.5838
 3075SOL    HW220862   2.720   0.825  15.529 -0.3967  0.9808  0.5322
 3076SOL     OW20863   4.590   2.517  14.946  0.9052  0.2880  0.1577
 3076SOL    HW120864   4.602   2.499  15.039  0.8521 -2.2343 -0.3306
 3076SOL    HW220865   4.551   2.604  14.953  1.3984  0.5617 -0.4342
 3077SOL     OW20866   3.845   2.392  12.734  0.1874  0.8627  0.9421
 3077SOL    HW120867   3.768   2.338  12.752  0.4014  0.4470  0.6286
 3077SOL    HW220868   3.843   2.463  12.798 -2.1832  0.9393  0.7482
 3078SOL     OW20869   3.403   4.227   6.278  0.3475  0.3937  0.0764
 3078SOL    HW120870   3.446   4.153   6.235  0.4232  0.8848 -0.6918
 3078SOL    HW220871   3.427   4.288   6.208  0.4924  0.4562  0.1814
 3079SOL     OW20872   0.184   2.435   5.114  0.3450 -0.1549  0.5902
 3079SOL    HW120873   0.250   2.376   5.078  0.6300 -0.0308  0.9131
 3079SOL    HW220874   0.137   2.460   5.034 -0.1109 -3.2036 -0.1113
 3080SOL     OW20875   1.659   3.716   7.671 -0.2617  0.4245 -0.7541
 3080SOL    HW120876   1.712   3.658   7.726 -0.9580 -0.3814 -0.9232
 3080SOL    HW220877   1.594   3.729   7.741 -0.7956 -1.1062 -0.9537
 3081SOL     OW20878   1.484   0.786   3.929 -0.3941 -0.3036  0.1751
 3081SOL    HW120879   1.514   0.812   4.016  0.8447 -0.5699 -0.1688
 3081SOL    HW220880   1.566   0.785   3.878  0.7753 -1.4345  2.1055
 3082SOL     OW20881   0.856   4.053  15.921 -0.4887 -0.0158 -0.5802
 3082SOL    HW120882   0.915   4.097  15.860 -0.5059 -1.3607 -1.5675
 3082SOL    HW220883   0.857   3.968  15.877 -2.0667 -1.7039  2.6262
 3083SOL     OW20884   3.647   1.826  13.274 -0.0027  0.3830  0.5683
 3083SOL    HW120885   3.655   1.733  13.295  1.2548  0.3907  0.0934
 3083SOL    HW220886   3.685   1.864  13.353  1.2316 -2.2247  1.2055
 3084SOL     OW20887   1.413   0.953   6.310 -0.2370  0.4606 -0.0469
 3084SOL    HW120888   1.419   0.859   6.325 -2.0291 -0.0524 -2.5031
 3084SOL    HW220889   1.433   0.994   6.394 -0.8358  0.5078  0.0701
 3085SOL     OW20890   2.530   1.208   5.211 -0.2235  0.6151  0.0866
 3085SOL    HW120891   2.548   1.301   5.216  0.0566  0.5247  0.8053
 3085SOL    HW220892   2.567   1.171   5.291  1.3520 -1.3962 -1.5608
 3086SOL     OW20893   3.043   3.738   4.141 -0.2990  0.0157  0.2784
 3086SOL    HW120894   3.035   3.805   4.209 -3.8466 -0.4085  0.2698
 3086SOL    HW220895   2.980   3.765   4.074  1.0241  2.1758 -0.1011
 3087SOL     OW20896   4.717   1.803   9.361  0.5428  0.0383 -0.0377
 3087SOL    HW120897   4.653   1.867   9.330 -0.2441 -1.4460 -1.4515
 3087SOL    HW220898   0.045   1.864   9.400  1.4277 -0.8134 -0.1631
 3088SOL     OW20899   3.581   3.110   7.080 -0.1820 -0.3777 -0.2179
 3088SOL    HW120900   3.600   3.166   7.156  0.2456 -3.0830  1.6795
 3088SOL    HW220901   3.650   3.044   7.084  0.2097  0.0362 -0.1522
 3089SOL     OW20902   3.680   3.510   3.132 -0.2649 -0.0789 -0.3564
 3089SOL    HW120903   3.686   3.427   3.085 -0.9943 -0.4616  0.2260
 3089SOL    HW220904   3.593   3.513   3.172 -0.0983  0.6072 -0.0531
 3090SOL     OW20905   0.150   3.733   4.314 -0.8514  0.7795  0.2206
 3090SOL    HW120906   0.197   3.695   4.389 -1.6768 -0.7482 -0.0533
 3090SOL    HW220907   0.076   3.750   4.372 -1.2536  0.4686 -0.2108
 3091SOL     OW20908   2.816   3.606  16.190  0.3917  0.3008  0.2443
 3091SOL    HW120909   2.819   3.678  16.253 -1.7748 -0.8684  1.7048
 3091SOL    HW220910   2.733   3.571  16.223  0.8004 -2.3291 -1.4965
 3092SOL     OW20911   3.989   0.465   8.621 -0.3510 -0.1371  0.3507
 3092SOL    HW120912   4.053   0.487   8.689  0.5477  1.8297 -1.1239
 3092SOL    HW220913   4.047   0.416   8.562 -2.5177 -1.2112 -0.8751
 3093SOL     OW20914   2.610   0.959   6.677  0.2003  0.1355  0.6596
 3093SOL    HW120915   2.685   1.009   6.644 -0.4514  1.1075  0.6558
 3093SOL    HW220916   2.564   1.028   6.724 -0.6392  0.6199 -0.8658
 3094SOL     OW20917   3.554   0.803  12.452 -0.4478 -0.6886  0.0146
 3094SOL    HW120918   3.525   0.893  12.439  1.7855  0.0810  0.4148
 3094SOL    HW220919   3.472   0.762  12.480 -1.6209  1.6161 -0.0788
 3095SOL     OW20920   1.281   4.055   2.744 -0.3785 -0.1747  0.1412
 3095SOL    HW120921   1.291   4.001   2.666 -0.6851 -1.8786  1.2786
 3095SOL    HW220922   1.191   4.044   2.772 -0.0402 -1.7605  0.6126
 3096SOL     OW20923   4.498   2.862  12.789  0.1010 -0.0414 -0.0743
 3096SOL    HW120924   4.416   2.845  12.743 -0.8855  0.6646  1.4051
 3096SOL    HW220925   4.553   2.820  12.724  1.6976  0.0078  1.2463
 3097SOL     OW20926   4.564   1.877   7.365  0.4150  0.2434  0.2931
 3097SOL    HW120927   4.631   1.891   7.299 -0.9413 -2.5206 -1.6575
 3097SOL    HW220928   4.538   1.964   7.397 -0.8110  0.2346 -0.6796
 3098SOL     OW20929   4.134   1.226   3.552  0.4478  0.3598 -0.4253
 3098SOL    HW120930   4.070   1.261   3.490  0.4724  1.2170  0.0399
 3098SOL    HW220931   4.214   1.265   3.518  1.1380 -0.6376  0.0792
 3099SOL     OW20932   2.002   1.514   1.191 -0.2693 -0.0563  0.2000
 3099SOL    HW120933   1.918   1.534   1.150 -1.0481 -1.5839  1.0243
 3099SOL    HW220934   1.959   1.477   1.268 -1.5044  0.2100 -0.3682
 3100SOL     OW20935   4.693   1.123   3.821  0.4867 -0.2165  0.2629
 3100SOL    HW120936   4.670   1.113   3.914  0.5387 -1.2830  0.1613
 3100SOL    HW220937   4.663   1.212   3.802  2.3669  0.3224 -0.1869
 3101SOL     OW20938   4.676   1.739   1.868 -0.5854 -1.2528  0.7736
 3101SOL    HW120939   0.013   1.801   1.869 -0.8934 -0.9297  2.6095
 3101SOL    HW220940   4.655   1.739   1.775 -1.3278  0.1140  0.9508
 3102SOL     OW20941   2.140   1.136   2.612  0.3353 -0.4253  0.2883
 3102SOL    HW120942   2.122   1.071   2.543 -1.2344  0.6332 -0.3105
 3102SOL    HW220943   2.199   1.195   2.566 -1.0109  1.7056  1.3269
 3103SOL     OW20944   1.851   0.110   0.513 -0.5634 -0.1012  0.2759
 3103SOL    HW120945   1.946   0.110   0.505 -0.6466 -0.6044 -0.6037
 3103SOL    HW220946   1.836   0.205   0.517  1.0126  0.0101  3.1113
 3104SOL     OW20947   4.253   2.978   7.786  0.5159  0.4145 -0.0686
 3104SOL    HW120948   4.271   2.911   7.720 -1.0369  0.4475 -0.5241
 3104SOL    HW220949   4.268   2.920   7.861 -1.2440  1.4561  1.0886
 3105SOL     OW20950   1.932   1.487   5.269  0.3595 -0.5849  0.1967
 3105SOL    HW120951   1.875   1.411   5.256  0.7153 -0.6961 -0.7614
 3105SOL    HW220952   2.015   1.449   5.299  1.0612  0.8883  0.1250
 3106SOL     OW20953   4.575   1.383   1.399  1.1768 -0.0724  0.5739
 3106SOL    HW120954   4.575   1.445   1.472  1.0675  1.7282 -0.9872
 3106SOL    HW220955   4.492   1.412   1.361  1.2686  0.1680  0.5577
 3107SOL     OW20956   4.015   1.032   2.424 -0.1238  0.2611 -0.2984
 3107SOL    HW120957   4.092   1.069   2.467 -0.8035 -1.4268  2.3449
 3107SOL    HW220958   4.057   0.994   2.347  0.8766  1.0474 -0.1426
 3108SOL     OW20959   1.485   3.459   1.896 -0.7604  0.1118  0.2752
 3108SOL    HW120960   1.554   3.500   1.949  0.1672 -1.7487  0.5026
 3108SOL    HW220961   1.542   3.417   1.832 -0.4035 -0.3739  0.9108
 3109SOL     OW20962   1.917   2.902   1.776 -0.1445 -0.5178 -0.1493
 3109SOL    HW120963   1.949   2.960   1.845  0.7252 -1.3028  0.1132
 3109SOL    HW220964   1.825   2.926   1.771 -0.3641 -1.4607 -0.5786
 3110SOL     OW20965   3.089   3.526   4.709  0.0574  0.1715  0.5862
 3110SOL    HW120966   3.056   3.472   4.781  1.6243 -0.1161  1.0847
 3110SOL    HW220967   3.139   3.589   4.761 -1.0933  1.2469  0.3929
 3111SOL     OW20968   0.150   3.238   9.753  0.0438 -0.4676  0.7045
 3111SOL    HW120969   0.216   3.169   9.757  0.0153 -0.3959  2.4695
 3111SOL    HW220970   0.170   3.285   9.834  2.3085 -2.3953  1.2691
 3112SOL     OW20971   0.939   1.073  13.102 -0.1008  0.2119 -0.2315
 3112SOL    HW120972   1.003   1.086  13.032  0.5508 -2.1339 -0.0894
 3112SOL    HW220973   0.942   1.154  13.153 -0.4183  0.3376 -0.4154
 3113SOL     OW20974   4.416   2.891   1.295  0.6116  0.0293  0.5232
 3113SOL    HW120975   4.403   2.801   1.266  1.6695 -0.6732  2.2229
 3113SOL    HW220976   4.408   2.891   1.391  0.5944  2.4522  0.5226
 3114SOL     OW20977   2.856   0.286   1.352  0.5715 -0.2563 -0.5359
 3114SOL    HW120978   2.841   0.377   1.325 -0.5377 -0.1452  0.4569
 3114SOL    HW220979   2.878   0.297   1.445  0.4113  0.0299 -0.5310
 3115SOL     OW20980   3.390   3.757   7.032  0.2001 -0.4524 -0.6351
 3115SOL    HW120981   3.297   3.742   7.050  0.3411 -0.1206  0.3916
 3115SOL    HW220982   3.399   3.837   7.083 -1.5832  0.3073 -1.5280
 3116SOL     OW20983   3.758   0.883   9.396  0.0445  0.3801  0.4332
 3116SOL    HW120984   3.818   0.846   9.331 -0.5086 -0.9927  0.6935
 3116SOL    HW220985   3.795   0.971   9.398  1.0683 -0.0626  1.1197
 3117SOL     OW20986   1.423   2.496   0.115  0.2227 -0.1233  0.0006
 3117SOL    HW120987   1.392   2.444   0.041 -2.1423 -0.4319  1.1945
 3117SOL    HW220988   1.381   2.443   0.183  2.2934 -0.2750  1.1661
 3118SOL     OW20989   3.475   2.021  14.087 -0.3288 -0.1846 -0.0355
 3118SOL    HW120990   3.401   1.964  14.109 -0.4436  0.8595  2.2510
 3118SOL    HW220991   3.551   1.963  14.092 -0.9349 -0.8256  1.6355
 3119SOL     OW20992   3.508   4.054   5.097  0.1044  0.6561 -0.1108
 3119SOL    HW120993   3.531   4.007   5.178 -0.5565  1.4216  0.5208
 3119SOL    HW220994   3.426   4.088   5.134  1.5300  1.5980  2.1711
 3120SOL     OW20995   3.287   1.359  16.989 -0.6318 -0.0218  0.2823
 3120SOL    HW120996   3.364   1.400  16.950 -0.4703 -1.4374 -0.9043
 3120SOL    HW220997   3.240   1.318  16.917  1.7729 -0.4798 -0.9972
 3121SOL     OW20998   4.213   3.232   6.711 -0.6245  0.3351 -0.6267
 3121SOL    HW120999   4.164   3.276   6.641  0.7921  1.1404 -1.1205
 3121SOL    HW221000   4.301   3.259   6.685 -1.5060  1.9279 -1.9948
 3122SOL     OW21001   1.347   0.080   2.714 -0.4827 -0.7506  0.2747
 3122SOL    HW121002   1.415   0.076   2.647  0.1103 -0.8308  0.8820
 3122SOL    HW221003   1.309   4.728   2.705 -0.7371 -0.7431  1.2365
 3123SOL     OW21004   3.415   2.260  13.141 -0.0098 -0.2639  0.4669
 3123SOL    HW121005   3.460   2.180  13.113  1.2638  0.7397 -0.3470
 3123SOL    HW221006   3.373   2.276  13.057 -1.0090 -1.9923  0.6357
 3124SOL     OW21007   1.387   4.251   3.003 -0.0484  0.0057 -0.3782
 3124SOL    HW121008   1.366   4.266   3.095 -1.0603 -3.2377 -0.0526
 3124SOL    HW221009   1.477   4.282   2.994 -0.2698  1.0496  1.0039
 3125SOL     OW21010   4.385   3.211   8.163 -0.5275 -0.5839  0.3170
 3125SOL    HW121011   4.390   3.129   8.114 -0.3688 -0.2301 -0.2578
 3125SOL    HW221012   4.438   3.193   8.241  0.1842 -1.2993 -0.3228
 3126SOL     OW21013   3.065   3.896  17.076  0.4032  0.2886 -0.4156
 3126SOL    HW121014   3.017   3.816  17.057  2.2520 -0.7270 -0.8355
 3126SOL    HW221015   3.047   3.906  17.169  1.5582  0.1297 -0.1734
 3127SOL     OW21016   3.058   4.248  15.977 -0.3151  0.2222 -0.4941
 3127SOL    HW121017   3.120   4.316  16.004  0.6480 -0.5999 -0.6287
 3127SOL    HW221018   3.105   4.169  15.952  1.2890  0.9922  0.1140
 3128SOL     OW21019   2.048   1.272  15.080  0.2178  0.2664 -0.5232
 3128SOL    HW121020   2.065   1.226  15.162  0.6746  1.1311 -0.1423
 3128SOL    HW221021   2.056   1.200  15.017 -0.8602 -0.3432  0.0307
 3129SOL     OW21022   2.013   1.650   3.819  0.6203 -0.2446 -0.2129
 3129SOL    HW121023   2.091   1.620   3.773  1.9219  1.4042  0.9275
 3129SOL    HW221024   2.018   1.743   3.795 -0.7908 -0.8054 -2.7402
 3130SOL     OW21025   2.096   2.210   7.741 -0.1087  0.4065 -0.5068
 3130SOL    HW121026   2.159   2.138   7.739 -0.4776 -0.0237  3.0606
 3130SOL    HW221027   2.048   2.195   7.822 -0.9094  0.8412 -0.9008
 3131SOL     OW21028   3.606   3.363   5.669 -0.3383 -0.1030 -0.4284
 3131SOL    HW121029   3.658   3.356   5.749 -1.9301 -1.0241  0.5206
 3131SOL    HW221030   3.630   3.280   5.627 -2.1253 -0.3458 -0.9442
 3132SOL     OW21031   3.418   3.659   3.523 -0.5785  0.3045 -0.3572
 3132SOL    HW121032   3.427   3.596   3.452 -0.0751  0.2106 -0.2063
 3132SOL    HW221033   3.447   3.608   3.598  0.8479  0.4509 -0.8105
 3133SOL     OW21034   1.932   2.654   2.446 -1.0958  0.1415  0.4599
 3133SOL    HW121035   1.997   2.723   2.459 -0.7184  0.2445 -1.9733
 3133SOL    HW221036   1.922   2.651   2.350 -0.5806  0.0334  0.4090
 3134SOL     OW21037   1.091   4.425   5.638  0.1765 -0.1275 -0.5256
 3134SOL    HW121038   1.060   4.433   5.728  1.5371 -1.2014  0.0203
 3134SOL    HW221039   1.037   4.353   5.605  0.5149 -1.0370  0.9258
 3135SOL     OW21040   4.689   1.390   7.650 -0.2312 -0.1349 -0.3929
 3135SOL    HW121041   4.600   1.406   7.683 -0.6408 -1.4081 -0.8854
 3135SOL    HW221042   4.699   1.475   7.607  0.9566 -0.7142 -1.2580
 3136SOL     OW21043   0.158   2.549   9.981 -0.3929  0.3020  0.1209
 3136SOL    HW121044   0.095   2.594   9.924 -1.3055  0.0329  0.9059
 3136SOL    HW221045   0.086   2.525  10.040  0.8705  0.3776  1.6824
 3137SOL     OW21046   2.199   4.162  17.596  0.2632  0.0209  0.0468
 3137SOL    HW121047   2.193   4.166  17.692  0.2882 -2.1009  0.1236
 3137SOL    HW221048   2.292   4.140  17.592  0.2974  0.8058 -3.3604
 3138SOL     OW21049   2.906   3.098   6.598  0.6539  0.0991  0.1301
 3138SOL    HW121050   2.959   3.148   6.660  0.4101 -0.3607  0.7057
 3138SOL    HW221051   2.841   3.052   6.650  0.5566 -1.1710 -1.1039
 3139SOL     OW21052   1.133   1.835   9.143 -0.5336 -0.1615  0.5786
 3139SOL    HW121053   1.113   1.750   9.104 -2.0763 -0.2636  1.5913
 3139SOL    HW221054   1.227   1.847   9.127 -0.9730  2.5069  0.0631
 3140SOL     OW21055   0.914   1.627  14.097 -0.0558 -0.4769  0.2421
 3140SOL    HW121056   0.856   1.555  14.121  0.5973 -0.5968  1.4723
 3140SOL    HW221057   0.867   1.660  14.020 -2.2684 -0.5047  1.6044
 3141SOL     OW21058   3.024   2.755   6.087 -0.4172  0.2610  1.3614
 3141SOL    HW121059   3.080   2.766   6.164  2.7241 -0.5779 -0.8083
 3141SOL    HW221060   3.027   2.839   6.042  1.0889 -0.1588  0.6876
 3142SOL     OW21061   3.761   3.550   0.202  0.3118 -0.5754  0.1859
 3142SOL    HW121062   3.753   3.529   0.109  0.8832  0.8525 -0.1801
 3142SOL    HW221063   3.671   3.577   0.219 -0.1914 -1.8904 -0.3883
 3143SOL     OW21064   2.469   2.748  17.331 -0.2996 -0.2868  0.5130
 3143SOL    HW121065   2.501   2.837  17.338 -1.1664  0.1602 -1.1957
 3143SOL    HW221066   2.377   2.753  17.353 -0.3065  1.4139  0.0814
 3144SOL     OW21067   1.203   2.633   3.987  0.1224 -0.0521 -0.2871
 3144SOL    HW121068   1.169   2.554   4.029 -2.3198  0.7699 -0.7094
 3144SOL    HW221069   1.125   2.664   3.940  0.3655  1.2991  0.2086
 3145SOL     OW21070   4.156   1.414   8.250 -0.0423 -0.3315 -0.0611
 3145SOL    HW121071   4.187   1.463   8.327 -1.0027  1.0563 -0.5746
 3145SOL    HW221072   4.103   1.338   8.273 -2.4562  1.4701  0.2865
 3146SOL     OW21073   3.525   2.491  11.163 -0.2721  0.2767 -0.3387
 3146SOL    HW121074   3.481   2.457  11.085  0.0265  1.8534 -1.1986
 3146SOL    HW221075   3.481   2.438  11.229 -1.3396 -0.4287 -1.6156
 3147SOL     OW21076   3.292   3.945   7.221  0.4848  0.1771  0.2617
 3147SOL    HW121077   3.216   3.888   7.212  1.9659 -1.5616 -1.3294
 3147SOL    HW221078   3.290   3.942   7.317  0.8879  1.7574  0.3265
 3148SOL     OW21079   3.987   4.109   6.580 -0.6482  0.0149  0.1260
 3148SOL    HW121080   3.974   4.186   6.635  0.4920 -0.8389  1.5700
 3148SOL    HW221081   3.945   4.033   6.621 -0.3422  0.5252  1.3810
 3149SOL     OW21082   4.475   2.965   8.068 -0.2056 -0.1578 -0.1878
 3149SOL    HW121083   4.551   2.909   8.086  0.7696  1.7130  1.4761
 3149SOL    HW221084   4.512   3.021   8.001  0.5393 -1.0578 -0.5364
 3150SOL     OW21085   0.661   1.859   7.302  0.0994  0.2459  0.3119
 3150SOL    HW121086   0.703   1.853   7.387 -1.1081  1.4092  0.9839
 3150SOL    HW221087   0.729   1.845   7.236 -1.4450 -0.5013 -1.1425
 3151SOL     OW21088   2.038   2.257  15.982 -0.0242  0.2099  0.5190
 3151SOL    HW121089   1.945   2.244  15.998 -0.3858  1.8521 -0.2959
 3151SOL    HW221090   2.059   2.184  15.923 -0.1346  1.9672 -1.6790
 3152SOL     OW21091   4.213   4.147   3.871  0.4920 -0.1044 -0.3176
 3152SOL    HW121092   4.249   4.106   3.793  0.3194  1.1938 -1.0872
 3152SOL    HW221093   4.202   4.236   3.836 -0.5498 -0.6621 -1.3968
 3153SOL     OW21094   4.562   3.943   4.242 -0.3627  0.7039 -0.0726
 3153SOL    HW121095   4.495   3.877   4.229  0.0672  0.2044  0.2526
 3153SOL    HW221096   4.640   3.905   4.201  0.4272  0.6060  1.5046
 3154SOL     OW21097   0.997   0.932   6.405 -0.0581  0.0730  0.1150
 3154SOL    HW121098   0.965   0.912   6.317  2.4022 -1.9873 -0.3304
 3154SOL    HW221099   0.921   0.973   6.446 -0.4539 -0.5894  0.0466
 3155SOL     OW21100   2.950   4.536   4.886 -0.0488  0.1394  0.3663
 3155SOL    HW121101   2.892   4.492   4.824  0.0639 -0.0794  0.4148
 3155SOL    HW221102   2.904   4.529   4.970  1.0027 -1.5620  0.8009
 3156SOL     OW21103   0.886   0.374   7.190  0.6570  0.1371  0.0510
 3156SOL    HW121104   0.794   0.398   7.190  0.6193 -0.0474 -1.8721
 3156SOL    HW221105   0.921   0.463   7.196 -1.1082  0.7471  1.2257
 3157SOL     OW21106   1.117   3.610   3.060  0.3273 -0.2050  0.3514
 3157SOL    HW121107   1.040   3.610   3.004 -0.9456 -0.0916  2.0994
 3157SOL    HW221108   1.167   3.683   3.023 -1.3822  0.1632 -1.1925
 3158SOL     OW21109   3.333   2.703   2.990  0.2572  0.0155 -0.2066
 3158SOL    HW121110   3.278   2.767   3.035 -0.0474 -0.6092  0.3059
 3158SOL    HW221111   3.365   2.651   3.063 -0.5669  2.5141  1.9285
 3159SOL     OW21112   3.329   1.631  13.688 -1.0527  0.1111 -0.5309
 3159SOL    HW121113   3.301   1.673  13.769  1.0940  1.1041 -0.3132
 3159SOL    HW221114   3.296   1.544  13.713 -2.0984  1.0000  1.1934
 3160SOL     OW21115   0.078   3.124   8.026  0.2571  0.5704 -0.1960
 3160SOL    HW121116   4.730   3.142   7.984  0.1242 -0.1967 -0.2559
 3160SOL    HW221117   0.148   3.141   7.963  0.6889  2.7752  0.8582
 3161SOL     OW21118   0.435   1.012   2.944 -0.0935  0.0020 -0.2405
 3161SOL    HW121119   0.389   0.956   2.881  0.2635  1.1359 -1.5047
 3161SOL    HW221120   0.368   1.076   2.966  0.3204 -0.3828  2.1512
 3162SOL     OW21121   2.244   0.604   7.042 -0.3547 -0.5241 -0.2140
 3162SOL    HW121122   2.239   0.584   6.949  2.1332  1.7795 -0.8550
 3162SOL    HW221123   2.202   0.529   7.084  0.0737  0.3986  1.8605
 3163SOL     OW21124   4.523   2.075   2.111  0.6389 -0.0165 -0.5994
 3163SOL    HW121125   4.513   1.989   2.071 -0.2094 -2.0959  4.1197
 3163SOL    HW221126   4.531   2.127   2.030 -0.9193  0.7121 -0.2853
 3164SOL     OW21127   0.992   3.156   9.607 -0.1375 -0.2670 -0.3565
 3164SOL    HW121128   1.083   3.144   9.635 -0.2736  1.7708  0.9221
 3164SOL    HW221129   0.966   3.215   9.677 -2.0251 -0.4444 -0.8938
 3165SOL     OW21130   1.670   1.605   8.496 -0.0656 -0.3075  0.4406
 3165SOL    HW121131   1.632   1.692   8.501  0.9484  0.1686 -0.2091
 3165SOL    HW221132   1.738   1.594   8.562  0.3658 -2.3950 -0.3305
 3166SOL     OW21133   2.196   2.046  15.914  0.6545  0.7514  0.2973
 3166SOL    HW121134   2.230   1.969  15.868  0.9218  0.6482  0.6678
 3166SOL    HW221135   2.229   2.029  16.003 -1.5832 -0.1665  0.9600
 3167SOL     OW21136   3.349   2.304   7.335  0.2510 -0.0769 -0.2473
 3167SOL    HW121137   3.433   2.262   7.352 -0.1128  0.1797  2.2593
 3167SOL    HW221138   3.364   2.390   7.374 -2.2901 -0.1369  0.8240
 3168SOL     OW21139   4.522   2.762  15.014  0.5916 -0.5755 -0.0297
 3168SOL    HW121140   4.494   2.772  15.105 -2.7587 -0.7446 -1.0684
 3168SOL    HW221141   4.529   2.850  14.977 -0.2523 -1.4085 -2.1567
 3169SOL     OW21142   2.683   3.213  11.731  0.2473  0.4993 -0.1262
 3169SOL    HW121143   2.602   3.265  11.723  0.6027  1.0015 -0.4644
 3169SOL    HW221144   2.708   3.227  11.822 -1.2608  1.4801  0.1534
 3170SOL     OW21145   4.463   2.834  13.083 -0.1495 -0.2134  0.3558
 3170SOL    HW121146   4.523   2.908  13.085  1.6137 -1.6364 -0.3982
 3170SOL    HW221147   4.479   2.810  12.991 -0.7388 -1.7290  0.6428
 3171SOL     OW21148   3.441   3.473   9.628 -0.4210  0.4360  0.6444
 3171SOL    HW121149   3.461   3.477   9.535  0.1127 -0.9017  0.7100
 3171SOL    HW221150   3.384   3.397   9.635  1.2175 -0.9802 -1.5158
 3172SOL     OW21151   0.356   2.046   8.000  0.2629  0.0416 -0.0637
 3172SOL    HW121152   0.401   2.056   7.916  0.1477 -0.1855 -0.1525
 3172SOL    HW221153   0.267   2.065   7.971 -0.0493 -0.0747  0.8279
 3173SOL     OW21154   3.823   1.560  12.460  0.2500 -0.3645 -0.4818
 3173SOL    HW121155   3.804   1.473  12.496  1.6019 -0.2838  0.4402
 3173SOL    HW221156   3.870   1.545  12.379 -1.1745  0.9942 -1.5751
 3174SOL     OW21157   1.430   3.440   4.545 -0.0740  0.3478 -0.1129
 3174SOL    HW121158   1.404   3.469   4.458 -0.9741 -0.2760 -0.0501
 3174SOL    HW221159   1.435   3.523   4.592  0.0346  0.2143  0.1114
 3175SOL     OW21160   1.590   3.384  10.198  1.0347  0.3925  0.3266
 3175SOL    HW121161   1.591   3.364  10.292  1.1194  1.5459  0.5626
 3175SOL    HW221162   1.676   3.425  10.194  0.6888  0.9726 -0.9930
 3176SOL     OW21163   1.455   1.581   2.364  0.0617 -0.0505 -0.2401
 3176SOL    HW121164   1.460   1.494   2.324 -0.9180  0.2839 -1.0941
 3176SOL    HW221165   1.362   1.601   2.378  0.1322 -0.0094  0.1769
 3177SOL     OW21166   2.250   1.231   4.673 -0.1987  0.1048 -0.4862
 3177SOL    HW121167   2.285   1.195   4.592  0.6869 -1.4655  0.5775
 3177SOL    HW221168   2.308   1.304   4.696  0.3585 -0.3700 -0.3841
 3178SOL     OW21169   3.288   1.483  10.006  0.1207 -0.5348 -0.5665
 3178SOL    HW121170   3.302   1.511  10.096 -0.3353 -1.9506 -0.0632
 3178SOL    HW221171   3.377   1.483   9.972  0.2636 -0.5272 -0.1862
 3179SOL     OW21172   3.734   4.220   2.811  0.2732 -0.6336 -0.7646
 3179SOL    HW121173   3.645   4.185   2.817 -1.5442  3.6818 -2.2688
 3179SOL    HW221174   3.781   4.141   2.837  0.3281 -1.4231 -3.2265
 3180SOL     OW21175   1.066   1.799  14.783 -0.1882  0.2925 -0.1269
 3180SOL    HW121176   1.073   1.874  14.724  2.6246  0.4983  0.4383
 3180SOL    HW221177   1.157   1.811  14.810 -0.0250  0.4109 -0.7236
 3181SOL     OW21178   1.617   1.154   6.792 -0.0409  0.2643 -0.3470
 3181SOL    HW121179   1.572   1.108   6.862 -1.6453  2.1732 -0.1205
 3181SOL    HW221180   1.656   1.074   6.757 -1.2813 -0.6505  0.3683
 3182SOL     OW21181   4.043   2.820   9.623 -0.0189  0.0461  0.0128
 3182SOL    HW121182   3.998   2.754   9.570 -0.8663  0.5364  0.1034
 3182SOL    HW221183   4.131   2.784   9.625  0.4981  1.1929 -1.7917
 3183SOL     OW21184   1.149   3.862   3.332 -0.4088 -0.2825  0.0314
 3183SOL    HW121185   1.122   3.925   3.398 -2.1976 -1.1737  0.1568
 3183SOL    HW221186   1.235   3.893   3.303 -0.3942 -1.4196 -1.1544
 3184SOL     OW21187   4.152   1.267   3.849 -0.3577 -0.8101  0.2266
 3184SOL    HW121188   4.123   1.177   3.861  0.7679 -1.4219 -1.5885
 3184SOL    HW221189   4.119   1.271   3.759 -1.8448  0.8022  0.8545
 3185SOL     OW21190   2.999   0.857   4.981 -0.5268  0.2572  0.0255
 3185SOL    HW121191   3.018   0.911   4.904  0.3940  0.0898  0.1396
 3185SOL    HW221192   2.989   0.773   4.937  1.5580 -1.2080  2.4064
 3186SOL     OW21193   2.303   1.007   3.805  0.2895 -0.4269  0.1422
 3186SOL    HW121194   2.339   1.094   3.819 -0.8726  0.2370 -0.9964
 3186SOL    HW221195   2.292   1.032   3.713 -0.4288  0.0018  0.3402
 3187SOL     OW21196   0.425   4.292   4.478  0.3407 -0.3798 -0.0131
 3187SOL    HW121197   0.376   4.344   4.414  0.9117  0.5040  0.2807
 3187SOL    HW221198   0.347   4.260   4.523  1.3604  1.0511  2.7417
 3188SOL     OW21199   0.879   0.663   6.018  0.1678  0.2787  0.2003
 3188SOL    HW121200   0.915   0.718   5.948 -2.4101 -0.4651 -1.6754
 3188SOL    HW221201   0.804   0.624   5.974 -0.0036  0.6614  0.1566
 3189SOL     OW21202   1.230   1.638  10.472 -0.2005 -0.3688  0.3564
 3189SOL    HW121203   1.195   1.718  10.433  0.5288 -0.0525  0.3453
 3189SOL    HW221204   1.279   1.669  10.548  0.4099  4.2655 -1.9641
 3190SOL     OW21205   0.291   3.146   5.387  0.4327  0.1153 -0.0789
 3190SOL    HW121206   0.238   3.074   5.353  1.1724  0.7959 -2.6430
 3190SOL    HW221207   0.349   3.112   5.455  0.8863  0.3391 -0.3558
 3191SOL     OW21208   1.050   1.318   4.168 -0.6220 -0.0046  0.5328
 3191SOL    HW121209   1.086   1.247   4.221 -0.6718  0.4984  1.2399
 3191SOL    HW221210   0.976   1.337   4.225 -1.8056  0.9749 -1.3073
 3192SOL     OW21211   1.262   2.404  10.793  0.4366 -0.6762 -0.1043
 3192SOL    HW121212   1.167   2.411  10.791  0.3529 -1.1990  1.9358
 3192SOL    HW221213   1.283   2.316  10.823  1.9449 -0.7482 -1.3320
 3193SOL     OW21214   2.980   4.010  15.758  0.0992  0.0287 -0.4893
 3193SOL    HW121215   3.043   3.939  15.749 -0.9021 -0.6531 -2.0484
 3193SOL    HW221216   2.996   4.014  15.852  2.2381  1.0419 -0.8975
 3194SOL     OW21217   3.795   1.235   7.524  0.6379 -0.4633  0.2779
 3194SOL    HW121218   3.699   1.228   7.526  0.5486  0.3255 -1.8877
 3194SOL    HW221219   3.812   1.325   7.550  2.5616 -0.3601 -1.4110
 3195SOL     OW21220   1.458   1.735   8.199 -0.0723 -0.4003  0.1115
 3195SOL    HW121221   1.503   1.814   8.229  0.2263 -0.6662  0.3551
 3195SOL    HW221222   1.503   1.721   8.116  0.9041 -0.2774  0.6160
 3196SOL     OW21223   4.566   2.034  16.141  0.4814  0.1429  0.1216
 3196SOL    HW121224   4.510   2.104  16.108  2.7395  1.6409 -0.5395
 3196SOL    HW221225   4.505   1.976  16.186 -0.7788  1.7037  0.4381
 3197SOL     OW21226   2.653   1.127   1.310 -0.6286  0.0985 -0.7282
 3197SOL    HW121227   2.590   1.199   1.306  0.2061  0.7674 -2.0682
 3197SOL    HW221228   2.658   1.107   1.216 -0.5748 -2.4595 -0.1544
 3198SOL     OW21229   0.003   2.938   6.376 -0.3684  0.7055 -0.1996
 3198SOL    HW121230   0.044   2.906   6.296 -0.1283 -0.7235  0.4865
 3198SOL    HW221231   0.071   2.909   6.438 -1.3111  1.5275  1.2309
 3199SOL     OW21232   2.565   0.150   6.754  0.2338 -0.4001 -0.2584
 3199SOL    HW121233   2.498   0.215   6.775 -0.5835 -1.5341  0.6176
 3199SOL    HW221234   2.640   0.207   6.734 -1.1640  1.3243 -0.5291
 3200SOL     OW21235   0.990   0.194   3.415 -0.4683 -0.0983 -0.0334
 3200SOL    HW121236   1.045   0.272   3.427 -0.8882  0.1417  0.2968
 3200SOL    HW221237   1.037   0.152   3.343  0.1489 -0.6784  0.7032
 3201SOL     OW21238   3.132   0.619   8.653  0.3725  0.5101 -0.0738
 3201SOL    HW121239   3.218   0.653   8.680  0.8828  0.3424 -1.4711
 3201SOL    HW221240   3.086   0.703   8.650 -2.7736 -1.1647  2.4247
 3202SOL     OW21241   1.315   2.526   2.200  0.6197  0.1927  0.2693
 3202SOL    HW121242   1.400   2.531   2.157  0.7011 -0.8730  0.3022
 3202SOL    HW221243   1.322   2.599   2.262  1.0803 -0.0609  0.5146
 3203SOL     OW21244   2.919   1.586   3.000 -0.2541  0.3136 -0.0959
 3203SOL    HW121245   2.892   1.675   2.975 -1.8292 -0.5733 -1.5616
 3203SOL    HW221246   2.967   1.563   2.921  0.9657 -1.0433  1.0383
 3204SOL     OW21247   0.999   4.583   0.844 -0.4262  0.5346 -0.0505
 3204SOL    HW121248   1.015   4.673   0.873 -2.8858  1.1222 -0.5012
 3204SOL    HW221249   0.973   4.607   0.755  2.2265 -2.8690 -1.7291
 3205SOL     OW21250   3.231   0.857   8.430  0.0119 -0.3067 -0.3322
 3205SOL    HW121251   3.211   0.800   8.356  0.0787 -1.2530  0.3913
 3205SOL    HW221252   3.297   0.809   8.479 -0.0749  0.9104  0.9793
 3206SOL     OW21253   0.421   4.415   3.986 -0.5269  0.1625 -0.2549
 3206SOL    HW121254   0.354   4.355   3.953 -0.8638  0.3335  0.1167
 3206SOL    HW221255   0.501   4.365   3.970 -2.0759 -2.0137 -1.2168
 3207SOL     OW21256   0.962   2.377   4.524  0.1369 -0.0856  0.6054
 3207SOL    HW121257   1.033   2.375   4.589  0.1576  2.1141  0.6820
 3207SOL    HW221258   0.892   2.430   4.564  0.0939  1.0160 -0.9038
 3208SOL     OW21259   1.423   3.764   3.403 -0.1633 -0.9925 -0.4416
 3208SOL    HW121260   1.443   3.674   3.377  1.3939 -0.2827 -1.6422
 3208SOL    HW221261   1.328   3.762   3.389 -0.0219  1.3341 -1.6411
 3209SOL     OW21262   1.442   0.083  11.498 -0.6643  0.1965  0.0259
 3209SOL    HW121263   1.499   0.006  11.508  0.3495  0.8939 -0.3922
 3209SOL    HW221264   1.360   0.036  11.483 -0.8132  0.3647  0.3210
 3210SOL     OW21265   2.920   2.341   4.882 -0.1887 -0.2986  0.2215
 3210SOL    HW121266   2.983   2.409   4.857 -0.1421 -0.3824  0.1121
 3210SOL    HW221267   2.888   2.309   4.798 -1.8639  0.0411  0.7409
 3211SOL     OW21268   2.333   0.182   6.545 -0.2875 -0.1778  0.3270
 3211SOL    HW121269   2.324   0.144   6.457  1.0018  0.2665  0.0179
 3211SOL    HW221270   2.314   0.102   6.595 -0.2014  0.1841  0.9344
 3212SOL     OW21271   3.440   4.693   4.243 -0.0027 -0.4744  0.5163
 3212SOL    HW121272   3.533   4.676   4.224  0.2881  1.3674  0.3136
 3212SOL    HW221273   3.418   4.638   4.318 -2.1898  0.2381  0.3786
 3213SOL     OW21274   1.810   0.188   8.173 -0.4620 -0.0603  0.2332
 3213SOL    HW121275   1.903   0.181   8.154 -0.7710 -1.0918 -0.9079
 3213SOL    HW221276   1.810   0.125   8.245  3.4010 -1.3080 -0.8601
 3214SOL     OW21277   2.510   0.255   2.155  0.3282 -0.4217 -0.0951
 3214SOL    HW121278   2.474   0.222   2.237 -1.2441 -1.3271 -1.1334
 3214SOL    HW221279   2.464   0.210   2.084 -1.5484 -0.6258  1.2475
 3215SOL     OW21280   1.881   3.954   5.801 -0.8121  0.3514  0.1623
 3215SOL    HW121281   1.899   3.886   5.867 -1.2991 -0.1170 -0.1820
 3215SOL    HW221282   1.836   4.016   5.859 -1.4234  0.0040  0.0635
 3216SOL     OW21283   1.556   2.137   9.174 -0.3050 -0.4465 -0.5800
 3216SOL    HW121284   1.610   2.215   9.186 -0.7286 -0.6294  2.5390
 3216SOL    HW221285   1.577   2.121   9.082  0.9897 -0.3256 -0.3093
 3217SOL     OW21286   3.413   3.777   8.442  0.0877  0.0503  0.4582
 3217SOL    HW121287   3.329   3.743   8.413  0.8744  0.6442 -2.4781
 3217SOL    HW221288   3.417   3.751   8.534  0.4081  2.2977  1.0833
 3218SOL     OW21289   2.337   0.003   7.606 -0.1890  0.0073  0.7385
 3218SOL    HW121290   2.241   4.732   7.606 -0.2443  0.7108  0.0152
 3218SOL    HW221291   2.350   4.673   7.538  0.0911  1.7188 -0.8739
 3219SOL     OW21292   1.718   3.608   1.602 -0.5657 -0.1863 -0.4393
 3219SOL    HW121293   1.677   3.555   1.669 -2.0559 -0.2323 -1.3868
 3219SOL    HW221294   1.753   3.535   1.551  1.3339 -0.1266  0.7887
 3220SOL     OW21295   1.636   0.618   0.603 -0.1335  0.2099 -0.2215
 3220SOL    HW121296   1.541   0.626   0.610 -0.2068 -2.1509  1.5229
 3220SOL    HW221297   1.661   0.703   0.638 -1.4294  0.1033  0.9580
 3221SOL     OW21298   3.860   4.267   4.942  0.7848  0.3859  0.2430
 3221SOL    HW121299   3.803   4.281   5.018  0.1802  0.2351 -0.1771
 3221SOL    HW221300   3.905   4.351   4.933 -0.3703  1.1118  1.1809
 3222SOL     OW21301   0.529   3.295   4.048 -0.2420  0.2957 -0.3139
 3222SOL    HW121302   0.535   3.308   4.143 -1.5181  1.2280 -0.3697
 3222SOL    HW221303   0.449   3.243   4.045  0.1285 -0.2454 -0.9884
 3223SOL     OW21304   3.874   4.001   4.879  0.0593 -0.3532 -0.4563
 3223SOL    HW121305   3.874   4.088   4.918  0.5268  0.0518 -1.3511
 3223SOL    HW221306   3.785   4.010   4.844 -1.6740 -2.1618  3.4430
 3224SOL     OW21307   3.842   0.720   8.849  0.6111  0.2164  0.2520
 3224SOL    HW121308   3.810   0.752   8.765 -0.3742  0.1351  0.6053
 3224SOL    HW221309   3.896   0.797   8.867 -1.5445  1.8867 -0.5376
 3225SOL     OW21310   4.598   3.829   8.344  0.2210  0.1542 -0.7576
 3225SOL    HW121311   4.512   3.869   8.355  0.5583  0.7107 -0.1482
 3225SOL    HW221312   4.587   3.752   8.400 -1.0955 -0.4835 -1.8784
 3226SOL     OW21313   3.297   4.398   6.925 -0.1143 -0.6600 -0.0071
 3226SOL    HW121314   3.336   4.471   6.975  0.6053 -0.0458 -1.4549
 3226SOL    HW221315   3.344   4.325   6.965  1.6824  1.1235  1.1716
 3227SOL     OW21316   4.089   0.713   4.283 -0.5150  0.8071 -0.4390
 3227SOL    HW121317   4.016   0.713   4.344 -1.3552 -0.9421 -1.4498
 3227SOL    HW221318   4.046   0.742   4.202  1.4580  0.7528 -1.4985
 3228SOL     OW21319   1.025   4.572   5.949 -0.6556  0.7858  0.0246
 3228SOL    HW121320   0.944   4.594   5.903 -0.5653 -0.1282 -0.5765
 3228SOL    HW221321   0.995   4.572   6.040  0.2927  1.6860  0.3308
 3229SOL     OW21322   3.634   1.946   5.437 -0.1566 -0.0627  0.3536
 3229SOL    HW121323   3.563   1.903   5.390 -0.6816 -1.4174  2.3765
 3229SOL    HW221324   3.595   1.938   5.524 -1.0572 -0.1352 -0.0562
 3230SOL     OW21325   1.234   3.313   3.905  0.4646  0.2858 -0.2717
 3230SOL    HW121326   1.150   3.327   3.862  0.1373  1.5369  0.7882
 3230SOL    HW221327   1.203   3.306   3.996  0.1320 -1.1164 -0.4997
 3231SOL     OW21328   2.413   2.438   8.812  0.1331 -0.5450  0.1348
 3231SOL    HW121329   2.401   2.428   8.717 -0.8605 -0.2956  0.2378
 3231SOL    HW221330   2.358   2.367   8.844  0.2894 -1.9625 -2.7064
 3232SOL     OW21331   2.936   0.832   2.963  0.0270  0.1871 -0.0655
 3232SOL    HW121332   2.975   0.919   2.950  1.7581 -0.7179 -0.9843
 3232SOL    HW221333   2.841   0.840   2.950 -0.3794 -0.0698  2.8293
 3233SOL     OW21334   0.817   3.430  15.286  0.0241 -0.7586 -0.3062
 3233SOL    HW121335   0.787   3.350  15.328 -0.8097  0.1787  0.8912
 3233SOL    HW221336   0.902   3.439  15.328 -0.4463  1.0656  0.2569
 3234SOL     OW21337   2.704   1.742   9.380  0.3083  0.4980  0.0643
 3234SOL    HW121338   2.777   1.802   9.394  0.1878  0.2972  1.6626
 3234SOL    HW221339   2.672   1.724   9.469  3.3851  0.9558  1.2586
 3235SOL     OW21340   2.557   2.234   6.449 -0.1198  0.7288  0.3382
 3235SOL    HW121341   2.490   2.191   6.502  1.2867 -0.0783  1.4474
 3235SOL    HW221342   2.525   2.187   6.371  1.7444 -0.2472  0.1696
 3236SOL     OW21343   3.563   1.020   4.500  0.1506  0.1147 -0.1905
 3236SOL    HW121344   3.512   0.949   4.539  0.2754  0.0401 -0.1644
 3236SOL    HW221345   3.496   1.087   4.516  0.1107  0.2210 -0.8262
 3237SOL     OW21346   2.219   1.077  13.632 -0.0158  0.3450  0.5815
 3237SOL    HW121347   2.236   1.136  13.558  0.5315  0.2894  0.6595
 3237SOL    HW221348   2.134   1.049  13.600 -0.0560  0.4793  0.5701
 3238SOL     OW21349   4.685   3.690   4.509 -0.2813  0.4219  0.3159
 3238SOL    HW121350   4.664   3.657   4.596 -2.1847  3.5641  1.0044
 3238SOL    HW221351   4.664   3.782   4.522 -3.8408  0.0655 -2.8243
 3239SOL     OW21352   0.103   3.350   2.467 -0.0374  0.2054 -0.2046
 3239SOL    HW121353   0.138   3.343   2.378  1.4548 -0.1612  0.4135
 3239SOL    HW221354   0.009   3.350   2.448 -0.0555 -2.2855 -0.1739
 3240SOL     OW21355   3.783   2.151   5.683  0.2747  0.3010 -1.0742
 3240SOL    HW121356   3.810   2.130   5.594  0.6288 -0.5596 -0.7646
 3240SOL    HW221357   3.846   2.100   5.734  0.7314  3.3093  1.3766
 3241SOL     OW21358   4.466   0.976   2.648  0.5067  0.9870 -0.1892
 3241SOL    HW121359   4.372   0.959   2.649  0.8288 -0.7355  0.2881
 3241SOL    HW221360   4.492   0.944   2.562  2.0784 -0.8268  0.9765
 3242SOL     OW21361   2.297   0.414   1.418  0.4648  0.5453 -0.2249
 3242SOL    HW121362   2.329   0.496   1.455 -1.6424  0.7233  1.1782
 3242SOL    HW221363   2.211   0.451   1.398 -0.8022 -1.9783  0.4636
 3243SOL     OW21364   2.704   4.179   1.014  0.5424 -0.3023  0.7547
 3243SOL    HW121365   2.634   4.243   1.020  1.1507  0.5081 -0.5882
 3243SOL    HW221366   2.761   4.217   0.946  0.0207  0.3980  0.7197
 3244SOL     OW21367   1.755   0.821  12.505 -0.0053 -0.3646  0.1244
 3244SOL    HW121368   1.795   0.742  12.541  0.7924 -0.4983 -1.0260
 3244SOL    HW221369   1.673   0.788  12.467 -0.5850  2.3171 -0.9709
 3245SOL     OW21370   3.739   2.674  11.138  0.0153  0.5657  0.3864
 3245SOL    HW121371   3.804   2.646  11.202  0.2928  1.3855  0.4559
 3245SOL    HW221372   3.687   2.593  11.141 -1.2985  1.2852 -2.9180
 3246SOL     OW21373   4.233   3.291   4.940 -0.0867 -0.1276  0.3555
 3246SOL    HW121374   4.277   3.344   4.873  1.0787 -0.1128  1.1228
 3246SOL    HW221375   4.303   3.251   4.992  0.7780 -3.2119 -3.1693
 3247SOL     OW21376   3.610   0.341   3.723  0.3019  0.2577  0.1010
 3247SOL    HW121377   3.524   0.376   3.699  0.3911  1.2689  1.2331
 3247SOL    HW221378   3.666   0.359   3.648  0.2472 -0.5048 -0.1178
 3248SOL     OW21379   4.386   1.723   3.576  0.4830  0.6601 -0.1677
 3248SOL    HW121380   4.472   1.682   3.580  1.7344  3.2568 -0.5544
 3248SOL    HW221381   4.331   1.676   3.639  0.3030  0.9830 -0.0795
 3249SOL     OW21382   0.047   4.092   8.643 -0.1680  0.4269  0.0141
 3249SOL    HW121383   4.725   4.029   8.685  2.0664 -1.3877  0.3979
 3249SOL    HW221384   0.133   4.059   8.671 -0.4632 -0.0531  0.3572
 3250SOL     OW21385   3.210   3.438   7.993  0.0196  0.4743  0.3689
 3250SOL    HW121386   3.192   3.380   8.068 -0.3778 -0.8538 -0.7590
 3250SOL    HW221387   3.303   3.455   8.001 -0.0257  1.4829 -1.3228
 3251SOL     OW21388   3.487   2.045   3.206 -0.5585  0.6796 -0.3976
 3251SOL    HW121389   3.460   2.132   3.236 -1.1814  0.4649 -0.3181
 3251SOL    HW221390   3.406   2.002   3.176 -1.6194 -0.3692  3.9301
 3252SOL     OW21391   1.910   3.842  16.141  0.0840 -0.4953 -0.7131
 3252SOL    HW121392   1.849   3.915  16.159 -0.2866 -1.3404  1.5310
 3252SOL    HW221393   1.987   3.868  16.192 -0.2370 -1.8281  0.4515
 3253SOL     OW21394   3.893   2.522  12.466  0.3942 -0.7596  0.2084
 3253SOL    HW121395   3.919   2.496  12.555  2.0013  0.3562  0.0611
 3253SOL    HW221396   3.821   2.583  12.478  1.0262  0.2380 -1.1159
 3254SOL     OW21397   4.086   4.276  17.273  0.3852  0.3489  0.2674
 3254SOL    HW121398   3.994   4.275  17.249  0.9164  2.3184 -1.8778
 3254SOL    HW221399   4.125   4.328  17.203 -1.3957  1.0136 -0.2120
 3255SOL     OW21400   3.468   2.386   8.393 -0.6948 -0.6008  0.3913
 3255SOL    HW121401   3.462   2.481   8.394  0.8109 -0.5049  0.1085
 3255SOL    HW221402   3.430   2.373   8.480  2.5790 -2.2452  1.5851
 3256SOL     OW21403   3.348   4.555  13.060  0.1019  0.7730 -0.0230
 3256SOL    HW121404   3.367   4.489  13.127  0.1827 -0.7027 -1.4983
 3256SOL    HW221405   3.269   4.599  13.092 -1.2639 -0.8887 -1.1292
 3257SOL     OW21406   4.210   2.076   0.698 -0.8908 -0.1322 -0.3486
 3257SOL    HW121407   4.163   2.062   0.780 -1.3838 -2.1402 -0.9526
 3257SOL    HW221408   4.145   2.070   0.627  0.2849  1.2391 -1.5385
 3258SOL     OW21409   0.948   2.981  15.054 -0.4003 -0.2045 -0.5134
 3258SOL    HW121410   0.980   3.070  15.039 -1.8044  0.5875  1.3258
 3258SOL    HW221411   1.034   2.938  15.055 -1.5948 -2.5943 -0.3689
 3259SOL     OW21412   3.972   0.595   1.231  0.1960 -0.0080 -0.1264
 3259SOL    HW121413   4.021   0.569   1.152  1.6142  1.2649  0.3148
 3259SOL    HW221414   3.955   0.510   1.271  0.4572 -0.1835 -0.3847
 3260SOL     OW21415   2.965   4.305   1.123 -0.1742 -0.2852 -0.4849
 3260SOL    HW121416   2.916   4.354   1.057  1.6067  0.4621 -1.2308
 3260SOL    HW221417   2.895   4.274   1.182  1.1326 -0.1530  1.1413
 3261SOL     OW21418   3.312   3.669   6.214 -0.6905  0.0676 -0.6161
 3261SOL    HW121419   3.397   3.698   6.246 -1.3874  0.9553  0.4498
 3261SOL    HW221420   3.323   3.578   6.239  1.1298  0.5227  0.2087
 3262SOL     OW21421   3.003   0.847  13.543  0.4373 -0.0380  0.1085
 3262SOL    HW121422   3.087   0.800  13.544  1.1804  1.2757 -0.5212
 3262SOL    HW221423   3.023   0.935  13.512 -1.5444  0.6502  0.8074
 3263SOL     OW21424   4.286   0.786   8.548  0.1339 -0.7893  0.1945
 3263SOL    HW121425   4.193   0.805   8.532 -0.1928  0.0570  3.1177
 3263SOL    HW221426   4.326   0.830   8.473 -2.2805 -2.2141 -1.9349
 3264SOL     OW21427   0.840   4.030  14.885  0.1489  0.6299 -0.2684
 3264SOL    HW121428   0.884   3.951  14.918  1.9072  2.8280  2.5844
 3264SOL    HW221429   0.755   4.015  14.926  0.6084 -0.3000  0.3613
 3265SOL     OW21430   3.324   3.089  13.616 -0.1407 -0.5428 -0.7137
 3265SOL    HW121431   3.361   3.167  13.575  1.0194 -0.5238  0.3457
 3265SOL    HW221432   3.323   3.035  13.538 -1.1405 -1.6744  0.0913
 3266SOL     OW21433   2.505   1.307   7.012  0.0795  0.0701 -0.0069
 3266SOL    HW121434   2.458   1.239   6.964 -1.1709 -0.0384  1.4044
 3266SOL    HW221435   2.448   1.384   7.007  0.6646  0.6119  1.6185
 3267SOL     OW21436   3.639   2.813  12.719 -0.7011  0.2062  0.2188
 3267SOL    HW121437   3.565   2.791  12.775  0.4085 -1.2186  1.1335
 3267SOL    HW221438   3.713   2.821  12.779 -0.7946 -3.9921  0.8823
 3268SOL     OW21439   4.312   3.032   4.479  0.1210  0.4750  0.4948
 3268SOL    HW121440   4.243   3.052   4.416 -0.0786 -0.2855  0.4785
 3268SOL    HW221441   4.266   2.972   4.538  0.7298 -1.3261 -0.8788
 3269SOL     OW21442   0.431   3.178   8.378 -0.2697 -0.2127 -0.2150
 3269SOL    HW121443   0.354   3.215   8.421 -1.2253 -0.6248 -1.5532
 3269SOL    HW221444   0.407   3.164   8.286  1.4477 -2.4679 -0.3309
 3270SOL     OW21445   2.088   4.676   3.735 -0.0661  0.6238  0.0722
 3270SOL    HW121446   2.127   4.602   3.780 -2.3471  0.9044  2.4890
 3270SOL    HW221447   2.162   4.727   3.702  0.9460 -0.6588  0.3591
 3271SOL     OW21448   2.788   0.945   0.071  0.5852  0.0250 -0.0705
 3271SOL    HW121449   2.739   0.988   0.001  0.5233  0.9644  0.5577
 3271SOL    HW221450   2.724   0.933   0.142  0.9384 -1.7949 -0.0581
 3272SOL     OW21451   0.130   1.954   2.790  0.3176  0.2865  0.0008
 3272SOL    HW121452   0.047   1.938   2.746  0.7201  2.0303 -1.4017
 3272SOL    HW221453   0.151   2.045   2.770  0.0112  0.3273 -0.1362
 3273SOL     OW21454   3.075   0.838   3.614  0.0815  0.2455  0.1948
 3273SOL    HW121455   3.108   0.859   3.702  0.9253 -0.9878  0.1837
 3273SOL    HW221456   3.011   0.908   3.602  1.3991  1.1206 -1.5300
 3274SOL     OW21457   1.153   1.568   9.033  1.2134  0.1805  0.0967
 3274SOL    HW121458   1.180   1.505   8.966 -0.0519  0.9341 -1.1354
 3274SOL    HW221459   1.067   1.528   9.049 -0.5321  3.1145 -1.8523
 3275SOL     OW21460   3.691   4.314   0.971 -0.0701  0.5997  0.1701
 3275SOL    HW121461   3.762   4.353   1.023 -0.2614 -0.0419  0.9072
 3275SOL    HW221462   3.670   4.389   0.915 -0.3464  0.3592 -0.0432
 3276SOL     OW21463   4.668   0.315   5.792  0.2932  0.6533 -0.2784
 3276SOL    HW121464   4.577   0.340   5.807  0.8172  2.6765 -0.4752
 3276SOL    HW221465   4.679   0.258   5.868 -1.1309  2.5365  1.3328
 3277SOL     OW21466   1.672   4.426   4.710  0.0080  0.0304 -0.2168
 3277SOL    HW121467   1.608   4.379   4.658  1.1790 -1.7711 -0.0285
 3277SOL    HW221468   1.670   4.520   4.689  1.7535  0.8663  3.3698
 3278SOL     OW21469   0.333   2.491   8.070 -0.1096  0.0864 -0.0937
 3278SOL    HW121470   0.303   2.430   8.137 -0.7461 -1.2113 -1.5579
 3278SOL    HW221471   0.411   2.530   8.109  0.7484 -1.8269  0.1399
 3279SOL     OW21472   4.140   4.131   8.661  0.5976 -0.6235 -1.3538
 3279SOL    HW121473   4.101   4.129   8.749 -0.8833 -0.5971 -2.0038
 3279SOL    HW221474   4.235   4.127   8.669  0.3828  0.3045  1.7055
 3280SOL     OW21475   4.036   0.725   9.322  0.4383 -0.4637 -0.5987
 3280SOL    HW121476   4.016   0.641   9.281 -0.9887 -0.7946  0.8045
 3280SOL    HW221477   4.114   0.749   9.272  1.3751 -1.2741  0.5073
 3281SOL     OW21478   4.673   0.344   8.149  0.7405  0.3265  0.4705
 3281SOL    HW121479   4.631   0.258   8.153 -1.6936  1.6305  3.1694
 3281SOL    HW221480   4.605   0.395   8.194 -1.0096 -2.1963  0.6854
 3282SOL     OW21481   2.310   2.589  15.060  0.0162  0.8189  0.2680
 3282SOL    HW121482   2.243   2.643  15.019  0.4084  2.6381  2.0309
 3282SOL    HW221483   2.290   2.623  15.147 -3.5180 -0.4072 -0.0714
 3283SOL     OW21484   1.299   3.533  16.720  0.3686 -0.3051  0.0082
 3283SOL    HW121485   1.236   3.595  16.757  0.6356 -0.9779  1.5740
 3283SOL    HW221486   1.263   3.529  16.632 -0.1506 -0.3820  0.2230
 3284SOL     OW21487   0.760   3.369   1.637  0.3337  0.5028  0.3140
 3284SOL    HW121488   0.817   3.409   1.571 -1.7544 -0.7218 -2.2146
 3284SOL    HW221489   0.793   3.401   1.721  0.0209  0.5362  0.4242
 3285SOL     OW21490   4.155   3.923   9.735  0.3583  0.1479  0.4368
 3285SOL    HW121491   4.181   3.982   9.663 -0.0967 -0.3499 -0.1341
 3285SOL    HW221492   4.069   3.960   9.754 -0.2946 -1.2212  0.1077
 3286SOL     OW21493   2.736   4.147   4.599  0.4793  0.5399  0.0050
 3286SOL    HW121494   2.700   4.231   4.571  0.2959  0.5484  0.2637
 3286SOL    HW221495   2.654   4.104   4.626  1.9138 -1.5563  0.9806
 3287SOL     OW21496   2.119   2.006   8.118  0.5748  0.4337 -0.6937
 3287SOL    HW121497   2.063   1.930   8.103  0.1503  0.7466 -0.7103
 3287SOL    HW221498   2.053   2.075   8.105  1.9004  1.7441 -0.4830
 3288SOL     OW21499   3.088   1.567   8.669  0.4164  0.0611 -0.5118
 3288SOL    HW121500   3.101   1.657   8.638  2.0921  0.2567  0.7292
 3288SOL    HW221501   3.027   1.574   8.742  0.9242  0.3622 -0.1150
 3289SOL     OW21502   3.285   1.196   1.926  0.5825  0.2823 -0.3957
 3289SOL    HW121503   3.352   1.130   1.945 -2.8868 -3.0563  0.2387
 3289SOL    HW221504   3.227   1.153   1.863 -2.3819  0.7498  2.0777
 3290SOL     OW21505   1.845   3.666   5.414  0.5003 -0.3457 -0.2943
 3290SOL    HW121506   1.760   3.697   5.385 -0.1382 -1.1814  0.6548
 3290SOL    HW221507   1.896   3.665   5.333  4.0695 -1.0332  1.9524
 3291SOL     OW21508   4.510   2.519   4.955 -0.2612  0.0753 -0.5456
 3291SOL    HW121509   4.415   2.522   4.950 -0.2906 -0.2270 -0.1772
 3291SOL    HW221510   4.533   2.571   4.878  0.5308 -0.6842 -0.8284
 3292SOL     OW21511   1.180   3.732   1.791 -0.4133  0.1000 -0.8809
 3292SOL    HW121512   1.174   3.828   1.793 -1.5968 -0.0028  0.4347
 3292SOL    HW221513   1.165   3.716   1.698 -0.0257 -1.2361 -0.7161
 3293SOL     OW21514   2.965   2.851   3.732 -0.0786  0.4575  0.4204
 3293SOL    HW121515   2.871   2.845   3.749 -0.3786  1.2747 -0.9364
 3293SOL    HW221516   2.969   2.810   3.646  0.0037 -0.4108  0.8448
 3294SOL     OW21517   4.420   3.195   3.655  0.1878  0.1916 -0.1356
 3294SOL    HW121518   4.510   3.169   3.675 -0.1310  0.2303  1.3414
 3294SOL    HW221519   4.429   3.191   3.560 -0.1369  0.2763 -0.1704
 3295SOL     OW21520   0.304   3.813  13.698 -0.2725  0.0678  0.3600
 3295SOL    HW121521   0.382   3.864  13.677 -0.4496  0.7863  1.4741
 3295SOL    HW221522   0.334   3.763  13.774  0.9311 -0.4965 -0.4859
 3296SOL     OW21523   4.433   1.358  11.365  0.2974 -0.0534 -0.0878
 3296SOL    HW121524   4.404   1.374  11.455  1.7407  0.3875  0.2995
 3296SOL    HW221525   4.396   1.272  11.347 -0.1289  0.1797 -0.3353
 3297SOL     OW21526   1.110   3.286   5.316 -0.2950 -0.2808 -0.1933
 3297SOL    HW121527   1.075   3.264   5.230  0.4114 -1.2028 -0.2436
 3297SOL    HW221528   1.032   3.309   5.366 -0.8649 -1.1743 -0.6846
 3298SOL     OW21529   0.775   3.507   7.570 -0.3731 -0.0769  0.0075
 3298SOL    HW121530   0.735   3.593   7.556 -3.3520 -1.3269  0.8057
 3298SOL    HW221531   0.780   3.496   7.665 -0.6249 -2.0620 -0.2127
 3299SOL     OW21532   1.803   3.597  10.934 -0.0467  0.6055  0.2069
 3299SOL    HW121533   1.897   3.614  10.947  0.6411 -3.3747  0.3136
 3299SOL    HW221534   1.792   3.561  10.847 -0.1330  1.0792  0.0221
 3300SOL     OW21535   3.036   3.356  11.524  0.1632 -0.1367 -0.2555
 3300SOL    HW121536   2.986   3.409  11.587 -1.1350  1.0241 -2.2668
 3300SOL    HW221537   2.962   3.332  11.468  0.1796 -2.4451  0.7220
 3301SOL     OW21538   3.895   2.523   3.621  0.1226 -0.6346  0.4133
 3301SOL    HW121539   3.950   2.573   3.682  0.0895 -0.3629  0.2234
 3301SOL    HW221540   3.853   2.589   3.565  0.5647 -1.6943 -1.1794
 3302SOL     OW21541   3.068   2.752   2.891 -0.2765 -0.3626 -1.0650
 3302SOL    HW121542   3.052   2.814   2.962  2.8199  2.1012 -2.5016
 3302SOL    HW221543   3.012   2.687   2.934  1.0531 -1.2643 -0.7070
 3303SOL     OW21544   3.460   4.286   3.498 -0.1468 -0.5415  0.7182
 3303SOL    HW121545   3.437   4.305   3.407  0.3327 -1.0955  0.4850
 3303SOL    HW221546   3.389   4.236   3.538 -0.0160 -1.1495  0.1874
 3304SOL     OW21547   1.870   4.386   8.480 -0.2497  0.2087  0.2911
 3304SOL    HW121548   1.782   4.411   8.507  0.0052  0.0219  1.3307
 3304SOL    HW221549   1.923   4.434   8.543  0.6244  0.1390 -0.4010
 3305SOL     OW21550   4.411   1.631   2.258 -0.5692 -0.1410 -0.4208
 3305SOL    HW121551   4.442   1.663   2.343 -0.8646  1.3323 -0.8623
 3305SOL    HW221552   4.396   1.537   2.258 -0.9274 -0.0769  0.3559
 3306SOL     OW21553   3.001   4.146   4.525 -0.3030  0.5263  0.0259
 3306SOL    HW121554   2.925   4.170   4.578 -0.2770 -1.5511  1.0223
 3306SOL    HW221555   3.019   4.217   4.464  0.1850  0.3924  0.0105
 3307SOL     OW21556   1.625   4.735   2.808  0.6116 -0.3228  0.1173
 3307SOL    HW121557   1.679   0.078   2.799 -0.0628  0.3271  1.7543
 3307SOL    HW221558   1.536   0.014   2.776  0.9591  0.9569 -0.2545
 3308SOL     OW21559   0.716   2.661   6.295 -0.1809  0.4125 -0.5496
 3308SOL    HW121560   0.776   2.596   6.261 -0.3365 -1.3559  2.5505
 3308SOL    HW221561   0.637   2.643   6.244  0.4377  2.9097 -2.4013
 3309SOL     OW21562   2.865   0.816   7.574  0.5020  0.0665 -0.2549
 3309SOL    HW121563   2.864   0.908   7.547  0.3680 -0.1911 -1.1574
 3309SOL    HW221564   2.771   0.806   7.586  0.4502  1.7475  0.6831
 3310SOL     OW21565   3.335   0.152   1.112  0.3475  0.0571 -0.0029
 3310SOL    HW121566   3.325   0.165   1.207 -1.2989  1.1088 -0.3205
 3310SOL    HW221567   3.378   0.067   1.101  1.3277  0.4280  0.9542
 3311SOL     OW21568   4.564   4.666   6.771  0.4032  0.4381 -0.1481
 3311SOL    HW121569   4.471   4.668   6.789  0.6841  1.1158  1.1914
 3311SOL    HW221570   4.588   4.613   6.847  0.9346  0.5584 -0.2274
 3312SOL     OW21571   1.514   4.289  13.385 -0.0548  0.9090 -0.0835
 3312SOL    HW121572   1.562   4.371  13.373 -0.6084  1.6043  2.4756
 3312SOL    HW221573   1.501   4.290  13.480 -1.2489  1.7499 -0.2657
 3313SOL     OW21574   1.570   4.593   3.977 -0.2859 -0.3408 -0.1913
 3313SOL    HW121575   1.496   4.648   4.004 -1.8539 -2.8237  0.5530
 3313SOL    HW221576   1.642   4.656   3.978 -0.6012  0.0158  0.0961
 3314SOL     OW21577   1.961   4.172  16.490  0.0592 -0.1629  0.1561
 3314SOL    HW121578   2.032   4.108  16.498 -0.0146 -0.2770 -0.0904
 3314SOL    HW221579   1.898   4.130  16.548  1.4441  0.0908  1.8358
 3315SOL     OW21580   3.820   4.721   7.138  0.1297 -0.0022  0.9417
 3315SOL    HW121581   3.896   4.735   7.082 -0.5146 -0.9724 -0.1837
 3315SOL    HW221582   3.790   4.633   7.114  0.3925  0.0819  0.3255
 3316SOL     OW21583   2.414   3.675   7.718 -0.4956  0.3180  0.1329
 3316SOL    HW121584   2.322   3.652   7.704 -0.4051 -1.6214  2.5454
 3316SOL    HW221585   2.463   3.609   7.670  1.3712  0.7289  1.4822
 3317SOL     OW21586   0.259   0.923   8.261  0.4217 -0.5975 -0.2458
 3317SOL    HW121587   0.314   0.911   8.183 -1.3041  1.8973 -1.8635
 3317SOL    HW221588   0.176   0.925   8.214 -0.1100 -0.0177  0.7230
 3318SOL     OW21589   0.969   4.202   6.569 -0.2964 -0.3844 -0.5463
 3318SOL    HW121590   0.897   4.142   6.549 -0.6352  0.0992 -0.7783
 3318SOL    HW221591   0.939   4.292   6.557 -1.3131 -0.5930  0.3836
 3319SOL     OW21592   3.027   3.988  15.376 -0.0662  0.1622  0.0658
 3319SOL    HW121593   2.961   3.931  15.417 -0.0878  0.9202  1.0715
 3319SOL    HW221594   2.999   3.996  15.285  1.4332  3.3154 -0.1200
 3320SOL     OW21595   4.162   2.676   3.800  0.2213 -0.2839 -0.5041
 3320SOL    HW121596   4.184   2.752   3.852 -0.2193  0.9654 -2.1508
 3320SOL    HW221597   4.211   2.603   3.836 -1.0411  0.9828  3.7268
 3321SOL     OW21598   1.687   1.877   0.640  0.1282 -0.1044 -0.2934
 3321SOL    HW121599   1.728   1.960   0.665  0.2379  0.2313 -1.5695
 3321SOL    HW221600   1.758   1.855   0.579  0.8714 -0.0064  0.5474
 3322SOL     OW21601   3.525   1.352   3.699 -0.2971 -0.6932  0.0008
 3322SOL    HW121602   3.610   1.309   3.704 -0.5196 -1.2206 -0.6554
 3322SOL    HW221603   3.465   1.300   3.753 -1.4858  0.2510 -0.3981
 3323SOL     OW21604   4.236   2.997   4.971  0.4217 -0.7367 -0.5984
 3323SOL    HW121605   4.192   2.935   4.914  0.9242 -0.4400 -1.2999
 3323SOL    HW221606   4.189   3.078   4.952  0.1431 -0.7225  0.1243
 3324SOL     OW21607   4.518   2.456   5.849  0.1775 -0.0640  0.1656
 3324SOL    HW121608   4.555   2.523   5.791  0.6334 -0.4616 -0.0077
 3324SOL    HW221609   4.429   2.451   5.815  0.6110 -0.6646 -0.8812
 3325SOL     OW21610   1.167   1.609   3.245 -0.0526 -0.6961  0.1447
 3325SOL    HW121611   1.073   1.629   3.251  0.0942  0.5903 -1.5937
 3325SOL    HW221612   1.158   1.529   3.193 -3.5501 -0.7116  0.7652
 3326SOL     OW21613   3.202   3.095   5.412 -0.5493 -0.3288  0.2084
 3326SOL    HW121614   3.116   3.126   5.384 -0.3284  0.0765 -0.0147
 3326SOL    HW221615   3.219   3.164   5.477 -0.4089  1.0580 -1.3166
 3327SOL     OW21616   2.008   0.207   1.432  0.1274 -0.0821  0.4221
 3327SOL    HW121617   1.935   0.161   1.391 -1.5131  1.1390  1.9287
 3327SOL    HW221618   2.052   0.132   1.473 -1.6981 -1.1274  0.4719
 3328SOL     OW21619   1.155   2.113   7.391 -0.1928  0.0874  0.1026
 3328SOL    HW121620   1.193   2.167   7.322 -1.0334 -1.5379 -1.6571
 3328SOL    HW221621   1.180   2.163   7.468 -0.6393  1.9637 -0.9606
 3329SOL     OW21622   1.413   2.448   4.561  0.2368 -0.1803 -0.5474
 3329SOL    HW121623   1.393   2.358   4.589 -1.2633  0.1850 -0.4237
 3329SOL    HW221624   1.349   2.490   4.619  0.3061  0.5354 -0.9969
 3330SOL     OW21625   0.166   4.321  11.879  0.5851 -0.7510 -0.3842
 3330SOL    HW121626   0.203   4.285  11.960  0.2811 -1.9819 -0.7937
 3330SOL    HW221627   0.198   4.264  11.809  2.1489 -0.0787 -0.2276
 3331SOL     OW21628   2.254   4.367   1.684 -0.9970 -0.7502 -0.1541
 3331SOL    HW121629   2.205   4.310   1.624  1.5989 -1.1774 -1.8186
 3331SOL    HW221630   2.287   4.426   1.616 -1.0475  2.3144  2.4950
 3332SOL     OW21631   0.612   4.037   2.135 -0.1747  0.0927 -0.3703
 3332SOL    HW121632   0.691   4.089   2.144  0.5288 -0.7711 -1.5266
 3332SOL    HW221633   0.657   3.955   2.115 -1.3115 -0.7337  0.4784
 3333SOL     OW21634   3.320   1.138   8.428 -0.1443  0.0434  0.5563
 3333SOL    HW121635   3.307   1.044   8.430  1.5172 -0.1800  1.0100
 3333SOL    HW221636   3.241   1.163   8.477 -0.4883  1.6872 -0.8438
 3334SOL     OW21637   4.132   2.327   5.420  0.2530  0.8029 -0.1450
 3334SOL    HW121638   4.114   2.301   5.329 -3.8923 -2.3745  1.5805
 3334SOL    HW221639   4.051   2.376   5.439 -0.8891 -1.2514  0.2779
 3335SOL     OW21640   2.274   4.366   4.743 -0.3681 -0.1271  0.9304
 3335SOL    HW121641   2.182   4.390   4.740  0.4796  2.8917 -1.3019
 3335SOL    HW221642   2.283   4.333   4.653 -1.2457  2.3804 -0.0589
 3336SOL     OW21643   0.074   1.219   8.257 -0.6023 -0.1483 -0.4818
 3336SOL    HW121644   0.007   1.222   8.189 -1.9429  1.2045  0.8920
 3336SOL    HW221645   0.028   1.191   8.336  0.6200 -0.4317  0.1334
 3337SOL     OW21646   0.951   3.536   4.406 -0.1953 -0.0719  0.5124
 3337SOL    HW121647   0.978   3.574   4.489  0.0523  0.0234  0.3901
 3337SOL    HW221648   1.006   3.585   4.344 -2.0864  1.3572 -0.0429
 3338SOL     OW21649   3.298   3.233   4.649  0.1107  0.0161 -0.5903
 3338SOL    HW121650   3.354   3.179   4.704 -0.3209  0.1633 -0.0044
 3338SOL    HW221651   3.270   3.287   4.723  1.1443 -1.2488  0.7334
 3339SOL     OW21652   4.148   0.479   0.419 -0.0977 -0.8455  0.4703
 3339SOL    HW121653   4.220   0.538   0.438 -1.3795  0.2423  1.8658
 3339SOL    HW221654   4.078   0.543   0.433  1.3394  0.7554  0.2279
 3340SOL     OW21655   4.591   3.462   6.725  0.1694 -0.3684  0.2571
 3340SOL    HW121656   4.653   3.525   6.689  1.0260 -0.7503  1.0432
 3340SOL    HW221657   4.642   3.398   6.776  0.4987 -1.8168 -1.9080
 3341SOL     OW21658   1.155   1.610   6.869 -0.3302  0.5341  0.3944
 3341SOL    HW121659   1.069   1.581   6.837  0.0622  0.6701 -0.7912
 3341SOL    HW221660   1.215   1.578   6.802 -0.5104  0.9021  0.0494
 3342SOL     OW21661   1.239   0.555   7.462 -0.1069 -0.0637  0.0733
 3342SOL    HW121662   1.225   0.540   7.368  0.9320 -4.1815  0.6052
 3342SOL    HW221663   1.335   0.558   7.461 -0.0614 -1.8873 -0.4279
 3343SOL     OW21664   1.096   3.903   4.462  0.5490  0.3315  0.6860
 3343SOL    HW121665   1.059   3.894   4.374  1.1484 -0.1677  0.4883
 3343SOL    HW221666   1.037   3.852   4.518  0.6671 -0.5018  0.0431
 3344SOL     OW21667   2.036   1.020   9.041  0.2498 -0.7560 -0.4644
 3344SOL    HW121668   2.008   1.049   8.954 -1.6012 -0.2956  0.2861
 3344SOL    HW221669   2.090   1.092   9.072  1.3802 -1.6924 -0.2615
 3345SOL     OW21670   1.351   2.783   9.284  0.5760  0.5157 -0.3530
 3345SOL    HW121671   1.398   2.742   9.356  0.7768  1.2455 -0.0776
 3345SOL    HW221672   1.257   2.773   9.304  0.4348 -0.6007 -1.5319
 3346SOL     OW21673   4.394   0.653  15.835 -0.8851 -0.0016  0.1984
 3346SOL    HW121674   4.458   0.684  15.771 -2.4442  0.7878 -0.9716
 3346SOL    HW221675   4.331   0.619  15.772  1.5981 -2.1448 -1.1257
 3347SOL     OW21676   3.871   3.419   7.548 -0.2745  0.8142 -0.1332
 3347SOL    HW121677   3.884   3.370   7.629 -1.8987 -2.2012 -1.7208
 3347SOL    HW221678   3.888   3.360   7.474 -1.1858 -0.6165  0.8091
 3348SOL     OW21679   3.703   2.300   2.259  0.0411 -0.1262 -0.5241
 3348SOL    HW121680   3.667   2.212   2.273 -0.1332  0.3633  2.1632
 3348SOL    HW221681   3.706   2.336   2.347 -0.6055 -1.6472  0.1235
 3349SOL     OW21682   3.950   2.152   4.094 -0.8487 -0.7172 -0.0415
 3349SOL    HW121683   3.880   2.103   4.051 -1.5440  0.0592  0.1981
 3349SOL    HW221684   3.961   2.109   4.178 -3.1427  1.7180  1.4762
 3350SOL     OW21685   2.589   0.704  17.723 -0.8326  0.2864  0.2276
 3350SOL    HW121686   2.632   0.783   0.013 -0.7281  0.1941  0.3163
 3350SOL    HW221687   2.612   0.703  17.630 -0.6698  0.7835  0.2630
 3351SOL     OW21688   1.367   2.496   9.171  0.6050 -0.9935 -0.1614
 3351SOL    HW121689   1.321   2.539   9.244 -0.7592  0.2763 -1.7588
 3351SOL    HW221690   1.331   2.409   9.186 -1.1690 -0.0698  1.0014
 3352SOL     OW21691   1.678   2.813   4.044 -0.3492  0.1983 -0.0501
 3352SOL    HW121692   1.605   2.767   4.084 -1.5916 -0.1297 -2.6734
 3352SOL    HW221693   1.730   2.749   3.996  0.4541  0.0155  1.0696
 3353SOL     OW21694   0.006   3.011   9.009 -0.0514  0.6949 -0.9250
 3353SOL    HW121695   4.682   3.083   8.986 -1.6946 -0.4193 -0.0871
 3353SOL    HW221696   4.677   2.942   9.022  0.3408  0.6367  0.6508
 3354SOL     OW21697   0.207   2.886   7.027  0.5404 -0.4017 -0.4063
 3354SOL    HW121698   0.245   2.973   7.030 -0.4156  0.1610 -4.3817
 3354SOL    HW221699   0.277   2.824   7.008  1.8906  0.4013  1.9815
 3355SOL     OW21700   3.155   2.294  14.581 -0.8597  0.3056 -0.1301
 3355SOL    HW121701   3.115   2.220  14.535 -0.0062 -0.2677  0.0353
 3355SOL    HW221702   3.247   2.268  14.569 -1.0414 -1.2235  1.8857
 3356SOL     OW21703   2.752   1.432  11.962  0.8604  0.3866 -1.1272
 3356SOL    HW121704   2.809   1.360  11.933  0.4397 -0.6848  0.6874
 3356SOL    HW221705   2.667   1.389  11.963  0.3919  1.4642  5.0961
 3357SOL     OW21706   0.772   2.769   0.197 -0.3007 -0.6138 -0.0242
 3357SOL    HW121707   0.774   2.676   0.174  1.2738 -0.9892  1.6056
 3357SOL    HW221708   0.860   2.797   0.170  0.2028 -2.0466  0.1137
 3358SOL     OW21709   1.759   4.257   5.150 -1.0128  0.8128 -0.0308
 3358SOL    HW121710   1.796   4.291   5.069 -2.7666  1.0139 -0.7519
 3358SOL    HW221711   1.671   4.243   5.116 -1.9302 -1.2811  3.1605
 3359SOL     OW21712   1.872   0.845   9.232 -0.1330  0.4805  0.2530
 3359SOL    HW121713   1.951   0.895   9.208 -0.6370  2.0126  1.7685
 3359SOL    HW221714   1.834   0.906   9.295 -1.8733 -1.6463  1.2285
 3360SOL     OW21715   0.269   1.162  14.419  0.1111  0.0255 -0.3388
 3360SOL    HW121716   0.320   1.209  14.486 -1.4099  1.0639  0.1153
 3360SOL    HW221717   0.259   1.229  14.351  1.4265  0.3090 -0.2521
 3361SOL     OW21718   1.929   2.986  11.417  0.0413 -0.4702  0.6336
 3361SOL    HW121719   2.022   3.004  11.401 -0.2105  1.1474  0.9563
 3361SOL    HW221720   1.931   2.920  11.486 -1.2669  2.5957  3.6297
 3362SOL     OW21721   0.169   1.525   3.898  0.0834 -0.3651 -0.1162
 3362SOL    HW121722   0.226   1.551   3.825 -0.2529  0.4574 -0.0918
 3362SOL    HW221723   0.089   1.499   3.853  0.3826 -0.1231 -0.7918
 3363SOL     OW21724   2.445   4.650   2.180  0.2160  0.4841 -0.6699
 3363SOL    HW121725   2.433   4.694   2.264  1.4506 -2.3720  0.9912
 3363SOL    HW221726   2.395   4.710   2.123 -1.8378  0.2591  0.8901
 3364SOL     OW21727   0.311   1.063   2.127 -0.1086 -0.0198  0.3681
 3364SOL    HW121728   0.289   0.988   2.182  1.4677 -0.5370  0.3017
 3364SOL    HW221729   0.322   1.135   2.190  1.6982  2.1193 -2.4072
 3365SOL     OW21730   1.762   4.355  16.691 -0.1565 -0.2363 -0.0256
 3365SOL    HW121731   1.689   4.415  16.708 -0.9371 -1.3214  0.4798
 3365SOL    HW221732   1.711   4.277  16.669  0.0551 -0.4968  0.4070
 3366SOL     OW21733   3.943   0.209  16.680 -0.1849 -0.0889 -0.0688
 3366SOL    HW121734   3.922   0.138  16.740 -0.7893 -1.2206 -1.6197
 3366SOL    HW221735   4.036   0.190  16.670  0.4236  2.6232  0.4035
 3367SOL     OW21736   1.517   1.811   4.702  0.4376 -0.3624  0.5796
 3367SOL    HW121737   1.563   1.895   4.703  0.5262 -0.3948 -1.4776
 3367SOL    HW221738   1.592   1.753   4.686  0.4434 -0.6873  1.7657
 3368SOL     OW21739   0.896   3.080   4.991 -0.0127 -0.5226  0.1389
 3368SOL    HW121740   0.982   3.119   4.978 -0.4672  0.6588  0.7196
 3368SOL    HW221741   0.858   3.133   4.921  1.8801 -0.5116 -0.8715
 3369SOL     OW21742   0.826   1.496   5.957 -0.2363 -0.1360  0.3877
 3369SOL    HW121743   0.758   1.544   5.911  0.0195 -0.8501 -0.7196
 3369SOL    HW221744   0.867   1.440   5.891  0.8919  2.6211 -1.2180
 3370SOL     OW21745   3.453   2.048   2.875 -0.3795 -0.1925  0.2356
 3370SOL    HW121746   3.362   2.043   2.905 -0.2629 -2.6646  0.1967
 3370SOL    HW221747   3.478   2.134   2.908 -1.2180 -0.4823  1.6520
 3371SOL     OW21748   4.345   0.327   1.878  0.0258 -0.4919  0.3332
 3371SOL    HW121749   4.250   0.324   1.889 -0.3358  1.8249 -2.0801
 3371SOL    HW221750   4.355   0.400   1.816  1.6427 -1.7535 -0.8734
 3372SOL     OW21751   2.292   2.112   6.634  0.0427  0.2321  0.1673
 3372SOL    HW121752   2.250   2.187   6.592 -0.8282 -0.4798 -0.2373
 3372SOL    HW221753   2.321   2.135   6.722  3.1390  1.4641 -1.1679
 3373SOL     OW21754   2.283   0.958   9.249 -0.0601  0.2469 -0.4430
 3373SOL    HW121755   2.302   1.017   9.322 -0.9000  0.6694 -0.5747
 3373SOL    HW221756   2.368   0.979   9.210  0.7306 -0.6670  0.7740
 3374SOL     OW21757   3.630   4.727   5.430 -0.1706 -0.2228  0.3284
 3374SOL    HW121758   3.721   4.699   5.439 -0.4633 -0.8884  1.2326
 3374SOL    HW221759   3.640   0.077   5.389  0.7861 -1.2788 -1.6250
 3375SOL     OW21760   3.729   3.596  14.666 -0.0917  0.3846  0.3749
 3375SOL    HW121761   3.731   3.502  14.649 -2.5443  0.4365 -0.2173
 3375SOL    HW221762   3.736   3.630  14.577  1.2942 -1.1091 -0.0892
 3376SOL     OW21763   2.098   1.531   8.424 -0.2228 -0.1743 -0.2494
 3376SOL    HW121764   2.113   1.611   8.373  1.1821 -0.8292 -0.8822
 3376SOL    HW221765   2.004   1.522   8.408 -0.6766 -0.2756  2.5115
 3377SOL     OW21766   0.217   0.429  16.373  0.3434  0.3725 -0.1841
 3377SOL    HW121767   0.275   0.467  16.307 -0.7536 -0.7208 -1.7695
 3377SOL    HW221768   0.170   0.506  16.404 -1.8124 -0.1729 -2.0731
 3378SOL     OW21769   4.262   2.824   2.069  0.2385 -0.5681  0.0412
 3378SOL    HW121770   4.280   2.742   2.022 -1.2427 -1.6818  1.4051
 3378SOL    HW221771   4.169   2.845   2.060 -0.6184 -3.8515  1.2628
 3379SOL     OW21772   2.068   0.729   2.926  0.2246 -0.1123 -0.7196
 3379SOL    HW121773   2.061   0.813   2.882 -1.4419 -0.1996 -0.6047
 3379SOL    HW221774   2.154   0.735   2.968  0.4144 -2.9569 -0.6595
 3380SOL     OW21775   0.694   4.244   6.439 -0.1456  0.0601 -0.5152
 3380SOL    HW121776   0.627   4.312   6.426 -1.1092 -0.5692  1.1967
 3380SOL    HW221777   0.727   4.233   6.349 -0.8247 -0.2922 -0.7200
 3381SOL     OW21778   1.560   3.806  10.457 -0.5241  0.0575  0.3239
 3381SOL    HW121779   1.508   3.885  10.443 -1.5701 -0.4510  1.3842
 3381SOL    HW221780   1.539   3.761  10.375 -0.5454 -0.6626  0.7261
 3382SOL     OW21781   3.798   3.170  16.873  0.1121  0.2957  0.2833
 3382SOL    HW121782   3.767   3.154  16.962 -2.7248  1.6176 -0.4677
 3382SOL    HW221783   3.714   3.168  16.826 -0.3219  2.5112  0.9578
 3383SOL     OW21784   3.104   3.765   0.419 -0.1002  0.1551  0.3951
 3383SOL    HW121785   3.171   3.807   0.474 -0.4818 -0.2152  1.1480
 3383SOL    HW221786   3.139   3.677   0.437 -1.5250 -0.3005  0.9832
 3384SOL     OW21787   3.667   0.241   4.822  0.0139 -0.0814 -0.4266
 3384SOL    HW121788   3.690   0.311   4.761 -0.2488  0.2347 -0.1641
 3384SOL    HW221789   3.623   0.182   4.761 -0.5343 -0.2078  0.0893
 3385SOL     OW21790   2.192   4.158   8.152  0.3334 -0.1822  0.0550
 3385SOL    HW121791   2.102   4.187   8.170  1.1466  1.1795  1.8978
 3385SOL    HW221792   2.181   4.105   8.073 -1.5276  0.0455  0.1596
 3386SOL     OW21793   2.570   2.168   8.995  0.2392 -0.0514  0.2021
 3386SOL    HW121794   2.551   2.089   9.045 -1.8540 -0.6092 -1.4660
 3386SOL    HW221795   2.491   2.186   8.944  1.3589  0.8036 -1.2204
 3387SOL     OW21796   1.682   3.751   5.175 -0.0901 -0.3208 -0.0200
 3387SOL    HW121797   1.718   3.705   5.099  0.0274  1.1225 -0.8239
 3387SOL    HW221798   1.677   3.841   5.144 -1.0140 -0.4458 -0.2325
 3388SOL     OW21799   2.294   0.271   4.299 -0.2752 -0.1605 -0.0446
 3388SOL    HW121800   2.335   0.343   4.250 -0.8819  0.2831  0.0990
 3388SOL    HW221801   2.372   0.233   4.340 -1.3204 -1.1318  1.0012
 3389SOL     OW21802   2.282   2.941  10.572  0.6426 -0.0043  0.2280
 3389SOL    HW121803   2.282   3.028  10.534 -0.5597  0.5528  1.4794
 3389SOL    HW221804   2.215   2.897  10.520  0.3361 -0.8486  1.3288
 3390SOL     OW21805   2.695   1.990   2.782 -0.5137 -0.6054  0.0010
 3390SOL    HW121806   2.719   2.081   2.765  0.2391 -0.9699 -0.9237
 3390SOL    HW221807   2.630   1.994   2.853  0.4537  0.3045  0.8370
 3391SOL     OW21808   0.714   4.360   7.809 -0.4384 -0.3056  0.4156
 3391SOL    HW121809   0.696   4.454   7.816 -0.6479 -0.3705  0.7495
 3391SOL    HW221810   0.624   4.330   7.795 -1.2309  2.6123 -0.6644
 3392SOL     OW21811   2.192   2.951   5.582 -0.1758 -0.1573  0.5624
 3392SOL    HW121812   2.221   2.991   5.664 -0.9621  0.0871  0.7223
 3392SOL    HW221813   2.251   2.879   5.560  1.0540  1.3430 -1.1149
 3393SOL     OW21814   2.417   2.215   6.874  0.1776  0.1622  0.3315
 3393SOL    HW121815   2.456   2.281   6.817  0.6929 -0.4424 -0.0174
 3393SOL    HW221816   2.384   2.273   6.943  1.0244  1.6382 -0.5061
 3394SOL     OW21817   0.225   4.367   2.172  0.0098  0.3538  0.9839
 3394SOL    HW121818   0.304   4.342   2.124  0.0545  0.6907  0.8812
 3394SOL    HW221819   0.201   4.278   2.199  0.6954  0.2631  1.2998
 3395SOL     OW21820   2.990   0.795  13.274  0.0422 -0.6317  0.1342
 3395SOL    HW121821   2.924   0.864  13.271  1.1195  0.2900 -2.5120
 3395SOL    HW221822   2.985   0.757  13.361  1.8745 -1.3501 -0.0650
 3396SOL     OW21823   0.947   0.136   0.929  0.2721 -0.4449 -0.7199
 3396SOL    HW121824   0.913   0.128   1.018 -0.5082  1.2699 -0.8769
 3396SOL    HW221825   0.974   0.227   0.923  1.1250 -0.7057 -0.8657
 3397SOL     OW21826   3.212   3.437  10.136 -0.0682  0.2856  0.5852
 3397SOL    HW121827   3.150   3.510  10.139  0.9608  1.2026 -0.3931
 3397SOL    HW221828   3.220   3.402  10.225 -2.8060 -1.0531  0.3182
 3398SOL     OW21829   2.291   3.231   3.172  0.4121  0.6565 -0.3021
 3398SOL    HW121830   2.329   3.317   3.152 -0.4473  1.0354 -0.3102
 3398SOL    HW221831   2.197   3.243   3.155  0.0036 -1.6998  0.2888
 3399SOL     OW21832   1.355   1.349   4.334  0.7823 -0.2479  0.2710
 3399SOL    HW121833   1.287   1.289   4.363  0.6740  0.0797  0.6870
 3399SOL    HW221834   1.372   1.308   4.249 -0.0096  2.2038 -1.0643
 3400SOL     OW21835   3.758   3.111   4.260 -0.8434 -0.0091  0.3012
 3400SOL    HW121836   3.731   3.036   4.206 -1.2745 -0.2767  0.8925
 3400SOL    HW221837   3.720   3.104   4.348 -0.7721 -2.6177  0.1031
 3401SOL     OW21838   0.480   3.624   2.463  0.5544  0.4877 -0.1500
 3401SOL    HW121839   0.472   3.648   2.555  1.1321  0.1098  0.0003
 3401SOL    HW221840   0.574   3.613   2.449  0.4468  1.8269 -1.8993
 3402SOL     OW21841   1.117   0.299   8.109  0.0173  0.8033  0.1425
 3402SOL    HW121842   1.128   0.381   8.157 -0.7300  0.1450  1.4539
 3402SOL    HW221843   1.037   0.264   8.150 -0.4045  0.1553 -1.2101
 3403SOL     OW21844   0.664   2.743   5.964 -0.2721 -0.2210  0.7967
 3403SOL    HW121845   0.698   2.714   5.880 -0.4065  0.4112  0.5207
 3403SOL    HW221846   0.660   2.839   5.959 -0.9867 -0.3362 -0.7854
 3404SOL     OW21847   4.587   3.812   9.257  0.0646  0.3251 -0.3799
 3404SOL    HW121848   4.515   3.783   9.314  2.1225 -0.5323  1.8050
 3404SOL    HW221849   4.634   3.841   9.336 -0.0670 -2.4299  0.7148
 3405SOL     OW21850   3.368   4.686   6.341  0.7746 -0.0818  0.9835
 3405SOL    HW121851   3.333   4.612   6.391 -1.5842 -0.9871 -2.0008
 3405SOL    HW221852   3.457   4.653   6.327  0.7462  0.0425  0.5313
 3406SOL     OW21853   4.392   3.634   9.699 -0.3078 -0.3810 -0.1417
 3406SOL    HW121854   4.309   3.633   9.652  0.6821 -0.7989 -1.8736
 3406SOL    HW221855   4.438   3.564   9.655  0.1219 -0.1651 -0.0352
 3407SOL     OW21856   2.383   4.531   2.755  0.2511 -0.4064 -0.3057
 3407SOL    HW121857   2.352   4.536   2.846 -2.5425 -0.7464 -1.2457
 3407SOL    HW221858   2.378   4.436   2.747 -2.3936 -0.2341 -0.6524
 3408SOL     OW21859   4.340   1.297   6.355  0.2438  0.3192 -0.4542
 3408SOL    HW121860   4.335   1.206   6.324  1.8195 -0.3937  1.4103
 3408SOL    HW221861   4.366   1.285   6.446  0.6278 -1.2080 -0.7520
 3409SOL     OW21862   2.704   0.226  16.410  0.0554 -0.2629 -0.1933
 3409SOL    HW121863   2.706   0.312  16.369  2.9881  0.5738  1.7517
 3409SOL    HW221864   2.794   0.197  16.395  0.4375  1.7838 -1.8247
 3410SOL     OW21865   2.699   2.700   7.313  0.1206  0.0653  0.1234
 3410SOL    HW121866   2.698   2.743   7.398  1.0606  0.3616 -0.0157
 3410SOL    HW221867   2.683   2.782   7.266 -0.0839 -0.9266 -1.5379
 3411SOL     OW21868   0.611   3.520  17.535  0.2820 -0.2719  0.2324
 3411SOL    HW121869   0.570   3.439  17.563  0.3532  0.1555  1.6214
 3411SOL    HW221870   0.549   3.583  17.573 -0.5460 -1.9790  1.6703
 3412SOL     OW21871   3.125   1.003   5.173  0.6962 -0.0212  0.0957
 3412SOL    HW121872   3.200   0.955   5.209  0.6936 -0.6743 -0.7659
 3412SOL    HW221873   3.094   0.932   5.117  0.4041 -0.8341  1.2755
 3413SOL     OW21874   3.051   2.075  13.018  0.2541 -0.6462  0.0450
 3413SOL    HW121875   3.103   2.039  13.090  0.0854 -2.6956 -0.8603
 3413SOL    HW221876   2.998   2.127  13.078  0.2219 -0.0393 -0.5120
 3414SOL     OW21877   2.125   3.176  15.910 -0.2784 -0.3627 -0.3730
 3414SOL    HW121878   2.034   3.202  15.897 -0.6027 -1.0504  0.5048
 3414SOL    HW221879   2.109   3.105  15.973  2.0933 -0.2577  0.3226
 3415SOL     OW21880   1.590   1.859   2.018  0.1460 -0.1287  0.1633
 3415SOL    HW121881   1.605   1.934   2.075  2.2008  0.0140 -0.5339
 3415SOL    HW221882   1.624   1.889   1.933 -2.0266 -1.8497 -1.3206
 3416SOL     OW21883   0.357   1.921   8.614  0.0779 -0.2670 -0.0773
 3416SOL    HW121884   0.417   1.875   8.672 -1.2608  1.0421  2.3396
 3416SOL    HW221885   0.312   1.847   8.573 -3.4478  2.8491 -1.8231
 3417SOL     OW21886   4.513   4.460   6.008 -0.3591 -0.5513  0.6416
 3417SOL    HW121887   4.464   4.539   5.981 -0.0912 -1.1583 -1.6471
 3417SOL    HW221888   4.438   4.413   6.044 -0.6029 -0.8695 -0.2680
 3418SOL     OW21889   2.347   4.104  10.151 -0.1877 -0.0596 -0.3787
 3418SOL    HW121890   2.402   4.037  10.192  0.3493  0.9334  0.5225
 3418SOL    HW221891   2.408   4.178  10.150 -0.3856  0.0100 -5.9614
 3419SOL     OW21892   1.927   0.790   9.703 -0.0591 -0.0182 -0.0201
 3419SOL    HW121893   1.834   0.775   9.724 -0.3199  1.8221  0.1585
 3419SOL    HW221894   1.929   0.788   9.607 -3.1455 -0.7385 -0.0646
 3420SOL     OW21895   2.057   3.673   4.959 -0.4690  0.1264  0.2467
 3420SOL    HW121896   2.096   3.610   4.899  0.4327 -0.5268  1.5136
 3420SOL    HW221897   2.123   3.742   4.951  0.7490 -0.8646  1.7578
 3421SOL     OW21898   4.271   2.783   2.344  0.0827  0.7110 -0.4495
 3421SOL    HW121899   4.307   2.764   2.257 -2.2984 -1.3555 -0.9800
 3421SOL    HW221900   4.197   2.722   2.345 -0.4236  1.3467  0.9522
 3422SOL     OW21901   4.295   3.367   1.777  0.0223  0.2969 -0.1432
 3422SOL    HW121902   4.270   3.295   1.719 -0.7630 -0.7392  1.4812
 3422SOL    HW221903   4.240   3.350   1.853  3.0320  2.2836  2.5287
 3423SOL     OW21904   0.412   0.572   4.911  0.2195 -0.1556 -0.3971
 3423SOL    HW121905   0.319   0.594   4.913  0.4597  0.9004 -0.7950
 3423SOL    HW221906   0.448   0.661   4.903 -0.2454 -0.0472 -1.2589
 3424SOL     OW21907   2.267   2.552  16.623  0.8166 -0.5352  0.0542
 3424SOL    HW121908   2.303   2.468  16.655  2.4092 -0.4348 -1.4688
 3424SOL    HW221909   2.289   2.599  16.704  0.6551  0.1314 -0.2936
 3425SOL     OW21910   4.241   0.358   4.202 -0.3136  0.0406 -0.0148
 3425SOL    HW121911   4.287   0.387   4.281  1.4513 -0.8300 -0.7427
 3425SOL    HW221912   4.148   0.366   4.226 -0.1931  1.4448  0.0064
 3426SOL     OW21913   2.288   0.820  11.827  0.3069  0.2062 -0.1602
 3426SOL    HW121914   2.286   0.772  11.909  0.7491  0.7988  0.1953
 3426SOL    HW221915   2.278   0.744  11.769 -1.7581  2.9776 -3.4533
 3427SOL     OW21916   2.506   1.740  11.617  0.5658  0.3782 -0.3500
 3427SOL    HW121917   2.434   1.677  11.606  0.2654  0.5299  0.7779
 3427SOL    HW221918   2.558   1.714  11.692 -1.3460 -1.4477  0.3202
 3428SOL     OW21919   0.089   0.799   7.346  0.1292 -0.6676  0.4500
 3428SOL    HW121920   0.167   0.803   7.291 -1.3901  0.6641 -1.6297
 3428SOL    HW221921   0.072   0.706   7.334  1.8438 -0.8683 -0.4073
 3429SOL     OW21922   3.592   3.641  16.929  0.9218 -0.1747  0.0700
 3429SOL    HW121923   3.630   3.727  16.951 -1.7651  1.2425 -0.8405
 3429SOL    HW221924   3.507   3.679  16.907  1.2245  0.0924 -0.6372
 3430SOL     OW21925   4.345   3.335   7.253  0.4319  0.4346  0.2380
 3430SOL    HW121926   4.310   3.354   7.166 -1.0649 -0.8327  0.5593
 3430SOL    HW221927   4.315   3.409   7.307 -0.8319  0.3150 -0.2879
 3431SOL     OW21928   4.330   3.768   7.960  0.9366 -0.4898 -0.0489
 3431SOL    HW121929   4.421   3.787   7.984  0.0647  0.9947  2.1678
 3431SOL    HW221930   4.313   3.696   8.021  2.5319 -0.2278  0.7011
 3432SOL     OW21931   3.253   3.364   5.081 -0.4821  0.0939  0.0690
 3432SOL    HW121932   3.167   3.333   5.054 -0.1340 -0.4574 -0.3985
 3432SOL    HW221933   3.236   3.458   5.079 -2.9191 -0.3822 -1.1498
 3433SOL     OW21934   0.497   2.714  13.857  0.4310 -0.2967  0.2474
 3433SOL    HW121935   0.417   2.767  13.853 -0.1225 -1.0817  1.0404
 3433SOL    HW221936   0.464   2.642  13.803  0.5584  0.3871 -0.7589
 3434SOL     OW21937   3.817   2.243   6.511  0.2692 -0.0390 -0.2640
 3434SOL    HW121938   3.791   2.191   6.587  1.2868  2.6473  1.9156
 3434SOL    HW221939   3.891   2.192   6.477 -0.4572 -1.0944 -0.2353
 3435SOL     OW21940   0.744   3.611   2.450 -0.0594  0.0202  0.2976
 3435SOL    HW121941   0.745   3.700   2.484  3.0853 -0.1216  0.5327
 3435SOL    HW221942   0.786   3.608   2.364 -1.4287 -2.9282 -0.2824
 3436SOL     OW21943   0.723   2.088   6.919 -0.0983  0.9559 -0.2863
 3436SOL    HW121944   0.763   2.168   6.886 -0.5496  0.6660 -1.5275
 3436SOL    HW221945   0.681   2.044   6.845 -1.3582 -0.1375  1.0733
 3437SOL     OW21946   4.611   2.632   5.652  0.0910 -0.3713  0.5811
 3437SOL    HW121947   4.656   2.587   5.581  1.5974  1.7180  0.2209
 3437SOL    HW221948   4.581   2.705   5.598  1.2029  0.1687  0.6956
 3438SOL     OW21949   1.412   1.030   3.002  0.1102  0.3437  0.1164
 3438SOL    HW121950   1.505   1.041   3.023 -0.0748  1.9327  0.1387
 3438SOL    HW221951   1.382   0.974   3.073  1.0261 -1.6435 -1.0772
 3439SOL     OW21952   2.321   4.573   7.393 -0.5098  0.2565  0.1562
 3439SOL    HW121953   2.389   4.508   7.373 -2.3351 -1.5145 -0.2265
 3439SOL    HW221954   2.244   4.537   7.349 -0.9022  0.9508  0.2672
 3440SOL     OW21955   3.373   2.437  13.346  0.0535 -0.1682  0.0156
 3440SOL    HW121956   3.381   2.370  13.278  1.1099 -0.7420  0.7081
 3440SOL    HW221957   3.280   2.458  13.332 -0.5034 -2.0172  0.9236
 3441SOL     OW21958   4.339   3.593   3.400 -0.1411  0.6798  0.4641
 3441SOL    HW121959   4.417   3.541   3.421  1.2357  1.1801 -3.3129
 3441SOL    HW221960   4.380   3.663   3.349  4.5482 -0.5990  2.4433
 3442SOL     OW21961   1.255   4.004   5.067  0.0960 -0.1868  0.1988
 3442SOL    HW121962   1.279   3.972   4.980  2.2124 -0.7510  0.9883
 3442SOL    HW221963   1.262   3.925   5.120 -1.2455  0.6398  1.6149
 3443SOL     OW21964   1.075   2.588   4.364  0.2524 -0.1686  0.3072
 3443SOL    HW121965   0.999   2.580   4.305 -0.9647  0.4069  1.8023
 3443SOL    HW221966   1.077   2.495   4.386  1.3752  0.7150  3.8036
 3444SOL     OW21967   1.614   3.815   9.062 -0.0405  0.9204  0.3914
 3444SOL    HW121968   1.558   3.865   9.003  0.6455 -0.7143 -1.6421
 3444SOL    HW221969   1.557   3.750   9.102  1.5315  1.2642  3.1811
 3445SOL     OW21970   4.138   3.444   8.889  0.2205  0.4676 -0.1027
 3445SOL    HW121971   4.193   3.504   8.941  0.2409  1.9619 -1.8601
 3445SOL    HW221972   4.180   3.359   8.890  1.1470  0.9002 -2.7262
 3446SOL     OW21973   0.044   0.298   5.544 -0.2091  0.4588  0.1159
 3446SOL    HW121974   4.703   0.310   5.600 -0.7290 -1.4218 -0.1857
 3446SOL    HW221975   0.108   0.277   5.612 -0.3030 -2.8638 -0.8488
 3447SOL     OW21976   1.175   2.508   6.710  0.6560 -0.3730 -0.2717
 3447SOL    HW121977   1.122   2.447   6.762  1.4085 -1.6071 -0.9483
 3447SOL    HW221978   1.158   2.489   6.618  1.1493  1.6004 -0.7730
 3448SOL     OW21979   0.278   0.173  16.045  0.4165  1.1800  0.2671
 3448SOL    HW121980   0.353   0.164  16.103 -1.0253 -2.6836  1.4942
 3448SOL    HW221981   0.318   0.223  15.973  0.7492 -2.7104 -2.2277
 3449SOL     OW21982   2.906   0.665  17.360  0.5084 -0.1948 -0.0950
 3449SOL    HW121983   2.883   0.605  17.289 -0.1001 -0.3327  0.2204
 3449SOL    HW221984   2.990   0.695  17.325  0.0271 -1.8980 -2.6840
 3450SOL     OW21985   1.323   2.369   7.300 -0.2562 -0.0268  0.5180
 3450SOL    HW121986   1.310   2.454   7.341  0.3357 -0.4870  1.6472
 3450SOL    HW221987   1.316   2.407   7.213 -0.1578 -0.7276  0.2019
 3451SOL     OW21988   4.343   1.582   3.816 -0.3648  0.7153 -0.1341
 3451SOL    HW121989   4.275   1.553   3.877  0.0811 -0.6742 -0.2856
 3451SOL    HW221990   4.394   1.645   3.866 -0.7906  2.0403 -1.3649
 3452SOL     OW21991   1.163   0.703   5.833 -0.1547 -0.0944 -0.6012
 3452SOL    HW121992   1.175   0.661   5.748 -1.0616  2.7411 -2.1249
 3452SOL    HW221993   1.154   0.629   5.892  0.2882  1.2510  1.1541
 3453SOL     OW21994   4.626   3.428   7.282 -0.5691 -0.0390  0.0204
 3453SOL    HW121995   4.543   3.380   7.276 -0.8513  0.8455 -3.1292
 3453SOL    HW221996   4.616   3.492   7.352 -3.1855  0.8779 -1.1962
 3454SOL     OW21997   2.245   1.058   2.131 -0.6352  0.5473  0.4927
 3454SOL    HW121998   2.319   1.070   2.190 -1.7666  2.8385  1.4706
 3454SOL    HW221999   2.288   1.012   2.059  0.7723  2.0439  0.3849
 3455SOL     OW22000   2.491   4.077   4.735 -0.0097  0.0565  0.8581
 3455SOL    HW122001   2.477   4.142   4.804  1.3811  2.1230 -0.8051
 3455SOL    HW222002   2.407   4.053   4.697 -0.5569  2.0240  0.7989
 3456SOL     OW22003   2.004   0.978   8.395  0.2673  0.5934  0.0808
 3456SOL    HW122004   2.028   1.071   8.395  0.2104  0.5972 -1.4207
 3456SOL    HW222005   1.994   0.968   8.301  0.2337  1.9441 -0.0599
 3457SOL     OW22006   3.351   1.922   7.466 -0.3944 -0.7424 -0.1770
 3457SOL    HW122007   3.431   1.975   7.471 -0.2657 -1.1040  1.5417
 3457SOL    HW222008   3.290   1.988   7.498  0.9379 -0.1901  1.2371
 3458SOL     OW22009   2.158   2.100   1.329 -0.3053  0.1341  0.3962
 3458SOL    HW122010   2.091   2.037   1.357  1.0478 -1.3456  0.3297
 3458SOL    HW222011   2.231   2.040   1.317 -1.2155 -0.6695 -1.1485
 3459SOL     OW22012   1.652   2.607  16.261 -0.7841 -0.3846 -0.3826
 3459SOL    HW122013   1.636   2.517  16.233  1.3743 -1.0753  0.5903
 3459SOL    HW222014   1.668   2.591  16.354 -1.2019  0.5988 -0.1419
 3460SOL     OW22015   1.081   2.781   2.438 -0.3299 -0.1457  0.2943
 3460SOL    HW122016   1.057   2.708   2.380 -2.3639 -0.4606  1.5478
 3460SOL    HW222017   0.992   2.807   2.463 -0.2056 -0.2818  0.8756
 3461SOL     OW22018   1.954   1.428   1.460 -0.1073  0.1768  0.0538
 3461SOL    HW122019   2.005   1.490   1.511 -2.0134  0.1593  2.0201
 3461SOL    HW222020   2.006   1.348   1.468  0.1739  0.4963  1.4462
 3462SOL     OW22021   1.967   0.153   2.601  0.2522 -0.2753 -0.0819
 3462SOL    HW122022   1.898   0.090   2.579  0.6184 -0.1980 -1.4616
 3462SOL    HW222023   2.028   0.087   2.633  2.3868  0.8693 -1.8377
 3463SOL     OW22024   2.406   4.215   4.968 -0.3587 -0.3679  0.0795
 3463SOL    HW122025   2.365   4.144   5.018 -1.2262 -0.0255 -0.1452
 3463SOL    HW222026   2.330   4.264   4.936 -1.2428 -1.4632  0.5142
 3464SOL     OW22027   4.685   3.437   0.306 -0.7880 -0.3476 -0.3047
 3464SOL    HW122028   4.635   3.374   0.358 -1.0660  0.3379  0.2507
 3464SOL    HW222029   0.036   3.430   0.345 -0.5023 -1.4179 -1.1297
 3465SOL     OW22030   0.706   3.907   9.237 -0.0999  0.1957  0.0010
 3465SOL    HW122031   0.786   3.856   9.249 -0.3976 -0.0304  1.0025
 3465SOL    HW222032   0.744   3.995   9.225  0.6227 -0.0226  0.7045
 3466SOL     OW22033   0.958   0.754   3.291  0.0440 -0.4312 -0.0222
 3466SOL    HW122034   0.907   0.729   3.368 -0.3299 -0.2389 -0.2099
 3466SOL    HW222035   0.914   0.837   3.272  2.1744  0.7511  0.1966
 3467SOL     OW22036   1.358   0.201  14.196  0.5420  0.3201  0.0240
 3467SOL    HW122037   1.359   0.161  14.283  0.7062 -0.2001 -0.2159
 3467SOL    HW222038   1.305   0.142  14.141 -0.2967 -0.4040  1.6249
 3468SOL     OW22039   3.606   3.641   8.290 -0.3720 -0.0127  0.4273
 3468SOL    HW122040   3.646   3.723   8.261  2.1734 -0.3076  3.1680
 3468SOL    HW222041   3.536   3.678   8.344 -1.0565 -2.7430  1.3900
 3469SOL     OW22042   3.831   3.377  10.842 -0.0871 -0.1153  0.1768
 3469SOL    HW122043   3.815   3.471  10.833  0.3456  0.1779  2.5131
 3469SOL    HW222044   3.764   3.364  10.909 -1.3617  1.9977 -0.6851
 3470SOL     OW22045   1.554   0.227   1.562 -0.3577 -0.1704  0.4222
 3470SOL    HW122046   1.642   0.258   1.582  0.4177 -0.1216 -2.9651
 3470SOL    HW222047   1.529   0.294   1.497 -0.4007 -1.5246 -0.9669
 3471SOL     OW22048   2.724   1.563   0.644 -0.3162  0.0964 -0.3473
 3471SOL    HW122049   2.653   1.502   0.624 -2.3157  1.9739  0.9452
 3471SOL    HW222050   2.741   1.598   0.556 -2.0337  0.1145 -0.6764
 3472SOL     OW22051   3.423   0.692   3.229 -0.0345 -0.1062 -0.0843
 3472SOL    HW122052   3.429   0.749   3.153  2.4627  0.0402  0.2179
 3472SOL    HW222053   3.331   0.675   3.247 -0.4287  2.2801  0.1024
 3473SOL     OW22054   3.688   0.910   8.130  0.2430 -0.1737  0.5442
 3473SOL    HW122055   3.755   0.844   8.114  0.9864  0.7805 -0.3711
 3473SOL    HW222056   3.643   0.860   8.198  4.5527 -1.3766  2.4647
 3474SOL     OW22057   0.758   1.362   3.592 -0.1859  0.0808 -0.5518
 3474SOL    HW122058   0.752   1.289   3.655  0.2846  0.9123  0.4607
 3474SOL    HW222059   0.755   1.313   3.510  0.2256  1.2049 -1.2388
 3475SOL     OW22060   3.010   3.599   9.644 -0.2565  0.5513  0.4075
 3475SOL    HW122061   3.004   3.534   9.713  0.4008  0.6428  0.5546
 3475SOL    HW222062   3.080   3.558   9.593 -0.3234  0.1125  0.6785
 3476SOL     OW22063   0.307   4.281   8.980  0.3242  0.4777 -0.2118
 3476SOL    HW122064   0.264   4.304   8.897  3.9736  1.5266 -1.8353
 3476SOL    HW222065   0.288   4.188   8.977  2.7222 -0.0395  0.3179
 3477SOL     OW22066   2.254   1.920  14.389  0.2043  0.3937 -0.2156
 3477SOL    HW122067   2.241   1.839  14.437  1.0633 -0.1709 -0.9287
 3477SOL    HW222068   2.195   1.984  14.429 -0.3359 -1.0684  1.3354
 3478SOL     OW22069   3.001   4.032   3.878  0.6784 -0.1237 -0.3282
 3478SOL    HW122070   2.930   3.974   3.848  1.2306 -0.5232 -0.8580
 3478SOL    HW222071   3.070   3.967   3.888 -0.9289 -1.8731 -0.5125
 3479SOL     OW22072   0.807   2.371   5.370 -0.4101 -0.1166  0.3791
 3479SOL    HW122073   0.756   2.303   5.326  1.7000 -2.4118  1.5030
 3479SOL    HW222074   0.891   2.327   5.359  0.3158  1.2320  0.5900
 3480SOL     OW22075   0.378   2.277   7.186 -0.1459  0.7504 -0.6629
 3480SOL    HW122076   0.448   2.213   7.192 -1.1464  0.0307  3.4364
 3480SOL    HW222077   0.423   2.362   7.189  0.0657  0.6277 -0.3691
 3481SOL     OW22078   0.682   0.696   5.670  0.2784  0.7020 -0.1656
 3481SOL    HW122079   0.644   0.773   5.712 -2.0884 -1.0908  0.9738
 3481SOL    HW222080   0.679   0.630   5.739 -0.3874  0.6820 -0.2109
 3482SOL     OW22081   2.199   1.491   4.091  0.8938 -0.2653 -0.3105
 3482SOL    HW122082   2.117   1.452   4.122 -1.1984  3.4555 -1.1949
 3482SOL    HW222083   2.162   1.568   4.049  1.2222  1.0118  1.7238
 3483SOL     OW22084   0.459   4.011   3.980 -0.1313  0.5608  0.3923
 3483SOL    HW122085   0.515   4.035   4.054  0.5589  1.2133 -0.3421
 3483SOL    HW222086   0.372   4.027   4.017  0.4348 -1.9528  2.8093
 3484SOL     OW22087   0.058   3.014   3.885 -0.2124 -0.3534 -0.0465
 3484SOL    HW122088   0.019   3.086   3.835  1.8369  0.5864 -0.3146
 3484SOL    HW222089   0.007   2.942   3.849  0.7779 -0.0015 -2.1143
 3485SOL     OW22090   4.413   4.505   9.310  0.4354 -0.1269 -0.6918
 3485SOL    HW122091   4.466   4.532   9.236  2.5636 -0.7013  0.6202
 3485SOL    HW222092   4.391   4.592   9.342  1.7267  0.0028 -0.1337
 3486SOL     OW22093   3.945   2.299   6.084  0.1912 -0.2003 -0.0929
 3486SOL    HW122094   3.971   2.242   6.011  1.4996 -0.4427  0.5635
 3486SOL    HW222095   3.872   2.248   6.120  1.3746 -1.7799  0.0629
 3487SOL     OW22096   2.484   1.495   8.565  0.5703 -0.3961 -0.5056
 3487SOL    HW122097   2.580   1.497   8.574  0.6603  0.4822 -1.7381
 3487SOL    HW222098   2.468   1.587   8.547 -0.8635 -0.2683  1.4026
 3488SOL     OW22099   0.584   2.173  12.251 -0.6360  0.2157 -0.1167
 3488SOL    HW122100   0.581   2.231  12.328 -1.3494  0.3833 -0.2652
 3488SOL    HW222101   0.591   2.241  12.184  0.2249 -1.4633 -1.7202
 3489SOL     OW22102   3.200   3.125   2.709 -0.2449  0.3306  0.0599
 3489SOL    HW122103   3.176   3.034   2.694 -0.5839  0.5316 -0.6243
 3489SOL    HW222104   3.291   3.121   2.738 -0.9273 -0.1586  2.1748
 3490SOL     OW22105   2.722   2.213   8.628  0.3790 -0.6243  0.3463
 3490SOL    HW122106   2.743   2.128   8.667  0.5274 -0.4525  0.6454
 3490SOL    HW222107   2.724   2.272   8.704 -3.4774  1.1277 -0.9630
 3491SOL     OW22108   0.462   4.236   5.162  0.1666 -0.1862  0.5672
 3491SOL    HW122109   0.399   4.238   5.089 -0.6122 -0.8834  1.2148
 3491SOL    HW222110   0.529   4.200   5.103 -0.1737  3.1720 -1.8996
 3492SOL     OW22111   0.097   2.758   6.199  0.0216 -0.1998  0.7204
 3492SOL    HW122112   0.078   2.666   6.219  0.2731 -0.4902 -0.3712
 3492SOL    HW222113   0.139   2.752   6.114 -1.6949  0.4904 -0.1686
 3493SOL     OW22114   2.400   1.124   6.765 -0.3826  0.2576 -0.0725
 3493SOL    HW122115   2.332   1.149   6.702  0.5733  1.5044 -0.6120
 3493SOL    HW222116   2.352   1.052   6.806 -0.4679  0.8327  0.8227
 3494SOL     OW22117   3.200   3.721   8.827 -0.0096  0.4741 -0.3681
 3494SOL    HW122118   3.164   3.795   8.778 -1.9994 -0.2230  0.0835
 3494SOL    HW222119   3.170   3.746   8.915 -0.1997 -0.7969 -0.0746
 3495SOL     OW22120   1.645   0.863   4.144 -0.1915  0.0276 -0.2684
 3495SOL    HW122121   1.662   0.850   4.238 -1.0472 -2.0076 -0.4158
 3495SOL    HW222122   1.700   0.940   4.125  0.1779  0.1792  1.3666
 3496SOL     OW22123   1.710   3.227   9.611  0.7214  0.0878  0.5228
 3496SOL    HW122124   1.790   3.175   9.612 -0.3818 -1.6524 -3.6700
 3496SOL    HW222125   1.721   3.273   9.694 -0.2125  1.2049  0.0169
 3497SOL     OW22126   1.937   4.055   8.775  0.0004 -0.7430  0.2761
 3497SOL    HW122127   1.926   3.989   8.843  1.5126 -1.5809 -0.2907
 3497SOL    HW222128   2.013   4.106   8.802  1.1432 -2.6068  0.5708
 3498SOL     OW22129   2.387   3.495   3.079 -0.4859 -0.6856 -0.5070
 3498SOL    HW122130   2.447   3.569   3.081 -0.3710 -0.8014  0.5650
 3498SOL    HW222131   2.296   3.524   3.083  0.8769  3.5632 -0.2515
 3499SOL     OW22132   2.557   2.848   8.542 -0.1456 -0.0789 -0.3198
 3499SOL    HW122133   2.640   2.837   8.495  0.4415  1.8265  0.2525
 3499SOL    HW222134   2.586   2.824   8.630  1.5639 -0.7962 -1.0824
 3500SOL     OW22135   1.772   1.273  14.095  0.0752  0.3614 -0.9160
 3500SOL    HW122136   1.723   1.352  14.116 -1.4132 -0.2145 -2.2110
 3500SOL    HW222137   1.859   1.307  14.077  0.4615  0.9828  2.0528
 3501SOL     OW22138   1.401   3.991   5.752 -0.3634  0.0197  0.1697
 3501SOL    HW122139   1.314   3.981   5.712 -0.2642  1.4724 -0.4118
 3501SOL    HW222140   1.439   3.919   5.703  3.0634  1.4054  0.8127
 3502SOL     OW22141   1.720   2.278   3.530  0.3634  0.2219  0.6462
 3502SOL    HW122142   1.630   2.251   3.512  1.2495 -2.3475  0.0421
 3502SOL    HW222143   1.725   2.351   3.468 -0.6271 -0.8133 -0.6393
 3503SOL     OW22144   3.814   2.070   5.133 -0.0883 -0.3738 -0.4263
 3503SOL    HW122145   3.722   2.093   5.126 -0.1515 -0.5538 -0.2068
 3503SOL    HW222146   3.841   2.108   5.050  0.5949  2.5048  1.0915
 3504SOL     OW22147   3.749   2.716   3.504 -0.4703 -0.1584 -0.3829
 3504SOL    HW122148   3.721   2.702   3.595  1.9292 -1.0459  0.2253
 3504SOL    HW222149   3.721   2.805   3.482 -0.6778 -0.4671 -1.3700
 3505SOL     OW22150   3.171   4.433  16.167  0.4174  0.7783 -0.3182
 3505SOL    HW122151   3.129   4.473  16.243  0.1505 -0.6851  0.3181
 3505SOL    HW222152   3.225   4.363  16.205 -1.3690 -0.0972  0.6424
 3506SOL     OW22153   0.309   3.693   9.856  0.2238  0.6605 -0.3854
 3506SOL    HW122154   0.326   3.731   9.942 -3.9928  0.2601  0.6223
 3506SOL    HW222155   0.389   3.684   9.804  1.6616 -0.7957  2.1226
 3507SOL     OW22156   4.412   2.792  11.959  0.4263 -0.0266 -0.3367
 3507SOL    HW122157   4.429   2.871  12.010 -0.8505  0.6624 -0.9719
 3507SOL    HW222158   4.355   2.747  12.022 -0.1616  0.4294 -0.5493
 3508SOL     OW22159   1.140   2.340  13.771 -0.6061 -0.1389  0.4252
 3508SOL    HW122160   1.095   2.352  13.854 -0.4444  3.2103  0.0432
 3508SOL    HW222161   1.103   2.262  13.730 -1.3832  0.4184  0.0739
 3509SOL     OW22162   3.526   4.652  11.115 -0.1299 -0.7703 -0.2225
 3509SOL    HW122163   3.553   4.733  11.071 -1.4062 -1.4974 -2.3564
 3509SOL    HW222164   3.613   4.641  11.152 -0.2061 -3.4860 -0.9032
 3510SOL     OW22165   4.294   1.844   7.289  0.5092 -0.1172  0.0305
 3510SOL    HW122166   4.390   1.851   7.284  0.5286  1.6790  3.4383
 3510SOL    HW222167   4.281   1.897   7.367  0.0029 -0.6364  0.2969
 3511SOL     OW22168   4.441   0.887  17.134  0.0405  0.4446 -0.8481
 3511SOL    HW122169   4.412   0.807  17.091 -1.3063  1.2445 -1.4146
 3511SOL    HW222170   4.352   0.909  17.160 -0.2975 -1.9271  0.0271
 3512SOL     OW22171   2.744   3.188   7.627 -0.3377 -0.4600  0.0885
 3512SOL    HW122172   2.683   3.128   7.585  2.3417 -1.9161 -1.7198
 3512SOL    HW222173   2.821   3.133   7.615 -0.0605 -0.0290 -0.0934
 3513SOL     OW22174   2.776   4.170   8.588 -0.4520  0.3977  0.1724
 3513SOL    HW122175   2.735   4.198   8.669  0.2719 -1.4251  1.1666
 3513SOL    HW222176   2.772   4.075   8.601 -1.3878  0.3843 -0.2451
 3514SOL     OW22177   2.562   4.517  15.766  0.3229  0.1340 -0.5202
 3514SOL    HW122178   2.570   4.607  15.735  1.1838  0.8430  1.8197
 3514SOL    HW222179   2.477   4.525  15.809  1.6860 -3.2736  2.8021
 3515SOL     OW22180   3.544   3.919   5.317  0.5717  0.0316  0.4605
 3515SOL    HW122181   3.500   3.837   5.337  1.2900 -0.5118 -0.1755
 3515SOL    HW222182   3.593   3.938   5.398  0.4737  2.1903  0.0271
 3516SOL     OW22183   4.423   2.750  17.506 -0.1040 -0.0876  0.3284
 3516SOL    HW122184   4.474   2.672  17.486 -1.9792 -0.9487 -1.1282
 3516SOL    HW222185   4.488   2.812  17.536  1.2638 -1.2489 -0.2417
 3517SOL     OW22186   3.159   2.475  15.245  0.5208 -0.0310  0.6300
 3517SOL    HW122187   3.082   2.429  15.210  0.1317  0.0043  1.4481
 3517SOL    HW222188   3.202   2.517  15.170  0.4231 -1.0064  0.0233
 3518SOL     OW22189   4.251   1.963   2.067  0.2034 -0.4660  0.2299
 3518SOL    HW122190   4.323   1.925   2.017  0.4795  2.4902 -1.6284
 3518SOL    HW222191   4.292   1.996   2.147  0.2290 -3.4866  1.4511
 3519SOL     OW22192   1.639   3.758   4.758 -0.1264  0.5608 -0.0682
 3519SOL    HW122193   1.621   3.841   4.803 -0.7881  1.2020 -1.5132
 3519SOL    HW222194   1.699   3.719   4.821 -1.2049 -1.0816 -0.0628
 3520SOL     OW22195   1.010   3.594   5.720  0.4018 -0.5911  0.2022
 3520SOL    HW122196   0.988   3.503   5.735  0.7035 -0.5566  0.8238
 3520SOL    HW222197   1.051   3.605   5.806  1.4368  0.9831 -0.4807
 3521SOL     OW22198   1.429   0.727   6.052 -0.6364 -0.2749 -0.3683
 3521SOL    HW122199   1.455   0.818   6.065 -3.3954  0.3349  0.8347
 3521SOL    HW222200   1.515   0.686   6.040 -0.7905 -0.8981  0.6905
 3522SOL     OW22201   3.928   2.492   6.546  0.4966 -0.0073 -0.0317
 3522SOL    HW122202   4.022   2.482   6.532  0.8414  1.9223  0.7783
 3522SOL    HW222203   3.899   2.402   6.531  2.5447 -0.7579  0.6376
 3523SOL     OW22204   0.676   4.533  10.209 -0.1035 -0.3469 -0.6615
 3523SOL    HW122205   0.667   4.583  10.129 -0.1639 -1.1642 -1.1652
 3523SOL    HW222206   0.767   4.540  10.238  0.1486 -0.2933 -1.4685
 3524SOL     OW22207   0.231   3.380   9.522  0.0615  0.1417  0.2088
 3524SOL    HW122208   0.201   3.345   9.606  1.2292  1.6902  1.2700
 3524SOL    HW222209   0.309   3.326   9.507  0.8578  1.9300 -2.0126
 3525SOL     OW22210   2.469   3.322   7.894 -0.2259  0.1993 -0.6984
 3525SOL    HW122211   2.487   3.228   7.887 -1.2519 -0.0625  0.2102
 3525SOL    HW222212   2.390   3.328   7.840 -0.0427 -0.4424 -1.0375
 3526SOL     OW22213   3.590   4.375   7.358 -0.2263  0.1258  0.3801
 3526SOL    HW122214   3.620   4.461   7.387 -0.3899  0.2255  0.2547
 3526SOL    HW222215   3.558   4.406   7.273 -0.9701  0.4539  0.7788
 3527SOL     OW22216   2.212   1.662   2.523  0.3156 -0.5189  0.1878
 3527SOL    HW122217   2.174   1.604   2.457 -1.1972  0.2504  0.3731
 3527SOL    HW222218   2.302   1.668   2.491  0.3253  1.2501  0.5243
 3528SOL     OW22219   3.561   0.173  10.301  0.0397 -0.4073 -0.4022
 3528SOL    HW122220   3.550   0.093  10.250  0.6749 -1.1125  0.5606
 3528SOL    HW222221   3.474   0.210  10.310  0.2158  0.0693 -0.6338
 3529SOL     OW22222   4.616   0.647   7.725 -0.5030  0.0951  0.3035
 3529SOL    HW122223   4.649   0.629   7.637  1.4661  0.7139  0.9177
 3529SOL    HW222224   4.643   0.566   7.767 -0.9560 -0.9014 -1.3140
 3530SOL     OW22225   4.528   1.701  17.013  0.3146 -0.6408  0.4275
 3530SOL    HW122226   4.433   1.697  17.015  0.2347  0.7980 -0.3199
 3530SOL    HW222227   4.547   1.723  17.104 -2.3822 -2.1505  1.3347
 3531SOL     OW22228   1.364   4.561  15.562 -0.8856  0.0014  0.5762
 3531SOL    HW122229   1.408   4.634  15.519 -0.1120  0.2942  1.8732
 3531SOL    HW222230   1.435   4.512  15.603 -1.0568 -0.7083  0.0216
 3532SOL     OW22231   4.178   1.207  12.935  0.3743 -0.1001  0.4159
 3532SOL    HW122232   4.206   1.293  12.967 -0.4017 -0.7620  2.7833
 3532SOL    HW222233   4.137   1.165  13.010 -2.9565  2.0266 -0.1843
 3533SOL     OW22234   4.047   3.104   0.724 -0.1941 -0.5323  0.3511
 3533SOL    HW122235   3.961   3.072   0.699 -0.1624  0.4299 -1.0125
 3533SOL    HW222236   4.092   3.021   0.712  0.2335 -0.2969  0.2962
 3534SOL     OW22237   4.120   0.144  14.622 -0.5888 -0.4131 -0.0540
 3534SOL    HW122238   4.131   0.224  14.674  2.1195 -0.6432 -0.2661
 3534SOL    HW222239   4.210   0.113  14.613 -0.9403 -0.9605 -1.7371
 3535SOL     OW22240   2.339   2.352   5.203  0.3365 -0.1665  0.1997
 3535SOL    HW122241   2.255   2.368   5.160 -0.2581 -0.7088  1.1524
 3535SOL    HW222242   2.368   2.440   5.225 -0.4985 -0.0540  0.8707
 3536SOL     OW22243   3.277   4.369   9.931 -0.7812  0.3578 -0.0993
 3536SOL    HW122244   3.301   4.293   9.985 -1.6060  0.4331  0.3779
 3536SOL    HW222245   3.183   4.377   9.949 -0.7752 -1.7202  0.8784
 3537SOL     OW22246   2.033   0.463   3.425  0.5381 -0.2549  0.8379
 3537SOL    HW122247   2.109   0.405   3.426 -1.1334 -2.4259  0.4068
 3537SOL    HW222248   1.970   0.423   3.484 -0.6250 -0.5577 -0.5902
 3538SOL     OW22249   2.749   2.354  16.575 -0.3648  0.5944 -0.5543
 3538SOL    HW122250   2.818   2.319  16.632 -0.0644  0.1814 -1.1732
 3538SOL    HW222251   2.684   2.287  16.597 -1.3825  1.2290 -1.7132
 3539SOL     OW22252   1.065   3.434  16.629 -0.0982 -0.2957  0.5464
 3539SOL    HW122253   1.071   3.339  16.617  1.8344 -0.1460  0.4204
 3539SOL    HW222254   1.016   3.461  16.551 -1.1558 -3.1754  0.1890
 3540SOL     OW22255   3.829   2.361  17.672 -0.3296  0.6463 -0.4240
 3540SOL    HW122256   3.800   2.346  17.582  0.7947  0.9227 -0.8306
 3540SOL    HW222257   3.895   2.429  17.656 -0.9089  1.1358 -0.7237
 3541SOL     OW22258   3.286   1.847   9.206  1.1452  0.5539 -0.2325
 3541SOL    HW122259   3.352   1.852   9.137  1.2317 -1.7058 -0.3121
 3541SOL    HW222260   3.226   1.910   9.167 -0.4581 -0.2686  0.8931
 3542SOL     OW22261   4.591   0.834   5.523  0.0333  0.3854 -0.1404
 3542SOL    HW122262   4.640   0.774   5.579 -1.4774 -0.5678  0.1682
 3542SOL    HW222263   4.634   0.916   5.548 -2.0872  0.9877  1.5720
 3543SOL     OW22264   3.848   2.210  16.805 -0.0707 -0.6220 -0.5216
 3543SOL    HW122265   3.852   2.276  16.873 -2.3635  1.2862 -2.2310
 3543SOL    HW222266   3.771   2.162  16.836 -1.6954  1.5121 -1.2420
 3544SOL     OW22267   0.328   1.142  16.344  0.2181  0.2019  0.1609
 3544SOL    HW122268   0.385   1.130  16.420  1.1578  0.1923 -0.5519
 3544SOL    HW222269   0.306   1.233  16.364  0.8739  0.5296 -0.6027
 3545SOL     OW22270   2.703   0.559   3.945 -0.2909 -0.5860 -0.8619
 3545SOL    HW122271   2.636   0.500   3.911 -1.7126  0.0484  0.8268
 3545SOL    HW222272   2.645   0.629   3.973  0.0638 -0.9538  0.8089
 3546SOL     OW22273   1.659   2.034  16.816 -0.4070 -0.5873 -0.5910
 3546SOL    HW122274   1.665   2.099  16.886  0.2020 -0.0032 -1.1885
 3546SOL    HW222275   1.586   1.981  16.848 -0.9173  0.3234 -0.2417
 3547SOL     OW22276   1.711   2.710   8.872 -0.0188 -0.4895  0.3573
 3547SOL    HW122277   1.765   2.775   8.918  0.1338 -0.9308  0.7998
 3547SOL    HW222278   1.642   2.675   8.929  2.2730 -0.5396  3.1295
 3548SOL     OW22279   1.959   1.620  10.997 -0.3679 -0.0994 -0.6205
 3548SOL    HW122280   1.867   1.635  11.017 -0.7690 -1.0152 -1.8122
 3548SOL    HW222281   1.958   1.689  10.931 -1.2345 -0.7250 -1.2454
 3549SOL     OW22282   0.614   1.412  13.037  0.5137  0.5225  0.1315
 3549SOL    HW122283   0.622   1.387  12.945  1.8182 -1.0330  0.6795
 3549SOL    HW222284   0.617   1.508  13.034  0.7988  0.4844 -0.9503
 3550SOL     OW22285   1.910   2.967   6.693 -0.0611  0.2473  0.8218
 3550SOL    HW122286   1.933   3.036   6.756  0.7388  1.8462 -1.2185
 3550SOL    HW222287   1.819   2.986   6.670 -0.1246  1.4616  2.0493
 3551SOL     OW22288   3.883   2.545   4.509  0.3278 -0.3850  0.0767
 3551SOL    HW122289   3.969   2.565   4.471  0.3604 -0.7364 -0.0333
 3551SOL    HW222290   3.866   2.459   4.472 -1.6607 -0.6624  1.6383
 3552SOL     OW22291   0.309   1.203   2.347 -0.3744 -0.8316 -0.3869
 3552SOL    HW122292   0.387   1.155   2.375 -0.2654 -0.1657  0.4563
 3552SOL    HW222293   0.346   1.290   2.361 -1.6052 -0.3934  0.1543
 3553SOL     OW22294   1.871   4.371   7.119 -0.0141  0.0770  0.3878
 3553SOL    HW122295   1.878   4.316   7.198  1.4393  3.1774  2.4040
 3553SOL    HW222296   1.898   4.303   7.058  0.4904  0.3428  0.3183
 3554SOL     OW22297   0.440   0.172   0.066  0.1586  0.5931 -0.4951
 3554SOL    HW122298   0.416   0.184   0.158 -1.8966  1.7203 -1.1735
 3554SOL    HW222299   0.371   0.229   0.033  0.3875  0.4176 -1.2791
 3555SOL     OW22300   1.273   2.672  15.614 -0.2841  0.7779 -0.1184
 3555SOL    HW122301   1.312   2.616  15.547 -0.4448  0.2862  0.1951
 3555SOL    HW222302   1.219   2.738  15.570 -0.7621  1.3080  1.2875
 3556SOL     OW22303   0.216   0.168   8.409 -1.0048  0.2158  0.3483
 3556SOL    HW122304   0.168   0.147   8.489  1.0002 -0.6199  1.3317
 3556SOL    HW222305   0.199   0.082   8.370 -0.0278  0.4399 -0.5723
 3557SOL     OW22306   4.244   0.547   6.612 -0.4233 -0.2181  0.3665
 3557SOL    HW122307   4.219   0.550   6.704 -0.3385  0.1763  0.3791
 3557SOL    HW222308   4.229   0.454   6.597  2.8781 -0.8728  1.1366
 3558SOL     OW22309   0.520   4.445   2.994 -0.4332  0.2690  0.0729
 3558SOL    HW122310   0.568   4.398   3.062 -0.4812 -2.9906 -2.1410
 3558SOL    HW222311   0.574   4.413   2.922 -0.3193  1.7072 -0.4766
 3559SOL     OW22312   3.685   1.877   3.344  0.0409 -0.3483 -0.5007
 3559SOL    HW122313   3.715   1.934   3.415 -0.8958 -0.7030  0.1746
 3559SOL    HW222314   3.659   1.938   3.276 -2.0209  1.2248  1.7234
 3560SOL     OW22315   1.642   1.734   9.318  0.6969 -0.1245  0.0903
 3560SOL    HW122316   1.616   1.646   9.347  0.1012 -0.4504 -1.4169
 3560SOL    HW222317   1.595   1.732   9.234  0.0390 -0.4924  0.4645
 3561SOL     OW22318   3.815   0.776   4.349  0.1929 -0.0255 -0.0080
 3561SOL    HW122319   3.774   0.765   4.263 -1.6021 -1.4138  1.0350
 3561SOL    HW222320   3.818   0.871   4.356 -1.2569 -0.1778  2.7032
 3562SOL     OW22321   1.642   0.502   6.741 -0.3222 -0.4210  0.4080
 3562SOL    HW122322   1.731   0.507   6.775  0.1621  0.5496 -0.9659
 3562SOL    HW222323   1.599   0.568   6.796 -0.8675  0.6283 -1.2567
 3563SOL     OW22324   1.352   1.201  12.930  0.7245  0.1008 -0.4909
 3563SOL    HW122325   1.400   1.279  12.900 -2.5568  3.2308  2.3338
 3563SOL    HW222326   1.264   1.237  12.923  1.1760  1.3136 -0.0201
 3564SOL     OW22327   1.070   2.685   2.135  0.1761  0.0537  0.5433
 3564SOL    HW122328   1.157   2.648   2.143 -0.4503 -1.4593  0.3066
 3564SOL    HW222329   1.023   2.630   2.198 -0.2042  1.6607  1.6694
 3565SOL     OW22330   1.357   4.560   7.398 -0.1504  0.6115  0.0258
 3565SOL    HW122331   1.329   4.483   7.448  0.5542  1.9654  2.5352
 3565SOL    HW222332   1.301   4.629   7.433  0.3922  0.9533  0.2157
 3566SOL     OW22333   1.772   3.622  10.157  0.1044 -0.4291 -0.0638
 3566SOL    HW122334   1.771   3.718  10.161 -2.3129 -0.5067  0.9920
 3566SOL    HW222335   1.847   3.598  10.103  0.0454  0.8135 -0.7119
 3567SOL     OW22336   1.154   4.668   6.327  0.5094 -0.8630 -0.3026
 3567SOL    HW122337   1.236   4.635   6.363  2.0048  1.6095 -1.3929
 3567SOL    HW222338   1.182   4.716   6.248 -2.0073 -1.0424 -1.3220
 3568SOL     OW22339   3.961   2.192  17.262  0.2707 -0.3405  0.3631
 3568SOL    HW122340   4.033   2.152  17.213  1.2687 -2.4905  3.6053
 3568SOL    HW222341   3.943   2.265  17.203 -0.8277 -1.1439 -0.3124
 3569SOL     OW22342   3.770   0.252  10.867 -0.1458  0.2764 -0.4117
 3569SOL    HW122343   3.846   0.248  10.809  0.9205 -3.2563  1.2804
 3569SOL    HW222344   3.704   0.271  10.800  1.0655 -0.5225 -1.8321
 3570SOL     OW22345   4.277   4.293  16.696 -0.0803  0.3125 -0.5477
 3570SOL    HW122346   4.288   4.291  16.791  1.9471 -2.2009 -0.8470
 3570SOL    HW222347   4.194   4.338  16.683 -0.3892 -0.2079 -0.3696
 3571SOL     OW22348   1.327   0.887  17.022  0.0282 -0.2527  0.5353
 3571SOL    HW122349   1.265   0.951  16.988  0.3510 -0.5128 -0.5519
 3571SOL    HW222350   1.367   0.942  17.090 -1.4775 -0.0597  1.2623
 3572SOL     OW22351   4.033   3.457   1.613  0.1369  0.1421  0.3348
 3572SOL    HW122352   4.013   3.505   1.533 -0.2205  1.7809  1.3969
 3572SOL    HW222353   4.042   3.373   1.569 -1.5792 -0.5652  1.3252
 3573SOL     OW22354   3.986   1.663  13.846 -0.3814  0.2118 -1.0417
 3573SOL    HW122355   3.976   1.702  13.932 -2.6771 -2.7657  0.0669
 3573SOL    HW222356   4.027   1.738  13.803  0.4110  0.8048  0.7902
 3574SOL     OW22357   2.821   3.223   3.048  0.0005  0.7315 -0.6068
 3574SOL    HW122358   2.763   3.154   3.016  0.6260  0.0077 -0.1934
 3574SOL    HW222359   2.901   3.214   2.997  1.3453  0.0522  1.6100
 3575SOL     OW22360   1.275   0.612  17.082  0.4212  0.2179 -0.3187
 3575SOL    HW122361   1.338   0.684  17.082  0.2846  0.3350  0.2811
 3575SOL    HW222362   1.212   0.638  17.015 -1.5312  0.1492  1.4790
 3576SOL     OW22363   2.660   3.991  17.277 -0.3544  0.0472 -0.0729
 3576SOL    HW122364   2.582   4.033  17.241  0.1908  1.6350  0.5893
 3576SOL    HW222365   2.685   3.946  17.196  0.0024  0.5210 -0.2248
 3577SOL     OW22366   2.973   2.016   6.504  0.4996 -0.3591 -0.4444
 3577SOL    HW122367   2.974   2.092   6.446  0.0605  0.1294  0.1899
 3577SOL    HW222368   3.065   1.993   6.491  0.4673  0.5605 -2.2245
 3578SOL     OW22369   0.066   0.536   5.934 -0.1444 -0.0725  0.1862
 3578SOL    HW122370   0.023   0.458   5.900 -1.3178  1.0189 -0.8494
 3578SOL    HW222371   0.133   0.497   5.990 -2.1526 -2.2843  1.0463
 3579SOL     OW22372   2.271   1.662   4.486 -0.6662  0.2673  0.1786
 3579SOL    HW122373   2.263   1.703   4.399  0.4269  1.6566  0.7333
 3579SOL    HW222374   2.199   1.600   4.480 -1.3185  1.0091  0.3722
 3580SOL     OW22375   2.931   3.322   4.552  0.4588  0.1240 -0.2157
 3580SOL    HW122376   2.964   3.404   4.590 -0.7279  0.2574  0.5393
 3580SOL    HW222377   2.875   3.357   4.483  1.3108  1.4154 -0.2515
 3581SOL     OW22378   3.581   0.294   6.726  0.2060 -0.4271 -0.6524
 3581SOL    HW122379   3.553   0.229   6.661  1.7743 -1.5189 -0.2484
 3581SOL    HW222380   3.587   0.238   6.804  0.5660 -0.1898 -0.5124
 3582SOL     OW22381   0.260   1.153   5.213 -0.2800  0.2779  0.3130
 3582SOL    HW122382   0.266   1.059   5.198  1.2790  0.3099  0.7178
 3582SOL    HW222383   0.314   1.166   5.291  0.4347 -0.8510  0.0069
 3583SOL     OW22384   0.697   3.732   2.037 -0.0969 -0.0175 -0.3559
 3583SOL    HW122385   0.769   3.703   1.981  1.6201  1.8236  0.9009
 3583SOL    HW222386   0.634   3.662   2.019  0.3734 -0.9479  1.6092
 3584SOL     OW22387   0.651   3.772   4.153  0.7817  0.3006 -0.2442
 3584SOL    HW122388   0.622   3.754   4.064  1.1468  1.4329 -0.5894
 3584SOL    HW222389   0.622   3.863   4.150 -0.6464 -0.1573 -0.4644
 3585SOL     OW22390   0.345   2.198   8.216 -0.8656  0.3205 -0.6581
 3585SOL    HW122391   0.359   2.151   8.133  0.7074 -1.5618  0.6832
 3585SOL    HW222392   0.437   2.214   8.236 -1.6376  0.7375  2.5699
 3586SOL     OW22393   2.934   3.219  10.815  0.5492 -1.1705  0.6447
 3586SOL    HW122394   3.028   3.231  10.822  0.4683 -1.5378  2.1932
 3586SOL    HW222395   2.927   3.239  10.721 -1.5452 -0.9231  0.8428
 3587SOL     OW22396   3.143   4.216  15.462 -0.0577 -0.3960 -0.0558
 3587SOL    HW122397   3.088   4.159  15.408  0.7172 -0.8157 -0.3916
 3587SOL    HW222398   3.212   4.158  15.494 -1.1072 -0.4323  2.1767
 3588SOL     OW22399   2.993   4.503   1.943  0.3425  0.1477  0.3291
 3588SOL    HW122400   2.906   4.538   1.921 -0.9608 -3.4064 -0.2835
 3588SOL    HW222401   3.033   4.587   1.963 -2.5636  1.0011  2.6258
 3589SOL     OW22402   1.467   2.490  11.235  0.4040  0.2946  0.4574
 3589SOL    HW122403   1.417   2.539  11.170 -0.1060 -0.9214 -0.0813
 3589SOL    HW222404   1.482   2.409  11.186  0.9939  0.9238 -0.4039
 3590SOL     OW22405   0.287   2.244   6.531  0.3808 -0.1548  0.2190
 3590SOL    HW122406   0.236   2.235   6.611 -0.4277  0.2486 -0.2548
 3590SOL    HW222407   0.211   2.240   6.473  1.6422  0.9021 -1.5157
 3591SOL     OW22408   0.855   1.163   6.033 -0.5664  0.3555 -0.6194
 3591SOL    HW122409   0.799   1.212   5.972 -0.9050 -0.8834 -1.3034
 3591SOL    HW222410   0.931   1.166   5.976 -0.3912  1.3835 -0.3363
 3592SOL     OW22411   2.772   4.042  14.825  0.0164  0.6204 -0.2936
 3592SOL    HW122412   2.773   4.096  14.746 -1.9959 -0.2940 -0.9376
 3592SOL    HW222413   2.774   4.104  14.897 -0.9726  0.0542  0.2226
 3593SOL     OW22414   0.954   2.751   6.611 -0.3405 -0.5092 -0.1283
 3593SOL    HW122415   1.026   2.811   6.593 -2.7991  2.1132 -1.3320
 3593SOL    HW222416   0.962   2.745   6.706  1.5248  0.3032 -0.2494
 3594SOL     OW22417   4.029   0.425   4.551  0.8069  0.1229  0.2411
 3594SOL    HW122418   4.120   0.394   4.550  1.0299  0.8974 -4.2130
 3594SOL    HW222419   4.008   0.389   4.464  0.5688 -1.3368  0.9047
 3595SOL     OW22420   2.804   2.673  13.180  0.2451  0.6150  0.5900
 3595SOL    HW122421   2.831   2.744  13.238  0.8087 -0.3996  1.5582
 3595SOL    HW222422   2.728   2.716  13.141 -0.9468 -0.4594  1.7798
 3596SOL     OW22423   3.885   0.832   7.916  0.0487  0.1605  0.3744
 3596SOL    HW122424   3.870   0.921   7.885  1.2481  0.3347  0.2707
 3596SOL    HW222425   3.901   0.849   8.009  0.0800 -1.2763  0.6311
 3597SOL     OW22426   4.533   0.241   2.042  0.0170  0.0079  0.6897
 3597SOL    HW122427   4.470   0.247   1.970  1.0241  0.0426 -0.1823
 3597SOL    HW222428   4.525   0.147   2.060  1.5613 -0.2157  0.1744
 3598SOL     OW22429   0.782   3.070  13.743  0.0396 -0.1244 -0.2740
 3598SOL    HW122430   0.762   3.095  13.833  0.0986  1.8492 -0.7939
 3598SOL    HW222431   0.719   3.115  13.686  0.7185  0.4134 -0.6076
 3599SOL     OW22432   1.192   1.782   8.301 -0.0877  0.3473  0.3245
 3599SOL    HW122433   1.224   1.868   8.330  0.9132  1.1040 -2.9663
 3599SOL    HW222434   1.239   1.770   8.218  1.5655 -0.4237  1.3848
 3600SOL     OW22435   1.478   2.265   6.524  0.7093  0.2915 -0.4761
 3600SOL    HW122436   1.499   2.347   6.568  2.8663 -0.9157  0.7211
 3600SOL    HW222437   1.396   2.296   6.485  0.6583  1.7628  0.7786
 3601SOL     OW22438   1.902   1.624  10.138  0.2673 -0.3723  0.2636
 3601SOL    HW122439   1.886   1.577  10.057  1.5332 -2.2980  1.1346
 3601SOL    HW222440   1.967   1.687  10.108 -1.2598  1.8097  1.4473
 3602SOL     OW22441   3.398   2.251   2.605  0.1739 -0.1088 -0.1507
 3602SOL    HW122442   3.403   2.318   2.537  2.2064  1.1645  1.2432
 3602SOL    HW222443   3.491   2.226   2.612  0.7742  1.9455 -0.9242
 3603SOL     OW22444   3.124   4.411   8.447 -0.1262 -0.0473  0.0150
 3603SOL    HW122445   3.031   4.397   8.464  0.2244 -2.1596  0.1394
 3603SOL    HW222446   3.154   4.356   8.375  0.8256 -0.7529  0.9587
 3604SOL     OW22447   1.946   4.717  10.961 -0.4430 -0.7839  0.2924
 3604SOL    HW122448   1.885   0.052  10.983 -0.8960 -0.4224 -2.1115
 3604SOL    HW222449   1.924   4.657  11.031 -0.8336 -0.9853 -0.0049
 3605SOL     OW22450   1.401   3.240   3.376 -0.0275 -0.4408 -0.2529
 3605SOL    HW122451   1.427   3.301   3.444 -1.3484  1.5866 -1.5620
 3605SOL    HW222452   1.403   3.303   3.304  1.2358  0.3395  0.4726
 3606SOL     OW22453   0.381   3.015  14.082 -0.5085 -0.3465 -0.7501
 3606SOL    HW122454   0.362   3.080  14.150 -1.0653  0.2121 -1.4418
 3606SOL    HW222455   0.294   3.007  14.043 -1.5127  0.8313  1.2528
 3607SOL     OW22456   2.581   3.921  13.668 -0.4663  0.3155 -0.4877
 3607SOL    HW122457   2.560   3.900  13.759  0.1982  0.3855 -0.3152
 3607SOL    HW222458   2.495   3.951  13.637 -0.6179  1.3386  0.9380
 3608SOL     OW22459   4.630   4.076  17.643 -0.4830  0.0374  0.3700
 3608SOL    HW122460   4.706   4.021  17.665 -0.3769  0.1400  0.2577
 3608SOL    HW222461   4.551   4.035  17.678 -0.9210 -0.6374 -1.3690
 3609SOL     OW22462   1.869   3.695   1.252 -0.2625  0.8098  0.1034
 3609SOL    HW122463   1.890   3.641   1.328  2.4025 -0.3323 -1.4655
 3609SOL    HW222464   1.946   3.752   1.254 -0.2333  0.7740 -0.0448
 3610SOL     OW22465   1.027   1.097   8.456  0.1894 -0.8325 -0.1590
 3610SOL    HW122466   1.028   1.069   8.548 -0.6473 -0.3031  0.0109
 3610SOL    HW222467   1.052   1.015   8.414  2.6058  0.1964 -0.7285
 3611SOL     OW22468   4.144   1.792   1.382  0.0843  0.2079  0.0290
 3611SOL    HW122469   4.083   1.753   1.319  0.9685  0.4898 -0.9965
 3611SOL    HW222470   4.129   1.886   1.372  1.8374  0.4839 -0.0219
 3612SOL     OW22471   0.010   3.578   0.602  0.2554 -0.0926 -0.2938
 3612SOL    HW122472   4.700   3.493   0.605 -2.7404  1.5380  0.0695
 3612SOL    HW222473   4.683   3.650   0.610  2.3562  1.7793 -0.9060
 3613SOL     OW22474   4.289   0.027  11.983  0.2787 -0.2254 -0.2801
 3613SOL    HW122475   4.251   0.030  11.895 -1.2608  2.9890  0.4921
 3613SOL    HW222476   4.377   0.062  11.968 -0.0839  0.5610 -0.5243
 3614SOL     OW22477   0.396   2.229  14.468  0.4952 -0.4729 -0.3812
 3614SOL    HW122478   0.311   2.238  14.426  1.4165  0.8252 -1.9666
 3614SOL    HW222479   0.379   2.241  14.562 -0.5933 -1.6722 -0.4336
 3615SOL     OW22480   4.004   2.285   2.369 -0.1548  0.2702 -0.2518
 3615SOL    HW122481   3.929   2.285   2.309 -0.1705  0.9856 -0.2362
 3615SOL    HW222482   3.972   2.321   2.451  1.5582 -1.0282  0.9990
 3616SOL     OW22483   4.588   3.763   8.056 -0.0321  0.3012 -0.1852
 3616SOL    HW122484   4.638   3.786   8.135 -0.9437 -0.9598  0.7485
 3616SOL    HW222485   4.631   3.678   8.044 -0.5634 -0.0867  0.6300
 3617SOL     OW22486   0.357   2.513   4.313 -0.1598  0.0683 -0.0475
 3617SOL    HW122487   0.360   2.432   4.261 -0.1948  0.9812 -1.4571
 3617SOL    HW222488   0.321   2.492   4.399 -0.5524  0.8391 -0.0275
 3618SOL     OW22489   0.676   0.548  16.723 -0.6812  0.2639 -0.1162
 3618SOL    HW122490   0.756   0.600  16.723 -1.4246  1.4183 -0.8356
 3618SOL    HW222491   0.610   0.614  16.746  0.0765  0.8609  0.3359
 3619SOL     OW22492   4.003   2.062  10.754  0.3356  0.3469 -0.1622
 3619SOL    HW122493   3.913   2.029  10.758  0.4476  0.2686  1.6496
 3619SOL    HW222494   4.044   2.006  10.820 -0.4454 -1.4696 -1.1971
 3620SOL     OW22495   2.942   1.644   4.982 -0.4233  0.1648  0.8534
 3620SOL    HW122496   2.995   1.577   5.026  1.2485  0.3262 -0.8741
 3620SOL    HW222497   2.934   1.703   5.057 -0.9523 -0.2202  1.0944
 3621SOL     OW22498   1.585   1.587   3.690  0.2980  0.3465  0.2735
 3621SOL    HW122499   1.496   1.618   3.708  0.6421  1.6628 -0.2809
 3621SOL    HW222500   1.632   1.656   3.737 -0.0252  0.9835 -0.3432
 3622SOL     OW22501   0.074   0.183   0.249  0.0033  0.4236  0.2973
 3622SOL    HW122502   0.162   0.219   0.246 -0.1052  0.6313 -0.3714
 3622SOL    HW222503   0.022   0.263   0.239 -1.5859 -0.5301  0.8764
 3623SOL     OW22504   4.301   4.307  16.315 -0.4819  0.4176  0.0586
 3623SOL    HW122505   4.211   4.287  16.288 -0.8477  0.5486  1.1741
 3623SOL    HW222506   4.289   4.340  16.404 -2.5550  0.4293 -0.2067
 3624SOL     OW22507   0.517   1.538  13.856  0.3545 -0.5946  0.0193
 3624SOL    HW122508   0.433   1.492  13.864 -0.2822  0.3400 -1.1716
 3624SOL    HW222509   0.575   1.463  13.851  0.0121 -0.6412 -3.2473
 3625SOL     OW22510   3.518   1.383   8.155 -0.7326  0.4598 -0.6469
 3625SOL    HW122511   3.549   1.301   8.116 -4.2082 -2.6883  3.2181
 3625SOL    HW222512   3.547   1.447   8.089  1.8212  1.5883  1.5485
 3626SOL     OW22513   2.282   1.702  16.592 -0.8793 -0.2995 -0.1467
 3626SOL    HW122514   2.254   1.615  16.563 -1.4559 -0.6856  1.5625
 3626SOL    HW222515   2.198   1.747  16.598  0.2021  1.4332  2.2597
 3627SOL     OW22516   2.020   2.383   2.107  0.1481  0.2050 -0.0618
 3627SOL    HW122517   2.044   2.471   2.137 -1.7244  1.4534 -2.2484
 3627SOL    HW222518   1.942   2.401   2.055 -0.8891  0.7225  1.6510
 3628SOL     OW22519   4.030   3.741   3.290  0.3492  0.3148 -0.1660
 3628SOL    HW122520   4.017   3.651   3.259  2.6719 -0.1800  0.2982
 3628SOL    HW222521   4.114   3.766   3.252 -0.1545 -2.5774 -3.1611
 3629SOL     OW22522   4.436   2.236   5.172  0.4851  0.1967  0.7043
 3629SOL    HW122523   4.515   2.291   5.170  1.7271 -1.7103 -1.9761
 3629SOL    HW222524   4.460   2.171   5.239  0.4785 -1.3851 -0.8401
 3630SOL     OW22525   4.485   3.903  10.985  0.6591 -0.5255  0.2067
 3630SOL    HW122526   4.479   3.945  10.899  0.0128  0.6321  0.8155
 3630SOL    HW222527   4.539   3.831  10.952  0.1657 -0.2221 -1.2588
 3631SOL     OW22528   1.997   2.126  10.707 -0.4452  0.0088  0.1978
 3631SOL    HW122529   2.025   2.177  10.631 -1.9281  2.8843  1.5584
 3631SOL    HW222530   2.054   2.151  10.779 -0.2793 -0.4984  0.2409
 3632SOL     OW22531   4.414   4.091   2.210  0.4745  0.0054 -0.2838
 3632SOL    HW122532   4.475   4.067   2.281 -2.9851  0.1230  2.7346
 3632SOL    HW222533   4.470   4.074   2.135 -1.5019  1.6491 -2.1069
 3633SOL     OW22534   3.244   4.320  11.823  0.3843  0.3536 -0.1901
 3633SOL    HW122535   3.200   4.353  11.744  1.0823  0.3276 -0.5969
 3633SOL    HW222536   3.304   4.252  11.792 -0.2095 -0.9347  1.5211
 3634SOL     OW22537   3.394   2.173   3.721 -0.5860  0.2085 -0.1393
 3634SOL    HW122538   3.402   2.269   3.720  3.0680 -0.1058 -1.0750
 3634SOL    HW222539   3.304   2.166   3.754 -0.2416  1.5125  1.0823
 3635SOL     OW22540   3.493   0.251   3.198  0.9583  0.2652 -0.2639
 3635SOL    HW122541   3.518   0.329   3.248 -0.0011  0.0120  0.6019
 3635SOL    HW222542   3.532   0.262   3.112  1.0394  2.5405  0.0486
 3636SOL     OW22543   4.450   3.304   5.409  0.1316  0.1434  0.3668
 3636SOL    HW122544   4.501   3.237   5.455 -0.9865 -0.1825  1.1386
 3636SOL    HW222545   4.427   3.367   5.478 -0.0849  1.1837 -0.6557
 3637SOL     OW22546   1.940   0.727   0.505 -0.0932  0.3217 -0.1860
 3637SOL    HW122547   1.890   0.757   0.429 -1.4917  0.3589  0.7453
 3637SOL    HW222548   1.961   0.639   0.474  1.2892  0.5976 -0.0274
 3638SOL     OW22549   4.642   0.224   4.087 -0.1337  0.1963 -0.3960
 3638SOL    HW122550   4.615   0.236   4.178  0.5934 -1.0538 -0.0303
 3638SOL    HW222551   4.629   0.311   4.050  2.3354  0.9329  0.4462
 3639SOL     OW22552   3.539   3.810   3.227  0.4085 -0.0302 -0.0962
 3639SOL    HW122553   3.490   3.731   3.207  2.7042 -1.5792  0.3694
 3639SOL    HW222554   3.630   3.788   3.208  0.9995  0.9295  1.6241
 3640SOL     OW22555   0.385   0.153  17.440 -0.4219 -0.6541 -0.3271
 3640SOL    HW122556   0.298   0.186  17.462 -0.0449 -0.6343  1.1443
 3640SOL    HW222557   0.440   0.227  17.466 -1.1423  0.0527 -0.8076
 3641SOL     OW22558   3.438   4.221  15.506  0.2051 -0.3765  0.0033
 3641SOL    HW122559   3.395   4.269  15.435  0.3153 -0.0470  0.1579
 3641SOL    HW222560   3.470   4.293  15.561  3.8861 -2.2381  0.2693
 3642SOL     OW22561   0.337   3.137   2.279 -0.5661 -0.1811 -0.3900
 3642SOL    HW122562   0.427   3.165   2.261 -0.8972  1.0276 -0.1530
 3642SOL    HW222563   0.288   3.216   2.256 -1.4662 -0.8861 -0.9115
 3643SOL     OW22564   4.247   3.890   2.245 -0.0476 -0.5497  0.4477
 3643SOL    HW122565   4.181   3.958   2.238  0.0063 -0.5420  0.0128
 3643SOL    HW222566   4.329   3.936   2.228 -0.6501 -0.4508 -2.1273
 3644SOL     OW22567   0.127   4.266   7.400  0.1914  0.3361 -0.1479
 3644SOL    HW122568   0.183   4.298   7.470  2.0353  0.3209 -1.5999
 3644SOL    HW222569   0.096   4.350   7.367 -2.1966 -0.9512 -1.1740
 3645SOL     OW22570   1.758   1.049   3.962  0.2310 -0.1222  0.4425
 3645SOL    HW122571   1.716   1.124   4.004  1.3285  0.3901  0.6238
 3645SOL    HW222572   1.842   1.084   3.934  1.3986 -2.0729  1.4533
 3646SOL     OW22573   0.889   1.371   3.212 -0.2269  0.3120  0.2354
 3646SOL    HW122574   0.861   1.340   3.298 -1.2020  1.1053  0.2066
 3646SOL    HW222575   0.979   1.340   3.212  0.1728  1.4640  1.5435
 3647SOL     OW22576   0.507   2.299   2.528 -0.2116  0.1932 -0.2108
 3647SOL    HW122577   0.557   2.219   2.547  0.6662  0.7759 -0.0215
 3647SOL    HW222578   0.541   2.350   2.602  3.6224  1.0473 -2.5130
 3648SOL     OW22579   4.242   2.412   0.609  0.0568  0.1818  0.0062
 3648SOL    HW122580   4.258   2.358   0.532 -0.3221  0.0812 -0.0039
 3648SOL    HW222581   4.284   2.356   0.674 -0.5521  0.2498  0.4608
 3649SOL     OW22582   3.982   4.473   3.540  0.7290 -0.0728  0.7372
 3649SOL    HW122583   3.999   4.497   3.449  3.4381  0.1137  1.2973
 3649SOL    HW222584   3.963   4.561   3.571  0.5772 -0.7500  2.5827
 3650SOL     OW22585   1.888   2.476   6.978  0.0510 -0.4214  0.0341
 3650SOL    HW122586   1.831   2.540   7.020  0.8169  0.7709 -0.7296
 3650SOL    HW222587   1.829   2.402   6.965  1.8297 -1.6174 -1.3651
 3651SOL     OW22588   2.391   1.534   1.856  0.1604  0.1836 -0.2222
 3651SOL    HW122589   2.359   1.444   1.853 -0.2136  0.2619  1.9242
 3651SOL    HW222590   2.475   1.522   1.812  0.1766  2.3024 -0.7952
 3652SOL     OW22591   4.632   3.346   4.803  0.2029 -0.1202 -0.7684
 3652SOL    HW122592   4.676   3.391   4.875  0.8696 -0.4358 -0.9825
 3652SOL    HW222593   4.550   3.395   4.790  0.6610  1.0315  0.6570
 3653SOL     OW22594   4.579   1.498   0.874 -0.8092 -0.3774 -0.0540
 3653SOL    HW122595   4.555   1.541   0.956 -0.7304 -1.3098  0.4598
 3653SOL    HW222596   4.640   1.435   0.913 -0.3945  0.9282  1.4204
 3654SOL     OW22597   4.651   1.533  11.488  0.3350 -0.0906  0.0008
 3654SOL    HW122598   4.625   1.602  11.427  0.6307  0.7678  0.8642
 3654SOL    HW222599   4.597   1.459  11.460 -0.4927  0.4879  0.0834
 3655SOL     OW22600   3.177   4.238  15.060 -0.0829 -0.1419  0.1934
 3655SOL    HW122601   3.083   4.249  15.064 -0.2964 -1.4549 -0.8529
 3655SOL    HW222602   3.189   4.146  15.036 -0.6522  0.4015 -2.1812
 3656SOL     OW22603   3.043   2.493   3.767  0.5344  0.2368 -0.3466
 3656SOL    HW122604   2.961   2.476   3.721  0.6085 -2.1507  0.4068
 3656SOL    HW222605   3.077   2.405   3.784  2.1144  1.0392  0.5842
 3657SOL     OW22606   4.271   4.273  16.958  0.2084 -0.3677 -0.0778
 3657SOL    HW122607   4.253   4.335  17.028  2.1842  0.0720  0.0615
 3657SOL    HW222608   4.280   4.189  17.004  0.7637  0.5672  1.5136
 3658SOL     OW22609   4.308   3.226   9.518  0.0220 -0.4380  0.4644
 3658SOL    HW122610   4.288   3.133   9.515 -1.0534 -0.1965  0.2936
 3658SOL    HW222611   4.336   3.238   9.609 -2.1018  0.4519  0.9933
 3659SOL     OW22612   2.886   4.218   6.431 -0.5500 -0.0984 -0.0347
 3659SOL    HW122613   2.802   4.217   6.477 -0.8760 -0.5473 -0.6431
 3659SOL    HW222614   2.858   4.161   6.359 -2.3802  0.3785  0.2988
 3660SOL     OW22615   4.589   0.130   6.001 -0.0857 -0.5884  0.3956
 3660SOL    HW122616   4.509   0.082   5.981  0.4596 -1.4109  0.1920
 3660SOL    HW222617   4.640   0.055   6.031 -1.6468 -1.5602  0.6348
 3661SOL     OW22618   4.061   1.166   7.261  0.6059 -0.2983  0.7012
 3661SOL    HW122619   4.145   1.170   7.306  0.8855  0.7648  0.0865
 3661SOL    HW222620   4.006   1.122   7.326  0.0364 -0.0567  0.3816
 3662SOL     OW22621   4.268   4.690  14.332  0.2184  0.1889 -0.2697
 3662SOL    HW122622   4.321   4.698  14.411 -0.3894 -0.2693  0.1863
 3662SOL    HW222623   4.242   4.598  14.327  1.5456 -0.1600 -0.7820
 3663SOL     OW22624   2.839   0.007  15.436  0.2911 -0.1055  0.6449
 3663SOL    HW122625   2.860   0.087  15.483 -1.7146  0.3439  0.7969
 3663SOL    HW222626   2.876   0.028  15.351  0.9918 -1.3243  0.6476
 3664SOL     OW22627   1.492   2.626   4.109 -0.8039  0.1500  0.2758
 3664SOL    HW122628   1.468   2.613   4.201  0.4659  0.7345  0.6738
 3664SOL    HW222629   1.407   2.599   4.073 -0.6704  0.0755  0.0180
 3665SOL     OW22630   0.179   4.614   2.247  0.9969 -0.2519 -0.2987
 3665SOL    HW122631   0.245   4.614   2.316  0.4315  1.6589  0.2611
 3665SOL    HW222632   0.198   4.531   2.204  1.2398  0.2161 -1.1058
 3666SOL     OW22633   4.673   4.103   3.348 -0.2622 -0.1124  0.7960
 3666SOL    HW122634   4.720   4.047   3.286  1.6899  0.7663  1.4865
 3666SOL    HW222635   4.591   4.053   3.354 -0.7988  0.6571 -0.0182
 3667SOL     OW22636   0.176   0.067   6.197  0.0262 -0.2829 -1.0471
 3667SOL    HW122637   0.136   0.012   6.130 -1.9879  2.0966 -1.7947
 3667SOL    HW222638   0.095   0.090   6.241 -0.4939  0.0527 -2.1631
 3668SOL     OW22639   4.470   3.621  10.646  0.2907  0.5003 -0.1399
 3668SOL    HW122640   4.493   3.711  10.668  1.2814  0.1954  0.0587
 3668SOL    HW222641   4.392   3.601  10.698  0.3232  0.4051 -0.1267
 3669SOL     OW22642   2.541   2.313  16.245 -0.1662 -0.3560 -0.4362
 3669SOL    HW122643   2.547   2.226  16.285  0.2472  0.6878  1.7285
 3669SOL    HW222644   2.635   2.328  16.249  0.2780 -2.3787 -2.8891
 3670SOL     OW22645   4.405   1.939   4.197  0.5790 -0.8542  0.5787
 3670SOL    HW122646   4.337   1.905   4.256 -0.1157 -0.4370  0.0100
 3670SOL    HW222647   4.351   1.951   4.120  1.9460  0.4744 -0.1764
 3671SOL     OW22648   2.365   4.060   6.889 -0.7161 -0.2460  0.1813
 3671SOL    HW122649   2.429   3.993   6.868 -0.0093  0.6501 -0.5403
 3671SOL    HW222650   2.317   4.060   6.806  0.6934 -1.3645 -0.6333
 3672SOL     OW22651   2.290   0.445   7.907 -0.3896 -0.3636 -0.2232
 3672SOL    HW122652   2.221   0.391   7.867  0.9564 -2.1627 -0.1152
 3672SOL    HW222653   2.246   0.461   7.990  1.6637 -1.5671  1.0966
 3673SOL     OW22654   2.517   1.410   0.590 -0.5470  0.2023 -0.0756
 3673SOL    HW122655   2.434   1.411   0.638 -0.2284 -0.4211  0.4795
 3673SOL    HW222656   2.485   1.361   0.514  2.9065 -3.1695  0.6729
 3674SOL     OW22657   1.094   4.046   0.085  0.1117 -0.0150  0.0353
 3674SOL    HW122658   1.061   3.957   0.070  1.7180 -0.2328 -2.2641
 3674SOL    HW222659   1.055   4.064   0.170  0.5741 -0.9782  0.4529
 3675SOL     OW22660   4.695   4.420   4.108 -0.0259  0.3803 -0.1997
 3675SOL    HW122661   4.656   4.339   4.139  0.3467 -0.0090 -0.7389
 3675SOL    HW222662   4.621   4.471   4.075  0.0477  0.8173  0.3013
 3676SOL     OW22663   0.605   4.015   8.560  0.6590 -0.5051 -0.3623
 3676SOL    HW122664   0.699   4.024   8.569  0.3255  1.7545  0.9633
 3676SOL    HW222665   0.584   3.992   8.651 -2.1951  1.0143 -0.6373
 3677SOL     OW22666   3.597   2.189   3.963  0.1443  0.0076  0.0529
 3677SOL    HW122667   3.591   2.125   3.892  1.5747 -0.7384  0.6021
 3677SOL    HW222668   3.665   2.241   3.921 -0.3398 -0.6438 -1.5539
 3678SOL     OW22669   4.271   2.262   2.034 -0.2453  0.2865 -0.9777
 3678SOL    HW122670   4.328   2.199   1.990 -0.4665 -0.0145 -0.8273
 3678SOL    HW222671   4.189   2.219   2.012 -0.6975  0.7448 -0.1616
 3679SOL     OW22672   2.508   0.679  17.203 -0.0987 -0.0237  0.3572
 3679SOL    HW122673   2.510   0.588  17.175 -0.9176 -0.3042  1.2332
 3679SOL    HW222674   2.440   0.709  17.143  0.8702  0.2049 -0.6271
 3680SOL     OW22675   0.994   3.350   3.790 -0.1584 -0.6065  0.0546
 3680SOL    HW122676   0.942   3.288   3.739 -0.0726 -1.3095  0.8339
 3680SOL    HW222677   1.005   3.412   3.718  1.0643  0.5996  1.2507
 3681SOL     OW22678   1.717   1.496   6.422 -0.2396  0.3049 -0.2204
 3681SOL    HW122679   1.685   1.406   6.430  2.6958 -0.5811  1.4840
 3681SOL    HW222680   1.642   1.550   6.396 -0.0386  0.8611  0.3746
 3682SOL     OW22681   2.748   3.788  14.943  0.0965  0.2931  0.2748
 3682SOL    HW122682   2.841   3.768  14.942  0.4096  1.7169  2.1855
 3682SOL    HW222683   2.752   3.873  14.899 -1.6306  1.3173  2.1402
 3683SOL     OW22684   3.795   1.384   8.649 -0.1760 -0.5248  0.0018
 3683SOL    HW122685   3.870   1.414   8.701 -1.5792  0.1818  1.6185
 3683SOL    HW222686   3.821   1.417   8.563  1.4015  0.0956  0.7070
 3684SOL     OW22687   0.906   4.239   5.576  0.0830  0.3102  0.8715
 3684SOL    HW122688   0.859   4.258   5.496  0.6805 -0.3650  0.3596
 3684SOL    HW222689   0.829   4.227   5.633 -0.2124  3.1610  1.0482
 3685SOL     OW22690   2.861   2.990   8.341  0.4076 -0.3062 -0.0345
 3685SOL    HW122691   2.781   3.033   8.310  0.6163 -0.4729 -0.8059
 3685SOL    HW222692   2.857   2.914   8.283  2.5916 -0.3882 -0.0634
 3686SOL     OW22693   4.472   4.721   7.550  0.3015 -0.2603 -0.0269
 3686SOL    HW122694   4.548   4.718   7.493  1.9444  0.7557  2.1254
 3686SOL    HW222695   4.447   4.629   7.538 -2.1907  0.2661  0.9277
 3687SOL     OW22696   0.283   1.109   4.496 -0.6234  0.1662 -0.2701
 3687SOL    HW122697   0.211   1.049   4.517  0.0491 -1.1344 -1.6415
 3687SOL    HW222698   0.342   1.050   4.450  0.8517  0.5262  1.1857
 3688SOL     OW22699   4.668   0.964   9.242  0.4613 -0.2881 -0.1787
 3688SOL    HW122700   4.709   1.007   9.317 -0.1262  0.6911 -0.4176
 3688SOL    HW222701   0.004   0.951   9.180  1.2612  1.5487  0.3535
 3689SOL     OW22702   3.659   3.041   4.509 -0.1048  0.3643 -0.7809
 3689SOL    HW122703   3.707   3.067   4.588 -0.4939 -1.5657  0.0718
 3689SOL    HW222704   3.568   3.071   4.515 -0.3945 -0.9834  1.4311
 3690SOL     OW22705   1.203   1.746   3.480 -0.3175 -0.1596 -0.0447
 3690SOL    HW122706   1.111   1.720   3.472  0.5450 -3.4333  0.6418
 3690SOL    HW222707   1.249   1.693   3.415 -0.0115  0.8223 -0.6262
 3691SOL     OW22708   4.333   4.455   2.975 -0.2231  0.2197 -0.1145
 3691SOL    HW122709   4.400   4.444   2.907  1.2512  2.0512  1.0647
 3691SOL    HW222710   4.335   4.549   2.991  0.3048  0.1206  0.3980
 3692SOL     OW22711   3.223   2.515  16.517  0.2889  0.3770 -0.7981
 3692SOL    HW122712   3.187   2.525  16.429 -2.6578  2.6979  0.6653
 3692SOL    HW222713   3.235   2.609  16.530  1.3162  0.0461  0.6410
 3693SOL     OW22714   1.247   2.162   0.509  0.2988  0.3503  0.2319
 3693SOL    HW122715   1.187   2.089   0.493  2.4855 -1.4800  0.4231
 3693SOL    HW222716   1.326   2.111   0.527  0.2107 -0.2128 -0.9325
 3694SOL     OW22717   4.707   0.415   3.622  0.4486 -1.1160  0.0134
 3694SOL    HW122718   4.641   0.354   3.590 -0.1111 -0.1757 -0.6360
 3694SOL    HW222719   0.049   0.393   3.571  1.0830  1.9719 -0.3501
 3695SOL     OW22720   3.783   4.580  15.049  0.2978 -0.0821 -0.1001
 3695SOL    HW122721   3.771   4.675  15.061 -3.4336 -0.6924  1.0094
 3695SOL    HW222722   3.733   4.550  15.126 -0.5260  1.0273 -0.1997
 3696SOL     OW22723   4.054   3.093  16.887  0.5766  0.6477 -0.0305
 3696SOL    HW122724   3.959   3.101  16.875  0.5431  2.1522  1.2921
 3696SOL    HW222725   4.067   3.094  16.982  1.1750 -0.8064 -0.0922
 3697SOL     OW22726   3.704   3.435   2.189 -0.5511 -0.0882  0.0961
 3697SOL    HW122727   3.726   3.497   2.120 -0.1316  0.3286  0.6030
 3697SOL    HW222728   3.791   3.427   2.228 -0.4437  1.2099  0.1123
 3698SOL     OW22729   2.042   0.960   4.926  0.0581 -0.0683 -0.1128
 3698SOL    HW122730   2.067   0.883   4.978 -1.2141  0.4906  1.3172
 3698SOL    HW222731   2.080   1.035   4.972 -0.3197  2.5540 -4.0834
 3699SOL     OW22732   2.888   1.701   5.254  0.1998 -0.0344  0.2714
 3699SOL    HW122733   2.794   1.707   5.270  0.6563 -2.6638  3.8646
 3699SOL    HW222734   2.921   1.710   5.344  1.3962  1.7837 -0.3505
 3700SOL     OW22735   2.335   2.963   2.312 -0.6620 -0.7720  0.4295
 3700SOL    HW122736   2.319   3.054   2.288 -2.1896 -0.6690  1.8325
 3700SOL    HW222737   2.361   2.923   2.229 -1.6199  3.3687 -1.8850
 3701SOL     OW22738   3.218   2.912  13.454  0.1243  0.0598 -0.6756
 3701SOL    HW122739   3.131   2.871  13.460 -0.4675  1.7737  2.6760
 3701SOL    HW222740   3.230   2.891  13.362  1.6838 -3.4464  0.3465
 3702SOL     OW22741   4.277   3.552   9.153 -0.1639 -0.4114  0.3576
 3702SOL    HW122742   4.241   3.636   9.182 -0.1248 -0.9656  1.9916
 3702SOL    HW222743   4.279   3.509   9.238  0.3173 -2.8768 -0.8919
 3703SOL     OW22744   2.606   0.751   4.888  0.1466  0.3934  0.0285
 3703SOL    HW122745   2.617   0.808   4.812  0.4660  1.5533  0.9485
 3703SOL    HW222746   2.617   0.815   4.958  0.4219 -0.4278  0.7371
 3704SOL     OW22747   0.938   4.688   8.113  0.5761 -0.4172  0.1057
 3704SOL    HW122748   0.906   4.714   8.027 -0.4294 -0.0774  0.5795
 3704SOL    HW222749   0.927   0.032   8.165  1.2544  0.2335 -0.7562
 3705SOL     OW22750   3.572   4.127   2.193 -0.3536  0.3890  1.2019
 3705SOL    HW122751   3.514   4.179   2.137  1.4054 -0.7130 -1.5938
 3705SOL    HW222752   3.622   4.195   2.239 -1.6137  1.3119  1.2216
 3706SOL     OW22753   2.397   4.598   2.474 -0.1684  0.2579 -0.2389
 3706SOL    HW122754   2.477   4.550   2.450  0.0917  0.3208  0.5238
 3706SOL    HW222755   2.428   4.681   2.511  0.2849 -0.4861  1.0547
 3707SOL     OW22756   4.549   4.441   7.434  0.1232  0.4783  0.3883
 3707SOL    HW122757   4.638   4.450   7.402  0.3783 -1.2843  0.6088
 3707SOL    HW222758   4.549   4.349   7.461  1.1215  0.5199  0.5368
 3708SOL     OW22759   0.509   0.584  12.677 -0.2508 -0.2616  0.1517
 3708SOL    HW122760   0.593   0.626  12.659  0.0736  0.0152  2.2811
 3708SOL    HW222761   0.508   0.596  12.772  0.8369 -1.9541  0.3829
 3709SOL     OW22762   0.260   4.596   4.566  0.6231  0.0432 -0.2416
 3709SOL    HW122763   0.306   4.667   4.521 -1.3116  2.7517  2.0208
 3709SOL    HW222764   0.234   4.640   4.647  3.4064  2.3078 -0.5555
 3710SOL     OW22765   4.206   2.154   3.386 -0.0246  0.0365  0.1344
 3710SOL    HW122766   4.193   2.086   3.453  0.5012  0.1266  0.3301
 3710SOL    HW222767   4.123   2.160   3.338 -0.0505  2.0285  0.4036
 3711SOL     OW22768   3.437   0.547   4.397 -0.1771  0.3693  0.7348
 3711SOL    HW122769   3.396   0.543   4.311  0.9351 -0.1222  0.2267
 3711SOL    HW222770   3.379   0.487   4.443  1.8334 -1.3559  1.0327
 3712SOL     OW22771   2.728   0.149  11.177  0.5855  0.3697  0.6749
 3712SOL    HW122772   2.716   0.244  11.181  0.8974  0.4862 -1.2207
 3712SOL    HW222773   2.666   0.130  11.107  0.8253 -2.3867  1.2122
 3713SOL     OW22774   4.392   2.644   6.787 -0.1813 -0.1822  0.0597
 3713SOL    HW122775   4.333   2.701   6.738 -0.7519  1.4425  2.6696
 3713SOL    HW222776   4.420   2.589   6.713 -2.0329 -1.3203  0.2056
 3714SOL     OW22777   3.402   2.354   4.450  0.4292  0.7498 -0.1251
 3714SOL    HW122778   3.446   2.435   4.425 -0.0436  1.1597  0.3918
 3714SOL    HW222779   3.314   2.385   4.431  0.0842 -0.5790 -0.7260
 3715SOL     OW22780   0.476   3.750   9.639  0.0575 -0.5612  0.0041
 3715SOL    HW122781   0.487   3.702   9.557  0.8173  0.0782 -0.2714
 3715SOL    HW222782   0.569   3.756   9.662  0.3628 -0.3118 -1.2801
 3716SOL     OW22783   3.099   1.020   8.041 -0.1156  0.8084  0.3192
 3716SOL    HW122784   3.181   1.058   8.071  0.4413 -1.4615  1.6999
 3716SOL    HW222785   3.054   1.099   8.010  0.1173  0.0916 -1.8241
 3717SOL     OW22786   3.860   4.132  15.244 -0.7206 -0.1503 -0.0032
 3717SOL    HW122787   3.891   4.215  15.207 -0.1525  0.2546  1.3914
 3717SOL    HW222788   3.770   4.158  15.263 -0.1182  3.3283 -1.7357
 3718SOL     OW22789   3.797   1.942  14.185  0.3890 -0.1643  0.4351
 3718SOL    HW122790   3.834   1.940  14.273  1.0592 -2.7005  0.1018
 3718SOL    HW222791   3.856   1.880  14.141 -0.3436 -0.7125  0.2136
 3719SOL     OW22792   4.575   4.284  12.773  0.0234  0.0631  0.2837
 3719SOL    HW122793   4.662   4.245  12.784 -0.9161 -1.5402  2.1037
 3719SOL    HW222794   4.553   4.287  12.867 -1.3377  2.6398 -0.1254
 3720SOL     OW22795   4.491   4.603  12.087 -0.2190  0.7280  0.1919
 3720SOL    HW122796   4.532   4.601  12.173 -0.1477  1.8492  0.1875
 3720SOL    HW222797   4.473   4.697  12.086 -1.5076  0.4825  0.7291
 3721SOL     OW22798   1.227   3.654  16.448 -0.7474 -0.2145  0.3707
 3721SOL    HW122799   1.275   3.577  16.419 -1.7811 -0.2438 -1.2368
 3721SOL    HW222800   1.139   3.632  16.418 -1.1946  0.3265  1.2759
 3722SOL     OW22801   3.742   3.147   9.167 -0.0667  0.0481  0.4696
 3722SOL    HW122802   3.828   3.188   9.168 -0.5862  1.1602 -0.0571
 3722SOL    HW222803   3.691   3.223   9.196 -0.9310  0.7035 -2.7687
 3723SOL     OW22804   2.936   2.983   5.072  0.4927  0.2468 -0.1131
 3723SOL    HW122805   2.968   3.014   4.987  1.2145  2.4649  0.9561
 3723SOL    HW222806   2.900   2.903   5.033 -0.9732  1.0175 -0.3384
 3724SOL     OW22807   1.495   3.713   3.093  0.0599  0.3010 -0.0537
 3724SOL    HW122808   1.511   3.739   3.002 -1.8695 -1.6968 -0.9497
 3724SOL    HW222809   1.557   3.770   3.139  0.3173 -0.8642  1.0364
 3725SOL     OW22810   0.657   0.571   8.248 -0.5626 -1.3543 -0.5546
 3725SOL    HW122811   0.568   0.569   8.211 -0.5251 -2.2868 -0.5848
 3725SOL    HW222812   0.676   0.485   8.211  2.0031 -1.0855  0.1149
 3726SOL     OW22813   2.282   3.294   2.746  0.1294 -0.1644  0.4225
 3726SOL    HW122814   2.345   3.231   2.779  1.2902 -0.2199 -1.9020
 3726SOL    HW222815   2.337   3.371   2.759  0.5430 -0.0419 -1.9720
 3727SOL     OW22816   2.597   1.855   7.788  0.3152 -0.3278  0.2482
 3727SOL    HW122817   2.555   1.833   7.705 -1.2447  2.0904  0.4001
 3727SOL    HW222818   2.621   1.767   7.816 -1.4835 -0.4864  1.2373
 3728SOL     OW22819   3.817   1.094   8.605  0.0382 -0.6515  0.2070
 3728SOL    HW122820   3.836   1.156   8.675 -0.1083 -0.7286  0.3163
 3728SOL    HW222821   3.798   1.161   8.539  1.4693  0.3170  0.7880
 3729SOL     OW22822   4.447   2.575   5.212  0.5852 -0.2092  0.2383
 3729SOL    HW122823   4.422   2.666   5.200  0.0636 -0.2622  0.8857
 3729SOL    HW222824   4.503   2.566   5.135 -0.5021  0.2387 -0.6060
 3730SOL     OW22825   0.130   1.698   6.405  0.4086  0.1829 -0.2239
 3730SOL    HW122826   0.138   1.699   6.501  0.6908 -1.1974 -0.2221
 3730SOL    HW222827   0.191   1.769   6.388 -0.9372  1.1760 -0.8752
 3731SOL     OW22828   3.277   3.701   7.682 -0.2915  0.4113  0.1418
 3731SOL    HW122829   3.199   3.669   7.635 -0.7510  1.3219  0.2898
 3731SOL    HW222830   3.236   3.772   7.731 -0.4429  0.2028  0.3184
 3732SOL     OW22831   2.026   4.266   5.900  0.2113 -0.3152  0.3688
 3732SOL    HW122832   1.943   4.220   5.905  0.2500 -0.5509 -1.1932
 3732SOL    HW222833   1.998   4.348   5.859 -0.0325 -2.0727 -2.9965
 3733SOL     OW22834   2.702   1.737   5.846  0.2941 -0.1038 -0.0601
 3733SOL    HW122835   2.607   1.742   5.854  0.3273  2.9209 -1.5542
 3733SOL    HW222836   2.729   1.828   5.859  0.8455 -0.2777 -0.0181
 3734SOL     OW22837   0.799   0.034  14.548 -0.1549 -0.1802  0.0334
 3734SOL    HW122838   0.876   0.019  14.494  1.0462  2.1919  1.1147
 3734SOL    HW222839   0.784   0.124  14.521 -0.8055 -0.9528 -2.1851
 3735SOL     OW22840   3.264   1.767  11.397 -0.0168 -0.5317 -0.3892
 3735SOL    HW122841   3.225   1.731  11.477 -1.8575  1.4155 -0.4026
 3735SOL    HW222842   3.355   1.745  11.417 -0.7649 -3.8841 -0.7088
 3736SOL     OW22843   1.738   2.494   3.385  0.5702 -0.3485  0.6344
 3736SOL    HW122844   1.828   2.525   3.383  0.5314 -0.2360  0.6612
 3736SOL    HW222845   1.695   2.559   3.440 -1.2285 -0.1569 -0.9802
 3737SOL     OW22846   3.879   3.678   8.930 -0.1883 -0.3530  0.2259
 3737SOL    HW122847   3.913   3.680   9.019  1.1406 -1.1569 -0.2523
 3737SOL    HW222848   3.936   3.737   8.881 -0.4367  0.1527  0.5539
 3738SOL     OW22849   2.747   0.550   1.976  0.3407 -0.0801 -0.2939
 3738SOL    HW122850   2.808   0.595   2.034  0.0776  0.3350 -0.3374
 3738SOL    HW222851   2.789   0.568   1.892  2.4119  2.3154  1.2548
 3739SOL     OW22852   0.804   3.084  15.402  0.4296  0.0716  0.1567
 3739SOL    HW122853   0.781   3.032  15.480  0.6376 -3.2987 -2.0357
 3739SOL    HW222854   0.758   3.166  15.416  1.0812  0.3331  0.8312
 3740SOL     OW22855   3.416   0.376   5.357 -0.1977 -0.3770  0.6248
 3740SOL    HW122856   3.503   0.348   5.385 -0.4552 -1.1013  0.6842
 3740SOL    HW222857   3.382   0.287   5.345  1.9339 -0.7852 -2.4332
 3741SOL     OW22858   0.894   1.675  13.471 -0.2348  0.3442 -0.0426
 3741SOL    HW122859   0.826   1.742  13.477  0.9649  1.4489  1.2253
 3741SOL    HW222860   0.858   1.606  13.527  0.8075 -0.4276 -0.3169
 3742SOL     OW22861   2.817   3.120  13.481 -0.4457 -0.1842 -0.3877
 3742SOL    HW122862   2.779   3.158  13.402  3.8602  1.7182 -1.5226
 3742SOL    HW222863   2.863   3.047  13.439 -0.7230 -1.4047  1.4129
 3743SOL     OW22864   0.756   3.373   4.919  0.0434 -0.2228  0.1620
 3743SOL    HW122865   0.679   3.347   4.970  0.2222 -1.7536 -0.3750
 3743SOL    HW222866   0.770   3.306   4.852  1.0527  1.1677 -1.0173
 3744SOL     OW22867   0.027   3.284   6.878 -0.3387 -0.0908  0.1920
 3744SOL    HW122868   0.082   3.251   6.808  0.7901  1.9031  0.1357
 3744SOL    HW222869   0.006   3.211   6.936 -2.2202 -0.0460 -0.4067
 3745SOL     OW22870   0.609   2.407   2.752 -0.2935  0.2261 -0.1044
 3745SOL    HW122871   0.633   2.497   2.777 -0.0910  0.1451 -0.0137
 3745SOL    HW222872   0.567   2.376   2.832 -2.0858 -0.2904 -1.2439
 3746SOL     OW22873   2.800   4.442   2.564 -0.1268 -0.1506  0.9032
 3746SOL    HW122874   2.787   4.455   2.471 -1.6822  1.0683  1.2986
 3746SOL    HW222875   2.889   4.475   2.577  0.8608 -2.2574 -0.5819
 3747SOL     OW22876   4.735   3.978   1.651  0.0338 -0.5115  0.3515
 3747SOL    HW122877   4.651   3.975   1.697 -0.8096 -0.4254 -1.1893
 3747SOL    HW222878   0.004   3.915   1.578  1.0152 -2.1115  1.7923
 3748SOL     OW22879   2.244   2.936   2.645  0.6927  0.2772 -0.0396
 3748SOL    HW122880   2.183   2.998   2.685  0.2779  1.2994 -2.2939
 3748SOL    HW222881   2.327   2.962   2.686  0.2202  0.0302  1.0690
 3749SOL     OW22882   2.953   0.954   8.435  0.6711  0.0006  0.1196
 3749SOL    HW122883   2.914   0.942   8.348  0.8486  0.6732 -0.0542
 3749SOL    HW222884   3.045   0.927   8.424  0.1846 -1.0533 -1.4136
 3750SOL     OW22885   2.667   2.691   9.574 -0.0392  0.0381 -0.2192
 3750SOL    HW122886   2.737   2.630   9.548 -1.8970 -1.7618 -1.0428
 3750SOL    HW222887   2.669   2.694   9.669  2.1890  1.7049 -0.3304
 3751SOL     OW22888   0.705   0.175   6.627  0.0194  0.2976  0.3275
 3751SOL    HW122889   0.705   0.166   6.722 -0.5539 -2.5704  0.0491
 3751SOL    HW222890   0.612   0.164   6.606  0.6359 -2.7506 -0.7525
 3752SOL     OW22891   3.852   0.216   6.005  0.0579 -0.4848 -0.0696
 3752SOL    HW122892   3.787   0.152   6.033 -1.5704  0.5332 -1.5419
 3752SOL    HW222893   3.873   0.238   6.095  1.3300 -0.2234 -0.4234
 3753SOL     OW22894   4.261   0.027   6.755  0.1012 -0.3064  0.0419
 3753SOL    HW122895   4.254   4.671   6.730  1.0573  0.6780 -3.7677
 3753SOL    HW222896   4.177   0.050   6.796  1.5346  1.2543  2.0656
 3754SOL     OW22897   0.892   3.630   1.398 -0.7757 -1.0194 -0.3848
 3754SOL    HW122898   0.862   3.705   1.450 -0.2081  0.4738 -2.2278
 3754SOL    HW222899   0.955   3.592   1.459 -0.8161 -0.4236  0.0308
 3755SOL     OW22900   2.457   3.923   3.572  0.0913 -0.2932 -0.0829
 3755SOL    HW122901   2.429   3.951   3.485  1.4360 -2.6663 -1.2530
 3755SOL    HW222902   2.514   3.991   3.608 -0.7141  2.1966 -3.4205
 3756SOL     OW22903   4.646   3.119   2.732 -0.2476 -0.1400  0.0802
 3756SOL    HW122904   4.678   3.046   2.679 -0.7688  0.8482 -1.6292
 3756SOL    HW222905   4.571   3.073   2.771 -0.1810 -1.8269 -1.7920
 3757SOL     OW22906   2.382   0.113   0.848  0.1149  0.3516  0.0174
 3757SOL    HW122907   2.475   0.131   0.854  0.3559 -0.8104 -0.1145
 3757SOL    HW222908   2.355   0.127   0.757 -0.1917 -2.0909 -0.2858
 3758SOL     OW22909   2.992   3.686   6.677  0.7174 -0.1195 -0.4473
 3758SOL    HW122910   2.982   3.596   6.646 -0.5220 -0.0881 -0.1382
 3758SOL    HW222911   3.045   3.730   6.611  2.1772 -0.5631  0.4285
 3759SOL     OW22912   2.714   4.455   1.934  0.1932  0.1086  0.4441
 3759SOL    HW122913   2.661   4.441   2.012 -0.6819 -0.2693 -0.2251
 3759SOL    HW222914   2.732   4.364   1.912  1.6979  0.4324  0.2853
 3760SOL     OW22915   1.620   3.401  11.232 -0.2776 -0.1309 -0.2438
 3760SOL    HW122916   1.705   3.402  11.277  0.2984 -1.0675 -1.3007
 3760SOL    HW222917   1.557   3.401  11.304  1.3085 -1.2738  1.1408
 3761SOL     OW22918   0.542   0.892  16.564 -0.0517  0.2514  0.5571
 3761SOL    HW122919   0.551   0.875  16.470  1.2862  0.7824  0.5971
 3761SOL    HW222920   0.501   0.978  16.564 -0.0598  0.2463  0.8270
 3762SOL     OW22921   3.043   4.517  15.363 -0.0873  0.2100 -0.3462
 3762SOL    HW122922   2.998   4.480  15.287  0.4174  0.2861 -0.6814
 3762SOL    HW222923   2.987   4.590  15.389 -2.8906 -1.6174 -1.2253
 3763SOL     OW22924   4.283   2.769  16.570  1.0851 -0.2603 -0.2893
 3763SOL    HW122925   4.334   2.773  16.489  0.6644  2.2146 -0.4122
 3763SOL    HW222926   4.195   2.758  16.532  1.1887 -0.6458 -0.4195
 3764SOL     OW22927   3.149   4.716   4.003 -0.2678  0.4071  0.3750
 3764SOL    HW122928   3.229   4.671   3.978 -1.0001 -0.1697 -0.9049
 3764SOL    HW222929   3.145   4.696   4.097  0.4447 -1.2830  0.0394
 3765SOL     OW22930   0.788   2.450  14.680 -0.3320  0.2223 -0.0839
 3765SOL    HW122931   0.767   2.378  14.740 -1.2309  1.6329  1.2823
 3765SOL    HW222932   0.880   2.446  14.706 -0.8174 -4.1062  0.9703
 3766SOL     OW22933   0.700   3.526   8.431 -0.0687 -0.2499 -0.6376
 3766SOL    HW122934   0.685   3.616   8.459  0.4522 -0.9184  1.8426
 3766SOL    HW222935   0.741   3.537   8.346  1.7165  1.8935  0.5121
 3767SOL     OW22936   3.280   0.806   2.466 -0.3194  0.2807  0.3643
 3767SOL    HW122937   3.189   0.834   2.475  0.7473  3.2891  1.9300
 3767SOL    HW222938   3.275   0.710   2.467 -2.8536  0.4220 -0.4582
 3768SOL     OW22939   1.202   0.369   4.000  0.2970 -0.0395 -0.3370
 3768SOL    HW122940   1.134   0.336   3.941 -0.7791  0.5306  0.5830
 3768SOL    HW222941   1.227   0.445   3.946 -1.0126  1.3206  0.9780
 3769SOL     OW22942   1.624   0.398  10.400 -0.3980  0.3418 -0.2018
 3769SOL    HW122943   1.592   0.310  10.419 -1.2799  1.1636  2.1410
 3769SOL    HW222944   1.692   0.405  10.467 -2.4796 -2.6178  2.2073
 3770SOL     OW22945   0.879   3.792   3.173 -0.4998  0.8542 -0.7324
 3770SOL    HW122946   0.813   3.794   3.244 -0.2746  2.2997 -0.5658
 3770SOL    HW222947   0.954   3.747   3.212 -0.8576  0.6262 -0.2928
 3771SOL     OW22948   1.103   2.619   7.544 -0.2336 -0.2816 -0.0903
 3771SOL    HW122949   1.086   2.570   7.624  3.1740  0.8317  1.3415
 3771SOL    HW222950   1.191   2.658   7.555  1.2260 -3.9512  1.0460
 3772SOL     OW22951   2.879   2.896  13.353  0.1715  0.7501  0.4140
 3772SOL    HW122952   2.840   2.955  13.289  0.7058  0.6360 -0.0236
 3772SOL    HW222953   2.958   2.882  13.301  1.1833  0.5323  2.0144
 3773SOL     OW22954   1.982   2.303   1.419 -0.0534 -0.0031  0.2981
 3773SOL    HW122955   2.011   2.377   1.366 -1.6042  1.2125  1.1179
 3773SOL    HW222956   2.058   2.245   1.416  0.5657  0.8657 -0.3809
 3774SOL     OW22957   1.574   0.309   8.131  0.1690  0.2499 -0.0502
 3774SOL    HW122958   1.581   0.286   8.038  0.5111 -0.2790  0.1087
 3774SOL    HW222959   1.650   0.260   8.162  0.2740  0.7842  0.5348
 3775SOL     OW22960   1.521   0.117   3.495 -0.4259  0.4520 -0.1120
 3775SOL    HW122961   1.533   0.211   3.511 -0.0267  0.3860 -0.0328
 3775SOL    HW222962   1.448   0.095   3.553 -0.1827  3.1105  1.1812
 3776SOL     OW22963   2.560   0.912   0.234 -0.3696 -0.0971  0.3650
 3776SOL    HW122964   2.630   0.920   0.299 -0.3294 -1.7092  0.5263
 3776SOL    HW222965   2.494   0.959   0.285 -0.7211 -0.8680  0.6195
 3777SOL     OW22966   2.113   0.820  14.636  0.1627 -0.1092 -0.4018
 3777SOL    HW122967   2.188   0.874  14.610 -0.3491  1.4282  1.2781
 3777SOL    HW222968   2.103   0.772  14.554 -1.3898  0.7931 -0.7231
 3778SOL     OW22969   0.137   3.394   6.315  0.0685 -0.6662  0.1127
 3778SOL    HW122970   0.167   3.445   6.390 -0.5634  0.1686 -0.2059
 3778SOL    HW222971   0.088   3.457   6.262  0.4855 -0.8498 -0.5005
 3779SOL     OW22972   1.615   1.880   3.324 -0.4048  0.0986 -0.7761
 3779SOL    HW122973   1.674   1.857   3.252  0.5824  0.3770 -0.0661
 3779SOL    HW222974   1.621   1.975   3.318  0.1434  0.1715  0.8480
 3780SOL     OW22975   2.065   3.641   8.857  0.2100 -0.0516  0.1693
 3780SOL    HW122976   2.133   3.646   8.924  0.4412 -0.3215 -0.0440
 3780SOL    HW222977   1.990   3.689   8.892  0.1487 -0.8319  1.0956
 3781SOL     OW22978   2.234   1.990  15.402  0.1193  0.1252  0.2207
 3781SOL    HW122979   2.281   2.073  15.396 -1.4835  0.9477 -1.1693
 3781SOL    HW222980   2.301   1.936  15.361  0.0644  0.3489 -0.1708
 3782SOL     OW22981   2.919   1.571   3.292  0.2479  0.1115  0.0660
 3782SOL    HW122982   2.904   1.564   3.197 -0.9150  1.5585  0.1527
 3782SOL    HW222983   3.015   1.569   3.282  0.4630  3.1847  1.4496
 3783SOL     OW22984   1.370   1.128   7.087  0.0388 -0.3743 -0.5818
 3783SOL    HW122985   1.386   1.034   7.091 -1.3468 -0.5808  0.1987
 3783SOL    HW222986   1.377   1.146   6.994  1.1550  2.9127  0.1216
 3784SOL     OW22987   2.827   0.606   8.438  0.0076  0.0358 -0.3313
 3784SOL    HW122988   2.883   0.558   8.377 -1.2818  0.0113 -1.4985
 3784SOL    HW222989   2.799   0.689   8.398 -0.0466  1.2779  2.2571
 3785SOL     OW22990   3.970   0.864   1.257 -0.2862  0.5697 -0.4183
 3785SOL    HW122991   3.965   0.768   1.264  1.5500  0.3273 -2.4037
 3785SOL    HW222992   3.933   0.889   1.342  0.0765  0.8384 -0.3406
 3786SOL     OW22993   1.565   2.429   8.039  0.1907  0.1484  0.2504
 3786SOL    HW122994   1.601   2.479   7.966  1.1671 -1.4217 -0.3397
 3786SOL    HW222995   1.494   2.486   8.070 -0.2068 -1.2198  1.8581
 3787SOL     OW22996   1.299   1.579   9.259  0.2512 -0.0147 -0.4972
 3787SOL    HW122997   1.261   1.575   9.172  0.5327 -0.4330 -0.5993
 3787SOL    HW222998   1.393   1.564   9.246  1.2654  5.4229  0.1811
 3788SOL     OW22999   0.548   0.976   5.568 -0.8701 -0.0846 -0.3331
 3788SOL    HW123000   0.596   1.034   5.508 -1.1845  0.1068 -0.4012
 3788SOL    HW223001   0.558   1.016   5.654  0.4031  0.9389 -0.9522
 3789SOL     OW23002   3.307   4.426   3.694  0.4182 -0.6913 -0.0749
 3789SOL    HW123003   3.331   4.384   3.612  2.7960  0.6953 -0.0851
 3789SOL    HW223004   3.281   4.350   3.747  0.9005 -1.4441 -0.9247
 3790SOL     OW23005   3.626   3.663   0.724  0.1109  0.0361  0.4123
 3790SOL    HW123006   3.582   3.594   0.774 -0.7711  1.3493  1.4404
 3790SOL    HW223007   3.642   3.609   0.646  0.2335  0.9906 -0.2228
 3791SOL     OW23008   4.172   2.469   6.155  0.5995  0.1146  0.3004
 3791SOL    HW123009   4.142   2.560   6.159  3.0862  0.8686  1.8899
 3791SOL    HW223010   4.100   2.421   6.115  1.4026 -0.1686 -0.7965
 3792SOL     OW23011   0.678   2.388  12.043 -0.0195 -0.3955 -0.7488
 3792SOL    HW123012   0.622   2.459  12.076  1.5615  0.0644  0.9505
 3792SOL    HW223013   0.763   2.428  12.023  0.4834 -1.2468 -0.3424
 3793SOL     OW23014   1.125   2.404   8.375 -0.0886  0.0084 -0.2411
 3793SOL    HW123015   1.195   2.467   8.393 -1.8356  2.0603 -0.5114
 3793SOL    HW223016   1.144   2.339   8.442 -1.9277  0.0920  0.3647
 3794SOL     OW23017   1.808   1.874   4.143  0.0032  0.0982  0.0473
 3794SOL    HW123018   1.774   1.963   4.153  1.5040  0.6325  0.3867
 3794SOL    HW223019   1.803   1.857   4.049 -1.4427  1.5504 -0.1501
 3795SOL     OW23020   1.453   2.195   2.280 -0.2316  0.2607  0.2722
 3795SOL    HW123021   1.525   2.240   2.234  0.3391 -0.9190  0.0245
 3795SOL    HW223022   1.459   2.107   2.244  0.1057  0.2642  0.3194
 3796SOL     OW23023   0.421   0.838   7.414  0.5398  0.3284 -0.3769
 3796SOL    HW123024   0.463   0.895   7.478  0.2970 -0.8185  0.7948
 3796SOL    HW223025   0.427   0.888   7.332  1.6261  0.0695 -0.4660
 3797SOL     OW23026   2.612   1.011  17.615  0.2176  0.2123  0.2981
 3797SOL    HW123027   2.570   0.944  17.560 -0.2322  0.7679 -0.0370
 3797SOL    HW223028   2.530   1.060  17.626  0.5512  0.5919  1.0662
 3798SOL     OW23029   0.213   4.687  16.392  0.2912 -0.7726  0.3105
 3798SOL    HW123030   0.291   4.642  16.359  0.6258  0.4843 -0.6647
 3798SOL    HW223031   0.248   0.039  16.408 -0.7912 -0.0249 -1.3383
 3799SOL     OW23032   0.359   1.076   6.765  0.3920  0.3055  0.1168
 3799SOL    HW123033   0.430   1.122   6.719  0.2230  0.3219 -0.1301
 3799SOL    HW223034   0.287   1.089   6.703 -1.2917  2.5756  2.5369
 3800SOL     OW23035   2.709   1.839   4.929  0.3927  0.1460  0.3028
 3800SOL    HW123036   2.701   1.879   5.015  0.3562 -1.1638  0.9080
 3800SOL    HW223037   2.782   1.892   4.897  0.6349 -1.4175 -1.7200
 3801SOL     OW23038   0.508   0.344   9.325  0.0325 -0.0915 -0.8298
 3801SOL    HW123039   0.556   0.324   9.245 -0.2770 -1.6963 -0.6127
 3801SOL    HW223040   0.474   0.433   9.322 -2.5967 -1.0444  0.7217
 3802SOL     OW23041   3.235   3.480   2.015 -0.3772 -0.4613 -0.0062
 3802SOL    HW123042   3.278   3.397   1.996  0.6325  0.3130 -1.0634
 3802SOL    HW223043   3.285   3.523   2.084  0.0446  0.2367 -0.7503
 3803SOL     OW23044   1.906   3.861   7.139  0.1667 -0.5442  0.4133
 3803SOL    HW123045   1.838   3.807   7.180 -1.0611  0.6524 -0.0604
 3803SOL    HW223046   1.878   3.948   7.168  0.6594 -0.5138  0.8090
 3804SOL     OW23047   0.276   3.963   4.657  0.1119  0.1606  0.1827
 3804SOL    HW123048   0.280   3.972   4.562  2.0958  2.6106  0.5112
 3804SOL    HW223049   0.367   3.939   4.674 -0.4772 -2.5089 -0.3388
 3805SOL     OW23050   0.589   3.840  15.159  0.1922 -0.0153 -0.3081
 3805SOL    HW123051   0.568   3.809  15.247 -0.6772 -0.0139 -0.5124
 3805SOL    HW223052   0.635   3.765  15.122 -0.2083 -1.0669  1.3544
 3806SOL     OW23053   2.312   2.217   3.027 -0.2022  0.3144 -0.1454
 3806SOL    HW123054   2.366   2.291   3.052  0.5911 -0.2187 -0.2898
 3806SOL    HW223055   2.261   2.256   2.956 -0.4046 -1.4999 -1.0030
 3807SOL     OW23056   2.484   2.204  15.345 -0.2507 -0.1577 -0.6653
 3807SOL    HW123057   2.433   2.257  15.284 -0.2604  0.9551  0.3121
 3807SOL    HW223058   2.457   2.227  15.434  1.2604  1.8994 -0.7378
 3808SOL     OW23059   2.003   1.308   4.173  1.0157 -0.2959 -1.0210
 3808SOL    HW123060   1.990   1.320   4.267  0.0531 -1.8519 -0.9553
 3808SOL    HW223061   1.931   1.353   4.129 -0.1921  0.9007  2.1700
 3809SOL     OW23062   3.059   2.857  12.183  0.2201 -0.2738  0.1355
 3809SOL    HW123063   3.124   2.808  12.133 -2.4511 -3.2145 -0.4375
 3809SOL    HW223064   3.114   2.921  12.228  0.3176  1.1892 -2.0284
 3810SOL     OW23065   3.593   3.934   3.961  0.3929  0.0373 -0.0907
 3810SOL    HW123066   3.564   4.004   3.902  1.1735 -0.2964 -0.8702
 3810SOL    HW223067   3.520   3.937   4.023  0.2820 -0.4451 -0.1999
 3811SOL     OW23068   3.069   0.224   0.498  0.4235 -0.4573 -0.6004
 3811SOL    HW123069   3.133   0.260   0.559 -0.5455 -0.8311  0.6379
 3811SOL    HW223070   3.117   0.255   0.422  0.4433  4.2103  1.3135
 3812SOL     OW23071   1.306   3.305  11.165 -0.0616 -0.3432 -0.3507
 3812SOL    HW123072   1.316   3.335  11.074 -0.1653 -1.2686 -0.6667
 3812SOL    HW223073   1.282   3.214  11.148  0.4307 -0.6159  0.4148
 3813SOL     OW23074   4.599   1.798   5.139  0.2195 -0.3954  0.3397
 3813SOL    HW123075   4.635   1.815   5.226 -1.8630  0.6024  1.0137
 3813SOL    HW223076   4.515   1.842   5.153  0.3188 -0.2330  0.4198
 3814SOL     OW23077   1.233   0.408  12.516  0.1509 -0.0270 -0.0404
 3814SOL    HW123078   1.294   0.448  12.578  0.3084  1.3805 -1.0961
 3814SOL    HW223079   1.270   0.448  12.438  0.6185  1.6479  1.0387
 3815SOL     OW23080   0.763   3.651  14.761  0.6247  0.4011 -0.0199
 3815SOL    HW123081   0.686   3.599  14.785  0.8533  1.3023  2.6126
 3815SOL    HW223082   0.836   3.601  14.795  0.6047  0.0876 -0.4334
 3816SOL     OW23083   0.951   1.116  17.410 -0.1024  0.2446  0.5391
 3816SOL    HW123084   1.026   1.074  17.368 -0.8690 -0.7158  0.1572
 3816SOL    HW223085   0.994   1.199  17.433 -0.6701  0.5645  0.4253
 3817SOL     OW23086   2.671   0.253   8.317  0.3320 -0.2054  0.1981
 3817SOL    HW123087   2.587   0.239   8.273  1.8355 -2.1343 -2.0248
 3817SOL    HW223088   2.643   0.217   8.402  0.8701  1.3334  1.0254
 3818SOL     OW23089   3.681   1.942  13.531  0.3581 -0.1140 -0.0326
 3818SOL    HW123090   3.608   1.885  13.553 -0.0707  0.3550 -0.2368
 3818SOL    HW223091   3.650   2.032  13.538  1.1494  0.2929 -1.7789
 3819SOL     OW23092   1.149   1.722   2.760 -0.5178  0.0245 -0.2536
 3819SOL    HW123093   1.082   1.680   2.707 -0.4650 -0.6054  0.1833
 3819SOL    HW223094   1.112   1.726   2.848  0.6006  0.4701  0.1983
 3820SOL     OW23095   2.166   4.436   1.309 -0.1329 -0.5209 -0.6777
 3820SOL    HW123096   2.207   4.349   1.317 -0.4437 -0.6570 -0.5778
 3820SOL    HW223097   2.124   4.427   1.224 -0.4758  0.3608 -0.5905
 3821SOL     OW23098   1.202   0.337  10.705  0.2180  0.7080  0.2983
 3821SOL    HW123099   1.270   0.402  10.685  0.3445  0.4483 -0.1032
 3821SOL    HW223100   1.124   0.390  10.724  0.1773 -0.5019  3.5118
 3822SOL     OW23101   4.577   2.541  17.460 -0.3765 -0.4456 -0.4500
 3822SOL    HW123102   4.667   2.573  17.466 -0.2744 -0.7366 -0.4173
 3822SOL    HW223103   4.586   2.462  17.514  4.6206  0.4215 -0.0563
 3823SOL     OW23104   2.643   4.027  16.023  0.1505  0.1943 -0.3708
 3823SOL    HW123105   2.636   3.967  15.948 -2.5518 -0.0863  0.1409
 3823SOL    HW223106   2.675   4.107  15.982  1.8710  0.2317  1.0210
 3824SOL     OW23107   4.005   0.489   9.186  0.0523  0.4272 -0.5622
 3824SOL    HW123108   4.002   0.393   9.193 -0.8159  0.4206 -1.1128
 3824SOL    HW223109   3.933   0.504   9.126  1.8082 -1.1469 -3.1003
 3825SOL     OW23110   2.287   3.997  10.800 -0.5580  0.6325  0.1140
 3825SOL    HW123111   2.200   4.017  10.833 -0.5033 -0.1712  0.7556
 3825SOL    HW223112   2.269   3.944  10.723  0.5291  0.0971  0.2192
 3826SOL     OW23113   0.547   4.427   8.886 -0.0393 -0.3250 -0.2332
 3826SOL    HW123114   0.470   4.405   8.938  0.6626 -0.1750  0.8751
 3826SOL    HW223115   0.607   4.474   8.944 -2.3969 -0.0715  1.9859
 3827SOL     OW23116   2.596   1.644   3.404 -0.2833  0.0632 -0.1016
 3827SOL    HW123117   2.546   1.697   3.342  2.0304  0.0385 -1.9978
 3827SOL    HW223118   2.591   1.559   3.362 -0.5885  0.4139 -0.7813
 3828SOL     OW23119   1.503   4.091  10.123 -0.4203  0.0933 -0.3694
 3828SOL    HW123120   1.587   4.134  10.134 -0.8491  0.6952  0.5615
 3828SOL    HW223121   1.451   4.160  10.163  0.0480 -0.1201  0.6135
 3829SOL     OW23122   3.080   3.061  14.398 -0.2900 -0.4123 -0.1906
 3829SOL    HW123123   3.168   3.096  14.415 -0.0181 -0.5886 -1.2613
 3829SOL    HW223124   3.096   2.969  14.378  4.1243  0.1821  0.5507
 3830SOL     OW23125   1.283   3.499   1.460  0.2768 -0.2688 -0.0993
 3830SOL    HW123126   1.269   3.510   1.366  3.7569  0.2350 -0.5884
 3830SOL    HW223127   1.354   3.564   1.465 -0.7131  0.8641 -0.7741
 3831SOL     OW23128   2.585   0.912   7.016  0.0416 -0.4664 -0.0923
 3831SOL    HW123129   2.567   0.871   6.931 -0.3747  1.2807 -0.8586
 3831SOL    HW223130   2.677   0.936   7.006  0.0380 -0.4255 -0.0227
 3832SOL     OW23131   2.289   0.281   2.611 -0.3774 -0.0331  0.3571
 3832SOL    HW123132   2.213   0.242   2.653 -0.7484  0.4373  0.1268
 3832SOL    HW223133   2.286   0.367   2.653 -1.5537  0.4473 -0.6840
 3833SOL     OW23134   4.286   3.106   2.938  0.1163  1.0722  0.2056
 3833SOL    HW123135   4.284   3.137   3.028  1.3863  0.8654  0.2974
 3833SOL    HW223136   4.298   3.188   2.889  1.3341  1.2622  0.8329
 3834SOL     OW23137   0.723   2.408   7.694  0.0852 -0.2566 -0.6315
 3834SOL    HW123138   0.727   2.366   7.780 -1.2100 -1.9812 -1.4065
 3834SOL    HW223139   0.726   2.499   7.722  0.3441 -0.1027 -1.1507
 3835SOL     OW23140   4.381   3.947   4.777  0.0421 -0.1907 -0.7830
 3835SOL    HW123141   4.439   4.001   4.723  0.4677 -0.7374 -0.8784
 3835SOL    HW223142   4.293   3.983   4.764  0.0860 -0.7924 -2.6662
 3836SOL     OW23143   2.466   4.296  12.156 -0.6011  0.2648  0.4415
 3836SOL    HW123144   2.557   4.320  12.135 -0.1934  0.3097  2.2526
 3836SOL    HW223145   2.434   4.263  12.072  0.0511 -0.4035  0.4601
 3837SOL     OW23146   1.438   2.890   5.301  0.3859 -0.5930  0.1917
 3837SOL    HW123147   1.342   2.885   5.297  0.3477 -0.7973  1.2160
 3837SOL    HW223148   1.443   2.986   5.302  1.3645 -0.6524  0.8465
 3838SOL     OW23149   3.365   3.416   6.106  0.1281 -0.0097 -0.0740
 3838SOL    HW123150   3.285   3.388   6.151 -0.7407  1.2484 -0.8332
 3838SOL    HW223151   3.333   3.446   6.021  0.4544  0.9960  0.1532
 3839SOL     OW23152   3.766   0.477   4.142  0.1426 -0.3481  0.3505
 3839SOL    HW123153   3.702   0.545   4.122  2.1693  0.7540 -2.3595
 3839SOL    HW223154   3.735   0.401   4.091  1.6591 -0.8928  0.2391
 3840SOL     OW23155   3.814   0.579   2.226 -0.4082  0.1544  0.1215
 3840SOL    HW123156   3.882   0.603   2.163 -1.6972 -3.0216 -2.4457
 3840SOL    HW223157   3.865   0.519   2.281  0.3219 -0.5028 -1.2737
 3841SOL     OW23158   2.530   4.019  15.074 -0.5533 -0.1059  0.4451
 3841SOL    HW123159   2.567   3.948  15.020 -1.8070 -0.3131 -0.1419
 3841SOL    HW223160   2.594   4.035  15.144  0.5235 -0.1782 -0.5139
 3842SOL     OW23161   1.737   1.395   4.951  0.0995  0.0716 -0.3560
 3842SOL    HW123162   1.769   1.448   4.878  0.1470  1.2261  0.5044
 3842SOL    HW223163   1.809   1.333   4.967  0.4831  0.0747 -2.0200
 3843SOL     OW23164   2.811   1.062   6.970 -0.3606  0.2014  0.3120
 3843SOL    HW123165   2.800   1.125   7.042 -2.0646  1.6522 -1.2257
 3843SOL    HW223166   2.851   1.124   6.909  1.5493  0.0254  1.3765
 3844SOL     OW23167   4.098   0.266   3.770 -0.2202  0.0661  0.0423
 3844SOL    HW123168   4.083   0.194   3.831  0.2092  1.6544  2.0189
 3844SOL    HW223169   4.181   0.298   3.804  0.7332 -0.8159 -1.4669
 3845SOL     OW23170   3.215   3.918   5.361 -0.2837  0.0840 -0.1461
 3845SOL    HW123171   3.263   3.839   5.333  0.5743 -0.0509  1.6763
 3845SOL    HW223172   3.271   3.974   5.415  0.3943  0.2326 -1.0076
 3846SOL     OW23173   1.586   1.409   3.981 -0.2823  0.5173 -0.2966
 3846SOL    HW123174   1.538   1.335   4.020 -1.4736  1.4817  0.0719
 3846SOL    HW223175   1.563   1.398   3.889  0.2463 -0.9340 -0.2530
 3847SOL     OW23176   1.681   0.893   6.718  0.0381  0.2922  0.0474
 3847SOL    HW123177   1.719   0.873   6.804 -1.4371 -3.0851 -0.0692
 3847SOL    HW223178   1.595   0.852   6.724  0.8034 -1.1700  1.3970
 3848SOL     OW23179   1.143   4.367   3.820  0.3410  0.5299 -0.3475
 3848SOL    HW123180   1.068   4.356   3.762 -0.0965  0.3002  0.2520
 3848SOL    HW223181   1.201   4.308   3.773 -1.9758 -1.2149 -1.0509
 3849SOL     OW23182   4.477   0.632   2.783  0.1542  0.3723  0.2568
 3849SOL    HW123183   4.459   0.572   2.711 -0.6923  0.8542  0.0709
 3849SOL    HW223184   4.435   0.584   2.854 -0.2309 -0.3656 -0.4721
 3850SOL     OW23185   3.973   4.483   9.160 -0.0851 -0.7719 -0.1552
 3850SOL    HW123186   4.026   4.562   9.173 -0.8168 -0.2538 -0.3236
 3850SOL    HW223187   4.034   4.444   9.098 -0.0000  0.7607 -1.0209
 3851SOL     OW23188   3.999   3.991   7.694  0.3861 -0.1740  0.0870
 3851SOL    HW123189   4.000   3.913   7.750  0.0197 -0.3420 -0.1334
 3851SOL    HW223190   3.932   3.955   7.635  1.4802 -2.1751  0.0617
 3852SOL     OW23191   4.321   1.601  15.569  0.5127  0.0989  0.2692
 3852SOL    HW123192   4.235   1.560  15.560  0.0754  0.8934  0.7731
 3852SOL    HW223193   4.289   1.669  15.629  0.7446  0.4746 -0.0332
 3853SOL     OW23194   4.354   2.902   2.613  0.1881  0.0826  0.2582
 3853SOL    HW123195   4.302   2.859   2.681 -0.6579  0.8795  0.1150
 3853SOL    HW223196   4.428   2.909   2.673  0.4675  1.2786 -0.2248
 3854SOL     OW23197   1.829   3.817   6.888  0.1001 -0.9425 -0.0927
 3854SOL    HW123198   1.804   3.724   6.890 -1.2862 -0.5572 -0.0235
 3854SOL    HW223199   1.847   3.842   6.978  1.7082  3.0365 -1.5265
 3855SOL     OW23200   0.377   4.450   5.286  0.3181 -0.4473  0.2374
 3855SOL    HW123201   0.426   4.369   5.276  0.1145 -0.2092 -2.5542
 3855SOL    HW223202   0.404   4.502   5.211  0.9698 -1.7034 -0.3772
 3856SOL     OW23203   0.335   0.204  16.456 -0.1200  0.2809 -0.5296
 3856SOL    HW123204   0.281   0.274  16.419 -2.6617 -0.2480  2.1846
 3856SOL    HW223205   0.406   0.257  16.491  0.0811 -0.7889  0.6707
 3857SOL     OW23206   1.156   3.803   9.348 -0.5988 -0.9029 -0.2236
 3857SOL    HW123207   1.136   3.789   9.440 -0.3595 -1.1476 -0.2081
 3857SOL    HW223208   1.248   3.776   9.344  0.3383  2.1085  0.4608
 3858SOL     OW23209   1.153   0.340   5.349  0.5179 -0.2846 -0.1754
 3858SOL    HW123210   1.151   0.339   5.445 -0.1716 -0.4662 -0.1862
 3858SOL    HW223211   1.217   0.271   5.332  1.4631 -0.1244  2.7457
 3859SOL     OW23212   0.296   0.442  14.772 -0.6849  0.2160 -0.0233
 3859SOL    HW123213   0.335   0.357  14.752  0.4283  0.3917  1.3459
 3859SOL    HW223214   0.318   0.454  14.865 -1.6262 -1.8363  0.4545
 3860SOL     OW23215   1.061   2.686   4.628 -0.8031 -0.4063 -0.1228
 3860SOL    HW123216   1.124   2.624   4.665 -0.0023  0.8605  0.6358
 3860SOL    HW223217   1.048   2.659   4.537  2.4883  1.1653 -1.0880
 3861SOL     OW23218   4.616   1.223   7.001 -0.4225 -0.1563  0.1665
 3861SOL    HW123219   4.671   1.270   7.064  0.9529 -1.2727 -0.2097
 3861SOL    HW223220   4.535   1.216   7.051 -0.5602 -0.9154 -0.1796
 3862SOL     OW23221   2.017   0.286   2.344  0.4645 -0.2492 -0.0211
 3862SOL    HW123222   2.016   0.191   2.336  1.3531 -0.4339  2.0716
 3862SOL    HW223223   1.999   0.297   2.437  1.7116  0.6611  0.1149
 3863SOL     OW23224   0.528   1.642  11.015 -0.2661  0.5755  0.8698
 3863SOL    HW123225   0.550   1.732  10.994 -0.9993  0.9611  1.7400
 3863SOL    HW223226   0.490   1.613  10.932 -0.1508  0.6960  0.7747
 3864SOL     OW23227   4.709   3.084   7.056 -0.2028 -0.0676  0.7415
 3864SOL    HW123228   4.722   3.107   7.148  0.3006 -1.1317  0.9415
 3864SOL    HW223229   0.054   3.032   7.048  0.4764  0.7641  2.1529
 3865SOL     OW23230   4.291   0.763   4.635 -0.3413  0.3438  0.0812
 3865SOL    HW123231   4.200   0.785   4.618 -0.1556  0.3001 -0.9991
 3865SOL    HW223232   4.288   0.691   4.698 -2.9903  2.9325  2.8992
 3866SOL     OW23233   2.753   0.989   2.431 -0.2884  0.3120 -0.3396
 3866SOL    HW123234   2.680   0.945   2.387  0.3420 -5.2665  4.2644
 3866SOL    HW223235   2.815   0.997   2.358 -0.2300 -0.9402 -0.4202
 3867SOL     OW23236   1.713   3.184  15.621 -0.1165  0.8963  0.2509
 3867SOL    HW123237   1.638   3.242  15.630 -0.7955 -0.3188  2.3585
 3867SOL    HW223238   1.744   3.204  15.709  1.4908  3.6594 -0.9357
 3868SOL     OW23239   3.994   4.724   3.665  0.4136 -0.0948  0.1897
 3868SOL    HW123240   4.086   4.726   3.690  1.0360  2.1639 -2.3560
 3868SOL    HW223241   3.962   0.077   3.680 -1.9961 -0.5828 -2.1024
 3869SOL     OW23242   1.797   3.832   6.252 -0.7149  0.2375 -0.2407
 3869SOL    HW123243   1.847   3.912   6.234  0.2378 -0.0332  1.1929
 3869SOL    HW223244   1.777   3.843   6.345 -0.6707 -0.9085 -0.0911
 3870SOL     OW23245   1.067   1.408  10.399 -0.2174  0.2477 -0.1162
 3870SOL    HW123246   1.104   1.347  10.463 -0.5615  0.6033  0.4203
 3870SOL    HW223247   1.108   1.492  10.421  0.0009  0.0671  0.1750
 3871SOL     OW23248   3.950   4.071   8.076 -0.5299  0.1251  0.0090
 3871SOL    HW123249   3.996   4.013   8.136  0.9076  1.1933 -0.0596
 3871SOL    HW223250   3.912   4.015   8.007  0.5245 -0.7448  0.1344
 3872SOL     OW23251   0.191   1.018   3.217 -0.0717 -0.1161  0.3133
 3872SOL    HW123252   0.128   1.055   3.279 -0.0549 -0.7311  0.6980
 3872SOL    HW223253   0.133   0.964   3.163  0.1715  0.3214 -0.3857
 3873SOL     OW23254   0.698   2.860  10.505 -0.3430  0.5716 -0.4057
 3873SOL    HW123255   0.792   2.858  10.525 -0.7454  1.5405  1.6342
 3873SOL    HW223256   0.665   2.782  10.551  0.1607  1.4835  1.4903
 3874SOL     OW23257   1.466   2.922   5.596 -0.4034 -0.2846 -0.3335
 3874SOL    HW123258   1.432   2.916   5.507 -1.3437  0.8843 -0.0548
 3874SOL    HW223259   1.529   2.850   5.602  0.8004  0.9430  1.6780
 3875SOL     OW23260   3.322   4.224   9.022 -0.3274 -0.2145 -0.0917
 3875SOL    HW123261   3.295   4.294   8.963 -1.6687 -0.1465  0.5849
 3875SOL    HW223262   3.304   4.266   9.107  1.1279  1.1497 -0.4542
 3876SOL     OW23263   4.425   0.764   7.032  0.4583 -0.1511 -0.4473
 3876SOL    HW123264   4.497   0.782   6.972  0.0546  1.2966 -0.4965
 3876SOL    HW223265   4.419   0.846   7.082 -1.4185 -0.7222  0.2444
 3877SOL     OW23266   2.767   3.036   2.645  0.2533 -0.0361  0.4181
 3877SOL    HW123267   2.754   3.043   2.739 -0.4105 -0.3243  0.3523
 3877SOL    HW223268   2.690   3.068   2.597 -0.5453  0.7889  2.2426
 3878SOL     OW23269   3.575   1.969   7.061 -0.3586 -0.1253  0.2421
 3878SOL    HW123270   3.625   2.048   7.039  1.1481 -0.6166  1.8830
 3878SOL    HW223271   3.635   1.907   7.020 -2.4995 -0.9025 -1.7372
 3879SOL     OW23272   3.189   3.091  10.768 -0.6824  0.8441 -1.0984
 3879SOL    HW123273   3.244   3.041  10.708 -0.4867  1.4385 -1.4234
 3879SOL    HW223274   3.215   3.056  10.853  1.1839  1.4442 -1.4296
 3880SOL     OW23275   1.853   3.355   2.375 -0.4137  0.2407  0.7882
 3880SOL    HW123276   1.903   3.329   2.453  1.0281  0.3105 -0.1121
 3880SOL    HW223277   1.871   3.449   2.375 -2.7386  0.6899  0.7018
 3881SOL     OW23278   1.859   3.085  11.702  0.6138 -0.2568  0.4999
 3881SOL    HW123279   1.928   3.051  11.646 -0.3668 -0.5443 -0.5459
 3881SOL    HW223280   1.893   3.072  11.790 -2.5318 -1.0596  1.6027
 3882SOL     OW23281   0.734   2.711   6.884 -0.4835 -0.2011  0.3570
 3882SOL    HW123282   0.753   2.618   6.894  1.8530  0.4666  2.3049
 3882SOL    HW223283   0.696   2.709   6.796  0.6433 -0.7663 -0.1167
 3883SOL     OW23284   3.977   1.087  13.082 -0.3969 -0.2497 -0.7701
 3883SOL    HW123285   3.940   1.163  13.127  2.3975  0.5521  0.1973
 3883SOL    HW223286   3.932   1.094  12.998  0.1251 -4.2517 -1.3596
 3884SOL     OW23287   4.350   3.889   5.858 -0.3645 -0.3122  0.2289
 3884SOL    HW123288   4.315   3.801   5.862 -0.8743 -0.0903  0.7007
 3884SOL    HW223289   4.275   3.936   5.894 -1.8215 -0.7280 -2.3016
 3885SOL     OW23290   3.237   3.168   8.628 -0.4443  0.2079 -0.0670
 3885SOL    HW123291   3.207   3.176   8.537  0.6761  0.0187 -0.4584
 3885SOL    HW223292   3.282   3.253   8.636 -0.6779  0.2302  1.0155
 3886SOL     OW23293   1.527   0.015  17.723 -0.4943 -0.3086 -0.2497
 3886SOL    HW123294   1.434   0.006  17.700 -0.6996 -0.7623  0.7569
 3886SOL    HW223295   1.552   4.658  17.719 -3.0287 -1.0980  2.7980
 3887SOL     OW23296   0.079   1.842  12.090  0.5415  0.5110  0.4760
 3887SOL    HW123297   0.004   1.817  12.035  1.4653  1.0836 -1.0410
 3887SOL    HW223298   0.049   1.829  12.180 -0.7732  2.5195  0.3268
 3888SOL     OW23299   0.336   1.592  11.605 -0.3517 -0.0372 -0.1485
 3888SOL    HW123300   0.322   1.501  11.578 -1.5919 -0.1417  0.8403
 3888SOL    HW223301   0.357   1.628  11.519  2.4868 -1.0557  0.1195
 3889SOL     OW23302   2.022   1.284   9.327  0.0878  0.0142  0.7054
 3889SOL    HW123303   1.935   1.255   9.355 -0.7597  2.5237  0.7152
 3889SOL    HW223304   2.029   1.372   9.365 -1.2119  0.5642 -0.3420
 3890SOL     OW23305   1.625   2.396   9.139 -0.3070 -0.0404 -0.0676
 3890SOL    HW123306   1.679   2.471   9.165  0.4235 -0.5726 -0.0575
 3890SOL    HW223307   1.542   2.441   9.155  1.1850  2.0334  1.7522
 3891SOL     OW23308   1.373   1.751  10.673  0.3295  0.2680  0.4664
 3891SOL    HW123309   1.401   1.672  10.719 -0.9976 -0.5419 -0.0997
 3891SOL    HW223310   1.418   1.809  10.734 -1.6398 -0.1251  2.2840
 3892SOL     OW23311   0.839   1.879   5.763  0.0891  0.6001 -0.5231
 3892SOL    HW123312   0.843   1.968   5.728 -0.3153  0.6770 -0.3689
 3892SOL    HW223313   0.927   1.844   5.751  0.0527  0.2217  0.3577
 3893SOL     OW23314   0.799   2.225   7.515 -0.5893  0.3112 -0.1779
 3893SOL    HW123315   0.789   2.289   7.586 -0.9893 -0.6821  0.6473
 3893SOL    HW223316   0.750   2.271   7.447  1.3885  3.7607  0.6940
 3894SOL     OW23317   4.530   0.203   3.580  0.5005  0.1341 -0.2157
 3894SOL    HW123318   4.551   0.111   3.598 -0.2554  0.1495  0.7444
 3894SOL    HW223319   4.473   0.193   3.504  0.5202  1.6579 -0.4326
 3895SOL     OW23320   3.233   4.631   7.645  0.4466  0.0674  0.0652
 3895SOL    HW123321   3.194   4.708   7.604  1.1687  0.0062 -0.7226
 3895SOL    HW223322   3.254   4.669   7.731 -2.9589  0.6740  0.6649
 3896SOL     OW23323   0.445   1.499  13.263  0.4043  0.1816 -0.3870
 3896SOL    HW123324   0.361   1.537  13.237  0.9678  0.3058 -2.0583
 3896SOL    HW223325   0.461   1.454  13.180  0.7714 -0.9150  0.2730
 3897SOL     OW23326   4.388   4.059   5.044  0.5916  0.0348 -0.1014
 3897SOL    HW123327   4.389   4.053   4.949  1.4038 -0.7279 -0.0346
 3897SOL    HW223328   4.333   3.985   5.069 -0.1983  0.7736  0.3955
 3898SOL     OW23329   3.155   2.108   7.504 -0.1687 -0.1538  0.1048
 3898SOL    HW123330   3.065   2.110   7.536 -0.8944 -2.3613 -1.8226
 3898SOL    HW223331   3.138   2.126   7.412 -1.2823 -0.1123  0.3290
 3899SOL     OW23332   0.260   0.672  12.600  0.5946  0.8158 -0.3059
 3899SOL    HW123333   0.354   0.660  12.612  0.4435  0.0527  0.0846
 3899SOL    HW223334   0.232   0.722  12.677  1.9540  2.6520 -0.9904
 3900SOL     OW23335   0.133   0.090   1.835  0.1317  0.0024 -0.4100
 3900SOL    HW123336   0.198   0.138   1.886  0.7427  1.7879 -2.8827
 3900SOL    HW223337   0.089   0.053   1.912  0.9493 -0.4846 -0.1779
 3901SOL     OW23338   1.323   0.900   4.731 -0.4663  0.1354  0.0018
 3901SOL    HW123339   1.334   0.966   4.800  3.2584 -1.9663  1.4124
 3901SOL    HW223340   1.276   0.834   4.783  0.4491 -0.6203 -0.1324
 3902SOL     OW23341   3.058   0.168   1.750 -0.1615  0.1553 -0.2212
 3902SOL    HW123342   3.033   0.195   1.838 -0.8932  2.0196 -1.0076
 3902SOL    HW223343   3.022   0.083   1.726 -0.4526 -0.0377  0.8872
 3903SOL     OW23344   2.165   1.377   5.349 -0.3448  0.4710  0.0789
 3903SOL    HW123345   2.242   1.379   5.406  0.7104  1.0861 -1.3547
 3903SOL    HW223346   2.121   1.312   5.402 -1.0529  0.5478 -0.4190
 3904SOL     OW23347   0.075   4.344   7.840 -0.0205 -0.0920 -0.0752
 3904SOL    HW123348   0.082   4.309   7.929  0.4245  0.0561 -0.0535
 3904SOL    HW223349   4.724   4.313   7.814  1.0178 -3.1029  0.0282
 3905SOL     OW23350   2.672   0.611   2.982  0.0601 -0.4913 -0.3252
 3905SOL    HW123351   2.636   0.522   2.984 -2.1878  0.3276 -3.3772
 3905SOL    HW223352   2.766   0.598   2.968 -0.2396 -2.2581 -0.8209
 3906SOL     OW23353   4.121   2.009   7.158  0.2863 -0.4563 -0.4586
 3906SOL    HW123354   4.123   1.958   7.077 -1.8706 -0.7570 -0.3229
 3906SOL    HW223355   4.184   1.956   7.207  2.4608  0.2114 -2.5426
 3907SOL     OW23356   2.213   1.599   5.171 -0.0547  0.4934 -0.6220
 3907SOL    HW123357   2.185   1.572   5.083 -0.9778  0.0434 -0.1856
 3907SOL    HW223358   2.197   1.516   5.217  2.0373 -0.3821 -1.4608
 3908SOL     OW23359   3.297   4.034   5.795  0.3486 -0.1663  0.1585
 3908SOL    HW123360   3.227   3.971   5.809  1.4672 -1.3294  0.5311
 3908SOL    HW223361   3.315   4.065   5.883  1.8112 -0.0749 -0.1724
 3909SOL     OW23362   1.161   0.887   6.614 -0.5522  0.1706  0.2727
 3909SOL    HW123363   1.098   0.892   6.542 -1.0628  1.1270  0.7750
 3909SOL    HW223364   1.101   0.867   6.687 -0.9935  0.5404  0.0121
 3910SOL     OW23365   0.908   3.592  12.060 -0.7877  0.4811 -0.2480
 3910SOL    HW123366   0.992   3.606  12.017 -0.5615 -2.1473 -0.6467
 3910SOL    HW223367   0.879   3.505  12.035 -0.7927  0.8947 -1.6877
 3911SOL     OW23368   3.640   2.571   6.460 -0.2496 -0.0132  0.2176
 3911SOL    HW123369   3.736   2.565   6.466 -0.2326  0.5295  0.4744
 3911SOL    HW223370   3.617   2.496   6.404  2.2029 -1.3310  0.9611
 3912SOL     OW23371   2.429   0.149   2.395 -0.1519 -0.8531  0.1790
 3912SOL    HW123372   2.335   0.163   2.403  0.2203  2.2601 -0.6402
 3912SOL    HW223373   2.469   0.170   2.480  1.7049 -0.5886 -0.7661
 3913SOL     OW23374   0.007   4.639   5.000 -0.1092 -0.4163  0.1194
 3913SOL    HW123375   0.098   4.627   4.974  0.5600  0.6696  1.9868
 3913SOL    HW223376   0.028   4.710   5.060 -0.8733 -0.7513  0.7961
 3914SOL     OW23377   1.261   1.538   5.067  0.2976  0.6198 -0.5054
 3914SOL    HW123378   1.312   1.597   5.010  2.2341 -1.6045 -1.0918
 3914SOL    HW223379   1.169   1.563   5.060  0.3542  0.8975 -0.2441
 3915SOL     OW23380   3.961   1.784  13.409 -0.3711  0.3463  0.3050
 3915SOL    HW123381   4.051   1.755  13.424 -1.1771 -2.9193 -1.0317
 3915SOL    HW223382   3.967   1.865  13.357  0.2336  1.0877  1.5379
 3916SOL     OW23383   0.134   0.694   8.755  0.0511  0.0033  0.8690
 3916SOL    HW123384   0.217   0.733   8.728 -0.0019  1.0151  2.1419
 3916SOL    HW223385   0.095   0.685   8.668  0.7818 -0.9717  0.6489
 3917SOL     OW23386   4.391   3.181   5.138  0.0360  0.7568  0.1393
 3917SOL    HW123387   4.404   3.251   5.202 -2.4926  1.3207  0.0371
 3917SOL    HW223388   4.364   3.116   5.202  0.9537 -0.7533 -1.0052
 3918SOL     OW23389   3.083   3.216   2.349 -0.7145 -0.0274 -0.7980
 3918SOL    HW123390   3.066   3.150   2.416  1.2202 -1.5530 -1.7930
 3918SOL    HW223391   3.140   3.166   2.290 -2.2303 -2.2395 -0.3931
 3919SOL     OW23392   4.503   1.138   0.838 -0.1234  0.0760  0.1124
 3919SOL    HW123393   4.581   1.184   0.869 -0.0502  0.4379 -0.6157
 3919SOL    HW223394   4.471   1.091   0.915 -0.1504 -0.3111 -0.1370
 3920SOL     OW23395   1.482   1.646   6.419 -0.4624 -0.4037  0.3340
 3920SOL    HW123396   1.501   1.740   6.419 -1.9870 -0.1010 -0.5928
 3920SOL    HW223397   1.452   1.623   6.507  0.7163 -3.2073 -0.0071
 3921SOL     OW23398   4.564   1.587   1.141 -0.1659  0.2307 -0.4603
 3921SOL    HW123399   4.505   1.630   1.203 -0.2772 -0.3317 -0.1752
 3921SOL    HW223400   4.650   1.618   1.169  0.0704 -1.8430  1.1692
 3922SOL     OW23401   3.846   3.285   6.784 -0.0789 -0.3663 -0.1809
 3922SOL    HW123402   3.885   3.355   6.837  1.2758 -0.6381 -0.8056
 3922SOL    HW223403   3.762   3.324   6.760  0.6628  1.1423 -0.3387
 3923SOL     OW23404   3.697   3.291   3.666  0.2964 -0.2440  0.4632
 3923SOL    HW123405   3.755   3.231   3.620 -2.1090 -0.2122 -2.5982
 3923SOL    HW223406   3.756   3.366   3.667  1.6502 -1.3052 -1.2123
 3924SOL     OW23407   1.043   3.954   6.153 -0.3849 -0.5452 -0.2502
 3924SOL    HW123408   1.111   3.949   6.086  1.8234 -0.0469  1.9280
 3924SOL    HW223409   1.100   3.934   6.227 -1.9515  0.1750  1.1630
 3925SOL     OW23410   1.003   2.387   2.570 -0.3688  0.0086  0.1123
 3925SOL    HW123411   1.095   2.365   2.589  0.4087  0.4898 -2.9858
 3925SOL    HW223412   0.995   2.470   2.618 -0.7934  1.0547 -1.7703
 3926SOL     OW23413   1.795   1.522   6.784  0.2443 -0.4038 -0.4569
 3926SOL    HW123414   1.711   1.498   6.824 -0.0899  0.7677 -0.4470
 3926SOL    HW223415   1.775   1.526   6.690 -0.5038  0.4949 -0.2554
 3927SOL     OW23416   1.924   1.832  16.261  0.0990  0.1709  0.0390
 3927SOL    HW123417   1.868   1.833  16.183  0.6083 -2.1249 -0.3486
 3927SOL    HW223418   2.008   1.806  16.223  0.6249  0.3933  1.0590
 3928SOL     OW23419   3.759   4.219   2.390 -0.2372 -0.4345 -0.5365
 3928SOL    HW123420   3.839   4.272   2.392 -1.5216  1.5486 -1.9550
 3928SOL    HW223421   3.788   4.132   2.419  1.0926  1.1774  2.9611
 3929SOL     OW23422   2.410   3.758   3.174  0.1447  0.3346  0.3866
 3929SOL    HW123423   2.430   3.847   3.205  1.4152  0.7714 -1.6461
 3929SOL    HW223424   2.344   3.731   3.236 -0.6574 -2.1352 -1.5582
 3930SOL     OW23425   0.523   4.265  16.774  0.2861 -1.2724  0.7299
 3930SOL    HW123426   0.604   4.237  16.817 -0.6794 -0.6212  2.9515
 3930SOL    HW223427   0.496   4.174  16.770 -0.8277 -0.8696 -1.0751
 3931SOL     OW23428   2.457   1.814   1.955  0.0907  0.0887 -0.5382
 3931SOL    HW123429   2.421   1.786   2.039 -0.3307  1.9824 -0.0801
 3931SOL    HW223430   2.416   1.750   1.898 -1.6513 -0.2245  1.0520
 3932SOL     OW23431   3.368   4.070   0.243  0.0373  0.0765  0.1543
 3932SOL    HW123432   3.321   4.012   0.184  0.2962  1.4850 -1.4206
 3932SOL    HW223433   3.456   4.035   0.228 -1.5381 -2.8747 -2.1961
 3933SOL     OW23434   0.876   0.654  10.618  0.1540 -0.2645  0.0242
 3933SOL    HW123435   0.884   0.578  10.676  1.9363 -0.9655 -1.1565
 3933SOL    HW223436   0.891   0.612  10.533 -0.4824  1.0478 -0.7387
 3934SOL     OW23437   3.646   4.439   3.918 -0.0984  0.1480 -0.0012
 3934SOL    HW123438   3.628   4.457   3.826 -0.5069 -0.3635 -0.0229
 3934SOL    HW223439   3.590   4.369   3.952 -0.6732  0.8889  0.5785
 3935SOL     OW23440   0.095   2.942  14.247 -0.3176  0.0971 -0.0088
 3935SOL    HW123441   0.151   2.874  14.284 -0.5341  0.1722  0.4558
 3935SOL    HW223442   0.134   2.968  14.163 -0.7422  2.5395  0.5531
 3936SOL     OW23443   2.513   0.081   2.682  0.0603  0.6204 -0.2524
 3936SOL    HW123444   2.495   0.112   2.771  0.7716 -1.2886  0.5435
 3936SOL    HW223445   2.570   0.009   2.710  0.1932  1.0247  0.5063
 3937SOL     OW23446   2.672   0.663   7.951  0.4035 -0.8392 -0.0004
 3937SOL    HW123447   2.722   0.618   8.019  0.2337  0.3913  0.9371
 3937SOL    HW223448   2.687   0.608   7.874  1.1170  1.0313 -1.1973
 3938SOL     OW23449   3.938   2.479   5.202  0.2043  0.2117 -0.1740
 3938SOL    HW123450   3.897   2.401   5.165  0.8467 -0.2198  0.0295
 3938SOL    HW223451   3.870   2.497   5.267 -0.8110  0.1269 -1.2077
 3939SOL     OW23452   3.136   1.381   5.470 -0.4147 -0.4162  0.3792
 3939SOL    HW123453   3.047   1.370   5.436  0.3760 -2.8422 -0.9156
 3939SOL    HW223454   3.139   1.305   5.528 -1.7160 -1.5229 -1.0071
 3940SOL     OW23455   1.353   1.863   8.829 -0.2088 -0.4107 -0.6443
 3940SOL    HW123456   1.391   1.777   8.845  0.6846  0.1100  0.0164
 3940SOL    HW223457   1.277   1.828   8.782 -0.2736 -2.9215  1.3222
 3941SOL     OW23458   1.949   2.200   7.998 -0.0777 -0.0539  0.6157
 3941SOL    HW123459   1.948   2.268   8.066  1.2050 -0.6289  1.2006
 3941SOL    HW223460   1.855   2.199   7.980 -0.1151 -1.4245  0.9154
 3942SOL     OW23461   1.674   3.160  14.279 -0.2517  0.5443  0.2794
 3942SOL    HW123462   1.676   3.243  14.326  1.0944 -0.5014  2.1315
 3942SOL    HW223463   1.752   3.122  14.321 -1.6033 -1.3804  1.0234
 3943SOL     OW23464   0.669   2.467   3.705  0.9228  0.0686 -0.2753
 3943SOL    HW123465   0.636   2.383   3.736  2.9506 -0.3362  0.7299
 3943SOL    HW223466   0.734   2.484   3.773 -1.3980 -0.5111  2.0899
 3944SOL     OW23467   0.827   3.320  12.009 -0.2657 -0.2425 -0.1592
 3944SOL    HW123468   0.818   3.238  11.960  0.5017 -0.1644 -0.4224
 3944SOL    HW223469   0.888   3.285  12.073 -0.8486  1.5257  1.3718
 3945SOL     OW23470   3.679   1.281  17.394  0.0081  0.5599 -0.5570
 3945SOL    HW123471   3.761   1.273  17.346 -0.1556 -1.1439 -0.5766
 3945SOL    HW223472   3.609   1.310  17.335 -0.7264  0.7941  0.4369
 3946SOL     OW23473   3.413   1.451   3.125  0.2135 -0.2659  0.0881
 3946SOL    HW123474   3.482   1.396   3.089 -0.9024 -1.1610 -0.6721
 3946SOL    HW223475   3.447   1.461   3.214  0.7138  0.8522 -0.2325
 3947SOL     OW23476   0.817   3.566   9.128 -0.0512 -0.0583 -0.3601
 3947SOL    HW123477   0.781   3.576   9.040  1.3996  1.2128 -0.8047
 3947SOL    HW223478   0.872   3.489   9.119 -2.1970 -1.5861 -0.4399
 3948SOL     OW23479   2.110   3.037  16.863  0.2982 -0.1219 -0.8251
 3948SOL    HW123480   2.155   2.954  16.847  2.5162  1.1374 -1.1589
 3948SOL    HW223481   2.185   3.091  16.887 -1.5672  3.0095 -2.1727
 3949SOL     OW23482   3.189   2.447   4.074  0.6182 -0.8331 -0.3979
 3949SOL    HW123483   3.205   2.379   4.140 -2.2342 -2.0942 -0.9810
 3949SOL    HW223484   3.179   2.393   3.995  0.0263 -0.0710 -0.8413
 3950SOL     OW23485   3.909   4.454   1.040 -0.2207  0.4773  0.2377
 3950SOL    HW123486   3.949   4.380   1.086 -0.2627 -0.0362 -0.5512
 3950SOL    HW223487   3.975   4.523   1.042  0.5830 -0.2696 -0.5133
 3951SOL     OW23488   1.349   2.947   1.914 -0.1184  0.4662  0.1625
 3951SOL    HW123489   1.262   2.971   1.945 -1.0205 -0.4262 -1.6427
 3951SOL    HW223490   1.386   3.035   1.922 -0.2945  0.4747  0.8226
 3952SOL     OW23491   4.668   1.412   2.976 -0.2478  0.2951 -0.5754
 3952SOL    HW123492   4.657   1.395   2.882  1.2180  0.7195 -0.8221
 3952SOL    HW223493   4.662   1.325   3.015  0.4726  0.6432  0.2963
 3953SOL     OW23494   4.350   0.417   5.163  0.3010  0.0247  0.4898
 3953SOL    HW123495   4.326   0.510   5.162 -0.3517 -0.1653 -0.6117
 3953SOL    HW223496   4.281   0.378   5.216  0.1764  0.0230  0.3272
 3954SOL     OW23497   2.952   3.804   0.039 -0.1980  0.0934 -0.5008
 3954SOL    HW123498   2.919   3.739  17.718 -0.6854  0.7489 -0.9278
 3954SOL    HW223499   2.882   3.869   0.036  0.2728  0.5752 -1.1821
 3955SOL     OW23500   4.667   4.713   3.669 -0.5518 -0.4581 -0.1752
 3955SOL    HW123501   4.688   0.041   3.737  1.6512  0.3680 -1.6158
 3955SOL    HW223502   0.012   4.662   3.681  0.2711  0.9836  0.3367
 3956SOL     OW23503   2.877   4.059  11.056  0.2368 -0.0997 -0.3338
 3956SOL    HW123504   2.929   4.139  11.060  0.1058  0.0310 -1.1937
 3956SOL    HW223505   2.948   3.995  11.070  0.4494  0.0217 -0.8236
 3957SOL     OW23506   4.216   2.651   6.998  0.0797  0.3417 -0.6923
 3957SOL    HW123507   4.289   2.649   6.936  1.0060  1.1669  0.3657
 3957SOL    HW223508   4.241   2.728   7.049  1.4601 -1.4851  1.4187
 3958SOL     OW23509   2.725   0.414   7.173  0.0594  0.1566  0.2229
 3958SOL    HW123510   2.766   0.329   7.157 -1.1852 -0.4819  0.3562
 3958SOL    HW223511   2.736   0.425   7.267 -0.9826  4.7311 -0.2217
 3959SOL     OW23512   0.845   3.102   8.622  0.4572  0.2003 -0.9672
 3959SOL    HW123513   0.838   3.085   8.528 -0.7055 -1.4992 -0.5660
 3959SOL    HW223514   0.812   3.192   8.621 -3.4713 -1.2106  0.1327
 3960SOL     OW23515   4.286   4.096   3.589  0.3532 -0.0423  0.6559
 3960SOL    HW123516   4.234   4.019   3.570  0.4659  0.0776 -0.1225
 3960SOL    HW223517   4.265   4.150   3.513  1.1568  1.6270  1.6023
 3961SOL     OW23518   1.372   3.677   9.682 -0.0730 -0.5175  0.1061
 3961SOL    HW123519   1.443   3.667   9.746 -0.4282 -0.5375  0.5038
 3961SOL    HW223520   1.310   3.714   9.745 -1.7545 -0.6469 -1.4839
 3962SOL     OW23521   1.450   0.021   2.472  0.0796  0.6637  0.0094
 3962SOL    HW123522   1.479   0.097   2.422  0.7514  0.4047  0.0037
 3962SOL    HW223523   1.503   4.684   2.439 -1.5190 -0.6681  0.3644
 3963SOL     OW23524   3.793   0.125   4.309  0.7611  0.0789  0.5300
 3963SOL    HW123525   3.727   0.190   4.334  0.4490 -1.1294  2.8522
 3963SOL    HW223526   3.777   0.060   4.378  0.2856  0.5909  0.9064
 3964SOL     OW23527   1.352   4.720   0.363 -0.2332 -0.4167 -0.5610
 3964SOL    HW123528   1.276   0.014   0.313  2.0021  3.4723 -1.6806
 3964SOL    HW223529   1.386   4.654   0.304  2.7951  0.0480  0.6603
 3965SOL     OW23530   2.237   1.552   3.685 -0.2883 -0.4094  0.6167
 3965SOL    HW123531   2.323   1.592   3.673 -0.4023  0.0420  1.3787
 3965SOL    HW223532   2.259   1.460   3.670 -0.2365 -0.4044  0.6630
 3966SOL     OW23533   3.895   4.360   3.052  0.0474 -0.1645 -0.5758
 3966SOL    HW123534   3.914   4.305   3.128 -1.0294  0.2092 -0.0287
 3966SOL    HW223535   3.843   4.305   2.993  1.8083 -1.6109 -0.7837
 3967SOL     OW23536   1.121   0.825   8.387  0.0601  0.3623  0.2174
 3967SOL    HW123537   1.056   0.762   8.356  0.1781  0.0061  0.6974
 3967SOL    HW223538   1.186   0.776   8.436 -0.7596  0.2486  1.1821
 3968SOL     OW23539   3.096   2.563  13.305  0.5535 -0.2769  0.8870
 3968SOL    HW123540   3.017   2.511  13.290 -0.7395  2.5109 -1.9248
 3968SOL    HW223541   3.103   2.558  13.401  1.2785  0.2259  0.8596
 3969SOL     OW23542   0.624   1.461  11.427  0.2415  0.5822  0.0594
 3969SOL    HW123543   0.550   1.467  11.367  0.1409  1.4100  0.2634
 3969SOL    HW223544   0.678   1.535  11.399 -0.4671  1.0817  0.0031
 3970SOL     OW23545   4.549   0.465   3.939  0.4319  0.1303  0.3902
 3970SOL    HW123546   4.463   0.438   3.907 -0.1632  2.0713  0.3392
 3970SOL    HW223547   4.540   0.558   3.959  0.2979  0.2045 -0.0190
 3971SOL     OW23548   2.880   3.903   5.999 -0.4030  0.0699 -0.2336
 3971SOL    HW123549   2.842   3.948   5.924 -0.8525 -1.0517 -0.6740
 3971SOL    HW223550   2.968   3.883   5.967  0.2449  1.1508  0.8627
 3972SOL     OW23551   1.775   3.055   4.229 -0.2643  0.2174  0.1127
 3972SOL    HW123552   1.725   3.025   4.306 -2.5515 -0.1846 -1.5286
 3972SOL    HW223553   1.767   2.976   4.176  0.5491 -0.2248  0.6629
 3973SOL     OW23554   1.293   1.872   2.594 -0.1447  0.2759  0.3956
 3973SOL    HW123555   1.304   1.949   2.650 -1.3187 -0.4139  1.5491
 3973SOL    HW223556   1.251   1.816   2.659 -0.1376 -1.1149 -0.8038
 3974SOL     OW23557   3.774   4.462  15.322 -0.4129  0.0130 -0.1648
 3974SOL    HW123558   3.778   4.376  15.364  1.5402  0.3229  0.2536
 3974SOL    HW223559   3.680   4.478  15.334 -0.6689 -2.0072  0.6157
 3975SOL     OW23560   2.944   3.301   8.769  0.9501  0.1629 -0.0981
 3975SOL    HW123561   3.018   3.359   8.751 -0.6826  1.0454 -4.0828
 3975SOL    HW223562   2.986   3.230   8.719  1.3380  0.9389 -0.8878
 3976SOL     OW23563   3.101   2.714   6.671 -0.4382  0.0854  0.0253
 3976SOL    HW123564   3.010   2.710   6.639 -0.8315 -0.6854  1.2532
 3976SOL    HW223565   3.122   2.621   6.664  0.3559  0.4215 -1.9839
 3977SOL     OW23566   3.644   0.980   1.755 -0.6640  0.3542  0.5944
 3977SOL    HW123567   3.596   0.942   1.681 -0.4963 -0.0076  0.6750
 3977SOL    HW223568   3.693   1.053   1.718  1.3165 -2.7952 -3.0294
 3978SOL     OW23569   4.464   2.763   1.812  0.0224 -0.1693  0.1813
 3978SOL    HW123570   4.549   2.734   1.844 -0.4543  0.4529  1.9626
 3978SOL    HW223571   4.401   2.698   1.844  0.7220 -1.5127 -1.1955
 3979SOL     OW23572   0.431   3.385   4.826 -0.5064  0.4038  0.0570
 3979SOL    HW123573   0.487   3.378   4.904  2.0566  2.0313 -1.6287
 3979SOL    HW223574   0.371   3.458   4.842  0.8313  0.9918  2.4124
 3980SOL     OW23575   4.640   4.293   3.735  0.3480  0.3251 -0.6218
 3980SOL    HW123576   4.612   4.243   3.812  0.5513  0.0114 -0.7504
 3980SOL    HW223577   4.564   4.340   3.702 -1.2885 -0.6651  1.7075
 3981SOL     OW23578   4.314   4.154  17.529 -0.1651  0.2001  0.4470
 3981SOL    HW123579   4.273   4.100  17.462 -0.2979 -0.1607  0.8152
 3981SOL    HW223580   4.407   4.148  17.508 -0.6540 -0.7752 -1.4478
 3982SOL     OW23581   2.535   1.054  13.985 -0.1384 -0.7938 -0.0271
 3982SOL    HW123582   2.628   1.069  13.968 -0.4084  0.7563 -0.1011
 3982SOL    HW223583   2.505   0.992  13.918  0.7889 -1.6273  0.3417
 3983SOL     OW23584   0.812   4.699   9.281 -0.3475 -0.1898 -0.7849
 3983SOL    HW123585   0.764   0.032   9.234  1.2332  1.1192 -0.5113
 3983SOL    HW223586   0.747   4.651   9.331  1.1828 -0.7192  0.6829
 3984SOL     OW23587   2.006   2.429   8.127 -0.2714  0.0851 -0.5362
 3984SOL    HW123588   1.966   2.493   8.069 -1.0316 -0.2553 -0.3845
 3984SOL    HW223589   2.011   2.479   8.208 -1.3637  0.7385 -0.8747
 3985SOL     OW23590   4.217   3.491  10.767 -0.4213  0.5286  0.3144
 3985SOL    HW123591   4.174   3.520  10.848 -1.3435 -0.2148  0.0813
 3985SOL    HW223592   4.186   3.401  10.770 -0.6037  0.6369  1.9290
 3986SOL     OW23593   2.263   2.368   5.513  0.1188  0.4369 -0.2719
 3986SOL    HW123594   2.184   2.421   5.519 -1.6152 -1.8869 -2.2992
 3986SOL    HW223595   2.324   2.436   5.485 -0.3568  1.5634  1.4504
 3987SOL     OW23596   2.786   2.650  17.531  0.2375  0.8701  0.0894
 3987SOL    HW123597   2.763   2.698  17.611 -1.2589  0.0102  0.1871
 3987SOL    HW223598   2.809   2.561  17.558 -0.0265  0.6957 -0.2563
 3988SOL     OW23599   4.189   3.104   4.237 -0.2819  0.1962 -0.3866
 3988SOL    HW123600   4.105   3.132   4.273  0.5473 -0.7711  2.2993
 3988SOL    HW223601   4.170   3.054   4.158  0.0385 -0.6558  0.0697
 3989SOL     OW23602   3.271   1.966  15.833 -0.4957  0.2075  0.4741
 3989SOL    HW123603   3.278   2.040  15.893 -0.7093 -1.0193  1.9947
 3989SOL    HW223604   3.245   2.015  15.754  0.8315  2.4775  1.4593
 3990SOL     OW23605   3.613   0.493   3.284 -0.2409  0.6067 -0.2491
 3990SOL    HW123606   3.560   0.570   3.263 -1.8906 -1.2627 -3.0055
 3990SOL    HW223607   3.679   0.538   3.337  0.1611  1.4676 -1.4794
 3991SOL     OW23608   4.330   0.636   6.370  0.1025  0.3837  0.0244
 3991SOL    HW123609   4.270   0.609   6.440  0.8032 -2.2910 -0.3748
 3991SOL    HW223610   4.267   0.684   6.316  1.2011  2.5376  0.6608
 3992SOL     OW23611   2.679   1.980   5.212  0.8519  0.0630  0.4831
 3992SOL    HW123612   2.754   2.004   5.267  2.2374 -0.6884 -1.0948
 3992SOL    HW223613   2.628   2.061   5.210  0.2488 -0.2839  1.4487
 3993SOL     OW23614   2.122   0.981   4.616 -0.0830 -0.0543  0.0079
 3993SOL    HW123615   2.107   0.900   4.665  1.2628 -0.1051  0.3351
 3993SOL    HW223616   2.159   1.044   4.679 -1.1223  0.0851  0.4694
 3994SOL     OW23617   4.005   4.653   4.756  0.0408 -0.1364 -0.3032
 3994SOL    HW123618   3.958   4.732   4.782  2.3426  0.9193  0.7249
 3994SOL    HW223619   3.996   4.595   4.831 -0.5570 -1.6272 -1.5232
 3995SOL     OW23620   3.141   3.765   8.325  0.0079  0.1537 -0.0969
 3995SOL    HW123621   3.131   3.836   8.389  1.4798  0.6493 -0.4238
 3995SOL    HW223622   3.128   3.694   8.388  1.2143  0.4880  0.5418
 3996SOL     OW23623   3.586   4.021   6.774 -0.5193  0.8236 -0.2253
 3996SOL    HW123624   3.526   4.053   6.706  1.0744  0.7945 -1.6517
 3996SOL    HW223625   3.568   3.928   6.785 -0.1328  0.8372  0.4620
 3997SOL     OW23626   4.092   3.902   8.263 -0.4641 -0.3197  0.0651
 3997SOL    HW123627   4.173   3.928   8.307 -0.0900 -1.3631 -0.0230
 3997SOL    HW223628   4.029   3.916   8.333 -0.3707  3.8446 -0.6736
 3998SOL     OW23629   0.974   1.978   6.098 -0.4684  0.0557  0.1314
 3998SOL    HW123630   0.899   1.926   6.069  0.9698 -1.8049 -0.2641
 3998SOL    HW223631   0.925   2.054   6.129  0.8793  1.4687 -1.1966
 3999SOL     OW23632   2.539   3.099   2.511 -0.7807  0.1508 -0.4616
 3999SOL    HW123633   2.513   3.190   2.495 -1.4173  0.1338  0.4672
 3999SOL    HW223634   2.509   3.048   2.436 -3.6187 -0.6440  1.2367
 4000SOL     OW23635   2.885   4.679   7.036 -0.0667 -0.2113  1.0589
 4000SOL    HW123636   2.801   4.643   7.010 -1.3877  2.0479  2.1888
 4000SOL    HW223637   2.941   4.654   6.963  0.2295 -0.2739  1.3044
 4001SOL     OW23638   1.216   4.120  12.732 -0.3628  0.2705  0.0297
 4001SOL    HW123639   1.168   4.201  12.714 -0.5568  0.3303  0.8025
 4001SOL    HW223640   1.209   4.102  12.826 -1.5041 -2.9146 -0.6594
 4002SOL     OW23641   0.243   2.203   2.716 -0.0400  0.4407 -0.1150
 4002SOL    HW123642   0.240   2.237   2.627 -0.3628  0.2674 -0.1690
 4002SOL    HW223643   0.315   2.255   2.753 -0.8356  1.4308  0.0456
 4003SOL     OW23644   2.995   0.205   4.047 -0.2971 -0.1943  0.3926
 4003SOL    HW123645   3.027   0.264   4.116  1.0490  2.8185 -2.8044
 4003SOL    HW223646   3.043   0.123   4.062 -2.4508 -1.7405 -1.2716
 4004SOL     OW23647   4.162   0.435   5.733 -0.1988 -0.3874 -0.0909
 4004SOL    HW123648   4.163   0.418   5.827 -1.3066 -1.6485 -0.3113
 4004SOL    HW223649   4.238   0.493   5.727  0.0264 -0.8781 -1.9685
 4005SOL     OW23650   4.035   3.638   6.413 -0.1945 -0.3309  0.1770
 4005SOL    HW123651   3.983   3.593   6.347 -0.8787 -0.7395  0.9904
 4005SOL    HW223652   3.975   3.712   6.428 -1.7557 -1.7906  1.1628
 4006SOL     OW23653   4.487   3.996  15.592  0.4220  0.7382 -0.2753
 4006SOL    HW123654   4.489   4.090  15.571  0.7432  0.2582 -2.3844
 4006SOL    HW223655   4.476   3.998  15.687  3.4071 -1.9875  0.1132
 4007SOL     OW23656   2.397   2.465   9.568 -0.0037  0.8151  0.3669
 4007SOL    HW123657   2.467   2.517   9.530 -0.4578  0.5949 -0.7835
 4007SOL    HW223658   2.335   2.536   9.583 -0.9622  0.0319  0.1694
 4008SOL     OW23659   1.337   2.120   8.944  0.5588 -0.3047 -0.0472
 4008SOL    HW123660   1.403   2.122   8.876  0.4855 -1.2252 -0.1469
 4008SOL    HW223661   1.312   2.029   8.925 -0.6793 -0.8709  4.2732
 4009SOL     OW23662   0.767   4.698   2.509  0.0815  0.3588 -0.7261
 4009SOL    HW123663   0.810   4.634   2.566  0.9844  0.3402 -1.4474
 4009SOL    HW223664   0.748   0.030   2.574 -1.1408  0.0956 -0.8075
 4010SOL     OW23665   2.405   1.058   4.463 -0.3776  0.2869  0.2038
 4010SOL    HW123666   2.328   1.078   4.410  0.0109 -0.6964 -0.7372
 4010SOL    HW223667   2.457   1.138   4.454  0.0943  0.1118  1.3355
 4011SOL     OW23668   2.900   4.489   8.990  0.1998  0.0999  0.4612
 4011SOL    HW123669   2.970   4.480   9.056  1.1518  3.8744 -0.0325
 4011SOL    HW223670   2.942   4.531   8.915 -0.1181 -0.0425  0.2079
 4012SOL     OW23671   1.965   2.813   4.536  0.0574  0.4160  0.5358
 4012SOL    HW123672   2.051   2.852   4.525  1.0765 -1.8322  0.5249
 4012SOL    HW223673   1.907   2.883   4.567  0.3504  1.0431 -0.3403
 4013SOL     OW23674   1.299   0.615   0.539 -0.1749 -0.4306  0.0397
 4013SOL    HW123675   1.245   0.686   0.504  2.5214  1.9008  0.5495
 4013SOL    HW223676   1.325   0.566   0.460  1.0454  1.5449 -0.7775
 4014SOL     OW23677   1.159   1.838   1.957 -0.1434  0.5090  0.1352
 4014SOL    HW123678   1.165   1.871   2.047  0.9587 -0.6068  0.4669
 4014SOL    HW223679   1.237   1.783   1.964 -0.0866  0.6553  0.6390
 4015SOL     OW23680   0.910   0.648   7.219  0.2258 -0.5843  0.4321
 4015SOL    HW123681   0.974   0.708   7.256  0.0525  0.1613 -0.4745
 4015SOL    HW223682   0.890   0.699   7.141  0.6361  2.3659  2.2635
 4016SOL     OW23683   2.055   1.331   3.691 -0.6016 -0.2872 -0.3351
 4016SOL    HW123684   2.099   1.349   3.608 -0.0557 -1.9792 -0.4037
 4016SOL    HW223685   1.975   1.383   3.680  0.5466  1.3546 -0.7722
 4017SOL     OW23686   0.138   2.244   0.680 -0.2108 -0.2335  0.3459
 4017SOL    HW123687   0.110   2.231   0.590  0.4233  0.9904 -0.0270
 4017SOL    HW223688   0.062   2.217   0.732 -1.9189  0.2200 -1.9339
 4018SOL     OW23689   4.641   1.566   3.565 -0.2039 -0.3402 -0.7349
 4018SOL    HW123690   4.668   1.489   3.515 -0.5659 -1.8471  1.4432
 4018SOL    HW223691   4.726   1.609   3.573 -0.2320 -0.3015 -0.6436
 4019SOL     OW23692   4.090   1.570   9.376  0.6752  0.0742  0.1899
 4019SOL    HW123693   4.096   1.665   9.379  1.5840  0.0546 -0.8945
 4019SOL    HW223694   4.166   1.551   9.431  1.5979 -0.5395 -1.2981
 4020SOL     OW23695   4.426   4.452   3.624  0.2738 -0.2353  0.6793
 4020SOL    HW123696   4.410   4.545   3.611  2.4115  0.4926  3.1003
 4020SOL    HW223697   4.474   4.420   3.547 -2.2230  0.1805 -1.0548
 4021SOL     OW23698   0.696   3.264   7.826  0.3353  0.3047 -0.3921
 4021SOL    HW123699   0.613   3.300   7.858  1.5043  2.3918  0.3054
 4021SOL    HW223700   0.746   3.346   7.832 -0.2406  0.6614 -0.4732
 4022SOL     OW23701   3.357   0.265   1.860 -0.1591 -0.1234 -0.4264
 4022SOL    HW123702   3.374   0.172   1.849  1.5977  0.0255  1.0685
 4022SOL    HW223703   3.318   0.263   1.947 -1.7375  0.2253 -1.1285
 4023SOL     OW23704   3.786   4.719   5.708  0.9119  0.0799  0.3903
 4023SOL    HW123705   3.748   0.056   5.660 -1.1874 -1.6136 -0.4688
 4023SOL    HW223706   3.717   4.655   5.726  2.8052 -2.3547 -1.0050
 4024SOL     OW23707   2.334   0.107   8.197 -0.5516  0.2524  0.2885
 4024SOL    HW123708   2.360   0.176   8.258  0.9900 -0.1957  0.1517
 4024SOL    HW223709   2.405   0.121   8.135 -2.8242  0.4347 -2.2367
 4025SOL     OW23710   1.931   2.564   8.363  0.5824  0.2929 -0.1175
 4025SOL    HW123711   1.933   2.507   8.439 -1.9806 -0.8988 -0.9306
 4025SOL    HW223712   1.898   2.648   8.396  0.0660  0.3802 -0.8415
 4026SOL     OW23713   4.338   0.512  16.791  0.0083  0.4111 -0.3865
 4026SOL    HW123714   4.261   0.490  16.738  0.6348 -0.7464 -0.8363
 4026SOL    HW223715   4.391   0.578  16.747  1.6166  0.0706  1.0419
 4027SOL     OW23716   0.289   2.693   5.231 -0.4063 -0.0972 -0.0895
 4027SOL    HW123717   0.317   2.707   5.140  0.2057 -0.3960  0.0540
 4027SOL    HW223718   0.221   2.628   5.214 -0.1459 -0.9335  2.1478
 4028SOL     OW23719   3.062   1.847  10.399  0.2224  0.2811 -0.0014
 4028SOL    HW123720   3.041   1.757  10.375 -1.9459  1.2092 -1.6031
 4028SOL    HW223721   2.971   1.877  10.398 -0.1120 -0.6733  1.4989
 4029SOL     OW23722   1.502   0.730   8.713 -0.1005  0.0974 -0.0412
 4029SOL    HW123723   1.530   0.820   8.701  0.1093  0.5981  4.2284
 4029SOL    HW223724   1.562   0.699   8.780  0.8840  0.3498 -0.8099
 4030SOL     OW23725   1.613   4.099   7.057  0.2558  0.0790  0.0085
 4030SOL    HW123726   1.529   4.130   7.023 -0.1575 -0.3201  0.6661
 4030SOL    HW223727   1.667   4.120   6.981 -1.5237 -1.2117 -1.6193
 4031SOL     OW23728   3.444   4.669   0.611  0.6688 -0.2465 -0.3400
 4031SOL    HW123729   3.518   4.613   0.635  2.8019  2.2757 -1.0264
 4031SOL    HW223730   3.420   4.626   0.529  0.5882 -2.8455  1.0219
 4032SOL     OW23731   2.181   3.199   8.582  0.1156  0.1679  0.2920
 4032SOL    HW123732   2.269   3.178   8.613  0.1917  0.6306  0.3812
 4032SOL    HW223733   2.168   3.128   8.519 -1.7575 -0.4687  1.4117
 4033SOL     OW23734   0.713   3.067   9.631 -0.3027 -0.0650  0.8774
 4033SOL    HW123735   0.802   3.101   9.618 -1.2620  2.0328 -0.1768
 4033SOL    HW223736   0.700   3.109   9.715  0.0998 -0.2601  1.0357
 4034SOL     OW23737   3.351   0.290  12.866 -0.8283  0.7204  0.1059
 4034SOL    HW123738   3.397   0.333  12.938  0.7229  0.2796 -0.6182
 4034SOL    HW223739   3.366   0.200  12.896  1.0305  0.9131 -0.2206
 4035SOL     OW23740   3.091   4.328   0.349 -0.7603 -1.0368 -0.1825
 4035SOL    HW123741   3.112   4.242   0.384 -0.6677 -1.3253 -0.9398
 4035SOL    HW223742   3.171   4.373   0.376 -2.5303  0.0549  3.1978
 4036SOL     OW23743   4.637   2.918  17.637  0.3141 -0.6026 -0.2003
 4036SOL    HW123744   4.678   2.869  17.708  1.9063 -0.0156 -0.7124
 4036SOL    HW223745   4.710   2.969  17.602  2.2597 -3.0872  0.2810
 4037SOL     OW23746   1.178   4.185   4.405  0.2192  0.4081 -0.3282
 4037SOL    HW123747   1.154   4.093   4.414 -1.1505  0.7747 -0.2805
 4037SOL    HW223748   1.154   4.190   4.313  3.3200  4.0441 -0.9368
 4038SOL     OW23749   1.582   0.523   1.712  0.2487  0.1302 -0.4238
 4038SOL    HW123750   1.660   0.467   1.713 -1.1895 -1.8444 -0.2529
 4038SOL    HW223751   1.527   0.463   1.661  0.1493 -0.2111  0.0834
 4039SOL     OW23752   3.590   3.827   2.808  0.0950 -0.2271 -0.0578
 4039SOL    HW123753   3.631   3.898   2.858  0.8421 -1.7842  1.5373
 4039SOL    HW223754   3.549   3.890   2.749 -2.5168 -1.3304  0.6127
 4040SOL     OW23755   1.260   4.230   6.260  0.0751  0.2989 -0.2876
 4040SOL    HW123756   1.333   4.281   6.296  0.2736  0.6947 -1.2598
 4040SOL    HW223757   1.185   4.267   6.306 -0.0263  0.0902 -0.2876
 4041SOL     OW23758   4.307   3.038   5.617 -0.2886 -0.1276 -0.2538
 4041SOL    HW123759   4.397   3.050   5.587 -0.4482  0.0304 -0.6827
 4041SOL    HW223760   4.322   2.979   5.690  1.5082  0.7331  0.0621
 4042SOL     OW23761   2.372   3.662  10.760 -0.5116 -0.8564 -0.4987
 4042SOL    HW123762   2.424   3.737  10.788 -0.7563  0.1139 -2.6214
 4042SOL    HW223763   2.424   3.587  10.789  0.2129 -0.5641 -1.0434
 4043SOL     OW23764   0.091   0.614   4.133  0.1794 -0.2595 -0.7181
 4043SOL    HW123765   0.181   0.583   4.144 -0.8630 -2.4226  1.7449
 4043SOL    HW223766   0.084   0.630   4.039  0.4357 -1.0533 -0.8743
 4044SOL     OW23767   2.333   0.699  16.977  0.1709 -0.1506 -0.0264
 4044SOL    HW123768   2.388   0.653  16.912  1.3590  0.3492  0.6221
 4044SOL    HW223769   2.363   0.789  16.963  0.6529 -0.5169 -1.3902
 4045SOL     OW23770   0.787   0.606   7.723 -0.4204 -0.7012  0.2999
 4045SOL    HW123771   0.837   0.635   7.647 -2.0340  0.5004 -0.3259
 4045SOL    HW223772   0.708   0.661   7.726 -1.4824 -2.0604 -2.8202
 4046SOL     OW23773   1.598   0.997   3.430 -0.2477  0.5446 -0.4510
 4046SOL    HW123774   1.637   1.068   3.379  0.0179  1.0979  0.5405
 4046SOL    HW223775   1.504   1.008   3.443 -0.1741  1.4146 -0.6656
 4047SOL     OW23776   1.992   2.045   8.638  0.0506 -0.0404 -0.1271
 4047SOL    HW123777   2.042   1.994   8.574 -0.0164 -0.0952 -0.1366
 4047SOL    HW223778   2.013   2.131   8.603 -0.6315 -0.0864 -0.6457
 4048SOL     OW23779   4.020   0.844   4.626 -0.1475 -0.4291 -0.1455
 4048SOL    HW123780   3.962   0.792   4.680 -0.9113 -0.3885 -0.9370
 4048SOL    HW223781   3.970   0.890   4.559 -1.4069 -0.0121  1.0814
 4049SOL     OW23782   3.701   4.498   1.777  0.2217 -0.2317 -0.2717
 4049SOL    HW123783   3.620   4.509   1.728 -2.1169  0.7107  3.8809
 4049SOL    HW223784   3.745   4.583   1.772  0.6686 -0.3801  1.2864
 4050SOL     OW23785   3.685   4.608   5.110 -0.3147  0.4023 -0.3915
 4050SOL    HW123786   3.658   4.518   5.130 -0.2302  0.5207  0.2523
 4050SOL    HW223787   3.755   4.588   5.047 -0.0204  3.7434 -1.1291
 4051SOL     OW23788   0.875   1.869   4.977  0.1604  0.1800  0.2710
 4051SOL    HW123789   0.921   1.912   5.048  0.6981 -0.3395  0.2414
 4051SOL    HW223790   0.798   1.925   4.977 -0.2884 -0.4063 -1.2644
 4052SOL     OW23791   3.110   3.839   9.587  0.0284  0.0431 -0.3707
 4052SOL    HW123792   3.204   3.832   9.571  0.1377 -0.8186  0.6758
 4052SOL    HW223793   3.080   3.755   9.621  2.1217 -0.5428  0.0411
 4053SOL     OW23794   0.753   0.262   5.006 -0.4573 -0.3591 -0.1333
 4053SOL    HW123795   0.698   0.320   4.953 -0.4308 -0.6247 -0.4515
 4053SOL    HW223796   0.819   0.319   5.047 -0.2045 -0.2793 -0.6495
 4054SOL     OW23797   2.768   1.654  16.646 -0.4383  0.8631  0.1401
 4054SOL    HW123798   2.694   1.621  16.697  0.5372  0.3457  1.2121
 4054SOL    HW223799   2.807   1.575  16.610  0.9890  0.6042  2.2566
 4055SOL     OW23800   2.641   2.501   8.373  0.2339 -0.2355 -0.5488
 4055SOL    HW123801   2.627   2.595   8.359 -0.0725 -0.3476 -0.9931
 4055SOL    HW223802   2.594   2.461   8.301 -2.7468 -0.5257  1.5601
 4056SOL     OW23803   1.819   3.400   1.433 -0.0164  0.0099 -0.5116
 4056SOL    HW123804   1.818   3.307   1.414 -2.5252  0.1788 -1.3077
 4056SOL    HW223805   1.914   3.411   1.429 -0.1634  0.8947 -1.5017
 4057SOL     OW23806   4.310   0.322   3.916  0.4009 -0.0307 -0.3219
 4057SOL    HW123807   4.275   0.364   3.995  1.6712 -0.9072  0.6904
 4057SOL    HW223808   4.364   0.249   3.945 -1.3122 -0.5872  1.4493
 4058SOL     OW23809   3.242   0.151   8.761 -0.3207 -0.2627 -0.0812
 4058SOL    HW123810   3.282   0.214   8.701  0.3705 -0.4170  0.2208
 4058SOL    HW223811   3.239   0.067   8.715 -0.6054  0.0319 -0.5970
 4059SOL     OW23812   1.171   1.253   9.091 -0.1726  0.3430  0.3074
 4059SOL    HW123813   1.125   1.266   9.008  1.0908 -0.7079 -0.5519
 4059SOL    HW223814   1.197   1.161   9.090  2.1639  1.0433 -2.3266
 4060SOL     OW23815   2.783   4.007   4.927 -0.0051 -0.0111 -0.4011
 4060SOL    HW123816   2.785   3.987   4.833  1.3044 -0.1714 -0.3343
 4060SOL    HW223817   2.725   4.081   4.948 -0.8188 -0.4652 -1.0859
 4061SOL     OW23818   3.249   0.359   8.209 -0.3578  0.2337 -0.1985
 4061SOL    HW123819   3.298   0.368   8.127  0.2241 -0.2820  0.0904
 4061SOL    HW223820   3.227   0.269   8.183 -0.9084  1.1448 -2.8687
 4062SOL     OW23821   1.568   3.094   0.333 -0.0930 -0.1827 -0.7500
 4062SOL    HW123822   1.599   3.009   0.365  1.4386  0.3290 -0.8796
 4062SOL    HW223823   1.593   3.145   0.410 -1.5636 -0.8562  0.1656
 4063SOL     OW23824   4.456   1.087  12.873 -0.1400  0.1242  0.1387
 4063SOL    HW123825   4.467   1.084  12.778  1.2490 -1.4337  0.3258
 4063SOL    HW223826   4.379   1.033  12.893  0.2855 -1.4273 -2.4755
 4064SOL     OW23827   1.036   0.590   6.307  0.3103 -0.4345  0.7312
 4064SOL    HW123828   1.009   0.662   6.364 -1.0418 -1.3522  1.2579
 4064SOL    HW223829   0.990   0.630   6.233  0.9756  1.9146  1.5937
 4065SOL     OW23830   3.544   4.085   7.479  0.1169 -0.0066 -0.3140
 4065SOL    HW123831   3.515   4.171   7.509 -2.7690 -0.3330 -2.1400
 4065SOL    HW223832   3.470   4.033   7.509  1.0954 -1.8750 -1.0947
 4066SOL     OW23833   2.059   1.792   5.626  0.1196  0.4476  0.0522
 4066SOL    HW123834   1.995   1.751   5.568 -0.1587  2.0860 -0.8148
 4066SOL    HW223835   2.011   1.801   5.708  0.5399  0.2425  0.3215
 4067SOL     OW23836   0.674   1.667   0.957  0.3881 -0.3182 -0.2673
 4067SOL    HW123837   0.647   1.731   0.891  0.2220  0.4138  0.5174
 4067SOL    HW223838   0.666   1.714   1.040  2.1880 -1.3203  0.4625
 4068SOL     OW23839   3.095   1.490   5.155  0.6088  0.2335  0.4387
 4068SOL    HW123840   3.057   1.517   5.239  2.1472  0.4510  1.0815
 4068SOL    HW223841   3.071   1.398   5.157 -0.5953  0.5326 -0.5233
 4069SOL     OW23842   0.542   2.478  17.594 -0.0467  0.4271 -0.0340
 4069SOL    HW123843   0.606   2.516  17.654 -0.4678 -0.6857  1.1309
 4069SOL    HW223844   0.526   2.393  17.636  0.9857  0.3827  0.2674
 4070SOL     OW23845   3.079   1.983   4.279 -0.1542  0.3369  0.0304
 4070SOL    HW123846   3.056   1.998   4.188  2.3306 -1.5134 -0.9021
 4070SOL    HW223847   2.992   1.998   4.318 -0.6963 -1.1372 -0.6013
 4071SOL     OW23848   2.315   3.140  10.373  0.3889  0.7930 -0.5721
 4071SOL    HW123849   2.310   3.184  10.288  1.5457 -0.9592 -1.5436
 4071SOL    HW223850   2.340   3.216  10.425  2.4107 -0.0857 -0.2799
 4072SOL     OW23851   3.017   0.552   1.146 -0.2307 -0.5392  0.7060
 4072SOL    HW123852   3.075   0.576   1.218 -0.0960  0.4190  0.2858
 4072SOL    HW223853   2.927   0.537   1.176 -0.1093 -0.3539  1.1652
 4073SOL     OW23854   3.428   0.802  17.685 -0.1203  0.1107  0.2898
 4073SOL    HW123855   3.347   0.759  17.656  0.1041  0.4628 -0.8432
 4073SOL    HW223856   3.391   0.859   0.010  0.7952 -1.8181  2.4589
 4074SOL     OW23857   2.322   1.053   7.466  0.0173 -0.1676 -0.1524
 4074SOL    HW123858   2.352   1.136   7.504 -3.2859  1.4342 -1.0276
 4074SOL    HW223859   2.364   1.049   7.381 -3.0738 -0.2850 -1.6674
 4075SOL     OW23860   2.691   2.445  16.968  0.6239 -0.1133 -0.0544
 4075SOL    HW123861   2.731   2.362  16.994  2.4269  0.2677 -1.6046
 4075SOL    HW223862   2.741   2.492  17.035  0.2215  0.9865 -0.5148
 4076SOL     OW23863   1.157   3.763   3.610 -0.6047 -0.4557  0.1444
 4076SOL    HW123864   1.229   3.804   3.658  0.1696  0.9672 -2.2157
 4076SOL    HW223865   1.106   3.840   3.584 -1.1737 -0.9176 -0.0868
 4077SOL     OW23866   4.021   0.480  15.264  0.3463 -0.7646  0.2868
 4077SOL    HW123867   4.046   0.546  15.329  1.7481 -0.6236 -0.3809
 4077SOL    HW223868   3.956   0.539  15.226  1.1949  0.9152  1.4057
 4078SOL     OW23869   0.647   0.635   7.026 -0.8615  0.1899 -0.0541
 4078SOL    HW123870   0.671   0.719   7.065 -1.2229  0.0760  0.4101
 4078SOL    HW223871   0.618   0.584   7.101 -0.1532  0.2897  0.2800
 4079SOL     OW23872   1.524   0.560   7.548 -0.2291 -0.1247  0.3877
 4079SOL    HW123873   1.461   0.529   7.613 -1.0098 -1.2849 -0.9200
 4079SOL    HW223874   1.574   0.478   7.549  0.8491  0.5069 -1.8317
 4080SOL     OW23875   4.407   1.746   1.323 -0.2018 -0.1887  0.4225
 4080SOL    HW123876   4.444   1.834   1.337  0.3399 -0.2456 -0.6738
 4080SOL    HW223877   4.316   1.772   1.333 -0.6779 -0.8679 -2.3768
 4081SOL     OW23878   2.905   0.498   5.773 -0.2161  0.7517 -0.4617
 4081SOL    HW123879   2.992   0.501   5.733 -0.1473  2.7824 -0.1913
 4081SOL    HW223880   2.927   0.549   5.851  1.2874 -0.0683 -0.3519
 4082SOL     OW23881   1.074   0.354   2.076 -0.0590  0.4061 -0.0336
 4082SOL    HW123882   1.127   0.407   2.015 -0.5386  1.3392  0.3528
 4082SOL    HW223883   1.132   0.363   2.152 -0.0761 -0.2668  0.0522
 4083SOL     OW23884   0.844   1.321   1.382  0.5470 -0.3152  0.1514
 4083SOL    HW123885   0.893   1.380   1.439 -0.7444 -0.9084  1.8865
 4083SOL    HW223886   0.758   1.329   1.422  0.8390  1.8683  0.3465
 4084SOL     OW23887   3.482   2.909   2.850 -0.4459  0.0333 -0.0124
 4084SOL    HW123888   3.427   2.884   2.924 -0.7688  1.1916  0.1467
 4084SOL    HW223889   3.546   2.838   2.841 -0.2570  0.2236 -0.1820
 4085SOL     OW23890   4.297   2.528   1.940  0.6430 -0.3534 -0.1858
 4085SOL    HW123891   4.205   2.552   1.932  0.2949 -0.8767  2.1092
 4085SOL    HW223892   4.283   2.439   1.974 -0.4743  0.2130  0.8130
 4086SOL     OW23893   1.393   3.956   9.872  0.3355  0.2036  0.2384
 4086SOL    HW123894   1.460   3.894   9.843  0.2838  0.2113  0.1010
 4086SOL    HW223895   1.436   3.996   9.948  0.7620  0.2926 -0.0513
 4087SOL     OW23896   4.378   0.714  16.428  0.2830  0.3021  0.0220
 4087SOL    HW123897   4.457   0.768  16.439 -1.3647  3.1968 -2.2630
 4087SOL    HW223898   4.410   0.648  16.366 -0.3581 -0.2407  0.2743
 4088SOL     OW23899   3.931   3.256   7.814 -0.0043  0.1191 -0.4105
 4088SOL    HW123900   3.838   3.238   7.797  0.3348 -0.5630 -1.5057
 4088SOL    HW223901   3.928   3.264   7.910 -0.2283 -2.4048 -0.1830
 4089SOL     OW23902   2.862   3.409   7.242  0.0041  0.1470 -0.2069
 4089SOL    HW123903   2.828   3.327   7.207 -0.0360 -0.4599  1.2740
 4089SOL    HW223904   2.892   3.385   7.330  0.9554  0.8878 -0.3291
 4090SOL     OW23905   2.544   1.400   6.676 -0.0615  0.2486  0.2985
 4090SOL    HW123906   2.483   1.459   6.631  0.1137  0.0610 -0.1841
 4090SOL    HW223907   2.488   1.324   6.693 -0.9513  0.7795 -0.2431
 4091SOL     OW23908   2.981   0.094  15.224 -0.0864 -0.2954 -0.5902
 4091SOL    HW123909   3.073   0.068  15.215  0.6500  1.3609  2.1290
 4091SOL    HW223910   2.931   0.062  15.149 -1.2956  0.2231 -0.0003
 4092SOL     OW23911   2.305   0.812  17.658  0.0804  0.2768  0.0281
 4092SOL    HW123912   2.319   0.896  17.614  1.5101 -0.4129 -0.8556
 4092SOL    HW223913   2.365   0.756  17.607  1.5153  1.8674 -0.0503
 4093SOL     OW23914   0.783   4.174   8.012  0.7309 -0.5916  0.0048
 4093SOL    HW123915   0.700   4.129   8.024  1.3752 -1.2987  1.8242
 4093SOL    HW223916   0.759   4.245   7.953  0.0550 -1.6094 -0.9562
 4094SOL     OW23917   2.207   0.846   5.722 -0.0323  0.0230  0.4662
 4094SOL    HW123918   2.180   0.765   5.767  1.5077  0.7002  2.5772
 4094SOL    HW223919   2.301   0.847   5.736  0.2456  0.3900 -1.4956
 4095SOL     OW23920   2.119   0.879   4.148  1.0780 -0.0706  0.1001
 4095SOL    HW123921   2.187   0.944   4.132  1.0641  0.6729  3.1075
 4095SOL    HW223922   2.051   0.936   4.185  1.8894  0.6544  0.4594
 4096SOL     OW23923   4.706   0.117   7.673  0.5399 -0.5389  0.1774
 4096SOL    HW123924   4.648   0.097   7.599  1.6861  1.0261 -1.1511
 4096SOL    HW223925   0.054   0.095   7.632  0.7025  1.9684 -0.8218
 4097SOL     OW23926   1.281   2.370   1.042  0.4445  0.4770  0.3556
 4097SOL    HW123927   1.225   2.329   1.109 -1.7470  0.1240 -1.6854
 4097SOL    HW223928   1.365   2.342   1.078  0.3527  0.7399  0.7822
 4098SOL     OW23929   4.339   1.643  17.566 -0.0104 -0.6505 -0.8128
 4098SOL    HW123930   4.346   1.548  17.562 -2.2469 -0.8654  0.1996
 4098SOL    HW223931   4.313   1.659  17.476 -0.6867 -0.2729 -0.5542
 4099SOL     OW23932   1.466   1.041   9.045  0.0563 -0.5390 -0.3784
 4099SOL    HW123933   1.395   1.031   8.982 -1.5779  3.5077  0.8304
 4099SOL    HW223934   1.528   0.971   9.025  0.6035 -0.2645  0.3628
 4100SOL     OW23935   3.742   0.531   7.057  0.3883 -0.5497  0.3852
 4100SOL    HW123936   3.826   0.569   7.033  0.2149  0.1040  0.8085
 4100SOL    HW223937   3.748   0.541   7.152  1.1556 -2.1603  0.4930
 4101SOL     OW23938   1.445   4.229   2.367 -0.4510 -0.4190  0.6434
 4101SOL    HW123939   1.513   4.296   2.368  1.2040 -2.0920  0.1577
 4101SOL    HW223940   1.378   4.268   2.310 -0.4885  1.0879  1.7480
 4102SOL     OW23941   2.972   0.884  17.151  0.0967  0.1767  0.2498
 4102SOL    HW123942   3.016   0.958  17.109  2.2571 -0.7833  0.8097
 4102SOL    HW223943   2.933   0.922  17.229  0.0958  0.2817  0.1992
 4103SOL     OW23944   2.304   3.328   8.199 -0.7291  0.1201 -0.7313
 4103SOL    HW123945   2.369   3.292   8.138  1.1021  0.6937  0.8801
 4103SOL    HW223946   2.348   3.406   8.231  3.2798 -1.7326 -1.7275
 4104SOL     OW23947   1.699   3.359   8.589  0.2411 -0.2726 -0.1357
 4104SOL    HW123948   1.765   3.422   8.558 -0.4691 -0.2771 -1.6377
 4104SOL    HW223949   1.752   3.298   8.640 -3.2744 -2.4939  0.8143
 4105SOL     OW23950   4.708   1.814   6.217 -0.1937 -0.4819 -0.0867
 4105SOL    HW123951   0.021   1.756   6.275  2.9087 -0.5857 -2.7763
 4105SOL    HW223952   4.642   1.760   6.173 -1.3487  1.6643 -1.0039
 4106SOL     OW23953   4.371   2.462   5.447 -0.1104 -0.2860  0.6717
 4106SOL    HW123954   4.378   2.510   5.365  1.6084 -1.2573  0.2671
 4106SOL    HW223955   4.291   2.409   5.437  0.4363 -1.2258  1.2870
 4107SOL     OW23956   3.187   4.493   1.754 -0.4250 -0.2522 -0.4066
 4107SOL    HW123957   3.128   4.453   1.817 -1.3643  0.7236 -0.6604
 4107SOL    HW223958   3.188   4.431   1.681 -2.2420 -1.3295  0.5152
 4108SOL     OW23959   2.500   1.618  16.760 -0.0525  0.0718  0.4207
 4108SOL    HW123960   2.431   1.623  16.694 -0.1696 -0.7119  0.4877
 4108SOL    HW223961   2.454   1.609  16.843  1.8792 -1.6013  1.3237
 4109SOL     OW23962   2.084   3.469   3.903  0.3158 -0.1111  0.4858
 4109SOL    HW123963   2.056   3.377   3.897 -0.4704  0.1780 -0.2903
 4109SOL    HW223964   2.031   3.501   3.830  1.4196 -0.2292 -0.3624
 4110SOL     OW23965   4.552   3.073   4.606 -0.1563  0.3430 -0.2049
 4110SOL    HW123966   4.608   3.039   4.536 -1.7443 -2.6085 -0.0582
 4110SOL    HW223967   4.466   3.062   4.565  0.4872 -2.0786 -0.9029
 4111SOL     OW23968   1.892   0.970  12.750  0.9307  0.0019 -0.4325
 4111SOL    HW123969   1.912   1.015  12.668  2.0857  1.1938  0.5055
 4111SOL    HW223970   1.833   0.902  12.717 -0.9968  0.7660  1.3947
 4112SOL     OW23971   2.643   4.691  14.483  0.1095 -0.0323 -0.1388
 4112SOL    HW123972   2.684   4.679  14.398 -0.9963 -0.1115 -0.6634
 4112SOL    HW223973   2.673   4.618  14.537 -1.3676 -1.5226 -1.3155
 4113SOL     OW23974   0.767   0.903   8.425  0.9808 -0.1639  0.3125
 4113SOL    HW123975   0.818   0.832   8.466  0.4445  0.0448  1.3153
 4113SOL    HW223976   0.692   0.851   8.397  0.5490  0.2517  0.7181
 4114SOL     OW23977   0.705   1.307   8.619 -0.1783  0.0392 -0.3774
 4114SOL    HW123978   0.659   1.308   8.535  3.8483 -0.5574 -2.5927
 4114SOL    HW223979   0.793   1.317   8.585  0.2117  0.6125  0.8114
 4115SOL     OW23980   2.073   2.553   5.520  0.2573 -0.0196  0.5602
 4115SOL    HW123981   2.003   2.536   5.457  1.3024  1.5527 -1.0194
 4115SOL    HW223982   2.083   2.647   5.510  0.9544  0.0360  1.8153
 4116SOL     OW23983   4.733   3.550   5.599 -0.1657  0.2871 -0.7661
 4116SOL    HW123984   0.074   3.492   5.593  0.0572  0.5361 -0.3316
 4116SOL    HW223985   0.005   3.612   5.527  0.2953 -0.4614 -1.3595
 4117SOL     OW23986   0.085   3.178   9.273 -0.1866 -0.3354 -0.8002
 4117SOL    HW123987   0.177   3.151   9.281 -0.9267 -2.3492  0.9278
 4117SOL    HW223988   0.073   3.132   9.191 -0.1948 -2.2262  0.2496
 4118SOL     OW23989   0.252   3.844   9.488  0.1931  0.0378 -0.0516
 4118SOL    HW123990   0.220   3.763   9.449  0.6441  1.1119 -2.7011
 4118SOL    HW223991   0.303   3.817   9.563  1.1106 -0.7321 -0.9599
 4119SOL     OW23992   1.957   2.923   5.724 -0.1036 -0.2027  0.3223
 4119SOL    HW123993   1.952   2.985   5.797  1.7872 -0.3105  0.5265
 4119SOL    HW223994   2.038   2.938   5.676 -0.1741  0.5455  0.4396
 4120SOL     OW23995   1.713   0.964  17.482  0.2831 -0.3762 -0.7329
 4120SOL    HW123996   1.798   1.003  17.463  1.0654 -0.3191  2.9509
 4120SOL    HW223997   1.728   0.901  17.552  0.0377 -0.5129 -0.8039
 4121SOL     OW23998   2.319   2.313  15.163  0.0474  0.0018  0.1632
 4121SOL    HW123999   2.308   2.384  15.099  0.2888 -0.7055 -0.6589
 4121SOL    HW224000   2.230   2.295  15.194 -0.0572  0.8451  0.3508
 4122SOL     OW24001   2.876   2.406  16.027 -0.0984  0.1976  0.2805
 4122SOL    HW124002   2.881   2.316  16.059  0.7557 -0.4414 -1.6991
 4122SOL    HW224003   2.912   2.453  16.103  0.3399  1.3086 -0.6148
 4123SOL     OW24004   3.893   1.033   5.014 -0.1916  0.0956 -0.5940
 4123SOL    HW124005   3.821   1.073   4.965  0.0700  1.8133  0.4429
 4123SOL    HW224006   3.963   1.052   4.952  1.6314  0.6812  1.6886
 4124SOL     OW24007   2.806   1.895   9.103 -0.0213  0.2762 -0.3164
 4124SOL    HW124008   2.866   1.905   9.177 -0.1293 -1.8472  0.0314
 4124SOL    HW224009   2.728   1.933   9.143  0.3643  1.9313 -1.1127
 4125SOL     OW24010   4.728   2.397  12.980  0.5039  0.2197  0.2394
 4125SOL    HW124011   4.657   2.387  13.044  1.9310 -1.0140  1.6207
 4125SOL    HW224012   4.677   2.379  12.901 -0.1904 -2.1644  1.2211
 4126SOL     OW24013   3.089   2.248  16.310  0.0682  0.6169  0.1733
 4126SOL    HW124014   3.062   2.195  16.235 -1.7027  1.1535  0.4260
 4126SOL    HW224015   3.170   2.282  16.272  0.6067  0.3320  1.0593
 4127SOL     OW24016   2.175   1.523  10.188  0.3181  0.1822  0.4281
 4127SOL    HW124017   2.092   1.551  10.225 -0.0680  0.1972 -0.4495
 4127SOL    HW224018   2.228   1.545  10.264  0.0972 -0.5008  0.7829
 4128SOL     OW24019   3.559   0.266  16.813  0.4383 -0.1328  0.2174
 4128SOL    HW124020   3.643   0.307  16.796 -0.3830  2.0435  1.3916
 4128SOL    HW224021   3.568   0.198  16.880  0.2841  0.5408  0.9340
 4129SOL     OW24022   2.708   3.237  15.529 -0.3041  0.4087  0.2570
 4129SOL    HW124023   2.765   3.311  15.509 -0.1493 -0.0111 -0.8340
 4129SOL    HW224024   2.660   3.272  15.604 -2.1101  1.9413 -1.6303
 4130SOL     OW24025   4.523   2.180   7.883 -0.7445 -0.2618  0.0747
 4130SOL    HW124026   4.485   2.178   7.970 -0.2198 -0.2548  0.3019
 4130SOL    HW224027   4.452   2.146   7.829  0.6761 -1.0896 -1.2665
 4131SOL     OW24028   1.594   0.283   7.071 -0.2338 -0.8336 -0.3042
 4131SOL    HW124029   1.636   0.200   7.048  0.1531 -0.7457  0.0889
 4131SOL    HW224030   1.551   0.298   6.986 -1.2094 -1.8869 -0.0006
 4132SOL     OW24031   0.946   2.258   5.998  0.3105  0.0418  0.0949
 4132SOL    HW124032   1.032   2.301   5.995  0.7304 -0.8698 -0.5889
 4132SOL    HW224033   0.951   2.210   5.916 -1.7153  1.9306 -1.1424
 4133SOL     OW24034   1.257   3.339   5.773 -0.7501 -0.2545  0.4260
 4133SOL    HW124035   1.168   3.330   5.740 -0.0625  0.9527 -1.7218
 4133SOL    HW224036   1.270   3.433   5.785  0.6491 -0.5538  1.2268
 4134SOL     OW24037   0.021   4.534  12.759 -0.0177 -0.8814 -0.5264
 4134SOL    HW124038   0.053   4.466  12.699  1.7552 -1.7336  1.3596
 4134SOL    HW224039   0.044   4.619  12.721 -0.1371 -0.3001  0.7139
 4135SOL     OW24040   0.291   4.406   3.585  0.2168 -0.2750  0.1743
 4135SOL    HW124041   0.316   4.336   3.646 -0.2714  0.0835  0.7742
 4135SOL    HW224042   0.223   4.359   3.536 -0.0594  0.1467  0.1584
 4136SOL     OW24043   3.210   4.730   5.986  0.0755  0.4979 -0.4581
 4136SOL    HW124044   3.118   4.712   5.970 -0.1540  0.5075  0.8476
 4136SOL    HW224045   3.261   4.670   5.931 -0.5716 -1.2573  0.8637
 4137SOL     OW24046   1.507   2.618   6.104 -0.4776  0.0938  0.1680
 4137SOL    HW124047   1.469   2.703   6.125 -1.7689 -0.3929 -0.1866
 4137SOL    HW224048   1.463   2.571   6.175  1.8468 -0.5703  1.1709
 4138SOL     OW24049   2.558   4.433   7.272  0.0439  0.2520  0.6854
 4138SOL    HW124050   2.583   4.388   7.191 -2.2480 -1.4281  0.9301
 4138SOL    HW224051   2.640   4.476   7.296  0.6826 -1.1395  0.9815
 4139SOL     OW24052   3.534   2.972   7.590 -0.0761  0.0254  0.0772
 4139SOL    HW124053   3.466   2.972   7.524  0.1351 -0.0467 -0.1413
 4139SOL    HW224054   3.478   2.937   7.659 -0.3484  0.0003 -0.1595
 4140SOL     OW24055   2.843   3.708   7.306  0.2134  0.8045  0.7015
 4140SOL    HW124056   2.816   3.660   7.385 -1.6756  1.1202  0.2471
 4140SOL    HW224057   2.864   3.642   7.240 -0.4013  0.1094  1.1965
 4141SOL     OW24058   1.058   1.587   9.530 -0.1705 -0.2643  0.2179
 4141SOL    HW124059   1.021   1.501   9.549  0.9038 -0.9794 -0.9450
 4141SOL    HW224060   1.149   1.566   9.510 -1.2424 -3.1884 -1.7309
 4142SOL     OW24061   3.643   3.832   9.238 -0.1002  0.3978 -0.1227
 4142SOL    HW124062   3.579   3.798   9.176 -0.1458  0.5230 -0.1449
 4142SOL    HW224063   3.728   3.809   9.200 -0.4056  1.2531 -1.3364
 4143SOL     OW24064   1.673   3.122   3.643  0.6331  0.0608 -0.4161
 4143SOL    HW124065   1.711   3.042   3.679  0.6541  0.4681  0.4772
 4143SOL    HW224066   1.588   3.128   3.687 -0.1029  0.4372 -1.9014
 4144SOL     OW24067   3.326   2.658   5.119 -0.7515  0.5583  0.2065
 4144SOL    HW124068   3.302   2.737   5.167  0.2631  0.4972  0.8305
 4144SOL    HW224069   3.268   2.599   5.167  2.5647 -1.0973  2.2207
 4145SOL     OW24070   3.694   2.046  16.982  0.4343  0.2089  0.1212
 4145SOL    HW124071   3.652   2.082  17.060 -1.1032 -1.1345 -0.1008
 4145SOL    HW224072   3.694   1.952  16.998  3.3082  0.2797  0.7232
 4146SOL     OW24073   0.910   0.799   1.372 -0.0041  0.4257  0.1021
 4146SOL    HW124074   0.921   0.895   1.374  0.2854  0.4240 -1.4647
 4146SOL    HW224075   0.919   0.785   1.278 -4.5422 -0.0286 -0.2832
 4147SOL     OW24076   1.967   3.133   0.458 -0.4354  0.2105 -0.3069
 4147SOL    HW124077   2.010   3.194   0.400  0.4464 -0.5990 -0.4989
 4147SOL    HW224078   1.890   3.186   0.481  0.1866 -0.2700  2.9461
 4148SOL     OW24079   0.569   2.543   3.058  0.4341  0.0504  0.6525
 4148SOL    HW124080   0.523   2.460   3.040 -0.5721  0.5295  0.9936
 4148SOL    HW224081   0.596   2.531   3.149 -2.4565 -2.7824  1.1508
 4149SOL     OW24082   1.111   4.309   7.050  0.3773 -0.0268  0.3896
 4149SOL    HW124083   1.107   4.366   6.973 -0.0449  1.5291  1.5585
 4149SOL    HW224084   1.139   4.374   7.114  0.7660  0.5416 -0.3554
 4150SOL     OW24085   3.680   2.996   3.128  0.1128 -0.2001  0.1426
 4150SOL    HW124086   3.716   2.969   3.044  0.2068 -2.1873  0.8138
 4150SOL    HW224087   3.743   2.959   3.190  0.0999  0.7336  0.7121
 4151SOL     OW24088   0.440   0.329   5.910  0.2077  0.1935 -0.0613
 4151SOL    HW124089   0.499   0.301   5.980 -1.6197  0.0766  1.4326
 4151SOL    HW224090   0.361   0.341   5.963  0.5382  0.4059  0.3760
 4152SOL     OW24091   0.616   3.995   6.513  0.8922  0.1526 -0.0674
 4152SOL    HW124092   0.626   4.084   6.478  2.1133  0.0627  0.0451
 4152SOL    HW224093   0.555   3.953   6.452 -0.3435  1.2082  0.4463
 4153SOL     OW24094   1.759   0.922   6.469 -0.4384 -0.1850  0.5985
 4153SOL    HW124095   1.736   0.937   6.561 -0.1820  1.8882  0.3276
 4153SOL    HW224096   1.710   0.842   6.449  0.7814 -0.1428 -2.6103
 4154SOL     OW24097   4.719   0.811   1.234 -0.1427 -1.1089 -0.2393
 4154SOL    HW124098   4.716   0.881   1.169  0.0146  0.3644  1.3219
 4154SOL    HW224099   0.042   0.747   1.195  0.4621 -0.6541 -0.0814
 4155SOL     OW24100   0.083   2.479   5.895 -0.0581  0.3685  0.6387
 4155SOL    HW124101   4.727   2.483   5.922 -0.5744 -1.2131 -0.8357
 4155SOL    HW224102   0.072   2.430   5.814 -1.2187 -0.4962  1.3229
 4156SOL     OW24103   1.985   1.009  11.145 -0.0734  0.2407  0.6187
 4156SOL    HW124104   1.978   1.101  11.118 -0.8601  0.1293  0.4696
 4156SOL    HW224105   2.078   1.007  11.167  0.3833 -1.9108 -1.5417
 4157SOL     OW24106   0.166   2.937   5.179  0.0421 -0.4653 -0.0464
 4157SOL    HW124107   0.220   3.011   5.153  1.5895 -0.3206  3.5422
 4157SOL    HW224108   0.223   2.861   5.184  1.1485  0.3103 -1.0252
 4158SOL     OW24109   1.099   3.451   5.029  0.0561  0.5235  0.1151
 4158SOL    HW124110   1.131   3.522   4.973 -2.2331  0.9672 -0.6335
 4158SOL    HW224111   1.075   3.512   5.099  2.5944  1.2661  0.3508
 4159SOL     OW24112   2.655   2.260   2.810  0.3920  0.3111 -0.6211
 4159SOL    HW124113   2.691   2.253   2.898 -0.5147 -1.5880 -0.4015
 4159SOL    HW224114   2.690   2.345   2.783 -1.1851  1.5694  1.2590
 4160SOL     OW24115   1.203   2.296   6.034  0.9166 -0.3098 -0.0130
 4160SOL    HW124116   1.187   2.219   6.089  1.8782 -1.8162 -1.8546
 4160SOL    HW224117   1.296   2.297   6.057  1.8072  1.6755 -3.7079
 4161SOL     OW24118   1.867   3.030   3.086 -0.2048  0.4469  0.0575
 4161SOL    HW124119   1.836   2.958   3.142  0.7135 -1.4264 -1.8280
 4161SOL    HW224120   1.818   3.011   3.006 -3.5673 -1.6412  2.5961
 4162SOL     OW24121   0.949   4.357   3.569  0.1459 -0.0615  0.3816
 4162SOL    HW124122   0.905   4.437   3.543  1.8673  1.3814  1.9545
 4162SOL    HW224123   0.908   4.298   3.505  0.7250 -1.0095  0.8821
 4163SOL     OW24124   0.268   1.807   8.130  0.6956  0.1895 -0.6738
 4163SOL    HW124125   0.330   1.785   8.199 -0.6791  0.5291  0.6800
 4163SOL    HW224126   0.301   1.880   8.077 -0.0565  0.8556 -0.2324
 4164SOL     OW24127   2.968   0.586   3.037  0.2724 -0.0425 -0.6812
 4164SOL    HW124128   2.967   0.666   2.985 -0.5303 -0.5083 -1.3881
 4164SOL    HW224129   3.059   0.566   3.014  0.1530 -1.3157 -0.0976
 4165SOL     OW24130   2.386   2.165   7.829  0.0908  0.0370 -0.6892
 4165SOL    HW124131   2.361   2.190   7.918  0.2751  0.4866 -0.7605
 4165SOL    HW224132   2.474   2.202   7.833  0.1980 -0.2147 -0.7325
 4166SOL     OW24133   1.907   2.538  13.116 -0.2151  0.2673 -0.2017
 4166SOL    HW124134   1.962   2.514  13.191 -0.5265  0.6989  0.1648
 4166SOL    HW224135   1.939   2.627  13.101  0.0681  0.3590  0.9280
 4167SOL     OW24136   0.598   2.818   5.141  0.9310  0.3273 -0.2207
 4167SOL    HW124137   0.520   2.820   5.084 -0.1777 -0.5363  1.2645
 4167SOL    HW224138   0.560   2.815   5.229  0.5246  1.5799 -0.3396
 4168SOL     OW24139   2.239   3.108   7.770 -0.0693  0.2740  0.1262
 4168SOL    HW124140   2.242   3.201   7.750  0.1710  0.7329  2.2526
 4168SOL    HW224141   2.287   3.065   7.699 -0.9279  0.3005 -0.4648
 4169SOL     OW24142   1.896   3.184   0.838 -0.1933 -0.8780 -0.1279
 4169SOL    HW124143   1.878   3.245   0.767 -1.4377 -1.7906 -0.6044
 4169SOL    HW224144   1.818   3.204   0.890  0.6683 -2.2844  1.6848
 4170SOL     OW24145   1.779   0.918   5.671 -0.2490  0.0392  0.3809
 4170SOL    HW124146   1.807   0.944   5.759 -3.7270  1.1802  1.1248
 4170SOL    HW224147   1.745   0.998   5.631  0.1233 -0.0248 -0.0589
 4171SOL     OW24148   3.275   1.499   7.091  0.2454 -0.1295 -0.2382
 4171SOL    HW124149   3.315   1.524   7.008  0.9696  0.5426  0.3048
 4171SOL    HW224150   3.233   1.581   7.119 -1.9214 -2.3801  3.1109
 4172SOL     OW24151   2.919   3.363   3.249 -0.1543 -0.0962 -0.0745
 4172SOL    HW124152   2.882   3.315   3.175  2.7106 -0.8443 -1.0240
 4172SOL    HW224153   2.847   3.423   3.268 -0.3935 -0.2427 -0.5325
 4173SOL     OW24154   3.369   2.266  14.026 -0.1204 -0.4619 -0.2367
 4173SOL    HW124155   3.417   2.183  14.035  0.9530  0.0039 -1.6649
 4173SOL    HW224156   3.428   2.325  14.072  0.5158 -1.3395  0.0610
 4174SOL     OW24157   0.762   0.989   2.726  0.1320  0.3133  0.1065
 4174SOL    HW124158   0.836   0.934   2.702 -0.3859 -0.9066  1.3010
 4174SOL    HW224159   0.691   0.942   2.683 -0.3298 -0.0552  1.2780
 4175SOL     OW24160   3.215   1.753   2.218  0.0041 -0.2973  0.1407
 4175SOL    HW124161   3.140   1.766   2.160  0.4359  0.3442 -0.2719
 4175SOL    HW224162   3.202   1.666   2.256  0.6175 -0.4619 -0.0233
 4176SOL     OW24163   0.830   3.378   1.914 -0.2845  0.5570 -0.1133
 4176SOL    HW124164   0.755   3.428   1.945  0.0626  2.1958 -1.8997
 4176SOL    HW224165   0.830   3.304   1.975  0.2633 -1.7276 -2.8542
 4177SOL     OW24166   3.087   4.716   3.302  0.4218  0.2860  0.1565
 4177SOL    HW124167   3.124   0.030   3.375 -1.3023 -0.7066  1.6836
 4177SOL    HW224168   3.156   4.736   3.238  1.5295  2.0960  1.9112
 4178SOL     OW24169   4.136   3.158  16.483  0.1733  0.1844  1.0211
 4178SOL    HW124170   4.208   3.101  16.456 -0.3322 -0.5100  1.1309
 4178SOL    HW224171   4.183   3.235  16.452 -1.6799  0.1411 -1.8630
 4179SOL     OW24172   3.525   4.259   4.731  0.8654 -0.2566 -0.3407
 4179SOL    HW124173   3.588   4.288   4.665  0.4271 -0.8142 -1.0027
 4179SOL    HW224174   3.558   4.178   4.770  1.5461  0.6501  0.9671
 4180SOL     OW24175   1.017   0.809   8.011 -0.0535 -0.1601  0.1821
 4180SOL    HW124176   1.110   0.805   8.032  0.3300  0.2554 -1.5063
 4180SOL    HW224177   1.003   0.724   7.968  0.4783  1.1020 -2.4119
 4181SOL     OW24178   2.658   1.636  11.809 -0.0998 -0.3164  0.1559
 4181SOL    HW124179   2.748   1.661  11.788 -0.1738 -0.5480 -0.4202
 4181SOL    HW224180   2.678   1.554  11.854 -0.2223 -0.5138 -0.1491
 4182SOL     OW24181   3.049   1.064  14.451  0.1158  0.1049 -0.2430
 4182SOL    HW124182   3.078   1.058  14.542  0.2749  0.7634 -0.2479
 4182SOL    HW224183   2.977   1.002  14.460  0.9485 -0.9836 -1.0938
 4183SOL     OW24184   0.269   4.219  16.096  0.4228  0.1060 -0.4994
 4183SOL    HW124185   0.177   4.194  16.099  0.5658 -0.6498 -2.0833
 4183SOL    HW224186   0.315   4.141  16.065  0.1145  0.7445 -2.5860
 4184SOL     OW24187   3.250   1.684  10.931 -0.2953 -0.3371  0.0801
 4184SOL    HW124188   3.214   1.674  11.019  1.3101 -2.0300  0.5607
 4184SOL    HW224189   3.274   1.599  10.894  0.5941 -0.9225  2.0071
 4185SOL     OW24190   1.622   1.875   3.630  0.1489  0.0737 -0.2427
 4185SOL    HW124191   1.602   1.943   3.565  1.3390  0.5999 -0.0671
 4185SOL    HW224192   1.693   1.831   3.584  1.5720  1.7620  0.3348
 4186SOL     OW24193   0.239   1.460   7.332 -0.4732  0.1627 -0.7053
 4186SOL    HW124194   0.254   1.390   7.397 -2.5013  1.6466  1.3383
 4186SOL    HW224195   0.328   1.497   7.330  0.3500 -1.8098 -0.8551
 4187SOL     OW24196   3.906   0.865  17.367  0.0396  0.4651  0.0983
 4187SOL    HW124197   3.951   0.930  17.312  0.6415  2.2307  2.6657
 4187SOL    HW224198   3.965   0.790  17.358 -0.4065  0.4166 -2.6050
 4188SOL     OW24199   0.414   0.625  10.406 -0.5078 -0.3484  0.2978
 4188SOL    HW124200   0.360   0.701  10.425  0.8614  0.4049  1.1880
 4188SOL    HW224201   0.378   0.560  10.467 -0.0144 -2.4543 -1.6588
 4189SOL     OW24202   4.299   0.940  16.889 -0.1751 -0.0839 -0.4680
 4189SOL    HW124203   4.285   0.915  16.798 -0.9413 -0.2210 -0.3138
 4189SOL    HW224204   4.391   0.932  16.915 -0.3269  0.8696  0.3942
 4190SOL     OW24205   3.599   4.272   0.192 -0.7474 -0.1684 -0.2045
 4190SOL    HW124206   3.601   4.294   0.285 -0.2448 -2.4492  0.3281
 4190SOL    HW224207   3.531   4.205   0.198 -0.8970 -0.1702 -1.9037
 4191SOL     OW24208   3.344   0.394   5.060 -0.0975 -0.3548  0.3155
 4191SOL    HW124209   3.340   0.440   5.144  0.1280  0.3211 -0.0388
 4191SOL    HW224210   3.365   0.307   5.094 -0.2651 -0.6406 -0.3157
 4192SOL     OW24211   4.454   1.739   6.144  0.7057  0.1263  0.0652
 4192SOL    HW124212   4.420   1.680   6.211  0.7912  0.3801  0.3298
 4192SOL    HW224213   4.379   1.746   6.084 -0.6131  1.1424  1.8209
 4193SOL     OW24214   1.115   2.396  12.854 -0.2035  0.3200 -0.6130
 4193SOL    HW124215   1.110   2.436  12.767  2.0953  1.1426 -0.3705
 4193SOL    HW224216   1.195   2.345  12.852 -0.3045  0.1313 -0.0391
 4194SOL     OW24217   3.300   1.216   4.050  0.1792  0.4104 -0.2697
 4194SOL    HW124218   3.375   1.185   4.100 -0.0244  1.0957  0.4546
 4194SOL    HW224219   3.256   1.262   4.122 -0.0853  0.0696 -0.2108
 4195SOL     OW24220   3.978   2.393   3.963 -0.0791 -0.6590  0.2026
 4195SOL    HW124221   4.008   2.313   4.007 -1.2600 -1.9102 -1.2634
 4195SOL    HW224222   4.033   2.452   4.015 -0.1737 -0.3109 -0.0959
 4196SOL     OW24223   1.765   0.826  17.696  0.4079 -0.2522  0.4084
 4196SOL    HW124224   1.835   0.873  17.741 -0.0489  0.7745  0.0491
 4196SOL    HW224225   1.803   0.739  17.685  1.6604  0.4265 -0.5679
 4197SOL     OW24226   2.468   1.900   2.503 -0.1764  0.4963 -0.2702
 4197SOL    HW124227   2.469   1.866   2.592 -2.2499 -1.3813 -0.9549
 4197SOL    HW224228   2.556   1.897   2.465 -0.6270  0.9180 -1.3572
 4198SOL     OW24229   3.177   3.984   1.981  0.0932 -0.2381  0.1066
 4198SOL    HW124230   3.249   3.923   1.968  0.2714  0.1784 -0.8865
 4198SOL    HW224231   3.224   4.067   1.984 -1.1536  0.3384  2.9296
 4199SOL     OW24232   3.607   3.444   4.668 -0.1158 -0.0136  0.3012
 4199SOL    HW124233   3.676   3.470   4.729  0.3169  2.5652 -1.3142
 4199SOL    HW224234   3.534   3.430   4.729  0.9053  1.3203  1.8308
 4200SOL     OW24235   0.534   2.783   8.627  0.1538 -0.1956  0.3811
 4200SOL    HW124236   0.510   2.798   8.535 -0.4133 -0.6729  0.4563
 4200SOL    HW224237   0.630   2.784   8.619  0.1878 -0.3787  0.7964
 4201SOL     OW24238   4.200   2.078  11.127  0.0067 -0.4212  0.1853
 4201SOL    HW124239   4.262   2.122  11.069  0.9228 -1.0463  0.6963
 4201SOL    HW224240   4.157   2.014  11.072  1.4335 -1.3326  0.1203
 4202SOL     OW24241   1.950   2.121  16.374  0.8188 -0.6617  0.2855
 4202SOL    HW124242   1.946   2.032  16.339  0.6156 -1.7716  3.0794
 4202SOL    HW224243   1.947   2.117  16.470 -2.8119 -0.0225  0.1976
 4203SOL     OW24244   4.102   0.710   6.241 -0.3996  0.3991  0.5675
 4203SOL    HW124245   4.041   0.667   6.180  1.5657 -0.7569 -0.5744
 4203SOL    HW224246   4.055   0.686   6.321 -1.6200  0.2617 -0.1795
 4204SOL     OW24247   3.185   1.168  15.243 -0.3324 -0.6971  0.2201
 4204SOL    HW124248   3.189   1.219  15.162 -0.1268  0.7165  1.1174
 4204SOL    HW224249   3.122   1.213  15.298  0.4166 -0.7964  1.1502
 4205SOL     OW24250   4.680   0.111  13.447 -0.4825 -0.4161 -0.4034
 4205SOL    HW124251   0.019   0.164  13.420 -0.4515  0.0919  0.6914
 4205SOL    HW224252   4.648   0.174  13.511  3.3243  1.9387 -0.7720
 4206SOL     OW24253   2.298   2.973   8.006  0.1957 -0.5994  0.2395
 4206SOL    HW124254   2.259   3.029   7.939  0.7824 -0.2582  0.1870
 4206SOL    HW224255   2.225   2.913   8.022 -2.4022  2.7629  1.1870
 4207SOL     OW24256   4.009   1.431   6.884  0.1089  0.4663 -0.2530
 4207SOL    HW124257   3.951   1.506   6.896  1.3528  1.5507 -1.0409
 4207SOL    HW224258   4.093   1.465   6.915  0.1573 -0.2692  0.4257
 4208SOL     OW24259   0.299   3.956   5.894 -0.2952  0.4787 -0.6465
 4208SOL    HW124260   0.361   3.923   5.960 -0.4374  0.2492 -0.6292
 4208SOL    HW224261   0.215   3.929   5.931  0.3863  0.4718  0.9041
 4209SOL     OW24262   3.135   2.476  13.576  0.0582 -0.1294  0.3701
 4209SOL    HW124263   3.201   2.482  13.645 -1.2786 -2.1056  1.8191
 4209SOL    HW224264   3.059   2.457  13.630  0.5799  0.2926  1.2585
 4210SOL     OW24265   0.048   2.692   2.225 -0.0017  0.0044 -0.3078
 4210SOL    HW124266   0.069   2.737   2.307  1.6348  0.7059 -1.0961
 4210SOL    HW224267   4.715   2.630   2.248 -0.3683  0.9014  0.9894
 4211SOL     OW24268   0.441   3.192   9.531 -0.1115  0.3625  0.0189
 4211SOL    HW124269   0.423   3.137   9.607  2.4060 -1.0959 -0.4602
 4211SOL    HW224270   0.535   3.199   9.545  0.4112 -2.8775 -1.9395
 4212SOL     OW24271   2.207   4.335  15.664 -0.1655  0.2379 -0.1161
 4212SOL    HW124272   2.220   4.289  15.747  0.8804  1.0929  0.1955
 4212SOL    HW224273   2.289   4.318  15.618  0.0041 -1.4330  0.7937
 4213SOL     OW24274   4.087   2.735   7.678 -0.1867 -0.6672 -0.2081
 4213SOL    HW124275   4.020   2.684   7.632 -2.4509  0.6411  1.6374
 4213SOL    HW224276   4.172   2.717   7.638  0.7441  0.7305  1.1770
 4214SOL     OW24277   1.481   3.812  14.494  0.3047  0.0042  0.6416
 4214SOL    HW124278   1.560   3.804  14.441 -0.3606  0.4109 -0.4160
 4214SOL    HW224279   1.420   3.750  14.453  1.4718  0.1606 -1.3359
 4215SOL     OW24280   2.964   3.920  15.112  0.0818 -0.3370 -0.5980
 4215SOL    HW124281   3.018   3.851  15.149 -1.6135 -0.2210  2.0991
 4215SOL    HW224282   3.012   3.946  15.034 -0.3847  1.3596 -0.3310
 4216SOL     OW24283   3.633   4.142   8.140 -0.7030 -0.2621 -0.4723
 4216SOL    HW124284   3.717   4.185   8.123 -0.2125 -0.6834  0.9117
 4216SOL    HW224285   3.570   4.191   8.087 -0.2461  1.5059  0.6082
 4217SOL     OW24286   0.413   0.246   1.085 -0.0236  0.0835  0.0192
 4217SOL    HW124287   0.427   0.165   1.133  1.0951  0.7846  0.8790
 4217SOL    HW224288   0.390   0.209   1.000 -0.9961  3.5742 -1.2423
 4218SOL     OW24289   1.181   3.654   4.867  0.0744 -0.6302  0.4100
 4218SOL    HW124290   1.258   3.676   4.919 -1.2617 -1.3471  2.6884
 4218SOL    HW224291   1.193   3.714   4.794  1.4018 -0.0830  1.0815
 4219SOL     OW24292   1.172   0.088   0.155 -0.1659 -0.5483 -0.0181
 4219SOL    HW124293   1.141   0.093   0.065 -1.9501 -1.4092  0.5483
 4219SOL    HW224294   1.111   0.145   0.203 -2.0908 -2.3962 -0.2426
 4220SOL     OW24295   2.716   3.909  14.032 -0.3531  0.3549 -0.2815
 4220SOL    HW124296   2.654   3.965  14.078 -1.0476  0.1522 -0.9680
 4220SOL    HW224297   2.650   3.853  13.992 -0.4374 -1.1122  1.9372
 4221SOL     OW24298   4.308   1.876  17.117  0.1572 -0.1341  0.1165
 4221SOL    HW124299   4.280   1.799  17.167  0.7642 -1.9300 -2.2854
 4221SOL    HW224300   4.392   1.903  17.156 -0.3637  1.0866  0.3836
 4222SOL     OW24301   3.135   0.272  17.430  0.7226  0.2898  0.9633
 4222SOL    HW124302   3.077   0.320  17.489 -0.3213  1.2127 -0.8182
 4222SOL    HW224303   3.202   0.339  17.421  0.2068  0.4289 -1.6983
 4223SOL     OW24304   4.088   2.836   7.324  0.2850  0.3427 -0.8809
 4223SOL    HW124305   4.054   2.896   7.390  1.1507  0.7538 -0.8033
 4223SOL    HW224306   4.129   2.898   7.263 -1.3733  1.4864 -0.8310
 4224SOL     OW24307   0.597   0.153  13.393 -0.8209  0.2567  0.2482
 4224SOL    HW124308   0.546   0.095  13.336 -2.2571 -0.3846  2.1953
 4224SOL    HW224309   0.655   0.093  13.439 -2.8956 -2.7111 -0.9827
 4225SOL     OW24310   3.957   4.235   1.299  0.0722 -0.0002 -0.3099
 4225SOL    HW124311   3.868   4.208   1.319 -0.0203  1.7663  1.6522
 4225SOL    HW224312   3.987   4.288   1.374  1.8044  0.8656 -1.5978
 4226SOL     OW24313   1.451   2.153   4.103  0.1830 -0.1260  0.0904
 4226SOL    HW124314   1.414   2.186   4.021  2.0695 -0.9810 -1.0954
 4226SOL    HW224315   1.543   2.158   4.080 -0.1849 -1.2970 -1.5877
 4227SOL     OW24316   4.523   0.140   1.344  0.2166 -0.7659 -0.4282
 4227SOL    HW124317   4.610   0.177   1.362 -1.4662  2.2217  1.5420
 4227SOL    HW224318   4.539   0.076   1.275 -0.5330 -1.0589 -0.3219
 4228SOL     OW24319   3.713   2.322   8.590  0.5763 -0.2794 -0.0475
 4228SOL    HW124320   3.749   2.282   8.511 -1.5055  0.2280 -1.2469
 4228SOL    HW224321   3.627   2.355   8.564  1.4894  1.7091 -0.4679
 4229SOL     OW24322   2.837   1.811   2.909  0.4077  0.3338 -0.4320
 4229SOL    HW124323   2.879   1.893   2.936 -1.0278  1.0017 -0.2174
 4229SOL    HW224324   2.769   1.848   2.853 -0.1132  1.3731  0.8594
 4230SOL     OW24325   2.758   0.824   1.199  0.1229 -0.3138  0.2253
 4230SOL    HW124326   2.669   0.834   1.234  0.6927  2.8111  0.7447
 4230SOL    HW224327   2.819   0.829   1.273 -1.0347 -3.9005  1.4207
 4231SOL     OW24328   4.071   1.987   6.203  0.2300 -0.2393 -0.2414
 4231SOL    HW124329   4.088   1.904   6.247 -0.5382  0.7343  1.8913
 4231SOL    HW224330   4.151   1.993   6.151  2.0996  0.7192  2.7352
 4232SOL     OW24331   0.446   2.306   7.653 -0.2933  0.1908 -0.5832
 4232SOL    HW124332   0.404   2.392   7.649 -1.8440 -0.4576  2.0323
 4232SOL    HW224333   0.541   2.318   7.653 -0.1443 -1.0707  1.3969
 4233SOL     OW24334   0.670   3.548   4.316 -0.1104 -0.2094 -1.1484
 4233SOL    HW124335   0.765   3.563   4.314 -0.0409 -0.2824  1.1017
 4233SOL    HW224336   0.651   3.620   4.255 -0.1974  0.4462 -0.3520
 4234SOL     OW24337   1.171   3.470  13.371  0.1105 -0.3781  0.2049
 4234SOL    HW124338   1.129   3.458  13.285 -0.6400 -1.1644  0.6764
 4234SOL    HW224339   1.086   3.493  13.409  0.9817  1.3136  1.0704
 4235SOL     OW24340   2.370   1.796  16.335 -0.0049 -0.2381 -0.3710
 4235SOL    HW124341   2.454   1.767  16.370  0.4711  0.2863 -1.0870
 4235SOL    HW224342   2.303   1.758  16.392  0.8974 -0.9629  0.1967
 4236SOL     OW24343   1.385   4.587   0.678  0.2818  0.1279 -0.1964
 4236SOL    HW124344   1.348   4.652   0.737 -2.1365 -0.7182 -0.7979
 4236SOL    HW224345   1.414   4.648   0.611  0.7461 -1.7527 -1.7238
 4237SOL     OW24346   2.610   0.761  15.325  0.8152 -0.3078  0.0378
 4237SOL    HW124347   2.537   0.817  15.353 -0.5302 -1.8574 -0.3609
 4237SOL    HW224348   2.676   0.823  15.296  0.5605 -0.1533 -0.2124
 4238SOL     OW24349   3.188   1.836   6.775 -0.8444 -0.1683  0.1315
 4238SOL    HW124350   3.132   1.763   6.800  2.1353 -2.1513  1.0812
 4238SOL    HW224351   3.220   1.811   6.689 -1.6906 -1.1237  0.0985
 4239SOL     OW24352   1.428   4.418   6.613  0.1219  0.6168  0.1254
 4239SOL    HW124353   1.489   4.430   6.685  0.3019 -2.7956  0.5642
 4239SOL    HW224354   1.354   4.371   6.651 -0.0598  1.4597  0.8185
 4240SOL     OW24355   1.254   1.281  10.871 -0.5613  0.0429  0.3365
 4240SOL    HW124356   1.199   1.308  10.945  1.4276  0.9545  1.4789
 4240SOL    HW224357   1.298   1.211  10.919 -1.9204  0.6174  2.4035
 4241SOL     OW24358   0.996   2.748  16.428 -0.6043 -0.2171 -0.2122
 4241SOL    HW124359   0.955   2.705  16.353 -0.0615  0.9549 -1.1705
 4241SOL    HW224360   0.932   2.820  16.430 -0.0773  0.2228  0.6530
 4242SOL     OW24361   1.745   0.021   4.648  0.3163 -0.7335  0.0194
 4242SOL    HW124362   1.732   0.084   4.577 -0.2855 -0.8027  0.0669
 4242SOL    HW224363   1.828   0.051   4.685  0.2855  1.0721 -1.3885
 4243SOL     OW24364   2.343   3.233   2.248 -0.2191  0.2825 -0.7160
 4243SOL    HW124365   2.364   3.300   2.313  0.1869  0.5684 -1.1375
 4243SOL    HW224366   2.363   3.279   2.166  2.0312 -0.8192 -0.8058
 4244SOL     OW24367   0.860   1.747  16.471  0.6064  0.0982  0.0354
 4244SOL    HW124368   0.870   1.664  16.423 -0.1744  0.5146 -0.8371
 4244SOL    HW224369   0.781   1.734  16.524  0.8263 -0.9903  0.1140
 4245SOL     OW24370   3.550   1.503   7.691  0.3356  0.1443  0.0279
 4245SOL    HW124371   3.519   1.424   7.648 -0.5037  1.4999 -1.8295
 4245SOL    HW224372   3.490   1.571   7.660 -0.5276  0.3155  2.0289
 4246SOL     OW24373   2.841   2.975  17.137  0.0836  0.3826 -0.2386
 4246SOL    HW124374   2.935   2.993  17.145  0.2537  0.6853 -2.7474
 4246SOL    HW224375   2.831   2.986  17.042  0.5944  0.7726 -0.2488
 4247SOL     OW24376   4.494   0.097   2.802 -1.0390  0.0236  0.3115
 4247SOL    HW124377   4.475   0.168   2.741  0.3239 -1.7512 -2.1997
 4247SOL    HW224378   4.533   0.033   2.742 -0.8508  0.7857 -0.3731
 4248SOL     OW24379   4.384   3.011  17.646  0.2946 -0.4566 -0.3003
 4248SOL    HW124380   4.423   3.097  17.634 -0.3794 -0.0894  0.1442
 4248SOL    HW224381   4.468   2.965  17.653  1.2925  1.6190  1.3247
 4249SOL     OW24382   1.776   3.480  10.399 -0.1646 -0.3960  0.1276
 4249SOL    HW124383   1.786   3.530  10.318 -0.0318  1.0736  1.0555
 4249SOL    HW224384   1.868   3.464  10.422  0.3302  0.0981 -1.4577
 4250SOL     OW24385   1.794   1.814  13.068 -0.3368  0.7995 -0.2964
 4250SOL    HW124386   1.843   1.767  13.001 -0.6693 -0.6429  0.4641
 4250SOL    HW224387   1.840   1.811  13.152  1.4469  1.6671 -1.2614
 4251SOL     OW24388   0.988   1.483  16.951 -0.0744 -0.0949  0.0741
 4251SOL    HW124389   0.938   1.430  17.013 -3.1355  2.5283 -0.1766
 4251SOL    HW224390   0.922   1.545  16.920 -1.6743 -1.0168  1.6530
 4252SOL     OW24391   2.883   2.193   9.289 -0.4964  0.1951 -0.4087
 4252SOL    HW124392   2.870   2.284   9.262  0.1018  0.3246 -0.2754
 4252SOL    HW224393   2.844   2.200   9.375 -1.2003 -0.2459 -0.6941
 4253SOL     OW24394   2.845   2.955   1.899 -0.4402 -0.0837 -0.2718
 4253SOL    HW124395   2.841   3.007   1.818  0.5297  1.5960  0.7499
 4253SOL    HW224396   2.839   3.022   1.967  0.3935 -0.0248 -0.2580
 4254SOL     OW24397   1.026   3.660  12.557 -0.4811  0.0630  0.1717
 4254SOL    HW124398   1.017   3.659  12.462 -0.2670  0.1486  0.1521
 4254SOL    HW224399   1.109   3.700  12.582 -0.7848 -1.2519  3.2963
 4255SOL     OW24400   1.293   3.607   2.006  0.0367  0.4972 -0.0689
 4255SOL    HW124401   1.267   3.653   1.926  1.4822  2.9612  0.8734
 4255SOL    HW224402   1.365   3.559   1.966  0.4250  3.2882 -2.7140
 4256SOL     OW24403   4.554   4.429   4.449  0.7364  0.3654  0.0451
 4256SOL    HW124404   4.485   4.362   4.443  2.8701 -1.4697 -4.1205
 4256SOL    HW224405   4.633   4.377   4.465  0.5119 -0.0023 -0.0249
 4257SOL     OW24406   1.671   4.280  11.916  0.4450  0.0672 -0.2617
 4257SOL    HW124407   1.739   4.312  11.975 -0.1627  0.2454  0.3366
 4257SOL    HW224408   1.627   4.211  11.965  0.7963 -0.1037 -0.1877
 4258SOL     OW24409   2.832   0.856   5.431  0.1590 -0.2843 -0.2499
 4258SOL    HW124410   2.802   0.799   5.360 -0.0264 -0.5978  0.0730
 4258SOL    HW224411   2.893   0.795   5.473 -0.6352 -1.8153 -1.2987
 4259SOL     OW24412   0.217   2.922   8.267 -0.9373 -0.5051  0.3233
 4259SOL    HW124413   0.195   2.969   8.347 -0.0206  0.3451  0.0710
 4259SOL    HW224414   0.306   2.896   8.292 -0.7140  1.5973  1.7085
 4260SOL     OW24415   1.536   1.377   2.183 -0.4894  0.1128  0.1019
 4260SOL    HW124416   1.588   1.299   2.207 -2.2628 -1.0566  0.1336
 4260SOL    HW224417   1.610   1.424   2.145 -1.7247  1.4336 -0.6360
 4261SOL     OW24418   0.639   4.517   8.223 -0.5259 -0.7336  0.0546
 4261SOL    HW124419   0.639   4.603   8.265  0.6349  0.5325 -2.5330
 4261SOL    HW224420   0.642   4.535   8.129 -0.2131 -1.2968 -0.0467
 4262SOL     OW24421   2.858   0.980   8.165  0.2835  0.1868 -0.6395
 4262SOL    HW124422   2.936   0.990   8.111  0.7297 -0.9544 -0.1988
 4262SOL    HW224423   2.818   1.065   8.147  1.8032  1.2160  0.9415
 4263SOL     OW24424   2.145   0.477   8.128  0.4611 -0.0551  0.8848
 4263SOL    HW124425   2.134   0.382   8.130  1.5822 -0.2123  0.0742
 4263SOL    HW224426   2.053   0.502   8.125 -0.0980 -2.1116  1.0177
 4264SOL     OW24427   1.490   0.173   8.375 -0.1722  0.0346 -0.1719
 4264SOL    HW124428   1.585   0.172   8.389  0.0449 -1.5617 -1.7563
 4264SOL    HW224429   1.472   0.172   8.281  0.2741 -1.4907 -0.2421
 4265SOL     OW24430   4.059   0.207   7.827 -0.4245 -0.4973 -0.0664
 4265SOL    HW124431   3.972   0.229   7.794  0.5640 -1.3514 -3.2357
 4265SOL    HW224432   4.071   0.124   7.782 -2.6412  0.7152 -2.8366
 4266SOL     OW24433   0.437   0.829  11.297 -0.4603 -0.5013 -0.2083
 4266SOL    HW124434   0.372   0.853  11.363  1.8458  2.8702  0.8627
 4266SOL    HW224435   0.456   0.746  11.341  1.1859  0.3085  0.6297
 4267SOL     OW24436   3.841   1.628  10.798  0.0328  0.3211 -0.7224
 4267SOL    HW124437   3.926   1.648  10.759  1.2146  0.3803  1.8750
 4267SOL    HW224438   3.837   1.700  10.860 -2.8255 -0.3937 -0.0796
 4268SOL     OW24439   3.216   1.135  17.649 -0.1067  0.2883  0.1539
 4268SOL    HW124440   3.155   1.087  17.592  0.2959 -0.2840  0.1987
 4268SOL    HW224441   3.219   1.069  17.719  0.3619  0.4521  0.2841
 4269SOL     OW24442   0.429   1.087   8.853 -0.2311 -0.2287  0.0130
 4269SOL    HW124443   0.478   1.165   8.878  0.2659 -1.6988  3.6433
 4269SOL    HW224444   0.478   1.052   8.778  3.7008  0.5896  2.1964
 4270SOL     OW24445   2.537   1.621   2.396  0.2751  0.8085  0.2287
 4270SOL    HW124446   2.629   1.636   2.376  0.3010  1.0522  0.5228
 4270SOL    HW224447   2.535   1.548   2.458 -1.0719  2.8881  2.6173
 4271SOL     OW24448   0.988   3.772   5.128  0.2391  0.1418  0.3748
 4271SOL    HW124449   0.963   3.702   5.067  1.5143 -0.4551  0.5242
 4271SOL    HW224450   0.922   3.769   5.197  0.1605  2.2990  0.3875
 4272SOL     OW24451   3.564   1.065  13.280 -0.2382  0.0308  0.5948
 4272SOL    HW124452   3.525   1.031  13.200 -0.5916  0.1264  0.7265
 4272SOL    HW224453   3.530   1.154  13.289 -1.2812 -0.1346 -1.6679
 4273SOL     OW24454   2.692   3.906   2.197 -0.8154  0.2952 -0.4602
 4273SOL    HW124455   2.781   3.914   2.164 -0.9201 -2.4708 -1.4494
 4273SOL    HW224456   2.651   3.852   2.130 -0.5849  2.0293 -1.9837
 4274SOL     OW24457   0.037   0.611   5.199 -0.2198 -0.0484 -0.0376
 4274SOL    HW124458   0.079   0.616   5.284 -0.6130  1.4187  0.0704
 4274SOL    HW224459   4.700   0.556   5.228  0.5072  0.2818  2.3767
 4275SOL     OW24460   2.548   2.244   5.975 -0.2726 -0.1867 -0.1762
 4275SOL    HW124461   2.532   2.229   6.068  2.3305 -0.1545  0.2591
 4275SOL    HW224462   2.467   2.286   5.945 -1.4261 -1.1749  1.5321
 4276SOL     OW24463   1.976   0.347   4.804 -0.1588 -0.3514 -0.0367
 4276SOL    HW124464   1.952   0.387   4.888 -1.1733 -0.9025 -0.0588
 4276SOL    HW224465   1.913   0.394   4.750 -0.6906  0.9878  1.7701
 4277SOL     OW24466   0.035   3.943   3.695  1.0475  0.6356  0.5548
 4277SOL    HW124467   4.712   3.925   3.769  0.8308  2.3005  0.7933
 4277SOL    HW224468   0.008   4.030   3.666 -2.6414 -0.7932 -0.2445
 4278SOL     OW24469   1.158   1.369   9.351  0.0191 -0.0056 -0.2079
 4278SOL    HW124470   1.206   1.445   9.318  0.0653 -0.2897 -0.8069
 4278SOL    HW224471   1.159   1.318   9.270  0.8293  0.4014 -0.4637
 4279SOL     OW24472   2.530   3.502   5.042 -0.3207 -0.2028 -0.4484
 4279SOL    HW124473   2.492   3.455   5.116  1.7580  1.6166  1.7992
 4279SOL    HW224474   2.496   3.591   5.058  2.3195  0.8005 -0.3594
 4280SOL     OW24475   0.242   3.132   7.743 -0.4306 -0.6989  0.2103
 4280SOL    HW124476   0.309   3.138   7.676 -1.1121  2.0800 -0.1856
 4280SOL    HW224477   0.282   3.056   7.785 -0.0146 -0.6756 -0.1527
 4281SOL     OW24478   2.579   4.403   8.399 -0.5158  0.5595  0.8770
 4281SOL    HW124479   2.526   4.442   8.329 -0.3013  0.8655  0.8877
 4281SOL    HW224480   2.531   4.320   8.402 -1.3865  1.0825  1.7298
 4282SOL     OW24481   1.116   3.261  16.355 -0.4434 -0.6625  0.3242
 4282SOL    HW124482   1.196   3.313  16.363 -1.2258  0.7105 -0.8208
 4282SOL    HW224483   1.146   3.178  16.394  1.2746  0.0627  0.5447
 4283SOL     OW24484   2.463   0.657  14.584 -0.2044  0.0491  1.5158
 4283SOL    HW124485   2.399   0.642  14.654  1.5391 -1.7997  2.6832
 4283SOL    HW224486   2.430   0.739  14.545  0.3819 -0.6388 -0.4278
 4284SOL     OW24487   2.737   2.987   2.908  0.8948  0.0306 -0.2506
 4284SOL    HW124488   2.643   2.971   2.908  1.0127 -0.6678 -0.0504
 4284SOL    HW224489   2.784   2.904   2.921  0.7120  0.1456  1.1622
 4285SOL     OW24490   0.330   3.628   7.696 -0.3521 -0.1189  0.1309
 4285SOL    HW124491   0.279   3.636   7.616  0.8002 -1.6476 -0.7571
 4285SOL    HW224492   0.408   3.680   7.680  0.5126 -1.5303 -0.1651
 4286SOL     OW24493   2.990   2.152   2.563 -0.0594  0.2977 -0.2096
 4286SOL    HW124494   3.032   2.184   2.483  1.9063  0.3887  0.8676
 4286SOL    HW224495   3.062   2.150   2.626  0.5823  0.3936 -0.9349
 4287SOL     OW24496   3.356   4.255   2.004 -0.6446 -0.2710  0.7460
 4287SOL    HW124497   3.367   4.345   1.972  2.5816 -0.6006  0.9320
 4287SOL    HW224498   3.381   4.206   1.925  1.1974  0.7110  0.7343
 4288SOL     OW24499   0.091   1.764   4.754  0.2855  0.3265 -0.6986
 4288SOL    HW124500   0.106   1.855   4.781 -0.5880  0.9383 -2.2292
 4288SOL    HW224501   0.105   1.734   4.844 -2.3303  1.6428  0.1497
 4289SOL     OW24502   0.384   3.155  17.542 -0.1182  0.4990  0.4409
 4289SOL    HW124503   0.367   3.241  17.504 -0.9880  0.6505  1.1640
 4289SOL    HW224504   0.464   3.168  17.592  0.0348 -0.4970  0.4507
 4290SOL     OW24505   4.248   0.761   1.491  0.2039  0.7053  0.2005
 4290SOL    HW124506   4.229   0.713   1.410 -2.5579 -1.0324  1.9106
 4290SOL    HW224507   4.316   0.707   1.531  0.6715 -0.0004 -1.5482
 4291SOL     OW24508   4.609   3.714   5.087  0.0418  0.3107 -0.8292
 4291SOL    HW124509   4.699   3.738   5.065  0.2053  0.1042 -0.3854
 4291SOL    HW224510   4.613   3.632   5.137 -0.2578 -0.1349 -1.5460
 4292SOL     OW24511   3.327   1.686   4.270 -0.2499 -0.1064 -0.2243
 4292SOL    HW124512   3.380   1.641   4.205  0.8356 -0.5939  0.9847
 4292SOL    HW224513   3.238   1.654   4.258  0.3180 -1.6657 -0.3061
 4293SOL     OW24514   0.257   0.198  14.085 -0.2687  0.2414 -0.4395
 4293SOL    HW124515   0.198   0.153  14.025  1.4153  1.4722 -2.9982
 4293SOL    HW224516   0.232   0.288  14.067  1.1092  1.1043  1.9293
 4294SOL     OW24517   0.281   0.431   2.594  0.0689 -0.2504  0.3246
 4294SOL    HW124518   0.288   0.409   2.501 -1.6061 -0.7156  0.3040
 4294SOL    HW224519   0.354   0.493   2.585  1.5622 -2.0189  0.2991
 4295SOL     OW24520   1.722   0.488   7.235 -0.0571  0.4421  0.5469
 4295SOL    HW124521   1.650   0.516   7.291 -0.7346  0.3234 -0.2608
 4295SOL    HW224522   1.686   0.424   7.173 -0.1923  1.2530 -0.2146
 4296SOL     OW24523   4.016   2.304   2.814 -0.0502 -0.3980  0.2299
 4296SOL    HW124524   3.985   2.216   2.836  0.2016 -0.9385 -1.5796
 4296SOL    HW224525   4.105   2.288   2.845 -0.7323  0.9277  2.8363
 4297SOL     OW24526   0.245   1.808   2.129 -0.0718  0.1694 -0.2599
 4297SOL    HW124527   0.279   1.844   2.211 -1.6903 -0.6625  0.7628
 4297SOL    HW224528   0.289   1.723   2.128  0.2725  0.2997  3.2237
 4298SOL     OW24529   2.245   0.042   6.304  0.1757 -0.1945 -0.2030
 4298SOL    HW124530   2.194   4.697   6.303  1.5710 -1.1107  1.6536
 4298SOL    HW224531   2.242   0.063   6.211 -0.8642 -0.1459 -0.1546
 4299SOL     OW24532   3.387   0.867   3.783  0.0997  0.4482  0.4777
 4299SOL    HW124533   3.452   0.814   3.830  1.0278  1.3608  0.2218
 4299SOL    HW224534   3.419   0.861   3.693 -1.9469 -1.1668 -0.1452
 4300SOL     OW24535   2.096   3.621  12.398 -0.3418  0.2705  0.3572
 4300SOL    HW124536   2.148   3.553  12.356 -0.2555  1.1979 -1.0416
 4300SOL    HW224537   2.098   3.601  12.492  0.9664 -2.4583 -0.2529
 4301SOL     OW24538   2.721   2.123   7.832 -0.0959  0.2871 -0.1572
 4301SOL    HW124539   2.678   2.040   7.811  1.6258 -0.9296  1.0570
 4301SOL    HW224540   2.749   2.113   7.923 -0.8484  2.1535  0.2722
 4302SOL     OW24541   1.783   4.579   0.440 -0.3747  0.0865 -0.5310
 4302SOL    HW124542   1.702   4.605   0.397  0.5678  0.4000 -2.1305
 4302SOL    HW224543   1.822   4.664   0.456  0.8417 -0.6247  0.3072
 4303SOL     OW24544   0.444   0.845   8.995  0.1839 -0.1706  0.5658
 4303SOL    HW124545   0.446   0.921   8.936  2.0265 -0.0750  0.7466
 4303SOL    HW224546   0.466   0.886   9.079  1.4948 -0.4958  0.3886
 4304SOL     OW24547   2.217   4.242   3.930  0.4007  0.0842  0.3456
 4304SOL    HW124548   2.271   4.275   4.002 -0.4577  0.3295  0.8770
 4304SOL    HW224549   2.171   4.167   3.968 -2.2055  0.8755 -1.2361
 4305SOL     OW24550   0.037   2.950   5.548  0.1774  0.3841 -0.7161
 4305SOL    HW124551   0.064   2.958   5.639  1.2482  2.3652 -1.1959
 4305SOL    HW224552   0.098   2.879   5.527 -1.3047 -1.3901  0.9096
 4306SOL     OW24553   3.166   1.015   6.733  0.0907  0.4821  0.3440
 4306SOL    HW124554   3.238   0.952   6.731 -1.3291 -1.1421  0.7632
 4306SOL    HW224555   3.196   1.081   6.670  1.3813  0.3877  0.8643
 4307SOL     OW24556   1.503   0.688   3.581 -0.1949 -0.0390 -0.1116
 4307SOL    HW124557   1.527   0.734   3.662  0.5941  0.1236 -0.4467
 4307SOL    HW224558   1.410   0.713   3.581  0.1535  1.2956 -0.9193
 4308SOL     OW24559   3.305   0.263   4.772  0.1521  0.2001  0.6273
 4308SOL    HW124560   3.292   0.312   4.853  0.3352  0.6291  0.3947
 4308SOL    HW224561   3.367   0.194   4.794 -1.4954 -1.9704 -1.5190
 4309SOL     OW24562   4.606   3.769   0.770 -0.3957  0.2884 -0.0311
 4309SOL    HW124563   4.523   3.793   0.728 -0.0472  0.7399 -0.4584
 4309SOL    HW224564   4.575   3.713   0.842 -0.4706 -1.1139 -1.1488
 4310SOL     OW24565   0.364   4.175   3.752  0.3793 -0.2064 -0.2493
 4310SOL    HW124566   0.396   4.104   3.808 -1.2555 -2.8293 -2.6690
 4310SOL    HW224567   0.293   4.130   3.706 -0.7090 -0.1406  1.3826
 4311SOL     OW24568   4.360   1.078   3.053  0.5088 -0.0440 -0.2224
 4311SOL    HW124569   4.356   0.990   3.016 -1.5160 -0.3927  0.8023
 4311SOL    HW224570   4.287   1.071   3.115 -2.1383 -0.6622 -3.3984
 4312SOL     OW24571   1.917   2.523  13.570  1.0719 -0.2172 -0.3035
 4312SOL    HW124572   1.910   2.472  13.650  1.9525 -0.5904 -0.4651
 4312SOL    HW224573   1.877   2.602  13.606  3.8385  1.6627 -1.4210
 4313SOL     OW24574   2.449   3.155   8.666 -0.1003 -0.4823 -0.0148
 4313SOL    HW124575   2.477   3.158   8.758 -1.5886 -1.7626  0.4953
 4313SOL    HW224576   2.506   3.091   8.624 -0.1135 -0.7838  0.4248
 4314SOL     OW24577   4.534   2.896   4.807 -0.0441  0.2749 -0.1742
 4314SOL    HW124578   4.563   2.954   4.737 -0.5147  0.0195 -0.5816
 4314SOL    HW224579   4.449   2.934   4.829  1.1497  2.7881  0.0904
 4315SOL     OW24580   2.550   2.172  12.296 -0.1659  0.4059  0.1840
 4315SOL    HW124581   2.518   2.096  12.248  1.5252  1.0503 -1.9615
 4315SOL    HW224582   2.598   2.122  12.362  0.4782  0.3884 -0.2916
 4316SOL     OW24583   1.955   0.506   6.352 -0.0203 -0.5236  0.3760
 4316SOL    HW124584   2.015   0.570   6.314 -1.3410 -0.1298 -1.0031
 4316SOL    HW224585   1.880   0.565   6.359  1.7688  2.0957 -2.6645
 4317SOL     OW24586   2.737   4.254   2.752 -0.9766 -0.0862  0.1648
 4317SOL    HW124587   2.826   4.239   2.782 -0.1687 -2.6217 -3.4562
 4317SOL    HW224588   2.748   4.301   2.669 -2.3017  3.5480  2.0511
 4318SOL     OW24589   4.102   4.656   6.208  1.1451  0.2744  0.0014
 4318SOL    HW124590   4.059   4.645   6.123  2.3640  2.1691 -0.8485
 4318SOL    HW224591   4.086   0.013   6.223  0.6988  0.1238  0.4667
 4319SOL     OW24592   0.764   2.113   4.515  0.0109  0.3422 -0.3029
 4319SOL    HW124593   0.807   2.193   4.486 -1.3608  1.2107  0.0722
 4319SOL    HW224594   0.756   2.061   4.435 -3.3684 -1.6091  1.2978
 4320SOL     OW24595   3.642   1.002   4.064  0.4163  0.4266 -0.0557
 4320SOL    HW124596   3.582   1.063   4.107 -0.0735  1.6397 -2.4527
 4320SOL    HW224597   3.726   1.031   4.100  1.2211  0.3478 -1.8724
 4321SOL     OW24598   1.529   0.475   1.397 -0.2935 -0.4195  0.9351
 4321SOL    HW124599   1.622   0.460   1.381 -0.0451  0.2768  1.6655
 4321SOL    HW224600   1.531   0.557   1.447 -0.8553  1.1412 -1.6232
 4322SOL     OW24601   4.648   0.163  16.763  0.3546  0.0525 -0.7991
 4322SOL    HW124602   4.568   0.204  16.798  0.6423 -0.8786  0.9251
 4322SOL    HW224603   4.673   0.223  16.692  2.7622 -0.1908 -0.1594
 4323SOL     OW24604   2.814   2.745   8.114 -0.4447  0.0960 -0.4667
 4323SOL    HW124605   2.729   2.735   8.157 -0.1366 -0.2832  0.0490
 4323SOL    HW224606   2.786   2.766   8.025  1.3548 -0.2228 -1.1076
 4324SOL     OW24607   2.876   1.033   6.516 -0.6288 -0.2626 -0.3317
 4324SOL    HW124608   2.971   1.026   6.506 -0.5988  2.9314 -2.2888
 4324SOL    HW224609   2.852   1.123   6.537  1.1384  0.3702 -1.0393
 4325SOL     OW24610   4.544   0.890  17.404 -0.1463 -0.3443  0.1859
 4325SOL    HW124611   4.502   0.900  17.318  0.3959 -3.5188 -0.4413
 4325SOL    HW224612   4.494   0.813  17.432  0.0722 -1.3178 -2.1018
 4326SOL     OW24613   1.693   1.300   3.049  0.2274  0.6440  0.1637
 4326SOL    HW124614   1.696   1.243   3.126 -1.4461  0.9010  0.4228
 4326SOL    HW224615   1.599   1.308   3.029  0.7628  0.2592 -2.5535
 4327SOL     OW24616   0.870   0.129   3.132  0.3326 -0.4418 -0.1370
 4327SOL    HW124617   0.839   0.047   3.171 -0.2720 -0.4710 -0.6798
 4327SOL    HW224618   0.963   0.122   3.151  0.7248 -1.4291 -2.4622
 4328SOL     OW24619   3.118   3.162   8.391  0.2660 -0.3629 -0.0255
 4328SOL    HW124620   3.176   3.157   8.315  0.2180  2.7863 -0.2552
 4328SOL    HW224621   3.034   3.130   8.358  0.7594 -2.6134  0.8989
 4329SOL     OW24622   1.788   0.497  12.369  0.1936 -0.6972 -0.3726
 4329SOL    HW124623   1.737   0.548  12.306  0.2200 -1.0044 -0.6436
 4329SOL    HW224624   1.816   0.413  12.333 -0.6201  0.1275 -2.9099
 4330SOL     OW24625   0.498   4.714   9.238  0.0884  0.3910  0.1944
 4330SOL    HW124626   0.509   4.648   9.307 -0.5159 -1.1080 -1.1188
 4330SOL    HW224627   0.577   4.692   9.188 -1.2051  0.5268 -1.9137
 4331SOL     OW24628   4.107   0.844   1.697 -0.2402  0.1185  0.0917
 4331SOL    HW124629   4.038   0.779   1.711  0.7499 -1.1979 -1.2255
 4331SOL    HW224630   4.122   0.822   1.606  1.9203 -0.4072  0.5784
 4332SOL     OW24631   3.267   1.399  13.808 -0.1556  0.0167 -0.4380
 4332SOL    HW124632   3.353   1.382  13.846 -0.9434 -0.2341  1.2346
 4332SOL    HW224633   3.216   1.381  13.888 -0.3428 -0.2291 -0.6121
 4333SOL     OW24634   1.258   3.819   2.975 -0.1935  0.0473  0.1321
 4333SOL    HW124635   1.349   3.831   2.999  0.6285  2.6363 -4.1169
 4333SOL    HW224636   1.218   3.902   3.004 -2.7628 -1.0716 -0.1769
 4334SOL     OW24637   0.088   2.628   8.321  0.2723 -0.5226 -0.5927
 4334SOL    HW124638   0.081   2.693   8.251 -0.9323 -1.4006 -1.3003
 4334SOL    HW224639   0.053   2.548   8.282 -2.6243 -0.3990  1.7984
 4335SOL     OW24640   1.787   1.294   7.522  0.0292 -0.5607  0.1765
 4335SOL    HW124641   1.811   1.219   7.468 -0.2248  0.0591 -0.7963
 4335SOL    HW224642   1.693   1.301   7.509  0.3140  2.1086 -0.4322
 4336SOL     OW24643   1.400   0.610  12.925 -0.0868 -0.0073 -0.0677
 4336SOL    HW124644   1.381   0.649  13.010  0.3330 -1.8525  0.8903
 4336SOL    HW224645   1.398   0.516  12.945  1.4461  0.3416  1.6758
 4337SOL     OW24646   2.561   0.710   6.171  0.1066  0.3062 -0.5407
 4337SOL    HW124647   2.628   0.751   6.227 -0.1458 -1.2432  0.8899
 4337SOL    HW224648   2.493   0.684   6.233  1.4959  1.6539  1.5639
 4338SOL     OW24649   4.663   1.438   5.578  0.0618 -0.0631 -0.4403
 4338SOL    HW124650   4.731   1.438   5.511 -0.2118  0.2190 -0.7164
 4338SOL    HW224651   4.657   1.344   5.596 -1.5977 -0.1922 -1.6162
 4339SOL     OW24652   4.552   0.068   3.278  0.4983  0.3241  0.1004
 4339SOL    HW124653   4.581   0.153   3.246  0.3180  0.2238 -0.3327
 4339SOL    HW224654   4.466   0.085   3.317  0.7261  1.4922  0.0621
 4340SOL     OW24655   4.392   4.692   3.071  0.2170  0.4231 -0.4568
 4340SOL    HW124656   4.435   4.675   3.155 -0.3688  1.2954  0.0212
 4340SOL    HW224657   4.451   0.023   3.035  0.5184 -0.0876 -0.8969
 4341SOL     OW24658   0.275   3.742  16.397 -0.2226 -0.3405 -0.3729
 4341SOL    HW124659   0.272   3.802  16.472  0.1934 -0.8977  0.0896
 4341SOL    HW224660   0.338   3.683  16.439  0.6256  0.3153 -0.7238
 4342SOL     OW24661   3.203   0.179  17.173  0.4646 -0.4495 -0.3357
 4342SOL    HW124662   3.272   0.245  17.178 -0.1067  0.0856  0.3949
 4342SOL    HW224663   3.166   0.172  17.261  0.0325  0.6300 -0.4404
 4343SOL     OW24664   3.786   1.263   2.987  0.0623  0.3254  0.1815
 4343SOL    HW124665   3.786   1.357   3.007 -0.6316  1.2815 -4.3475
 4343SOL    HW224666   3.701   1.265   2.943  0.4215  0.6912 -0.4922
 4344SOL     OW24667   3.901   3.807   6.991  0.3084 -0.0815  0.2187
 4344SOL    HW124668   3.967   3.784   7.056  0.8260  0.0519 -0.2589
 4344SOL    HW224669   3.820   3.796   7.041 -0.4474  1.3542 -0.6614
 4345SOL     OW24670   1.821   3.817   1.763  0.2923  0.2665 -0.2106
 4345SOL    HW124671   1.770   3.755   1.710  1.7264 -1.3116  0.2472
 4345SOL    HW224672   1.763   3.826   1.838  0.8633  1.9821  0.0317
 4346SOL     OW24673   4.550   4.116   4.671 -0.6457  0.2348  0.1409
 4346SOL    HW124674   4.624   4.087   4.618 -0.8731  1.7189 -0.9853
 4346SOL    HW224675   4.485   4.149   4.609 -0.0782 -0.5379 -0.8622
 4347SOL     OW24676   2.529   4.361   0.927  0.1661 -0.1824 -0.6107
 4347SOL    HW124677   2.476   4.438   0.906  1.2455  0.0579 -2.4439
 4347SOL    HW224678   2.525   4.311   0.845 -0.3900 -0.9184 -0.1298
 4348SOL     OW24679   1.985   3.246   7.498 -0.1035 -0.3521  0.6871
 4348SOL    HW124680   1.981   3.276   7.589 -0.6899 -1.2035  0.9339
 4348SOL    HW224681   1.892   3.226   7.493  0.1186 -1.4914  1.1763
 4349SOL     OW24682   3.817   0.956   6.152  0.3482  0.0865  0.4884
 4349SOL    HW124683   3.872   1.007   6.092 -0.9161 -0.4149 -1.1026
 4349SOL    HW224684   3.824   0.994   6.240 -0.1099 -0.0498  0.5792
 4350SOL     OW24685   3.361   4.158   7.034  0.1705  0.2628 -0.2111
 4350SOL    HW124686   3.351   4.093   7.103 -0.1026  0.5647  0.0303
 4350SOL    HW224687   3.311   4.112   6.967 -0.0381 -0.4991  0.4788
 4351SOL     OW24688   2.401   0.075   1.475  0.6211  0.4864  0.4217
 4351SOL    HW124689   2.367   0.118   1.554 -2.4183  1.9519 -1.7241
 4351SOL    HW224690   2.485   0.120   1.460  0.8441  0.3128  1.1133
 4352SOL     OW24691   3.265   0.140  15.857  0.2596 -0.2419  0.3035
 4352SOL    HW124692   3.228   0.052  15.859 -2.2806  0.8082 -0.4794
 4352SOL    HW224693   3.195   0.206  15.855  0.6429  0.1484 -0.5773
 4353SOL     OW24694   2.759   3.985   0.064 -0.1488 -0.0842 -0.2426
 4353SOL    HW124695   2.735   3.984  17.713  0.9575 -0.6636 -0.5219
 4353SOL    HW224696   2.837   4.038   0.083  0.7876 -2.0788  1.5255
 4354SOL     OW24697   1.099   3.482   3.570  0.5979 -0.5313 -0.1231
 4354SOL    HW124698   1.128   3.484   3.479 -0.5259  1.4074 -0.4138
 4354SOL    HW224699   1.131   3.563   3.610 -1.9434 -0.6606  2.1800
 4355SOL     OW24700   1.903   3.264  14.586  0.3705  0.2929  0.1077
 4355SOL    HW124701   1.874   3.336  14.530 -0.5393  1.0684  1.5671
 4355SOL    HW224702   1.905   3.190  14.525  0.0053  0.2997  0.0912
 4356SOL     OW24703   2.503   4.355   1.193  0.3721  0.0723  0.4676
 4356SOL    HW124704   2.598   4.344   1.193  0.5702  1.7126 -0.7604
 4356SOL    HW224705   2.483   4.393   1.107  1.3147  1.4591  0.8502
 4357SOL     OW24706   3.312   1.038  13.878  0.6169  0.0209 -0.1398
 4357SOL    HW124707   3.406   1.053  13.889  0.6140  0.0059 -0.0932
 4357SOL    HW224708   3.276   1.113  13.927 -1.2977 -0.3578 -0.9599
 4358SOL     OW24709   0.279   0.911   1.157 -0.5175  0.5498 -0.0138
 4358SOL    HW124710   0.198   0.922   1.106 -0.3060 -0.8994 -0.6547
 4358SOL    HW224711   0.285   0.816   1.161  0.6830  0.6340 -0.0841
 4359SOL     OW24712   3.324   1.605  12.749 -0.3793 -0.0475  0.6364
 4359SOL    HW124713   3.355   1.659  12.677  1.1646 -1.4918  0.2216
 4359SOL    HW224714   3.316   1.524  12.700  2.3902 -1.0342  1.8337
 4360SOL     OW24715   3.545   1.838   2.729 -0.2829  0.0757  0.1113
 4360SOL    HW124716   3.470   1.837   2.669  0.9463  0.4495 -1.4373
 4360SOL    HW224717   3.501   1.891   2.796 -0.8761 -0.7762  0.3872
 4361SOL     OW24718   3.228   3.568   6.820 -0.4468 -0.3598 -0.1531
 4361SOL    HW124719   3.274   3.498   6.867  2.0564  0.6485 -1.1626
 4361SOL    HW224720   3.137   3.561   6.851 -0.9623 -1.0206 -1.7794
 4362SOL     OW24721   2.438   4.278   2.718  0.4897  0.2237 -0.5347
 4362SOL    HW124722   2.442   4.279   2.622  1.8554 -1.9036 -0.5021
 4362SOL    HW224723   2.533   4.274   2.728  0.0401 -0.8600  3.1869
 4363SOL     OW24724   2.930   1.742  10.768  0.3185 -0.2718 -0.3267
 4363SOL    HW124725   2.835   1.734  10.779  0.4215  1.5072  1.8272
 4363SOL    HW224726   2.936   1.837  10.777  0.9173 -0.1979 -1.5554
 4364SOL     OW24727   1.771   3.607   4.965 -0.4104  0.1091  0.5814
 4364SOL    HW124728   1.769   3.526   5.017 -2.3228  1.0761  1.9946
 4364SOL    HW224729   1.866   3.620   4.963 -0.2026 -1.7152 -1.4693
 4365SOL     OW24730   3.233   4.496   9.409 -0.7307 -0.2796 -0.0052
 4365SOL    HW124731   3.276   4.579   9.388  1.4706 -0.9545  1.8662
 4365SOL    HW224732   3.243   4.505   9.504  3.1383 -1.6236 -0.2873
 4366SOL     OW24733   4.602   2.817  10.934  0.0353  0.1009  0.0115
 4366SOL    HW124734   4.578   2.744  10.877  0.1313  1.4439 -1.7446
 4366SOL    HW224735   4.521   2.855  10.969  1.2281  0.1934  2.7007
 4367SOL     OW24736   2.616   2.819   7.593 -0.7182 -0.2104 -0.2358
 4367SOL    HW124737   2.672   2.824   7.670 -0.3207 -0.1937 -0.5244
 4367SOL    HW224738   2.596   2.911   7.577  1.2664  0.3346  0.4028
 4368SOL     OW24739   3.795   1.322   2.239  0.2972 -0.3043 -0.0511
 4368SOL    HW124740   3.886   1.339   2.214 -0.7773  1.8583 -2.4484
 4368SOL    HW224741   3.802   1.231   2.268 -0.0784 -0.5190 -0.6257
 4369SOL     OW24742   4.537   0.359  17.602  0.0370 -0.4561  0.0625
 4369SOL    HW124743   4.586   0.427  17.648  1.6612 -2.6553  1.5719
 4369SOL    HW224744   4.500   0.298  17.666  0.1092 -2.1552 -1.4986
 4370SOL     OW24745   4.389   3.596  16.556  0.4533 -0.4801  0.1503
 4370SOL    HW124746   4.381   3.537  16.631 -3.8094 -2.1247 -1.5410
 4370SOL    HW224747   4.431   3.674  16.592 -0.4949 -0.7622  1.8465
 4371SOL     OW24748   2.629   4.589   2.726  0.0694  0.2275 -0.1469
 4371SOL    HW124749   2.537   4.568   2.745  0.3310 -0.2800  0.5291
 4371SOL    HW224750   2.649   4.513   2.671  0.8330 -0.6488  1.3428
 4372SOL     OW24751   1.217   2.849   6.608  0.1111  0.4887 -0.1662
 4372SOL    HW124752   1.262   2.910   6.550  0.8816 -0.1634 -0.2617
 4372SOL    HW224753   1.245   2.767   6.567 -1.3637 -1.0631  1.9593
 4373SOL     OW24754   0.251   3.405   4.492  0.3040 -0.1596  0.1627
 4373SOL    HW124755   0.213   3.488   4.520  0.7507  0.1197 -0.0499
 4373SOL    HW224756   0.214   3.339   4.551 -2.1788  0.0016 -1.2261
 4374SOL     OW24757   3.884   0.671   1.716 -0.2223 -0.2361 -0.0070
 4374SOL    HW124758   3.853   0.586   1.685 -0.6656 -0.2851  0.5805
 4374SOL    HW224759   3.846   0.680   1.803 -1.1215 -0.3742 -0.3886
 4375SOL     OW24760   3.742   4.217  10.660 -0.3806 -0.2026 -0.2530
 4375SOL    HW124761   3.665   4.272  10.670  0.3416  0.4034  1.9557
 4375SOL    HW224762   3.740   4.146  10.724 -0.0881  2.1603  2.3478
 4376SOL     OW24763   4.571   1.181   8.463  0.8170 -0.2406  0.1233
 4376SOL    HW124764   4.561   1.108   8.401 -0.8118 -0.0179  0.1261
 4376SOL    HW224765   4.623   1.132   8.527  1.0271  1.8160  1.5088
 4377SOL     OW24766   1.574   3.078   2.632  0.1111  0.1787 -0.0453
 4377SOL    HW124767   1.584   3.026   2.552  2.3203  0.8018 -0.1655
 4377SOL    HW224768   1.485   3.112   2.624  0.0130 -0.6488 -2.6284
 4378SOL     OW24769   0.767   0.457   2.212  0.4953  0.0673  0.2120
 4378SOL    HW124770   0.828   0.439   2.284  0.5789 -0.0200  0.1206
 4378SOL    HW224771   0.812   0.536   2.183 -1.3095  1.1363  0.3931
 4379SOL     OW24772   3.944   2.509  13.398  0.4240  0.1024  0.1240
 4379SOL    HW124773   3.928   2.422  13.434  1.7264 -0.2633 -0.2046
 4379SOL    HW224774   3.859   2.553  13.407  0.5761  0.3205  0.4868
 4380SOL     OW24775   0.679   2.107   3.486  0.1801  0.5837 -0.2944
 4380SOL    HW124776   0.710   2.197   3.497 -1.3204  1.1947 -1.0814
 4380SOL    HW224777   0.726   2.077   3.407 -1.9614 -0.2332 -1.2437
 4381SOL     OW24778   3.552   2.024  13.108 -0.0653  0.0232 -0.2621
 4381SOL    HW124779   3.586   1.986  13.027 -0.3887 -1.3509  0.2529
 4381SOL    HW224780   3.569   1.948  13.164 -0.6628  2.9511  3.8926
 4382SOL     OW24781   0.652   4.508   5.898  0.1743 -0.0818 -0.4473
 4382SOL    HW124782   0.630   4.434   5.955 -1.0990 -1.3112 -2.5619
 4382SOL    HW224783   0.609   4.477   5.818 -1.2286  0.1025  0.2286
 4383SOL     OW24784   2.562   1.167   1.864  0.2220  0.2099 -0.0581
 4383SOL    HW124785   2.652   1.199   1.861 -0.4121  1.9523 -0.8874
 4383SOL    HW224786   2.514   1.231   1.811  0.7838 -0.0766 -0.9187
 4384SOL     OW24787   4.203   2.882  10.140 -0.3193  0.1533 -0.2072
 4384SOL    HW124788   4.213   2.970  10.103 -0.3924 -0.6353 -2.1076
 4384SOL    HW224789   4.121   2.856  10.098 -0.3601  0.3091 -0.2223
 4385SOL     OW24790   4.022   3.893  12.511 -0.3342  0.3808 -0.1902
 4385SOL    HW124791   4.105   3.846  12.514  0.5244  1.8318 -1.0970
 4385SOL    HW224792   3.966   3.838  12.456 -0.4915  0.0985  0.2466
 4386SOL     OW24793   1.269   3.300  14.255 -0.0423  0.5112  0.0122
 4386SOL    HW124794   1.227   3.284  14.171 -0.7897 -1.1815  0.7102
 4386SOL    HW224795   1.309   3.387  14.253  0.2943  0.3048 -2.2453
 4387SOL     OW24796   1.599   1.273   5.281  0.6691  0.0050  0.2405
 4387SOL    HW124797   1.578   1.262   5.188 -0.6893 -0.8115  0.6456
 4387SOL    HW224798   1.509   1.287   5.311  0.5667 -0.8053  0.3256
 4388SOL     OW24799   0.975   1.530  12.835  0.1798  0.4570 -0.2899
 4388SOL    HW124800   1.044   1.594  12.820  1.0256 -0.9086 -2.2264
 4388SOL    HW224801   0.941   1.514  12.747  0.5002  0.5913 -0.4387
 4389SOL     OW24802   1.087   3.016   8.721  0.0280 -0.0061 -0.2285
 4389SOL    HW124803   1.067   3.035   8.813  0.2218 -2.3721  0.2876
 4389SOL    HW224804   1.002   3.051   8.693  1.0252  3.3171  0.9027
 4390SOL     OW24805   0.133   4.169   8.080 -0.2377  0.2975 -0.3050
 4390SOL    HW124806   0.203   4.129   8.132 -2.0083 -0.3867  1.5097
 4390SOL    HW224807   0.058   4.135   8.129 -1.6697  1.5248 -1.6489
 4391SOL     OW24808   3.733   3.287  15.327  0.3635 -0.2748 -0.0250
 4391SOL    HW124809   3.736   3.213  15.387  3.2766 -0.3504 -0.2451
 4391SOL    HW224810   3.817   3.278  15.281  0.4821  0.1853  0.1070
 4392SOL     OW24811   3.116   4.562  17.491  0.1957 -0.0773 -0.0337
 4392SOL    HW124812   3.172   4.638  17.507  0.4709 -0.8487  2.6735
 4392SOL    HW224813   3.180   4.493  17.510  0.6779  0.3491 -0.1345
 4393SOL     OW24814   1.966   3.954   1.565  0.5907 -0.2675 -0.1495
 4393SOL    HW124815   2.003   3.895   1.499  0.3669  0.8375 -1.2730
 4393SOL    HW224816   1.932   3.891   1.628  2.1077 -0.6460  0.2811
 4394SOL     OW24817   1.285   2.446   7.059 -0.3533  0.2325  0.3671
 4394SOL    HW124818   1.192   2.445   7.034 -0.3370 -0.5007  0.3427
 4394SOL    HW224819   1.320   2.378   7.002 -0.0142 -0.0023  0.8481
 4395SOL     OW24820   1.416   4.054   9.265 -0.0283 -0.0378 -0.0676
 4395SOL    HW124821   1.392   3.997   9.192 -1.4109 -0.1011  0.4397
 4395SOL    HW224822   1.370   4.136   9.248  0.2541  0.2064  0.3561
 4396SOL     OW24823   1.884   4.568   8.240  0.0386  0.3274 -0.4937
 4396SOL    HW124824   1.897   4.502   8.309 -0.5546  0.6638 -0.0661
 4396SOL    HW224825   1.834   4.630   8.293  1.2166  0.6062  0.3001
 4397SOL     OW24826   2.310   1.272   1.848 -0.3379 -0.2636  0.7252
 4397SOL    HW124827   2.313   1.176   1.848  0.8695 -0.2166 -0.5882
 4397SOL    HW224828   2.223   1.281   1.888 -0.6007 -0.8018  0.2848
 4398SOL     OW24829   4.187   4.213   8.396 -0.1343  0.1535 -0.4768
 4398SOL    HW124830   4.167   4.186   8.485  3.0112 -2.4405 -0.5271
 4398SOL    HW224831   4.251   4.283   8.408 -1.0257  1.0749 -1.0974
 4399SOL     OW24832   0.967   0.342   4.805  0.2540 -0.0152 -0.7374
 4399SOL    HW124833   0.921   0.262   4.832  0.7390  0.2641  0.8953
 4399SOL    HW224834   0.964   0.401   4.880  0.0206 -1.5944  0.5138
 4400SOL     OW24835   0.510   4.579   7.931  0.0143  0.0202 -0.0875
 4400SOL    HW124836   0.547   4.663   7.904 -0.2261 -0.7782 -2.9572
 4400SOL    HW224837   0.420   4.608   7.947  1.0367  2.6595  0.7684
 4401SOL     OW24838   2.096   3.572  13.746  0.4678 -0.2340  0.3554
 4401SOL    HW124839   2.049   3.594  13.666  1.5740 -1.9131 -0.7553
 4401SOL    HW224840   2.184   3.579  13.710  0.3422 -1.2350 -0.1588
 4402SOL     OW24841   3.851   3.819   6.508 -0.2361 -0.2874  0.0412
 4402SOL    HW124842   3.848   3.854   6.597 -0.9062  3.2159 -1.3333
 4402SOL    HW224843   3.757   3.828   6.491 -0.0308  0.6184 -0.6216
 4403SOL     OW24844   4.308   1.495   3.184 -0.0179 -0.5123 -0.4372
 4403SOL    HW124845   4.321   1.427   3.250  2.5680 -1.3862 -1.8471
 4403SOL    HW224846   4.278   1.443   3.109  1.0879 -2.4594  0.4866
 4404SOL     OW24847   0.313   0.479   8.657  0.0147  0.1329 -0.3994
 4404SOL    HW124848   0.322   0.571   8.631 -0.0330  1.0744  2.8705
 4404SOL    HW224849   0.349   0.491   8.745  0.5026  0.6972 -0.6760
 4405SOL     OW24850   1.619   2.658   1.660  0.6821 -0.4198 -0.0394
 4405SOL    HW124851   1.540   2.616   1.628  1.3842 -2.1530  0.4863
 4405SOL    HW224852   1.577   2.682   1.743  0.4183  0.0465 -0.3115
 4406SOL     OW24853   4.213   0.450  17.530  0.2693  0.0039  0.2806
 4406SOL    HW124854   4.135   0.400  17.504 -0.0176  1.6304 -1.9564
 4406SOL    HW224855   4.265   0.378  17.566  0.8773  0.1984 -0.2177
 4407SOL     OW24856   3.477   4.346  10.898 -0.1702  0.1412 -0.4817
 4407SOL    HW124857   3.443   4.311  10.816  1.6984  0.4616 -1.3880
 4407SOL    HW224858   3.478   4.271  10.958 -0.5183  0.3755 -0.1859
 4408SOL     OW24859   2.939   2.880   3.093  0.1040 -0.2982 -0.0223
 4408SOL    HW124860   2.855   2.853   3.129  1.1989 -1.5137  1.5987
 4408SOL    HW224861   2.962   2.951   3.152 -1.4550 -0.4410  0.7637
 4409SOL     OW24862   3.111   4.255  13.329  0.1104 -0.2192  0.7807
 4409SOL    HW124863   3.193   4.278  13.287  0.1598 -0.2082  0.8837
 4409SOL    HW224864   3.130   4.291  13.416  0.6231  2.7148 -0.5662
 4410SOL     OW24865   0.369   1.792   7.289  0.6518 -0.0336  0.3799
 4410SOL    HW124866   0.447   1.847   7.277 -0.7404  1.6226 -1.1651
 4410SOL    HW224867   0.419   1.710   7.288 -0.7889 -0.9038  0.5855
 4411SOL     OW24868   2.121   3.430   7.305 -0.0727 -0.6529 -0.4905
 4411SOL    HW124869   2.107   3.372   7.380 -0.4353 -0.2090 -0.2136
 4411SOL    HW224870   2.039   3.422   7.256 -1.2923  2.5230  0.9831
 4412SOL     OW24871   0.196   3.277   3.549 -0.2865  0.2295 -0.0090
 4412SOL    HW124872   0.154   3.223   3.482 -0.5778  0.9203 -0.3891
 4412SOL    HW224873   0.220   3.357   3.502  2.5561  0.2534  1.5282
 4413SOL     OW24874   4.301   2.511   5.718  0.2450  0.0215 -0.0798
 4413SOL    HW124875   4.311   2.480   5.628 -1.2191  0.4269 -0.3861
 4413SOL    HW224876   4.223   2.566   5.714 -1.3740 -2.3218 -0.7439
 4414SOL     OW24877   2.835   1.015   7.790 -0.7501  0.2513 -0.0338
 4414SOL    HW124878   2.770   0.989   7.855 -1.1219  3.4401  0.8804
 4414SOL    HW224879   2.861   1.102   7.822 -0.4564 -0.1095  0.6962
 4415SOL     OW24880   4.185   4.081   6.399  0.1108 -0.8796  0.2170
 4415SOL    HW124881   4.142   4.144   6.341  2.3572 -0.8891 -1.4411
 4415SOL    HW224882   4.114   4.060   6.459 -0.0183 -1.2151 -0.0518
 4416SOL     OW24883   4.591   3.506   1.624 -0.6241 -0.8066  0.6276
 4416SOL    HW124884   4.629   3.499   1.536 -1.2569 -1.5137  0.4144
 4416SOL    HW224885   4.506   3.545   1.606  1.0913  3.6391  2.1069
 4417SOL     OW24886   0.731   4.697   3.766 -0.3868 -0.1232 -0.1754
 4417SOL    HW124887   0.767   0.044   3.737  0.6145 -0.0635  1.2945
 4417SOL    HW224888   0.696   4.717   3.853  2.7816  1.9376  0.5964
 4418SOL     OW24889   0.847   2.833   4.272  0.1420  0.0192  0.0812
 4418SOL    HW124890   0.858   2.856   4.180 -1.0843  3.8641  0.9120
 4418SOL    HW224891   0.778   2.767   4.265  0.2469 -0.0742 -0.0707
 4419SOL     OW24892   1.486   4.261   5.751 -0.0443 -0.0649  0.0192
 4419SOL    HW124893   1.406   4.278   5.802 -0.8132  0.3098 -1.3199
 4419SOL    HW224894   1.470   4.179   5.704 -0.6430  2.1253 -3.5544
 4420SOL     OW24895   2.962   1.078   4.131  0.3563 -0.1516  0.1629
 4420SOL    HW124896   2.883   1.025   4.147  0.6441 -0.3260  1.0357
 4420SOL    HW224897   3.029   1.011   4.148  0.5026 -0.1645 -0.4657
 4421SOL     OW24898   3.707   0.566   4.476  0.3900  0.2641  0.0711
 4421SOL    HW124899   3.619   0.587   4.445  0.7503  2.5066  0.5567
 4421SOL    HW224900   3.758   0.644   4.456  0.8474 -0.0265  0.1057
 4422SOL     OW24901   2.528   0.450   3.253 -0.3915 -0.0855 -0.7905
 4422SOL    HW124902   2.467   0.522   3.269 -0.5326 -0.4567  0.4115
 4422SOL    HW224903   2.580   0.472   3.331  1.4204 -0.6815 -1.8383
 4423SOL     OW24904   3.839   1.355   7.179  0.4668 -0.0680  0.9482
 4423SOL    HW124905   3.912   1.305   7.215 -0.2953 -2.0385 -0.2682
 4423SOL    HW224906   3.818   1.312   7.096 -1.8329 -1.1216  2.0784
 4424SOL     OW24907   2.652   2.962   5.310  0.1428 -0.0114 -0.1116
 4424SOL    HW124908   2.692   3.025   5.371  2.1680  1.7685 -3.2603
 4424SOL    HW224909   2.680   2.997   5.226 -1.5283  0.9636 -0.2481
 4425SOL     OW24910   0.623   2.917   1.379 -0.2302 -0.1665  0.5944
 4425SOL    HW124911   0.532   2.891   1.364 -0.7248  2.3911 -1.0216
 4425SOL    HW224912   0.617   2.946   1.470 -1.1553  2.3855 -0.2522
 4426SOL     OW24913   1.422   0.149   9.538  0.4576 -0.1715 -0.0083
 4426SOL    HW124914   1.338   0.175   9.577  1.3693  2.4532  0.1985
 4426SOL    HW224915   1.430   0.193   9.453  0.5665 -2.0383 -0.9520
 4427SOL     OW24916   0.243   2.901   8.995  0.0379 -0.2759 -0.1608
 4427SOL    HW124917   0.161   2.943   9.020  0.8196  0.9887  0.2831
 4427SOL    HW224918   0.230   2.861   8.909 -1.3456  2.0607 -1.0408
 4428SOL     OW24919   2.155   4.658   4.526  0.2467  0.4777  0.6857
 4428SOL    HW124920   2.147   4.626   4.615  0.1496 -0.3499  0.3828
 4428SOL    HW224921   2.126   0.013   4.531  0.4990  0.6878 -1.5125
 4429SOL     OW24922   0.156   3.312  11.504  0.4534 -0.1861  0.3999
 4429SOL    HW124923   0.101   3.240  11.536 -1.0921  0.5209 -0.6488
 4429SOL    HW224924   0.107   3.386  11.541 -1.6770 -2.8535  2.9218
 4430SOL     OW24925   4.008   0.565  13.978 -0.4977  1.0837 -0.6651
 4430SOL    HW124926   4.036   0.630  14.042 -1.7984  0.3271  0.6610
 4430SOL    HW224927   4.019   0.616  13.897 -0.4775 -1.8829 -2.5024
 4431SOL     OW24928   3.655   0.175  12.118  0.1902  0.0922 -0.4740
 4431SOL    HW124929   3.691   0.262  12.135 -0.5902 -0.0704  1.9505
 4431SOL    HW224930   3.724   0.112  12.140 -1.5742 -1.8017 -0.4178
 4432SOL     OW24931   1.967   2.473   6.293 -0.6010 -0.4997 -0.0157
 4432SOL    HW124932   1.893   2.520   6.255  0.1664  0.9195  0.2590
 4432SOL    HW224933   2.023   2.546   6.317  0.9430 -1.2248 -1.3938
 4433SOL     OW24934   4.422   4.674  12.555 -0.0605 -0.3953  0.0715
 4433SOL    HW124935   4.356   0.009  12.559 -1.4333 -1.6935  0.3877
 4433SOL    HW224936   4.420   4.642  12.644  0.5854  2.3038  1.0604
 4434SOL     OW24937   4.036   2.607   1.914  0.2727 -0.4816 -0.1197
 4434SOL    HW124938   3.963   2.605   1.976  1.4317  0.4695  1.2862
 4434SOL    HW224939   4.043   2.702   1.898 -0.8561 -0.5292 -0.9205
 4435SOL     OW24940   1.800   0.828   8.567 -0.3356  0.1148  0.0979
 4435SOL    HW124941   1.871   0.863   8.512  1.0617 -0.9358  1.2453
 4435SOL    HW224942   1.818   0.736   8.549 -2.2563 -0.1687 -0.3175
 4436SOL     OW24943   1.944   1.110   7.371 -0.3084 -0.5435 -0.1601
 4436SOL    HW124944   1.953   1.034   7.428 -0.7276 -1.4494 -1.2910
 4436SOL    HW224945   2.027   1.157   7.373 -2.1653  2.7303  0.0580
 4437SOL     OW24946   3.310   4.346  15.266  0.4952 -1.0382 -0.0765
 4437SOL    HW124947   3.287   4.283  15.197  1.0798  1.3702 -2.5028
 4437SOL    HW224948   3.223   4.357  15.304  0.7615 -1.2792  0.5912
 4438SOL     OW24949   3.729   4.296   5.679  0.0541 -0.3404  0.0258
 4438SOL    HW124950   3.781   4.361   5.727 -1.0720  1.1148 -0.7085
 4438SOL    HW224951   3.683   4.359   5.624  1.8207  0.0891 -0.9510
 4439SOL     OW24952   1.333   4.648  17.539  0.2610 -0.4521 -0.1368
 4439SOL    HW124953   1.251   4.697  17.547 -0.8401 -1.8466 -2.9204
 4439SOL    HW224954   1.319   4.600  17.457 -1.5477  0.6884 -0.4857
 4440SOL     OW24955   1.116   1.387  17.387  0.3829  0.1551 -0.2971
 4440SOL    HW124956   1.174   1.463  17.388  0.0254  0.4317 -0.5703
 4440SOL    HW224957   1.117   1.352  17.476  1.4889 -0.0924 -0.3984
 4441SOL     OW24958   0.334   1.444   9.462 -0.1501  0.6579  0.1294
 4441SOL    HW124959   0.291   1.455   9.377 -0.7756  0.4389  0.4164
 4441SOL    HW224960   0.415   1.403   9.431 -0.0487  1.0263 -0.0961
 4442SOL     OW24961   2.210   0.180   1.742 -0.0198  0.4646  0.4200
 4442SOL    HW124962   2.163   0.098   1.726 -1.1651  1.5084 -1.5461
 4442SOL    HW224963   2.150   0.243   1.701  0.8557  0.0138 -1.5646
 4443SOL     OW24964   2.247   0.421   2.023 -0.4594  0.1641  0.4062
 4443SOL    HW124965   2.152   0.422   2.023 -0.4700 -1.0448  0.4515
 4443SOL    HW224966   2.266   0.401   2.115 -0.4466  1.3126  0.6488
 4444SOL     OW24967   2.158   2.307   2.824 -0.0107 -0.6248  0.8334
 4444SOL    HW124968   2.121   2.220   2.839  1.0701 -1.0122  1.2918
 4444SOL    HW224969   2.182   2.301   2.732  0.7223  1.1741  0.9003
 4445SOL     OW24970   2.435   3.081   2.837 -0.3716 -0.2610 -0.1327
 4445SOL    HW124971   2.425   3.039   2.923  0.8556 -0.1609  0.0722
 4445SOL    HW224972   2.489   3.153   2.871 -3.4424  1.7267  0.4982
 4446SOL     OW24973   2.087   0.062   5.665  0.2012 -0.2814 -0.1039
 4446SOL    HW124974   2.050   0.088   5.749  2.3019  0.3752  0.6088
 4446SOL    HW224975   2.162   0.121   5.664  0.1420 -0.2113 -0.9675
 4447SOL     OW24976   1.252   1.254   2.400 -0.0090 -0.1713  0.2240
 4447SOL    HW124977   1.205   1.213   2.473  1.1300  0.7327  1.4764
 4447SOL    HW224978   1.341   1.273   2.429  0.0205 -1.5820  1.0493
 4448SOL     OW24979   4.397   2.333   6.190  0.9848  0.2762 -0.6964
 4448SOL    HW124980   4.303   2.331   6.169  0.9305 -0.0057 -0.4295
 4448SOL    HW224981   4.422   2.425   6.197  0.1152  0.3938  0.8642
 4449SOL     OW24982   2.877   4.337   8.386  0.5265 -0.1024  0.3421
 4449SOL    HW124983   2.795   4.373   8.351  1.5828  2.2667  0.3368
 4449SOL    HW224984   2.855   4.256   8.433 -0.4708 -0.3897 -0.6195
 4450SOL     OW24985   0.221   4.349   1.864 -0.0800  0.9141 -0.5467
 4450SOL    HW124986   0.282   4.408   1.820  1.3378  0.1901  0.4542
 4450SOL    HW224987   0.284   4.328   1.933  0.8817  1.0542 -1.4014
 4451SOL     OW24988   0.703   1.265   9.573  0.0126 -0.0170 -0.1853
 4451SOL    HW124989   0.660   1.277   9.658 -0.8421  0.2283 -0.6590
 4451SOL    HW224990   0.782   1.318   9.581  0.9258 -1.3301 -0.4056
 4452SOL     OW24991   2.183   3.925  17.418 -0.6140  0.1543 -0.7182
 4452SOL    HW124992   2.114   3.990  17.405  0.7884  1.6893 -0.5807
 4452SOL    HW224993   2.260   3.980  17.436  0.4423 -1.7827  0.6328
 4453SOL     OW24994   2.402   1.021   1.547  0.1995  0.6477  0.3753
 4453SOL    HW124995   2.401   1.036   1.642 -1.7595  1.0856  0.2858
 4453SOL    HW224996   2.339   1.085   1.514 -0.2337  0.5102  0.9298
 4454SOL     OW24997   0.275   2.861  10.937  0.1339 -0.2718  0.1192
 4454SOL    HW124998   0.214   2.842  10.866 -2.2815  0.8601  1.8879
 4454SOL    HW224999   0.341   2.910  10.887 -0.0939 -0.4461 -0.3478
 4455SOL     OW25000   1.711   3.899  10.991  0.3429 -0.1217  0.1638
 4455SOL    HW125001   1.666   3.871  10.911 -0.0282 -1.0891  0.7151
 4455SOL    HW225002   1.722   3.822  11.046  0.3876 -0.1814  0.0705
 4456SOL     OW25003   3.980   3.655   4.058 -0.0090 -0.2468  0.2710
 4456SOL    HW125004   3.949   3.604   4.133 -1.1891  0.1845  0.0849
 4456SOL    HW225005   3.957   3.743   4.089 -1.6789 -0.1123 -1.2770
 4457SOL     OW25006   1.864   4.692  13.160 -0.8543 -0.3272  0.3368
 4457SOL    HW125007   1.944   4.722  13.204 -1.2705 -0.0623  0.8969
 4457SOL    HW225008   1.876   4.598  13.176 -1.6353 -0.2946  1.0968
 4458SOL     OW25009   2.150   2.129   7.154  0.3807 -0.0629 -0.1193
 4458SOL    HW125010   2.090   2.106   7.224 -0.9535  1.0675 -0.8853
 4458SOL    HW225011   2.235   2.124   7.197 -0.4784  1.4444  1.7526
 4459SOL     OW25012   2.291   4.082  16.651  0.1422  0.0993 -0.1917
 4459SOL    HW125013   2.298   4.172  16.684 -0.0898  0.8238 -2.0887
 4459SOL    HW225014   2.348   4.042  16.716  0.9529  0.9445 -0.3766
 4460SOL     OW25015   0.705   4.065   5.996 -0.2462 -0.2355  0.0225
 4460SOL    HW125016   0.657   4.135   5.952  1.1166 -0.0246 -1.1106
 4460SOL    HW225017   0.640   3.997   5.980  1.8375 -1.6033 -2.5479
 4461SOL     OW25018   4.085   4.171   5.159 -0.0011 -0.0921 -0.4925
 4461SOL    HW125019   4.091   4.085   5.118 -2.8888 -1.1018  1.2058
 4461SOL    HW225020   4.004   4.170   5.209 -0.9871 -0.1042 -2.1052
 4462SOL     OW25021   0.673   0.971   0.266  0.0157  0.2130 -0.3414
 4462SOL    HW125022   0.621   0.932   0.196 -1.7227  0.2056  0.9629
 4462SOL    HW225023   0.596   1.009   0.307 -0.8101 -3.1396  1.2742
 4463SOL     OW25024   1.692   0.823   3.761 -0.0572 -0.1533  0.2236
 4463SOL    HW125025   1.727   0.903   3.800  1.8434 -2.0661  2.4964
 4463SOL    HW225026   1.711   0.834   3.668  1.8622 -1.2706  0.4801
 4464SOL     OW25027   2.082   0.814   7.145 -0.1819 -0.0739  0.9385
 4464SOL    HW125028   2.140   0.743   7.118  0.6102  1.3704 -1.2330
 4464SOL    HW225029   2.134   0.835   7.223  1.2522  0.2879 -0.0970
 4465SOL     OW25030   4.708   4.217   4.853 -0.3597 -0.4194  0.9285
 4465SOL    HW125031   4.663   4.294   4.888 -0.6919 -0.0207 -0.3617
 4465SOL    HW225032   4.643   4.186   4.789  2.6216 -0.6648 -1.9667
 4466SOL     OW25033   0.799   2.028   5.492 -0.1749  0.1111  0.1581
 4466SOL    HW125034   0.784   2.051   5.400 -2.7717 -2.5761 -0.0809
 4466SOL    HW225035   0.708   1.999   5.504 -0.1654 -0.3263 -0.7649
 4467SOL     OW25036   0.944   4.157   4.696 -0.2456 -0.6204  0.7437
 4467SOL    HW125037   0.941   4.113   4.781 -0.7143  0.3665  1.2350
 4467SOL    HW225038   0.852   4.176   4.678  0.8240  0.7517 -3.2683
 4468SOL     OW25039   0.058   2.001   8.893 -0.0346  0.1366  0.1291
 4468SOL    HW125040   4.718   1.988   8.836  1.2251 -1.6650 -1.1176
 4468SOL    HW225041   0.106   2.077   8.861  1.5952 -0.8741  0.1766
 4469SOL     OW25042   0.015   1.612   8.746 -0.0045  0.7279  0.6391
 4469SOL    HW125043   4.707   1.548   8.690  2.3690 -1.2990  1.0993
 4469SOL    HW225044   0.070   1.552   8.796  1.1763  0.5580 -0.8850
 4470SOL     OW25045   2.960   2.601   4.757 -0.3990 -0.0901  0.1406
 4470SOL    HW125046   2.932   2.674   4.701  0.6407  0.1387 -0.0949
 4470SOL    HW225047   3.033   2.571   4.702  1.2707  2.3921  0.9949
 4471SOL     OW25048   1.792   1.961   3.044 -0.1491 -0.3259 -0.4267
 4471SOL    HW125049   1.785   1.935   2.952  0.9500 -1.1115 -0.2920
 4471SOL    HW225050   1.759   2.051   3.043 -0.4236 -0.4339 -2.4259
 4472SOL     OW25051   3.370   1.533   6.812  0.5225  0.1368 -0.2575
 4472SOL    HW125052   3.319   1.567   6.739 -0.2055  2.1972  1.2148
 4472SOL    HW225053   3.458   1.544   6.776  0.2138 -0.8280 -1.3059
 4473SOL     OW25054   1.228   0.109   6.134 -0.3099 -0.3983  0.1758
 4473SOL    HW125055   1.306   0.161   6.114 -0.1860 -0.0735  1.4603
 4473SOL    HW225056   1.161   0.148   6.077  1.3738 -1.2396 -2.3478
 4474SOL     OW25057   3.033   0.167   1.148 -0.2279 -0.6691 -0.3670
 4474SOL    HW125058   3.107   0.229   1.147  0.9127 -2.0847 -2.4833
 4474SOL    HW225059   2.980   0.217   1.211  2.4810 -0.2224  1.5644
 4475SOL     OW25060   3.112   2.502   7.798 -0.5700  0.5260  0.3010
 4475SOL    HW125061   3.049   2.459   7.856  0.7555 -0.5134  0.9754
 4475SOL    HW225062   3.103   2.588   7.838  1.6215  0.8972  0.0119
 4476SOL     OW25063   2.389   1.395   4.243 -0.9013 -0.1349  0.1989
 4476SOL    HW125064   2.317   1.431   4.191 -0.6950 -0.6935 -0.4814
 4476SOL    HW225065   2.462   1.426   4.189 -0.8288 -0.4417  0.1207
 4477SOL     OW25066   3.930   0.400   5.121 -0.2673 -0.2273 -0.0710
 4477SOL    HW125067   3.923   0.495   5.111  2.5233 -0.2236 -1.8862
 4477SOL    HW225068   3.964   0.385   5.210  0.8740 -1.3471 -0.6944
 4478SOL     OW25069   2.938   4.633   4.578 -0.7913  0.0404 -0.5602
 4478SOL    HW125070   2.982   4.706   4.622 -0.2923 -2.1150  2.5181
 4478SOL    HW225071   2.846   4.653   4.594 -0.7159 -0.3818  0.3894
 4479SOL     OW25072   3.463   2.877   2.485 -0.4309  0.4306  0.4925
 4479SOL    HW125073   3.438   2.792   2.522 -2.0738  0.1126 -1.3299
 4479SOL    HW225074   3.390   2.890   2.424  1.3058  0.6756 -1.5161
 4480SOL     OW25075   4.407   3.881  16.619  0.7828  0.1968 -0.5752
 4480SOL    HW125076   4.483   3.879  16.561  2.2585  0.2290  1.3204
 4480SOL    HW225077   4.384   3.974  16.618  1.7513  0.4303 -1.4860
 4481SOL     OW25078   4.274   0.382  13.270 -0.0252  0.1180 -0.0385
 4481SOL    HW125079   4.186   0.411  13.294  0.1549  0.0141  0.7158
 4481SOL    HW225080   4.259   0.293  13.239  0.6195 -0.1004  0.2706
 4482SOL     OW25081   4.035   3.598   2.789 -0.0849  0.9068 -0.3696
 4482SOL    HW125082   3.956   3.633   2.830  0.5482 -1.9052  3.2394
 4482SOL    HW225083   4.028   3.600   2.693 -0.3718 -2.3586 -0.4170
 4483SOL     OW25084   2.728   3.433   5.301 -0.1475  0.7481  0.5244
 4483SOL    HW125085   2.748   3.341   5.321 -0.7412  0.5954  0.4002
 4483SOL    HW225086   2.743   3.474   5.386  1.1207 -0.9327  1.1260
 4484SOL     OW25087   3.372   3.125   4.352 -0.1308 -0.4035  0.4024
 4484SOL    HW125088   3.277   3.131   4.342  0.0222 -0.3887 -1.1699
 4484SOL    HW225089   3.396   3.213   4.383 -1.2281 -0.4431  1.3358
 4485SOL     OW25090   1.710   0.965  13.006 -0.5362  0.3378 -0.1873
 4485SOL    HW125091   1.718   0.877  13.043 -0.5814  0.6497  0.5583
 4485SOL    HW225092   1.798   1.001  12.996 -1.1831  1.2255 -2.7147
 4486SOL     OW25093   2.323   2.803   7.101 -0.3539  0.7442  0.0552
 4486SOL    HW125094   2.403   2.856   7.107  0.9046 -1.4048  2.2479
 4486SOL    HW225095   2.348   2.725   7.050  0.7786  1.5475 -0.6329
 4487SOL     OW25096   0.233   4.224   7.656 -0.7117 -0.4506  0.3752
 4487SOL    HW125097   0.185   4.267   7.727 -0.1817  0.9294 -0.1077
 4487SOL    HW225098   0.162   4.163   7.638 -0.6317 -1.1034  2.2824
 4488SOL     OW25099   3.424   1.049   4.932  0.4420 -0.3534 -0.3478
 4488SOL    HW125100   3.420   1.013   5.021  0.8788 -1.0540 -0.6164
 4488SOL    HW225101   3.511   1.028   4.898  0.8184  0.3844  0.1628
 4489SOL     OW25102   2.346   0.304   0.653 -0.9125  0.7032 -0.1199
 4489SOL    HW125103   2.428   0.285   0.608 -0.6013 -1.7361  1.5038
 4489SOL    HW225104   2.344   0.400   0.648  1.4714  0.7593  0.2267
 4490SOL     OW25105   3.911   1.954   6.619  0.2626  0.4657  0.3207
 4490SOL    HW125106   3.941   2.007   6.692  0.0053 -0.3732  1.0420
 4490SOL    HW225107   3.958   2.005   6.553  1.4005 -0.2441  0.5834
 4491SOL     OW25108   3.855   4.404   2.132 -0.1838  0.0424  0.0640
 4491SOL    HW125109   3.777   4.433   2.180 -1.4385 -2.4069 -0.5475
 4491SOL    HW225110   3.812   4.381   2.050 -0.0036 -1.8058  0.4952
 4492SOL     OW25111   2.659   1.721  10.817  0.2266 -0.6133  0.6631
 4492SOL    HW125112   2.595   1.768  10.870  1.7640  1.9234  0.2828
 4492SOL    HW225113   2.605   1.664  10.762  1.4244 -0.3126 -0.8146
 4493SOL     OW25114   0.608   0.747   8.758  0.4767  0.1356  0.1936
 4493SOL    HW125115   0.548   0.729   8.830  0.5992  0.0212  0.2669
 4493SOL    HW225116   0.545   0.780   8.693 -1.9908  1.5150  3.2903
 4494SOL     OW25117   0.205   0.066   7.530  0.4826 -0.4019 -0.3198
 4494SOL    HW125118   0.244   0.142   7.573  1.4486 -1.2785  0.3768
 4494SOL    HW225119   0.284   0.029   7.489  1.5386  1.1900  0.2734
 4495SOL     OW25120   2.921   0.463   6.389 -0.6662 -0.6288 -0.3363
 4495SOL    HW125121   2.826   0.466   6.382 -0.5476  1.3770 -1.1196
 4495SOL    HW225122   2.949   0.464   6.297 -1.5256 -2.9864 -0.6316
 4496SOL     OW25123   2.130   2.288  11.722 -0.0431 -0.1083  0.2132
 4496SOL    HW125124   2.063   2.314  11.659 -0.4401 -1.0131  0.2680
 4496SOL    HW225125   2.163   2.205  11.690  2.9677  0.6722  1.2694
 4497SOL     OW25126   3.902   0.246  16.326 -0.3423 -0.5995  0.7504
 4497SOL    HW125127   3.919   0.177  16.391  1.5890 -0.7877  0.0492
 4497SOL    HW225128   3.845   0.200  16.265 -0.1421  0.9160 -0.5646
 4498SOL     OW25129   2.532   4.400  16.407 -0.6805 -0.4301 -0.1033
 4498SOL    HW125130   2.450   4.424  16.363  0.9009  0.0500 -2.7545
 4498SOL    HW225131   2.543   4.476  16.464  2.2184 -0.9411  0.0203
 4499SOL     OW25132   4.355   0.732   7.652  0.3680  0.7472 -0.2549
 4499SOL    HW125133   4.434   0.700   7.695  0.2988 -0.1456 -0.7874
 4499SOL    HW225134   4.323   0.655   7.606  1.6211 -0.3145  0.6370
 4500SOL     OW25135   2.216   2.368   7.035 -0.1504  0.5848 -0.0834
 4500SOL    HW125136   2.208   2.274   7.048  1.8259  0.6098  1.3118
 4500SOL    HW225137   2.161   2.411   7.100  1.4076  3.3215 -0.5883
 4501SOL     OW25138   3.339   1.248   2.406  0.9749 -0.0785 -0.4036
 4501SOL    HW125139   3.411   1.234   2.344  0.6833  1.5426 -1.1026
 4501SOL    HW225140   3.289   1.306   2.349  2.3268  0.5980 -0.9031
 4502SOL     OW25141   0.588   0.170   6.305 -0.6506  0.1566  0.0624
 4502SOL    HW125142   0.659   0.115   6.338 -0.4252  0.2613 -0.2369
 4502SOL    HW225143   0.580   0.134   6.217  2.3550 -2.9079  1.0650
 4503SOL     OW25144   4.228   4.465  12.021 -0.4658  0.3633 -0.8638
 4503SOL    HW125145   4.200   4.536  11.962 -3.1708 -1.5288 -1.8436
 4503SOL    HW225146   4.309   4.498  12.059  0.1990  0.0140 -1.9805
 4504SOL     OW25147   3.678   4.680   6.490  0.5372  0.3885  0.0793
 4504SOL    HW125148   3.625   4.676   6.410  0.3400 -0.1896  0.2418
 4504SOL    HW225149   3.716   4.593   6.501  3.0498  1.2286 -1.9259
 4505SOL     OW25150   4.126   4.012   4.754  0.3072 -0.0150 -0.4777
 4505SOL    HW125151   4.039   3.996   4.790  0.6328 -2.2185 -0.6492
 4505SOL    HW225152   4.101   4.051   4.670 -2.6374 -0.4513  0.2059
 4506SOL     OW25153   3.174   3.090   6.552 -0.1547 -0.1748 -0.1016
 4506SOL    HW125154   3.159   3.028   6.623  2.4773 -0.5240  0.1684
 4506SOL    HW225155   3.084   3.089   6.519 -1.0074 -0.4531  2.2100
 4507SOL     OW25156   0.853   1.630  14.682  0.2711 -0.0502 -0.5423
 4507SOL    HW125157   0.924   1.693  14.698 -0.4785  0.0453  2.4136
 4507SOL    HW225158   0.784   1.650  14.746  0.0022  1.8336 -1.4113
 4508SOL     OW25159   0.946   0.097   2.097 -0.2518 -0.2253  0.4992
 4508SOL    HW125160   0.958   0.072   2.188  0.7317 -0.1260  0.3977
 4508SOL    HW225161   0.987   0.184   2.098 -0.6333 -0.0450  0.7538
 4509SOL     OW25162   3.231   1.079   8.940 -0.2165 -0.4216 -0.8083
 4509SOL    HW125163   3.174   1.032   9.001  2.3608 -0.2241  1.7710
 4509SOL    HW225164   3.300   1.013   8.933  2.4561  2.0993  1.4612
 4510SOL     OW25165   0.465   1.924   9.586 -0.8178  0.0773  0.2374
 4510SOL    HW125166   0.477   1.940   9.680 -1.4143 -3.4763  0.9072
 4510SOL    HW225167   0.553   1.890   9.573 -0.4519  0.9792  0.3505
 4511SOL     OW25168   1.180   1.695  12.785  0.3090 -0.1645  0.2545
 4511SOL    HW125169   1.214   1.777  12.748 -0.4865 -0.5043 -1.2464
 4511SOL    HW225170   1.223   1.697  12.871  0.3002  1.3179  0.2266
 4512SOL     OW25171   2.760   1.516   8.569 -0.0897  0.3541 -0.5644
 4512SOL    HW125172   2.812   1.596   8.561  0.5885  0.1122  1.5773
 4512SOL    HW225173   2.815   1.453   8.523  1.7323  1.7860 -0.3513
 4513SOL     OW25174   4.255   2.901   7.084 -0.3810  0.4857  0.4125
 4513SOL    HW125175   4.330   2.881   7.140 -0.0205 -0.9133 -0.5752
 4513SOL    HW225176   4.294   2.959   7.018  1.6163  0.4792  1.6010
 4514SOL     OW25177   2.737   3.161   3.451 -0.6865  0.0115  0.3163
 4514SOL    HW125178   2.751   3.069   3.429  2.9278  0.7782 -0.6422
 4514SOL    HW225179   2.720   3.212   3.372  1.3639 -0.3179 -0.3309
 4515SOL     OW25180   0.687   0.474   4.634 -0.1637  1.0037  0.4127
 4515SOL    HW125181   0.741   0.404   4.598  0.5051  1.1607  1.1195
 4515SOL    HW225182   0.632   0.432   4.700  0.3388 -0.4322 -0.0714
 4516SOL     OW25183   3.433   1.977   5.034  0.3072 -0.1199 -0.3229
 4516SOL    HW125184   3.491   2.050   5.055  0.6806 -0.5372  0.0882
 4516SOL    HW225185   3.452   1.966   4.940  0.4931  1.4244 -0.4635
 4517SOL     OW25186   2.801   3.363   6.000 -0.0904 -0.1036  0.9707
 4517SOL    HW125187   2.754   3.326   5.924  0.2736 -0.2689  0.8293
 4517SOL    HW225188   2.809   3.288   6.059 -1.3855 -0.1041  1.1519
 4518SOL     OW25189   1.118   4.564   3.404  0.2443 -0.7787 -0.1351
 4518SOL    HW125190   1.185   4.504   3.436  0.3652 -0.9529 -0.7039
 4518SOL    HW225191   1.103   4.616   3.483 -1.5349  0.9172 -1.5758
 4519SOL     OW25192   2.907   1.094  16.889 -0.6006  0.0618 -0.1864
 4519SOL    HW125193   2.914   1.175  16.838  0.0038 -0.4071 -0.8513
 4519SOL    HW225194   2.995   1.089  16.927 -1.4888 -1.0169  1.7060
 4520SOL     OW25195   1.415   4.560   9.669 -0.9959  0.4379 -0.2410
 4520SOL    HW125196   1.423   4.635   9.610 -1.3930 -0.3290 -1.2823
 4520SOL    HW225197   1.405   4.495   9.599  2.3581 -1.1241  0.7054
 4521SOL     OW25198   0.471   0.897   2.397  0.0542  0.4547  0.5002
 4521SOL    HW125199   0.532   0.824   2.409  0.0115  0.6131  1.6572
 4521SOL    HW225200   0.523   0.976   2.404  0.0734  0.6713 -2.0937
 4522SOL     OW25201   0.265   0.937   7.815  0.0775  0.2159 -0.0668
 4522SOL    HW125202   0.245   0.945   7.722 -0.5269 -2.2836 -0.1421
 4522SOL    HW225203   0.254   0.842   7.822  0.1334  0.2047 -0.1352
 4523SOL     OW25204   1.214   2.200   3.270  0.0382 -0.3834  0.3433
 4523SOL    HW125205   1.135   2.254   3.261  0.6420  0.2750 -0.9306
 4523SOL    HW225206   1.260   2.234   3.194  0.8095 -0.2369  0.8705
 4524SOL     OW25207   0.808   3.802   6.109 -0.2553  0.2906  0.5623
 4524SOL    HW125208   0.801   3.786   6.203 -1.4076  0.0629  0.4328
 4524SOL    HW225209   0.899   3.834   6.110 -0.0080 -0.4478  2.1039
 4525SOL     OW25210   2.240   3.454   5.905  0.1738 -0.0460 -0.4215
 4525SOL    HW125211   2.153   3.423   5.880 -0.8701  2.7090 -0.1678
 4525SOL    HW225212   2.264   3.500   5.825 -1.1078 -0.4199 -1.0247
 4526SOL     OW25213   1.995   2.944   7.341  0.6525 -0.0146  0.3163
 4526SOL    HW125214   1.941   2.988   7.407  0.5931  2.0026 -1.0625
 4526SOL    HW225215   1.990   3.007   7.269 -0.1211  0.1107  0.4790
 4527SOL     OW25216   4.359   3.127  10.044  0.1793 -0.2552 -0.2690
 4527SOL    HW125217   4.438   3.074  10.057 -0.3565 -0.7648  0.8825
 4527SOL    HW225218   4.364   3.185  10.119 -0.8367  0.4078 -0.7198
 4528SOL     OW25219   1.482   3.430   2.355 -0.3517  0.0570 -0.5467
 4528SOL    HW125220   1.535   3.383   2.292  0.6377  0.8797 -0.3287
 4528SOL    HW225221   1.444   3.362   2.410  0.4692 -0.3283 -0.4678
 4529SOL     OW25222   2.437   1.336   8.005 -0.1285  0.0190  0.0707
 4529SOL    HW125223   2.378   1.380   7.943  0.2983 -0.7382 -0.8673
 4529SOL    HW225224   2.378   1.363   8.075  0.0643 -0.5391  0.4429
 4530SOL     OW25225   3.534   1.230   4.201  0.0235 -0.0494 -0.4165
 4530SOL    HW125226   3.596   1.292   4.165  0.5497  0.1302  0.8168
 4530SOL    HW225227   3.533   1.253   4.294 -1.7409  0.7870 -0.6424
 4531SOL     OW25228   3.119   4.188   2.481 -0.2590 -0.6930  0.1212
 4531SOL    HW125229   3.070   4.270   2.488 -0.5110 -0.6929 -1.6517
 4531SOL    HW225230   3.179   4.210   2.409  0.1757  0.5493  0.8702
 4532SOL     OW25231   4.187   2.595  12.945  0.4464 -0.8541 -0.2540
 4532SOL    HW125232   4.160   2.602  12.854  0.6315 -2.2338 -0.4174
 4532SOL    HW225233   4.269   2.552  12.923  1.3796  0.1006  1.3320
 4533SOL     OW25234   0.514   4.362   8.614  0.0335  0.6832 -0.5202
 4533SOL    HW125235   0.584   4.415   8.575 -1.2374  1.1983 -2.0760
 4533SOL    HW225236   0.541   4.374   8.706  0.6382 -1.6421 -0.3731
 4534SOL     OW25237   0.259   1.860   6.982  0.0971 -0.8119 -0.1929
 4534SOL    HW125238   0.218   1.839   7.066 -2.0627 -0.0180 -1.0556
 4534SOL    HW225239   0.298   1.945   7.005  1.4212 -1.1253 -1.2755
 4535SOL     OW25240   3.893   1.731   4.419  0.3065  0.5810  0.6686
 4535SOL    HW125241   3.970   1.715   4.472  0.4866 -0.1841  0.1703
 4535SOL    HW225242   3.845   1.648   4.412 -0.8114  1.1599  1.3161
 4536SOL     OW25243   4.434   1.136   5.209 -0.4899  0.4418  0.2492
 4536SOL    HW125244   4.402   1.225   5.195  0.7743  0.8199 -0.2387
 4536SOL    HW225245   4.517   1.143   5.160 -0.8020 -0.8755 -0.4627
 4537SOL     OW25246   2.829   2.208   4.646 -0.1000 -0.3799  0.4031
 4537SOL    HW125247   2.786   2.281   4.601  1.7593  0.1799 -0.4795
 4537SOL    HW225248   2.764   2.142   4.624 -1.4312  1.0010  0.1454
 4538SOL     OW25249   0.266   2.836   0.671 -0.3972  0.4333 -0.5063
 4538SOL    HW125250   0.331   2.883   0.619  0.4059 -2.2316 -1.8987
 4538SOL    HW225251   0.319   2.760   0.695 -2.2383 -0.8440 -0.5054
 4539SOL     OW25252   2.224   3.558  16.161 -1.0267  0.0815  0.2151
 4539SOL    HW125253   2.250   3.648  16.146 -0.8724  0.0050  0.0245
 4539SOL    HW225254   2.244   3.539  16.253  0.9920 -2.3033 -0.7335
 4540SOL     OW25255   0.551   0.198   1.448 -0.1543  0.1821  0.0439
 4540SOL    HW125256   0.541   0.138   1.375 -1.7148  2.1225 -1.3238
 4540SOL    HW225257   0.579   0.138   1.517  0.1798  1.6803  1.2287
 4541SOL     OW25258   2.854   1.372   7.527 -0.0691 -0.4344  1.0589
 4541SOL    HW125259   2.910   1.408   7.596  0.1974  0.7016  0.2584
 4541SOL    HW225260   2.888   1.415   7.448  1.1841  0.2415  1.9688
 4542SOL     OW25261   1.912   0.452   7.628  0.4638  0.1157  0.2748
 4542SOL    HW125262   1.970   0.418   7.560 -0.3471 -2.7650  1.0018
 4542SOL    HW225263   1.890   0.536   7.588 -1.1355 -1.1070 -1.4390
 4543SOL     OW25264   1.987   3.460   4.179  0.4091 -0.4847  0.2348
 4543SOL    HW125265   2.074   3.491   4.203  1.2079 -2.3106 -0.3713
 4543SOL    HW225266   1.999   3.452   4.084  1.0408 -0.7860  0.3408
 4544SOL     OW25267   0.872   3.085   8.354  0.3063 -0.2609  0.3756
 4544SOL    HW125268   0.926   3.146   8.303 -1.6332  0.4064 -0.8576
 4544SOL    HW225269   0.790   3.097   8.306  1.3523  0.6784 -1.1674
 4545SOL     OW25270   1.015   2.197   3.656  0.4162  0.1032 -0.1102
 4545SOL    HW125271   1.016   2.268   3.591  2.5420  0.2456  0.0857
 4545SOL    HW225272   1.079   2.222   3.723 -0.8589  1.8084  0.4847
 4546SOL     OW25273   1.351   3.586   5.805  0.5481 -0.8100  0.0359
 4546SOL    HW125274   1.445   3.581   5.818  0.2462 -2.2100  1.6174
 4546SOL    HW225275   1.340   3.665   5.860  3.1848 -0.3087 -0.1559
 4547SOL     OW25276   1.015   3.562   8.229 -0.2934  0.2446  0.0070
 4547SOL    HW125277   1.101   3.542   8.193 -0.3580 -0.3354  0.1756
 4547SOL    HW225278   1.030   3.538   8.320 -0.5314  0.3045  0.0619
 4548SOL     OW25279   3.491   1.354   6.511 -0.2556 -0.3519  0.2888
 4548SOL    HW125280   3.574   1.400   6.500 -0.8484  0.8455  0.9070
 4548SOL    HW225281   3.434   1.422   6.548 -0.4596 -0.0589 -0.5597
 4549SOL     OW25282   0.976   3.923   2.069  0.0579  0.5019  0.1078
 4549SOL    HW125283   1.072   3.919   2.063  0.0077 -0.4304 -0.0632
 4549SOL    HW225284   0.959   3.916   2.163  2.4685 -1.9883  0.3712
 4550SOL     OW25285   3.476   2.926   5.878 -0.2423  0.3630 -0.6406
 4550SOL    HW125286   3.434   2.993   5.933 -1.4214 -0.2343 -0.8201
 4550SOL    HW225287   3.519   2.875   5.946  1.3726 -0.6959 -2.4666
 4551SOL     OW25288   3.481   0.954   1.537 -0.5691  0.3914 -0.2740
 4551SOL    HW125289   3.515   0.998   1.459 -1.6937  1.7805  0.0181
 4551SOL    HW225290   3.388   0.976   1.539 -0.9564 -1.4727  1.6726
 4552SOL     OW25291   2.533   3.137   3.974 -0.7196  1.0998 -0.2106
 4552SOL    HW125292   2.477   3.197   4.023 -0.2965  1.8563 -0.6401
 4552SOL    HW225293   2.557   3.083   4.049  0.0130 -1.5636 -2.3495
 4553SOL     OW25294   0.321   2.832   7.469 -0.2477  1.0422  0.0721
 4553SOL    HW125295   0.361   2.880   7.542 -0.0615  0.2287  0.5125
 4553SOL    HW225296   0.391   2.831   7.405  0.9329 -0.4396  1.3978
 4554SOL     OW25297   1.642   4.094  16.615 -0.5240  0.9235  0.3180
 4554SOL    HW125298   1.640   4.032  16.542 -0.5426 -0.3088  1.3542
 4554SOL    HW225299   1.549   4.088  16.636 -0.6565  2.0330  0.0329
 4555SOL     OW25300   4.330   3.787   4.246  0.2162  0.5434  0.5599
 4555SOL    HW125301   4.315   3.704   4.291 -0.5697 -0.4000 -1.4428
 4555SOL    HW225302   4.251   3.831   4.278  0.0793  0.7772 -0.1048
 4556SOL     OW25303   0.080   0.554   4.497  0.0696  0.0355  0.1783
 4556SOL    HW125304   0.035   0.530   4.578 -1.0825 -0.7052 -0.6812
 4556SOL    HW225305   0.012   0.531   4.433  0.9170  0.8085 -1.0046
 4557SOL     OW25306   1.218   4.543   7.150 -0.3412  0.0607  0.3001
 4557SOL    HW125307   1.254   4.622   7.110 -0.4449  0.6027  1.2974
 4557SOL    HW225308   1.272   4.548   7.229  1.5189 -1.0942 -0.8909
 4558SOL     OW25309   0.950   1.042   4.494  0.4675 -0.1370  0.2049
 4558SOL    HW125310   0.872   0.987   4.505  1.2934 -1.3867 -0.1739
 4558SOL    HW225311   0.926   1.133   4.512  0.0284  0.2108 -2.0601
 4559SOL     OW25312   0.166   2.420   5.607 -0.2462  0.0278 -0.8941
 4559SOL    HW125313   0.112   2.482   5.557 -0.5143 -1.5768 -2.5922
 4559SOL    HW225314   0.249   2.429   5.560 -0.7195 -2.3105 -2.1927
 4560SOL     OW25315   1.969   2.509  15.066 -0.4526 -0.2159 -0.0381
 4560SOL    HW125316   1.996   2.601  15.058  0.5425 -0.5407 -0.3367
 4560SOL    HW225317   1.919   2.516  15.147  3.1110  0.7381  2.0850
 4561SOL     OW25318   1.549   0.755   0.140 -0.2248 -0.2365 -0.5546
 4561SOL    HW125319   1.598   0.679   0.170 -0.4782  0.3430  1.3804
 4561SOL    HW225320   1.612   0.814   0.099 -0.8444 -0.4029 -1.7549
 4562SOL     OW25321   0.440   0.290   8.515 -0.2943 -0.2667 -1.2775
 4562SOL    HW125322   0.389   0.332   8.584  0.5295 -2.3817  0.6298
 4562SOL    HW225323   0.366   0.234   8.491 -1.9804  0.3412  2.4849
 4563SOL     OW25324   0.154   3.646   8.372 -0.4914  0.4897  0.0904
 4563SOL    HW125325   0.152   3.737   8.402 -1.5640  1.1276 -1.9131
 4563SOL    HW225326   0.102   3.607   8.443  0.0832 -0.4525 -0.0164
 4564SOL     OW25327   0.735   1.154   5.135 -0.4092  0.0353 -0.3439
 4564SOL    HW125328   0.764   1.197   5.054 -0.0454 -0.4524 -0.4735
 4564SOL    HW225329   0.664   1.102   5.098 -1.7172  2.2169 -0.8863
 4565SOL     OW25330   2.573   4.662  14.894 -0.1606 -0.8819 -0.6303
 4565SOL    HW125331   2.591   4.732  14.831 -0.3692 -0.5677 -0.3393
 4565SOL    HW225332   2.494   4.701  14.930 -0.5605 -1.7751 -0.5211
 4566SOL     OW25333   1.585   2.607   7.550  0.2726 -0.1311  0.0219
 4566SOL    HW125334   1.507   2.558   7.524  0.1991 -0.8116  1.5034
 4566SOL    HW225335   1.636   2.593   7.470  0.6767  0.8399  0.1214
 4567SOL     OW25336   1.098   0.499   4.626 -0.3340 -0.3126  0.0079
 4567SOL    HW125337   1.036   0.472   4.694 -0.8482  0.9950  0.0608
 4567SOL    HW225338   1.040   0.535   4.558 -0.7464 -2.4776 -0.7798
 4568SOL     OW25339   3.997   3.763  12.089  0.1605  0.2287  0.2735
 4568SOL    HW125340   3.910   3.753  12.127  0.5016 -0.0870  0.9637
 4568SOL    HW225341   4.053   3.768  12.166  0.6604 -0.4018 -0.0521
 4569SOL     OW25342   2.271   1.468   1.306  0.2685  0.1845  0.0736
 4569SOL    HW125343   2.198   1.495   1.251 -0.6495  1.2266  1.7930
 4569SOL    HW225344   2.235   1.441   1.390  0.5429  0.8636  0.4117
 4570SOL     OW25345   1.345   3.233   2.522 -0.3723 -0.0225 -0.3621
 4570SOL    HW125346   1.271   3.192   2.566 -0.4515 -1.9037 -2.2490
 4570SOL    HW225347   1.324   3.210   2.432 -1.3426 -0.9778  0.1144
 4571SOL     OW25348   4.530   0.330   6.188  0.1011 -0.1818  0.3893
 4571SOL    HW125349   4.550   0.278   6.111  1.5029 -0.6343  1.0467
 4571SOL    HW225350   4.603   0.303   6.244  0.9120 -0.2266 -0.7009
 4572SOL     OW25351   3.395   3.423   8.625 -0.1980 -0.3182 -0.7283
 4572SOL    HW125352   3.460   3.396   8.559  1.1831  0.9211  0.1281
 4572SOL    HW225353   3.429   3.510   8.646 -3.1493  0.0446  2.3597
 4573SOL     OW25354   2.623   3.096  14.394 -0.2853  0.1348 -0.4440
 4573SOL    HW125355   2.591   3.132  14.311  2.7558  2.0946 -0.7653
 4573SOL    HW225356   2.615   3.002  14.376  2.0897 -0.1086 -0.2250
 4574SOL     OW25357   2.558   2.089   5.636  0.6081  0.3687  0.2793
 4574SOL    HW125358   2.538   2.127   5.551  0.8450  2.2895  1.0779
 4574SOL    HW225359   2.492   2.131   5.691  0.7396  1.3631 -0.3243
 4575SOL     OW25360   0.639   3.218   5.390  0.3221  0.8862 -1.2192
 4575SOL    HW125361   0.592   3.140   5.419 -1.6406  1.7550 -2.0956
 4575SOL    HW225362   0.664   3.187   5.303  1.6893 -1.1520 -0.1189
 4576SOL     OW25363   1.501   3.055   8.806 -0.2432 -0.2822 -0.0239
 4576SOL    HW125364   1.476   3.012   8.888  1.3847 -0.0759  0.5736
 4576SOL    HW225365   1.571   3.116   8.826 -0.6009 -0.0506  0.5061
 4577SOL     OW25366   1.769   4.543   7.701 -0.1675  0.5885 -0.5367
 4577SOL    HW125367   1.791   4.632   7.673 -0.5519  0.3775 -1.5265
 4577SOL    HW225368   1.689   4.564   7.748 -1.0605 -1.2321 -1.2428
 4578SOL     OW25369   2.482   4.300   2.457 -0.1409  0.1214  0.1601
 4578SOL    HW125370   2.422   4.260   2.394  0.6515 -1.8854  0.6902
 4578SOL    HW225371   2.559   4.249   2.432  0.3289  0.7600  0.2804
 4579SOL     OW25372   4.006   4.488   4.962  0.5448 -0.6047  0.0682
 4579SOL    HW125373   4.030   4.550   5.031  2.0873 -0.2235 -0.8180
 4579SOL    HW225374   4.079   4.425   4.960  0.5295 -0.5924 -0.6165
 4580SOL     OW25375   2.529   4.478   5.569 -0.1860 -0.0297 -0.2720
 4580SOL    HW125376   2.439   4.462   5.543 -0.0172 -0.3281 -0.6771
 4580SOL    HW225377   2.516   4.569   5.593 -0.0136 -0.1783  0.3968
 4581SOL     OW25378   0.512   2.047   9.287 -0.0820  0.2986 -0.0982
 4581SOL    HW125379   0.474   1.982   9.346 -0.0063 -1.0244 -1.5077
 4581SOL    HW225380   0.537   2.118   9.346  2.1133 -0.6423  0.0971
 4582SOL     OW25381   3.906   1.738   7.361  0.3253  0.0119 -0.1932
 4582SOL    HW125382   3.918   1.805   7.429  1.3545 -1.5634  1.1891
 4582SOL    HW225383   3.859   1.671   7.411  2.0047 -0.2555  1.0157
 4583SOL     OW25384   1.117   0.389   5.650 -0.2659 -0.2396 -0.9015
 4583SOL    HW125385   1.195   0.338   5.671 -0.3209 -0.3366 -0.9321
 4583SOL    HW225386   1.083   0.397   5.739  1.7964  1.9716 -0.3244
 4584SOL     OW25387   2.065   1.093   3.071 -0.3096 -0.1741  0.3108
 4584SOL    HW125388   2.050   1.068   2.980  1.7802  1.0158 -0.3774
 4584SOL    HW225389   2.013   1.173   3.079 -1.6197 -0.9744 -0.1378
 4585SOL     OW25390   2.347   4.536   1.489 -0.5345  0.0045  0.1906
 4585SOL    HW125391   2.298   4.508   1.412  1.8761  2.1066 -2.1194
 4585SOL    HW225392   2.371   4.628   1.477  1.1186 -0.7904 -2.6702
 4586SOL     OW25393   4.226   3.075   1.807 -0.6868 -0.5849  0.0809
 4586SOL    HW125394   4.201   3.147   1.866  0.8761  0.4192 -0.4775
 4586SOL    HW225395   4.313   3.044   1.833 -0.5348  0.4166  0.7631
 4587SOL     OW25396   0.714   0.697  11.368 -0.6048 -0.1824 -0.2825
 4587SOL    HW125397   0.756   0.783  11.364  1.1910 -1.0692 -0.6614
 4587SOL    HW225398   0.714   0.669  11.277 -0.4803 -1.6275  0.1692
 4588SOL     OW25399   4.584   2.083   5.372 -0.2018 -0.3107 -0.3979
 4588SOL    HW125400   4.582   2.129   5.456  1.8021 -0.1571 -0.4240
 4588SOL    HW225401   4.636   2.144   5.320  1.0690 -1.2737 -0.2685
 4589SOL     OW25402   4.380   4.140   4.453  0.2163  0.1048 -0.0705
 4589SOL    HW125403   4.296   4.184   4.440  0.0292  0.0681  0.9757
 4589SOL    HW225404   4.370   4.055   4.412 -0.8613  0.4998 -0.6294
 4590SOL     OW25405   0.765   1.138   9.088  0.2855 -0.0082 -0.5591
 4590SOL    HW125406   0.768   1.208   9.022  2.0028 -1.2813 -1.8470
 4590SOL    HW225407   0.759   1.060   9.033  0.4521 -2.2403  2.6301
 4591SOL     OW25408   1.854   3.245   3.862 -0.2099 -0.2987  0.5514
 4591SOL    HW125409   1.810   3.302   3.799 -1.2986 -0.3614  1.2514
 4591SOL    HW225410   1.770   3.209   3.891 -0.5886  0.3420  0.2265
 4592SOL     OW25411   1.014   3.862  15.012  0.1646  0.2880  0.2916
 4592SOL    HW125412   1.054   3.859  14.925  1.2360  0.3870  0.7896
 4592SOL    HW225413   1.078   3.899  15.072  1.0748 -0.9010  0.0617
 4593SOL     OW25414   2.324   4.453   3.368 -0.2065  0.4895 -0.6447
 4593SOL    HW125415   2.263   4.523   3.344  0.0428  1.4304  1.4059
 4593SOL    HW225416   2.384   4.500   3.425 -0.0428  1.0127 -1.2550
 4594SOL     OW25417   4.225   4.169   7.781 -0.2678  0.0464 -0.5513
 4594SOL    HW125418   4.166   4.136   7.713  2.5756 -1.0611 -2.4914
 4594SOL    HW225419   4.160   4.209   7.838 -0.0995  1.2004 -1.1611
 4595SOL     OW25420   2.973   2.872   5.727  0.0627 -0.0727  0.3261
 4595SOL    HW125421   2.982   2.792   5.675  0.7778  0.9330 -1.0993
 4595SOL    HW225422   3.060   2.913   5.722  1.2227 -2.1263  3.6408
 4596SOL     OW25423   2.248   0.263   7.116  0.0973  0.2284 -0.0184
 4596SOL    HW125424   2.299   0.307   7.184  0.9280 -0.3262 -0.2876
 4596SOL    HW225425   2.285   0.176   7.132 -1.7771 -0.5631  0.0456
 4597SOL     OW25426   2.119   1.452   4.863  0.4397  0.1377  0.1821
 4597SOL    HW125427   2.115   1.547   4.876  0.5883  0.2382 -0.4880
 4597SOL    HW225428   2.206   1.444   4.825 -0.1085 -0.2277 -1.0192
 4598SOL     OW25429   4.543   1.022   6.556 -0.0286 -0.3449  0.3831
 4598SOL    HW125430   4.560   0.931   6.582 -2.7358 -1.0333 -0.3435
 4598SOL    HW225431   4.498   1.051   6.636  0.4531  1.6377 -0.0540
 4599SOL     OW25432   0.838   3.176   4.724  0.0941  0.1470  0.2925
 4599SOL    HW125433   0.793   3.244   4.674 -1.2268  0.6015  2.1055
 4599SOL    HW225434   0.852   3.101   4.666  0.2511 -1.2986  2.2148
 4600SOL     OW25435   0.810   1.304   8.073 -0.3153  0.1682  0.1549
 4600SOL    HW125436   0.747   1.271   8.008 -0.7662  1.6676 -0.1675
 4600SOL    HW225437   0.805   1.233   8.137  0.2682  0.4763  0.5372
 4601SOL     OW25438   0.740   3.047  10.221  0.3484  0.3059  0.1476
 4601SOL    HW125439   0.821   3.079  10.260  0.6812  0.7720 -0.9246
 4601SOL    HW225440   0.678   3.090  10.280  1.1565  0.5347  0.8298
 4602SOL     OW25441   2.885   2.039  13.408  0.1566  0.1827  0.3601
 4602SOL    HW125442   2.866   2.109  13.345  0.5433  1.3266  1.5122
 4602SOL    HW225443   2.893   1.966  13.347 -0.6680 -1.1375  1.8426
 4603SOL     OW25444   4.537   4.354   8.557 -0.1757  0.0640 -0.6923
 4603SOL    HW125445   4.552   4.346   8.463 -0.0244  0.4515 -0.6995
 4603SOL    HW225446   4.469   4.421   8.559  1.4608  1.7047 -0.1054
 4604SOL     OW25447   0.561   2.241  11.416 -0.1539 -0.7114  0.1309
 4604SOL    HW125448   0.487   2.272  11.468 -0.5661  0.6370 -1.2417
 4604SOL    HW225449   0.564   2.149  11.439  0.4175 -0.7666 -0.1704
 4605SOL     OW25450   2.813   3.793  13.640 -0.0488  0.4219 -0.1043
 4605SOL    HW125451   2.822   3.812  13.546 -1.6802  0.6159 -0.2183
 4605SOL    HW225452   2.729   3.837  13.652  0.7836  1.6943  1.0900
 4606SOL     OW25453   2.273   0.787   1.338  0.0290  0.3697  0.5979
 4606SOL    HW125454   2.365   0.791   1.310 -0.7439  0.3972 -1.9555
 4606SOL    HW225455   2.284   0.736   1.418  1.3848  3.7640  2.6045
 4607SOL     OW25456   3.922   4.329   5.365 -0.6829 -0.2875 -0.2172
 4607SOL    HW125457   3.982   4.272   5.414  0.9184 -0.2929 -2.1815
 4607SOL    HW225458   3.979   4.385   5.313 -0.2675 -0.2134  0.3195
 4608SOL     OW25459   2.772   4.025  16.564  0.3935 -0.6359 -0.0545
 4608SOL    HW125460   2.695   4.081  16.554  0.4571 -0.3614  0.9319
 4608SOL    HW225461   2.831   4.077  16.509 -1.8006  0.8971 -0.9428
 4609SOL     OW25462   3.423   3.781   4.822  0.0931  0.1619  0.0600
 4609SOL    HW125463   3.452   3.751   4.908 -1.7840  0.2776  0.7442
 4609SOL    HW225464   3.392   3.704   4.774 -0.5491  0.1604  0.4717
 4610SOL     OW25465   1.229   4.298  15.579 -0.6083  0.2363  0.2574
 4610SOL    HW125466   1.321   4.323  15.569 -0.1242 -1.2783  0.8535
 4610SOL    HW225467   1.217   4.254  15.495  3.4566  0.7422 -0.5824
 4611SOL     OW25468   3.473   3.304   7.290  0.0342 -1.0326  0.0941
 4611SOL    HW125469   3.459   3.398   7.305 -4.0960 -1.6539  0.1270
 4611SOL    HW225470   3.413   3.256   7.347 -1.6482 -0.3855 -1.1415
 4612SOL     OW25471   1.583   0.373   3.564 -0.0566  0.0802  0.2165
 4612SOL    HW125472   1.572   0.453   3.512  0.3554  0.4620  0.7190
 4612SOL    HW225473   1.560   0.402   3.653 -0.0943 -1.1598  0.6186
 4613SOL     OW25474   3.352   0.762   4.072 -0.4867 -0.0757  0.2710
 4613SOL    HW125475   3.304   0.814   4.007 -0.2792  1.9498  1.7238
 4613SOL    HW225476   3.286   0.748   4.139  0.1961  0.3581  1.0356
 4614SOL     OW25477   0.712   4.299   5.391  0.0209  0.2318 -0.2372
 4614SOL    HW125478   0.687   4.375   5.444  0.2336 -1.3470  2.1031
 4614SOL    HW225479   0.747   4.338   5.310 -1.6837  0.8538 -0.6681
 4615SOL     OW25480   3.321   0.870  10.688  0.6543 -0.1014  0.1482
 4615SOL    HW125481   3.313   0.831  10.601 -0.6568  1.2905 -0.3493
 4615SOL    HW225482   3.390   0.935  10.678 -1.7464  2.5696  1.1233
 4616SOL     OW25483   2.365   0.595   7.681  0.7858 -0.2300 -0.0572
 4616SOL    HW125484   2.359   0.535   7.756 -0.6669 -0.7603 -0.6031
 4616SOL    HW225485   2.391   0.525   7.621 -0.5734 -0.2571 -0.6048
 4617SOL     OW25486   4.620   3.216   4.205 -0.0828  0.9041  0.0474
 4617SOL    HW125487   4.603   3.193   4.114  0.2849  0.1060  0.1790
 4617SOL    HW225488   4.533   3.251   4.226 -1.1626 -1.3723 -0.6724
 4618SOL     OW25489   1.461   3.888  13.120  0.1932  0.1536 -0.8386
 4618SOL    HW125490   1.488   3.797  13.119  0.3990  0.2159 -0.9946
 4618SOL    HW225491   1.380   3.887  13.171  1.3523 -2.7254  0.9189
 4619SOL     OW25492   0.064   2.127   7.848  0.2053 -0.1599  0.2290
 4619SOL    HW125493   0.115   2.203   7.874 -0.0186 -0.6078  1.9580
 4619SOL    HW225494   4.709   2.148   7.868 -0.2356 -1.1197 -0.7431
 4620SOL     OW25495   3.738   2.750   7.482 -0.0150 -0.2614 -0.4522
 4620SOL    HW125496   3.721   2.780   7.393 -2.7838  1.0260  0.5239
 4620SOL    HW225497   3.648   2.742   7.515 -0.0822  0.5432 -0.4457
 4621SOL     OW25498   0.631   3.804   8.377  0.2945 -0.0605  0.1270
 4621SOL    HW125499   0.569   3.796   8.305 -1.5928  0.5145  1.6760
 4621SOL    HW225500   0.592   3.869   8.436  2.1529  0.0534  1.2287
 4622SOL     OW25501   0.924   3.085   5.652 -0.6261 -0.3773 -0.5785
 4622SOL    HW125502   0.881   3.037   5.581 -0.2027 -0.2297 -0.9384
 4622SOL    HW225503   1.013   3.051   5.640 -1.4248 -2.6273 -0.1307
 4623SOL     OW25504   0.349   1.921   6.084 -0.1092  0.4391  0.6574
 4623SOL    HW125505   0.358   1.986   6.154 -2.8844  0.6065  0.8765
 4623SOL    HW225506   0.257   1.894   6.085 -0.3067  1.0629 -0.3604
 4624SOL     OW25507   0.841   1.589   4.782 -0.8544 -0.1819  0.0427
 4624SOL    HW125508   0.758   1.550   4.755  0.0185 -3.6516  2.4070
 4624SOL    HW225509   0.823   1.680   4.759  0.4925 -0.3710 -1.7468
 4625SOL     OW25510   1.951   3.565  16.148 -0.0216  0.2718 -0.2693
 4625SOL    HW125511   2.045   3.555  16.166  0.2127  0.8162 -1.2086
 4625SOL    HW225512   1.950   3.660  16.145 -0.1173  0.2408 -1.1173
 4626SOL     OW25513   2.204   4.219   2.407 -0.8825  0.2828 -0.3285
 4626SOL    HW125514   2.117   4.224   2.367 -1.2291 -2.0750  0.1744
 4626SOL    HW225515   2.232   4.310   2.395 -0.2035  0.0127 -0.7955
 4627SOL     OW25516   1.200   0.716  12.784  0.5539  0.6567  0.2978
 4627SOL    HW125517   1.260   0.644  12.803  0.1171  0.7812  2.1557
 4627SOL    HW225518   1.224   0.738  12.694  1.8212 -0.2410  0.4029
 4628SOL     OW25519   2.940   0.163   5.082 -0.0765 -0.3154 -0.0268
 4628SOL    HW125520   2.908   0.230   5.022  3.2292  1.5421  0.3132
 4628SOL    HW225521   2.985   0.113   5.014  0.1358  0.7329 -0.6615
 4629SOL     OW25522   1.574   0.888   8.415 -0.0613  0.7922 -0.2802
 4629SOL    HW125523   1.658   0.858   8.449 -0.0224  1.7658  0.4842
 4629SOL    HW225524   1.602   0.955   8.352 -1.5328  0.4278 -1.3303
 4630SOL     OW25525   0.434   1.078   0.340 -0.1286 -0.0552  0.2576
 4630SOL    HW125526   0.389   1.159   0.365  0.0902 -0.2647  1.3560
 4630SOL    HW225527   0.376   1.019   0.387  0.4651 -2.5917 -2.2169
 4631SOL     OW25528   0.090   2.160   0.405 -0.2436 -0.5007 -0.8867
 4631SOL    HW125529   0.065   2.072   0.377 -0.8613 -0.6518  0.1269
 4631SOL    HW225530   0.184   2.144   0.402  0.2528  1.8381  1.9313
 4632SOL     OW25531   3.118   4.324  14.707  0.2726 -0.6385  0.2079
 4632SOL    HW125532   3.031   4.324  14.746  0.1253 -0.6020 -0.1244
 4632SOL    HW225533   3.112   4.253  14.644 -0.6915 -0.0181 -0.3920
 4633SOL     OW25534   4.509   4.199   3.946  0.1705  0.1640  0.1223
 4633SOL    HW125535   4.429   4.250   3.929 -0.1286  0.3819  2.1642
 4633SOL    HW225536   4.497   4.191   4.041 -1.4057 -0.7781 -0.1569
 4634SOL     OW25537   1.123   3.760   1.257  0.3187  0.4509  0.3988
 4634SOL    HW125538   1.030   3.738   1.264  0.3085  0.0949 -0.7962
 4634SOL    HW225539   1.148   3.807   1.337  2.3032  0.0665  0.0219
 4635SOL     OW25540   0.614   2.158  15.533  0.3696  0.1388 -0.3747
 4635SOL    HW125541   0.611   2.083  15.475  0.0749 -0.0275 -0.1441
 4635SOL    HW225542   0.595   2.124  15.621 -0.4955 -0.5356 -0.8281
 4636SOL     OW25543   2.363   2.259   5.726 -0.0311 -0.6569 -0.4546
 4636SOL    HW125544   2.360   2.336   5.784 -0.4006 -0.1402 -1.1578
 4636SOL    HW225545   2.325   2.297   5.647  0.6520  1.8506  0.4022
 4637SOL     OW25546   1.760   0.039   1.324 -0.6284  0.5484  0.0737
 4637SOL    HW125547   1.704   0.012   1.396 -0.9800  0.3092 -0.2915
 4637SOL    HW225548   1.717   0.016   1.242  0.2989 -0.7682 -0.0411
 4638SOL     OW25549   2.047   0.027   7.654  0.0267 -0.7529  0.6045
 4638SOL    HW125550   2.063   4.679   7.696  0.8695 -0.8511  0.0925
 4638SOL    HW225551   1.955   0.030   7.625  0.4438  0.8397 -0.6128
 4639SOL     OW25552   1.640   0.809   7.536  0.0009 -0.3799 -0.0869
 4639SOL    HW125553   1.700   0.794   7.463 -0.0139 -3.1910  0.4696
 4639SOL    HW225554   1.600   0.722   7.545 -1.0696  0.2349  1.1530
 4640SOL     OW25555   0.742   1.034   4.261  0.1784  0.5922  0.1625
 4640SOL    HW125556   0.693   1.107   4.299 -1.2607 -0.4080  0.2355
 4640SOL    HW225557   0.820   1.018   4.313  1.5826  0.4350 -1.9932
 4641SOL     OW25558   3.888   2.900  15.892  0.4076 -0.1562 -0.4200
 4641SOL    HW125559   3.871   2.808  15.911 -1.3833  0.2856  0.0522
 4641SOL    HW225560   3.933   2.920  15.974 -2.9072  0.7580  1.1791
 4642SOL     OW25561   2.462   2.839  12.205  0.0287 -0.1186 -0.1446
 4642SOL    HW125562   2.467   2.762  12.261 -0.0377 -1.0012 -1.3567
 4642SOL    HW225563   2.548   2.821  12.168  0.3987  1.2257  0.0442
 4643SOL     OW25564   0.535   2.154   4.257  0.4106 -0.4606  0.0507
 4643SOL    HW125565   0.613   2.161   4.202 -2.8369  4.4365 -3.9180
 4643SOL    HW225566   0.562   2.195   4.339  1.8490 -1.7504  0.2298
 4644SOL     OW25567   1.157   3.845   6.783  0.1802  0.1645 -0.2808
 4644SOL    HW125568   1.097   3.897   6.837  1.2785  0.9687  0.1681
 4644SOL    HW225569   1.170   3.901   6.707  0.8181  1.2654  0.6303
 4645SOL     OW25570   3.255   0.604   4.648  0.1019  0.0752 -0.3045
 4645SOL    HW125571   3.167   0.620   4.615  0.8181  1.4921 -1.4638
 4645SOL    HW225572   3.283   0.525   4.601 -0.7448 -1.0759  1.1003
 4646SOL     OW25573   4.138   0.565  12.217  0.1139  0.1703 -0.5683
 4646SOL    HW125574   4.077   0.560  12.291 -0.0091 -2.4798 -0.8366
 4646SOL    HW225575   4.154   0.473  12.197  0.2445  1.0076 -4.2457
 4647SOL     OW25576   1.997   0.952   4.381 -0.3601 -0.1139 -0.3191
 4647SOL    HW125577   1.959   1.040   4.387  0.8716  0.1179  3.6301
 4647SOL    HW225578   2.049   0.931   4.458 -0.4365 -2.2088 -0.8335
 4648SOL     OW25579   2.196   4.140   4.243  0.3882  0.0374 -0.7404
 4648SOL    HW125580   2.164   4.061   4.285  4.0982  0.9492  3.7569
 4648SOL    HW225581   2.115   4.179   4.212  0.7879  2.2161  0.9580
 4649SOL     OW25582   0.081   2.781   3.544  0.6862 -0.1854 -0.5180
 4649SOL    HW125583   0.036   2.743   3.620  1.8005 -2.9308 -1.2510
 4649SOL    HW225584   0.107   2.699   3.502 -0.7856  1.3529 -4.4697
 4650SOL     OW25585   1.260   2.730   5.479  0.2804  0.1233 -0.0515
 4650SOL    HW125586   1.315   2.691   5.547  0.0422 -0.0988  0.0134
 4650SOL    HW225587   1.266   2.668   5.406 -1.1161  1.4676 -1.3312
 4651SOL     OW25588   0.361   3.938   9.132  0.2236  0.1669  0.4321
 4651SOL    HW125589   0.302   3.864   9.122  0.3219  0.0679  0.5806
 4651SOL    HW225590   0.437   3.910   9.080 -0.9227 -0.1369 -1.0742
 4652SOL     OW25591   1.888   4.481  14.729 -0.0571  0.0823  0.1188
 4652SOL    HW125592   1.875   4.450  14.639 -0.0272 -3.5502  1.3758
 4652SOL    HW225593   1.982   4.494  14.731  0.0808 -1.2116  1.6610
 4653SOL     OW25594   0.676   4.226   4.652 -0.0727 -0.3076  0.1643
 4653SOL    HW125595   0.609   4.239   4.584 -0.5228  1.6144  0.9681
 4653SOL    HW225596   0.643   4.310   4.686  2.9900  0.5494  0.9664
 4654SOL     OW25597   3.855   1.369  16.093  0.1141  0.1883  0.4032
 4654SOL    HW125598   3.909   1.343  16.018  0.6506 -1.2444  1.2717
 4654SOL    HW225599   3.884   1.302  16.155 -0.1159 -2.2974 -2.1500
 4655SOL     OW25600   1.944   2.185   6.977  0.4235 -0.0071  0.5898
 4655SOL    HW125601   2.009   2.185   7.048  1.1733 -1.0774 -0.0949
 4655SOL    HW225602   1.884   2.123   7.019  0.9399 -0.8914  0.0318
 4656SOL     OW25603   0.815   3.212   4.035 -0.2127 -0.2824  0.6751
 4656SOL    HW125604   0.724   3.241   4.029 -0.1358 -0.2069 -0.0358
 4656SOL    HW225605   0.869   3.292   4.034 -0.2372 -0.3477 -3.6006
 4657SOL     OW25606   1.832   0.980  11.586 -0.0596 -0.2889  0.1570
 4657SOL    HW125607   1.896   0.912  11.607  0.1405 -0.3160 -0.5301
 4657SOL    HW225608   1.876   1.034  11.520 -0.7255  2.9982  2.4571
 4658SOL     OW25609   1.802   3.418   9.062  0.0884 -0.4828  0.0358
 4658SOL    HW125610   1.870   3.466   9.015 -1.0536  1.4668  0.3980
 4658SOL    HW225611   1.771   3.482   9.126 -0.7949  0.2430 -1.1174
 4659SOL     OW25612   0.914   4.527   2.984 -0.0118 -0.7630 -0.4460
 4659SOL    HW125613   0.893   4.596   2.922  2.2133  0.0801 -0.2452
 4659SOL    HW225614   0.862   4.565   3.054 -2.4106 -2.0679 -1.5036
 4660SOL     OW25615   1.300   4.251   0.713 -0.6926  0.0529 -0.2955
 4660SOL    HW125616   1.259   4.313   0.653 -0.1864  1.9522  1.3042
 4660SOL    HW225617   1.378   4.298   0.743 -0.1379 -0.5546 -0.7958
 4661SOL     OW25618   1.664   4.284   5.458 -0.5590 -0.7258  0.1167
 4661SOL    HW125619   1.684   4.207   5.405 -0.7212 -2.8557  3.1792
 4661SOL    HW225620   1.569   4.273   5.464 -0.4599 -0.4360  2.4534
 4662SOL     OW25621   4.144   1.661   2.374  0.0948  0.6369 -0.1614
 4662SOL    HW125622   4.237   1.649   2.358  0.3435  0.4852  1.4377
 4662SOL    HW225623   4.113   1.675   2.284 -1.4486 -1.2217  0.0674
 4663SOL     OW25624   3.265   1.976   3.457 -0.3824  0.5452 -0.4492
 4663SOL    HW125625   3.189   2.004   3.508 -1.6141  1.4372 -2.7923
 4663SOL    HW225626   3.331   2.045   3.452 -0.6321  0.7905 -0.3156
 4664SOL     OW25627   4.701   0.362  12.982  0.1854 -0.1718 -0.0193
 4664SOL    HW125628   4.614   0.324  12.998 -0.3959  2.2283  2.3811
 4664SOL    HW225629   0.004   0.295  12.926 -0.7672 -1.3206  0.6787
 4665SOL     OW25630   0.814   2.172   8.895 -0.2188  0.2150 -0.0331
 4665SOL    HW125631   0.850   2.106   8.955 -0.2887 -1.4683 -1.8642
 4665SOL    HW225632   0.892   2.225   8.878 -0.4451  0.8369  0.8402
 4666SOL     OW25633   1.972   0.236   6.395 -0.1404  0.0757  0.0849
 4666SOL    HW125634   2.007   0.239   6.306  0.5020  0.6197  0.3552
 4666SOL    HW225635   1.951   0.328   6.404  0.0055  0.2238 -1.1019
 4667SOL     OW25636   3.392   4.056   5.544  0.1373  0.5403 -0.2392
 4667SOL    HW125637   3.464   3.993   5.549  0.1661  0.5684 -0.2954
 4667SOL    HW225638   3.356   4.047   5.632 -0.3276 -0.8270 -0.5586
 4668SOL     OW25639   4.409   4.038   7.940  0.0123 -0.1292  0.3609
 4668SOL    HW125640   4.344   4.108   7.936 -1.7980 -1.7337  1.3236
 4668SOL    HW225641   4.357   3.961   7.916 -1.2410 -0.0348  2.8012
 4669SOL     OW25642   1.931   0.004   3.032  0.2579  0.1457 -0.2298
 4669SOL    HW125643   1.886   0.004   2.948  3.1364  2.2801 -1.7613
 4669SOL    HW225644   1.924   0.097   3.054  4.3655  0.6713 -1.0435
 4670SOL     OW25645   2.518   4.290  15.100 -0.2186  0.1046  0.0224
 4670SOL    HW125646   2.502   4.195  15.095 -2.1720  0.4666 -0.6212
 4670SOL    HW225647   2.509   4.315  15.192  1.2869 -1.7692  0.6899
 4671SOL     OW25648   2.604   3.422   8.136 -0.1620 -0.9930 -0.3829
 4671SOL    HW125649   2.576   3.422   8.045  0.8245  0.6000 -0.6956
 4671SOL    HW225650   2.547   3.493   8.165  1.8128 -0.3453  1.9075
 4672SOL     OW25651   2.935   4.137   5.518  0.0543  0.2460  0.1423
 4672SOL    HW125652   2.954   4.054   5.562 -0.3560 -0.1971 -0.5059
 4672SOL    HW225653   2.864   4.110   5.459 -0.1816  0.3574  0.3803
 4673SOL     OW25654   2.624   3.022  11.007  0.8763  0.5317 -0.2161
 4673SOL    HW125655   2.707   3.005  10.963  1.3839 -0.2841  1.0537
 4673SOL    HW225656   2.578   2.938  11.003  1.9318 -0.1061  1.2112
 4674SOL     OW25657   4.300   3.540   7.445  0.1948 -0.1600  0.6397
 4674SOL    HW125658   4.312   3.552   7.539 -0.1028 -0.2496  0.6879
 4674SOL    HW225659   4.282   3.631   7.421 -0.5838  0.2094  2.6532
 4675SOL     OW25660   4.680   3.278   8.954  0.3951  0.1562 -0.0889
 4675SOL    HW125661   4.669   3.264   8.860 -1.3730  1.4363 -0.0774
 4675SOL    HW225662   4.618   3.350   8.968  1.4087  0.8683  0.7705
 4676SOL     OW25663   0.813   0.307   8.611  0.1061  0.2798 -0.4877
 4676SOL    HW125664   0.775   0.274   8.692  1.0693 -1.9253 -0.9448
 4676SOL    HW225665   0.742   0.360   8.575 -1.2513 -1.8440 -0.9280
 4677SOL     OW25666   3.052   3.403   5.861 -0.4407  0.4596  0.3307
 4677SOL    HW125667   2.967   3.390   5.903 -0.0929 -0.4271  0.7805
 4677SOL    HW225668   3.067   3.489   5.900 -1.7971  0.0478  1.7719
 4678SOL     OW25669   3.306   4.237  14.366  0.0367 -0.4041  0.0231
 4678SOL    HW125670   3.263   4.297  14.305  1.9545  0.6278 -0.3392
 4678SOL    HW225671   3.396   4.250  14.336  0.7010 -1.0558  1.6975
 4679SOL     OW25672   2.701   4.602  15.998 -0.2452 -0.3352  0.3961
 4679SOL    HW125673   2.770   4.569  15.940  0.1787  3.5326 -1.3039
 4679SOL    HW225674   2.639   4.528  15.999 -1.2958  0.5238 -2.0269
 4680SOL     OW25675   4.044   1.737   8.197  0.0428 -0.2023 -0.1949
 4680SOL    HW125676   4.019   1.681   8.270 -0.2976 -0.2404 -0.3371
 4680SOL    HW225677   4.137   1.732   8.216  0.2239  2.6990 -0.2759
 4681SOL     OW25678   2.156   1.322  10.681 -0.5637 -0.3690  0.2415
 4681SOL    HW125679   2.126   1.324  10.590 -2.0854 -1.9241  0.7229
 4681SOL    HW225680   2.247   1.291  10.679 -0.0319  1.2048 -0.7522
 4682SOL     OW25681   4.275   2.737   4.099  0.3877  0.2768 -0.5518
 4682SOL    HW125682   4.310   2.758   4.185  0.5977  0.5347 -0.7010
 4682SOL    HW225683   4.356   2.723   4.049 -0.9664 -1.7800 -2.1820
 4683SOL     OW25684   2.481   2.480  14.857  0.3816 -0.6185 -0.9867
 4683SOL    HW125685   2.546   2.530  14.906  1.1447 -0.2717 -2.3373
 4683SOL    HW225686   2.403   2.508  14.906  1.1863 -0.1172  0.0022
 4684SOL     OW25687   3.823   3.907   1.176 -0.0285 -0.4388 -0.0078
 4684SOL    HW125688   3.918   3.910   1.179 -0.0114 -1.8929  0.6886
 4684SOL    HW225689   3.811   3.865   1.091  1.3392  0.0555 -0.4437
 4685SOL     OW25690   1.657   4.333   8.130  0.0329  0.2289 -0.1027
 4685SOL    HW125691   1.571   4.360   8.096  0.3704  0.9177 -0.4175
 4685SOL    HW225692   1.692   4.421   8.144  0.0722  0.1497  0.2926
 4686SOL     OW25693   3.229   2.915   6.227  0.5053  0.2508 -0.2978
 4686SOL    HW125694   3.177   2.983   6.270 -1.3866 -1.9593  0.8682
 4686SOL    HW225695   3.307   2.965   6.200  0.8932  0.5361  1.3783
 4687SOL     OW25696   4.346   1.396   8.075  0.2130  0.0329  0.2912
 4687SOL    HW125697   4.277   1.404   8.141  0.8197  0.6758  0.8480
 4687SOL    HW225698   4.340   1.301   8.060  0.8764  0.1590 -0.7713
 4688SOL     OW25699   2.468   0.449  17.738  0.0063 -0.0749 -0.3751
 4688SOL    HW125700   2.506   0.438  17.651  2.3431  2.7880  0.2741
 4688SOL    HW225701   2.471   0.544   0.011  0.4921 -0.1340 -0.0951
 4689SOL     OW25702   4.709   1.670   2.839  0.1523  0.3399 -0.3982
 4689SOL    HW125703   4.638   1.691   2.778  1.3729  2.5952 -1.0298
 4689SOL    HW225704   4.661   1.608   2.893  1.5375  0.0180  0.4721
 4690SOL     OW25705   0.596   1.503   4.752  0.0675  0.5063 -0.1772
 4690SOL    HW125706   0.529   1.437   4.737  1.0858 -0.7450  0.8164
 4690SOL    HW225707   0.547   1.580   4.723  2.2636  1.6970 -0.7099
 4691SOL     OW25708   3.906   4.380   6.056 -0.2334 -0.4383  0.2140
 4691SOL    HW125709   3.831   4.436   6.035 -2.6748 -3.9523 -0.3031
 4691SOL    HW225710   3.974   4.442   6.029  0.0487 -0.9199 -0.1892
 4692SOL     OW25711   3.833   0.946   9.733 -0.2349  0.0518  0.4790
 4692SOL    HW125712   3.888   0.896   9.673  0.8544 -0.3653  1.8480
 4692SOL    HW225713   3.796   1.004   9.666 -1.3904  0.3031  1.3412
 4693SOL     OW25714   3.896   1.741   1.687 -0.0560 -0.3723  0.6555
 4693SOL    HW125715   3.974   1.796   1.683 -0.8495  0.7979  1.5148
 4693SOL    HW225716   3.845   1.812   1.647  0.3021 -1.1694 -1.1992
 4694SOL     OW25717   3.053   4.535   5.445 -0.0366 -0.6541  0.8345
 4694SOL    HW125718   3.007   4.497   5.520 -0.4166 -0.3009  0.7838
 4694SOL    HW225719   2.988   4.603   5.429  0.3624 -0.4692  0.0157
 4695SOL     OW25720   3.578   0.789   7.551  0.6445  0.3708  0.1821
 4695SOL    HW125721   3.628   0.738   7.615  0.5390 -0.0727 -0.0890
 4695SOL    HW225722   3.573   0.871   7.600 -1.4420 -0.7040  1.7783
 4696SOL     OW25723   2.827   1.522   5.706  0.2470  0.1066 -0.1113
 4696SOL    HW125724   2.793   1.589   5.766  0.2486 -0.8876  1.0018
 4696SOL    HW225725   2.918   1.525   5.734  0.2841 -0.0441 -0.2165
 4697SOL     OW25726   2.995   0.937  11.561 -0.2286  0.3854  0.1791
 4697SOL    HW125727   2.956   0.888  11.633  0.1532 -0.0705  0.0726
 4697SOL    HW225728   3.057   0.865  11.553 -0.7840 -0.1508  0.6599
 4698SOL     OW25729   1.454   4.302  10.561  0.7257  0.1103  0.5991
 4698SOL    HW125730   1.545   4.307  10.532  0.8910  3.7137  1.8439
 4698SOL    HW225731   1.461   4.369  10.628  0.1229  0.1568  0.6156
 4699SOL     OW25732   1.050   0.797  15.685  0.4264  0.4885  0.1163
 4699SOL    HW125733   1.129   0.850  15.671 -0.0727  0.8579 -1.2934
 4699SOL    HW225734   1.001   0.843  15.617  0.4419  1.8067  0.9872
 4700SOL     OW25735   0.709   1.815   3.751 -0.2823 -0.1501 -0.3595
 4700SOL    HW125736   0.704   1.776   3.663 -2.8239  1.4115 -0.8970
 4700SOL    HW225737   0.765   1.890   3.730 -3.0284  2.6603  2.4553
 4701SOL     OW25738   2.991   1.355  16.770  0.5202 -0.2302  0.4805
 4701SOL    HW125739   3.059   1.380  16.708  0.1011 -0.3925 -0.0384
 4701SOL    HW225740   2.914   1.339  16.716  0.5647  0.2075  0.2925
 4702SOL     OW25741   3.172   1.325   3.675  0.1843  0.1859 -0.3107
 4702SOL    HW125742   3.123   1.279   3.606 -0.9400  0.4545  0.2977
 4702SOL    HW225743   3.238   1.262   3.701  1.0413  0.7530 -1.1386
 4703SOL     OW25744   0.929   3.471   4.040  0.5077 -0.4346  0.3112
 4703SOL    HW125745   0.947   3.565   4.038  0.0257 -0.3496 -0.0341
 4703SOL    HW225746   0.936   3.460   3.945  0.5431  2.4240 -0.0344
 4704SOL     OW25747   0.996   2.083  11.934  0.4466  0.2482 -0.1122
 4704SOL    HW125748   0.914   2.121  11.901 -0.1843  0.3174  1.5084
 4704SOL    HW225749   1.059   2.154  11.944 -0.1289  0.7310  0.0908
 4705SOL     OW25750   1.009   3.181   7.943 -0.1314 -1.1650 -0.0162
 4705SOL    HW125751   1.036   3.185   8.035 -0.4161 -0.1284  0.0227
 4705SOL    HW225752   0.947   3.255   7.940  1.5809  0.3235  0.9126
 4706SOL     OW25753   3.929   0.013   9.610 -0.1414  0.0120 -0.5808
 4706SOL    HW125754   3.929   0.103   9.578 -2.2158  0.9144  1.9490
 4706SOL    HW225755   4.017   0.023   9.646 -0.3059 -1.0745  0.1179
 4707SOL     OW25756   0.724   3.639   8.132 -0.1663 -0.4714 -0.0356
 4707SOL    HW125757   0.673   3.714   8.163 -0.4350 -1.7627  2.6889
 4707SOL    HW225758   0.811   3.649   8.170  1.7394 -1.6161 -4.0915
 4708SOL     OW25759   2.737   0.685  14.923 -0.6248  0.3736 -0.3001
 4708SOL    HW125760   2.683   0.762  14.905 -0.6989  0.3594 -0.1435
 4708SOL    HW225761   2.810   0.697  14.863 -0.0155 -0.8069  0.2027
 4709SOL     OW25762   2.672   4.682   4.620  0.1179  0.2417 -0.2439
 4709SOL    HW125763   2.629   4.605   4.583 -0.7909  1.1092 -1.0177
 4709SOL    HW225764   2.606   4.706   4.685  0.3538 -1.4799  0.6459
 4710SOL     OW25765   3.132   0.998   4.785 -0.0781 -0.0253  1.2907
 4710SOL    HW125766   3.108   1.076   4.734  0.2403 -0.9000 -0.2023
 4710SOL    HW225767   3.215   1.019   4.828  1.7975  0.7485 -2.6653
 4711SOL     OW25768   1.173   0.630   5.538  1.0680  0.3151  0.1663
 4711SOL    HW125769   1.165   0.540   5.568  0.8931  0.2609 -0.0488
 4711SOL    HW225770   1.175   0.627   5.443  1.5494  1.2403  0.1454
 4712SOL     OW25771   2.597   1.567   5.563  0.3456 -0.4559 -0.1122
 4712SOL    HW125772   2.688   1.573   5.593  0.7580  0.0741 -1.4491
 4712SOL    HW225773   2.584   1.659   5.539 -2.1721 -1.2271 -1.7129
 4713SOL     OW25774   4.673   4.710   4.653 -0.1579 -0.8678 -0.3097
 4713SOL    HW125775   4.603   4.731   4.714  0.7952  1.4408  0.0139
 4713SOL    HW225776   4.704   0.056   4.613  0.3580 -0.3547  1.1459
 4714SOL     OW25777   4.386   4.587   4.982  0.7175  0.0160  0.3975
 4714SOL    HW125778   4.455   4.559   4.923  0.9284 -0.7729  1.0344
 4714SOL    HW225779   4.331   4.509   4.984  0.0162  0.5016  0.5484
 4715SOL     OW25780   0.412   3.427  11.553  0.2765 -0.3644 -0.1243
 4715SOL    HW125781   0.332   3.377  11.536  0.1571 -0.3393  0.3658
 4715SOL    HW225782   0.405   3.449  11.646  0.7445  1.7087 -0.5797
 4716SOL     OW25783   0.250   0.383   3.202 -0.3188  0.1239  0.0763
 4716SOL    HW125784   0.316   0.398   3.134  0.8807 -2.5025  0.6590
 4716SOL    HW225785   0.309   0.388   3.277 -0.5575 -1.0647  0.3461
 4717SOL     OW25786   3.050   2.349   5.677  0.0134 -0.0019 -0.1815
 4717SOL    HW125787   3.115   2.358   5.746  0.7266 -2.2502 -0.5500
 4717SOL    HW225788   3.076   2.263   5.642 -0.0153  0.3877 -1.1427
 4718SOL     OW25789   2.615   2.807   9.347  0.0268 -0.5958  0.3686
 4718SOL    HW125790   2.551   2.866   9.388 -0.1026 -0.8744  0.5690
 4718SOL    HW225791   2.617   2.750   9.423 -1.1467  1.1098  1.6659
 4719SOL     OW25792   1.423   4.587   8.389 -0.2315 -0.0717 -0.7770
 4719SOL    HW125793   1.383   4.570   8.304  1.1484 -3.1559 -0.8044
 4719SOL    HW225794   1.405   4.680   8.400  1.5243  0.3631 -1.5385
 4720SOL     OW25795   2.326   1.173   0.637 -0.5381 -0.3687 -0.1285
 4720SOL    HW125796   2.270   1.240   0.675  0.4679  0.1486  0.4516
 4720SOL    HW225797   2.318   1.116   0.714  2.9815  0.6702  1.0197
 4721SOL     OW25798   0.604   2.046   8.784 -0.1214 -0.9125  0.1630
 4721SOL    HW125799   0.640   2.135   8.789 -1.7298 -0.2273 -0.7427
 4721SOL    HW225800   0.594   2.008   8.872 -1.4573 -0.0730  0.3648
 4722SOL     OW25801   2.672   2.996   6.770  0.1869  0.0301  0.3845
 4722SOL    HW125802   2.660   2.904   6.792  0.4371  0.0348  0.5493
 4722SOL    HW225803   2.612   3.011   6.697 -0.6560 -1.0457  0.8701
 4723SOL     OW25804   2.504   1.994  14.290  0.3310  0.0744 -0.3389
 4723SOL    HW125805   2.519   2.088  14.287  2.9316 -0.3063  0.5901
 4723SOL    HW225806   2.418   1.996  14.331 -0.2753  0.1076 -1.6338
 4724SOL     OW25807   3.338   4.456   8.201 -0.1986 -0.0877  0.1761
 4724SOL    HW125808   3.285   4.379   8.222  0.3123 -0.3849  0.3619
 4724SOL    HW225809   3.271   4.524   8.194  0.3145  0.3343 -0.5245
 4725SOL     OW25810   1.719   2.142   6.602 -0.6017  0.0457  0.0514
 4725SOL    HW125811   1.688   2.052   6.596  0.1592 -0.1737 -0.6423
 4725SOL    HW225812   1.639   2.194   6.591  0.0307  1.1715  0.7857
 4726SOL     OW25813   1.663   0.650  12.162 -0.4098  0.1658  0.4529
 4726SOL    HW125814   1.725   0.670  12.091  0.5225 -0.8450  0.9856
 4726SOL    HW225815   1.585   0.631  12.110  0.8534 -0.9693 -1.0414
 4727SOL     OW25816   4.517   0.642   2.017  0.4065 -0.1758 -0.1592
 4727SOL    HW125817   4.605   0.608   2.005  0.1081 -1.2054  0.5827
 4727SOL    HW225818   4.499   0.663   1.926  0.6349 -0.5238 -0.2834
 4728SOL     OW25819   2.152   1.340   7.377 -0.5066  0.5921  0.1175
 4728SOL    HW125820   2.216   1.380   7.318 -1.5557  1.5405 -0.3943
 4728SOL    HW225821   2.202   1.338   7.458  0.9494  2.3136 -0.7289
 4729SOL     OW25822   3.952   1.707   3.110 -0.0035  0.0582  0.2206
 4729SOL    HW125823   3.915   1.795   3.107  1.2782  0.6127  0.5061
 4729SOL    HW225824   4.013   1.712   3.184  1.4089  0.2641 -0.9417
 4730SOL     OW25825   4.175   4.036  17.328 -0.4834 -0.6470  0.1388
 4730SOL    HW125826   4.217   4.033  17.242 -1.2032  1.7469 -0.2967
 4730SOL    HW225827   4.139   4.125  17.326  1.5596  0.1942  1.4850
 4731SOL     OW25828   0.944   1.118   9.289 -0.1026  0.3963  0.1111
 4731SOL    HW125829   0.981   1.043   9.243  0.5982  1.9445 -1.8377
 4731SOL    HW225830   0.883   1.144   9.219  0.0009 -1.0790 -0.5110
 4732SOL     OW25831   0.750   0.083   7.927 -0.3318  0.5716 -0.4021
 4732SOL    HW125832   0.727   0.174   7.910 -1.0888  0.4983  0.2387
 4732SOL    HW225833   0.734   0.049   7.838 -1.3795  0.6605 -0.2408
 4733SOL     OW25834   2.719   2.902   6.086  0.4013 -0.1260  0.4926
 4733SOL    HW125835   2.699   2.919   6.178  0.6260 -1.3220  0.7698
 4733SOL    HW225836   2.752   2.812   6.080 -1.0716 -0.6693  0.4908
 4734SOL     OW25837   2.983   0.451  17.573  0.0614  0.1445  0.0974
 4734SOL    HW125838   2.939   0.481  17.653 -0.9856  0.0746 -0.4641
 4734SOL    HW225839   2.952   0.510  17.505 -1.8699 -0.6447  0.2904
 4735SOL     OW25840   3.893   4.313   4.000 -0.4693  0.1116 -0.3317
 4735SOL    HW125841   3.825   4.363   3.956 -0.0023  0.7934 -0.2785
 4735SOL    HW225842   3.898   4.245   3.933  1.7966  0.2330 -0.2739
 4736SOL     OW25843   0.896   3.040   6.503 -0.5425  0.1777  0.2415
 4736SOL    HW125844   0.831   3.071   6.565 -1.5026 -1.7708  0.1973
 4736SOL    HW225845   0.846   2.994   6.436  0.4892  0.1685 -0.5352
 4737SOL     OW25846   0.151   3.599   3.932 -0.8186 -0.0705  0.6684
 4737SOL    HW125847   0.158   3.552   4.015 -0.8617 -0.9450  0.1814
 4737SOL    HW225848   0.073   3.653   3.943 -0.8666 -0.3743  1.8401
 4738SOL     OW25849   2.741   2.749   9.009  0.0523  0.2998  0.7969
 4738SOL    HW125850   2.781   2.834   8.989 -0.1957  0.3678  0.5957
 4738SOL    HW225851   2.761   2.732   9.101  1.6827  0.3328  0.4399
 4739SOL     OW25852   3.002   2.467   8.183 -0.2988 -0.0490 -0.2396
 4739SOL    HW125853   2.972   2.557   8.179 -1.0658 -0.2898  0.0612
 4739SOL    HW225854   3.093   2.475   8.156 -0.9198  1.3530 -1.8798
 4740SOL     OW25855   2.495   0.893   5.741 -0.2139  0.1875 -0.1279
 4740SOL    HW125856   2.570   0.866   5.794 -0.0097  1.3696  0.1759
 4740SOL    HW225857   2.496   0.831   5.668 -2.0835 -1.0875  0.9321
 4741SOL     OW25858   1.911   1.197  15.761  0.0001 -0.1764 -0.3864
 4741SOL    HW125859   1.916   1.104  15.738 -0.2001 -0.1216 -0.6347
 4741SOL    HW225860   1.966   1.241  15.697  1.4358 -1.0814  0.2063
 4742SOL     OW25861   3.335   4.528   2.360 -0.2298  0.0239 -0.1664
 4742SOL    HW125862   3.340   4.500   2.451  1.9818 -1.1593 -0.6414
 4742SOL    HW225863   3.403   4.595   2.371 -0.9765  1.2551 -3.1568
 4743SOL     OW25864   2.512   2.985  14.069  0.9518  0.4311  0.5135
 4743SOL    HW125865   2.459   3.042  14.013  2.5715  1.4642  0.0519
 4743SOL    HW225866   2.448   2.961  14.136  0.2491 -1.9523 -0.9650
 4744SOL     OW25867   1.018   3.641  11.217 -0.2488  0.1510  0.4306
 4744SOL    HW125868   1.066   3.686  11.148 -0.8066 -0.2593 -0.2267
 4744SOL    HW225869   1.015   3.555  11.174 -0.5352 -0.3621  1.4819
 4745SOL     OW25870   3.846   1.495   6.185  0.4061  0.0068  0.8213
 4745SOL    HW125871   3.941   1.484   6.185  0.1769 -1.9330 -0.5377
 4745SOL    HW225872   3.816   1.406   6.168 -1.4020  0.6728  0.4986
 4746SOL     OW25873   2.767   4.220   1.301 -0.2854 -0.2216 -0.1360
 4746SOL    HW125874   2.701   4.159   1.269 -1.1309  1.6006 -1.8718
 4746SOL    HW225875   2.759   4.205   1.395 -1.2504 -0.2159 -0.2253
 4747SOL     OW25876   1.210   1.304   4.803  0.2212 -0.4781 -0.4782
 4747SOL    HW125877   1.179   1.374   4.745  2.9554  0.5780 -0.6528
 4747SOL    HW225878   1.127   1.262   4.828  0.2674 -1.0165 -1.2515
 4748SOL     OW25879   4.090   2.688   1.556 -0.8561 -0.1631 -0.1582
 4748SOL    HW125880   4.172   2.717   1.516  0.3736 -2.6257  0.5581
 4748SOL    HW225881   4.084   2.728   1.643 -0.1560  0.0788 -0.2205
 4749SOL     OW25882   2.820   3.347  14.857 -0.7688 -0.2135 -0.5861
 4749SOL    HW125883   2.813   3.352  14.952 -0.0717 -2.3654 -0.4204
 4749SOL    HW225884   2.755   3.414  14.835 -0.9909 -0.8363 -1.8595
 4750SOL     OW25885   3.798   0.581   0.946 -0.0297 -0.3432 -0.2837
 4750SOL    HW125886   3.718   0.543   0.909 -1.1157 -0.0916  1.8367
 4750SOL    HW225887   3.774   0.674   0.947  0.4775 -0.2577  2.1041
 4751SOL     OW25888   1.140   2.845   4.950  0.3080  0.1981  0.3399
 4751SOL    HW125889   1.056   2.800   4.938  0.1753  1.2231 -2.5453
 4751SOL    HW225890   1.143   2.910   4.880  0.1621 -0.9491 -0.7450
 4752SOL     OW25891   4.234   4.053  13.204  0.0181  0.0099  0.5055
 4752SOL    HW125892   4.324   4.028  13.227 -0.3987  0.4007  2.5646
 4752SOL    HW225893   4.255   4.145  13.186 -1.7783  0.0375 -1.3844
 4753SOL     OW25894   2.966   1.030   3.816 -0.0844  0.1879 -0.4058
 4753SOL    HW125895   2.942   1.092   3.885  1.6670 -1.3767  1.6348
 4753SOL    HW225896   2.999   0.958   3.870  3.6909 -0.7671 -3.9550
 4754SOL     OW25897   0.845   0.098   4.300 -0.2876  0.3979 -0.6145
 4754SOL    HW125898   0.911   0.165   4.280  1.0031 -0.4413  0.7868
 4754SOL    HW225899   0.902   0.021   4.300  0.8444  1.2265 -3.5735
 4755SOL     OW25900   2.533   1.624   3.692  0.1159 -0.1595 -0.6262
 4755SOL    HW125901   2.574   1.688   3.749  0.2479  0.5602 -1.5285
 4755SOL    HW225902   2.550   1.673   3.611 -0.4226  1.1227  0.0425
 4756SOL     OW25903   1.124   2.224   1.217  0.0809  0.3411 -1.0860
 4756SOL    HW125904   1.046   2.279   1.224  0.7867  1.2422 -0.3563
 4756SOL    HW225905   1.098   2.140   1.253  1.6542 -1.2787 -3.7101
 4757SOL     OW25906   3.657   4.306   4.491  0.1583  0.5458 -0.6100
 4757SOL    HW125907   3.740   4.320   4.447  1.5580 -1.2888  1.4754
 4757SOL    HW225908   3.623   4.248   4.423 -1.7480 -0.0442  0.8310
 4758SOL     OW25909   0.090   3.345   7.798 -0.0736  0.3282 -0.3737
 4758SOL    HW125910   0.148   3.375   7.867 -0.5905 -1.7111  0.9437
 4758SOL    HW225911   0.148   3.282   7.755  0.1287  0.7988 -0.7877
 4759SOL     OW25912   2.061   0.577  16.923  0.4722 -0.2229 -0.5599
 4759SOL    HW125913   1.996   0.522  16.965 -1.1129  1.4773 -0.8026
 4759SOL    HW225914   2.141   0.564  16.975  0.5476  1.3120 -0.2917
 4760SOL     OW25915   2.551   2.392   6.737 -0.3285  0.1523 -0.3024
 4760SOL    HW125916   2.601   2.432   6.666 -0.4151  0.5805 -0.1247
 4760SOL    HW225917   2.473   2.446   6.722  0.8838  1.6859 -1.1142
 4761SOL     OW25918   1.615   0.048   6.491 -0.1333  0.1919  0.2266
 4761SOL    HW125919   1.703   0.010   6.495  0.5888  1.8800  0.1402
 4761SOL    HW225920   1.624   0.112   6.560  0.8921  1.1668 -0.8219
 4762SOL     OW25921   2.101   0.915  15.475  0.2002  0.3386  0.1214
 4762SOL    HW125922   2.040   0.947  15.541  1.2479 -0.4810  1.4955
 4762SOL    HW225923   2.070   0.825  15.462  2.2350 -0.3758  0.2178
 4763SOL     OW25924   1.727   0.093   8.973 -0.7272 -0.3416 -1.0708
 4763SOL    HW125925   1.774   0.166   9.012 -1.8989 -0.5317  0.7289
 4763SOL    HW225926   1.782   0.023   9.010  2.4089  2.0732 -1.2329
 4764SOL     OW25927   4.455   4.473  15.376 -0.1829  0.6701 -0.5234
 4764SOL    HW125928   4.421   4.456  15.464  1.8867  2.1006  0.5485
 4764SOL    HW225929   4.473   4.383  15.347  1.1764  1.5197 -2.2377
 4765SOL     OW25930   0.535   4.723   3.054  0.7362  0.4565  0.2261
 4765SOL    HW125931   0.503   4.637   3.028  0.9752 -0.4593  2.8629
 4765SOL    HW225932   0.463   0.035   3.095 -0.2131 -0.2345 -0.6795
 4766SOL     OW25933   1.600   3.663  11.135 -0.4573 -0.5180 -0.3574
 4766SOL    HW125934   1.624   3.655  11.042  1.8469  2.0284  0.0073
 4766SOL    HW225935   1.612   3.573  11.164  1.1382 -0.6862 -1.5248
 4767SOL     OW25936   0.118   0.010   6.754 -0.1588 -0.1676 -0.3352
 4767SOL    HW125937   0.030   4.707   6.754 -0.4561  0.5117  1.6618
 4767SOL    HW225938   0.165   4.662   6.764 -2.4826 -1.0413  3.4217
 4768SOL     OW25939   1.319   0.215   6.571  0.2326 -0.1040 -0.4777
 4768SOL    HW125940   1.309   0.248   6.482 -1.7765  0.1210 -0.1513
 4768SOL    HW225941   1.260   0.141   6.576 -0.5122  0.5335  0.1585
 4769SOL     OW25942   3.136   1.044   2.358  0.4747  0.0398  0.1505
 4769SOL    HW125943   3.058   1.052   2.412 -0.4841  0.7018 -1.3347
 4769SOL    HW225944   3.211   1.080   2.406 -0.6795  2.2469  0.2542
 4770SOL     OW25945   2.195   3.860   5.782 -0.1049 -0.4325  0.1403
 4770SOL    HW125946   2.276   3.876   5.830 -0.1786 -1.6445  0.6883
 4770SOL    HW225947   2.132   3.839   5.851  1.1518  0.7724  1.6641
 4771SOL     OW25948   1.217   4.353  10.436 -0.1971  0.5892  0.2294
 4771SOL    HW125949   1.294   4.316  10.480  0.5332  1.9366  0.0720
 4771SOL    HW225950   1.182   4.409  10.505 -1.7770  2.2259 -1.9302
 4772SOL     OW25951   1.336   0.056   0.843  0.2103 -0.5090 -0.0664
 4772SOL    HW125952   1.396   0.128   0.861  0.7566 -0.9404 -0.1667
 4772SOL    HW225953   1.271   0.099   0.787 -0.4816  2.9258  3.4441
 4773SOL     OW25954   4.597   1.018   6.827 -0.3710 -0.4642  0.2096
 4773SOL    HW125955   4.637   0.943   6.870 -0.7358 -2.0071 -2.1809
 4773SOL    HW225956   4.592   1.088   6.892  0.3735  2.1127 -2.4889
 4774SOL     OW25957   3.081   2.694  14.642  0.1411 -0.1211  0.1130
 4774SOL    HW125958   3.011   2.758  14.657  0.9716  0.1414  2.8011
 4774SOL    HW225959   3.154   2.743  14.604  0.9008 -1.2840  0.0662
 4775SOL     OW25960   2.479   3.789   4.813  0.1801  0.4525 -0.2444
 4775SOL    HW125961   2.474   3.782   4.908  0.1987 -1.4996 -0.3937
 4775SOL    HW225962   2.503   3.882   4.804 -0.3461  0.5840 -0.2708
 4776SOL     OW25963   0.036   2.993   0.709  0.1026  0.1342  0.3191
 4776SOL    HW125964   0.088   3.056   0.659 -2.4732  1.4636 -0.6443
 4776SOL    HW225965   0.089   2.915   0.695  3.7738  2.8301 -0.8451
 4777SOL     OW25966   4.454   4.250   9.426  0.2000  0.0293 -0.1511
 4777SOL    HW125967   4.540   4.261   9.467 -0.8954  0.1165  2.1044
 4777SOL    HW225968   4.440   4.340   9.400 -1.7139 -0.6175 -1.3211
 4778SOL     OW25969   2.955   0.077  10.616  0.1005  0.5953 -0.0136
 4778SOL    HW125970   2.872   0.043  10.651 -0.5051  1.6112 -0.4771
 4778SOL    HW225971   3.002   0.115  10.690 -0.7968  1.5104  0.0881
 4779SOL     OW25972   1.658   0.910   1.005 -0.2741 -0.5593 -0.2896
 4779SOL    HW125973   1.684   0.918   0.913 -0.7392 -2.7240 -0.6168
 4779SOL    HW225974   1.615   0.995   1.017 -1.9395 -1.0334 -2.8905
 4780SOL     OW25975   3.086   0.810   9.094  0.0514  0.0556  0.3625
 4780SOL    HW125976   3.154   0.829   9.159 -1.7738  0.1223  2.2669
 4780SOL    HW225977   3.012   0.859   9.130  0.1451  0.2908  0.2355
 4781SOL     OW25978   4.158   0.942   3.592  0.4313  0.1738 -0.3461
 4781SOL    HW125979   4.239   0.913   3.551 -0.9855 -0.9060 -2.4146
 4781SOL    HW225980   4.178   1.036   3.594  2.1257 -0.1483 -1.6245
 4782SOL     OW25981   0.199   1.890  12.518 -0.1873  0.8903 -0.3891
 4782SOL    HW125982   0.197   1.961  12.583 -0.1286 -0.4752  1.0986
 4782SOL    HW225983   0.286   1.911  12.486  0.2018  2.1005  1.4450
 4783SOL     OW25984   1.565   3.091  11.346  0.0904  0.1242 -0.5855
 4783SOL    HW125985   1.507   3.108  11.421 -1.6635 -0.1840 -1.8579
 4783SOL    HW225986   1.525   3.156  11.287  1.1895  0.2895 -1.1414
 4784SOL     OW25987   3.010   0.823   4.443 -0.4440 -0.4047  0.0141
 4784SOL    HW125988   3.029   0.735   4.475  0.6104  0.1828  0.9933
 4784SOL    HW225989   2.946   0.840   4.512 -0.2674  0.7444 -0.1010
 4785SOL     OW25990   3.497   2.056   5.686  0.0505 -0.4400  0.5018
 4785SOL    HW125991   3.536   2.047   5.773 -0.3657  0.7299  0.7995
 4785SOL    HW225992   3.531   2.137   5.649 -0.8325 -0.0380  0.5609
 4786SOL     OW25993   0.438   3.956   2.660 -0.0104 -0.6632  0.2368
 4786SOL    HW125994   0.448   3.960   2.565  1.0433 -0.4467  0.3602
 4786SOL    HW225995   0.368   3.892   2.672 -0.6829 -0.7174 -3.7796
 4787SOL     OW25996   1.424   1.956   7.231  0.0722 -0.2239 -0.6359
 4787SOL    HW125997   1.369   1.901   7.175 -1.9229  0.4722  0.6591
 4787SOL    HW225998   1.473   2.014   7.172  0.3592 -0.0648 -0.2360
 4788SOL     OW25999   4.167   1.945   4.061 -0.0570 -0.2784  0.2406
 4788SOL    HW126000   4.095   2.008   4.058  1.5656  1.5018 -1.2546
 4788SOL    HW226001   4.135   1.865   4.104 -1.1183 -0.9983 -1.9328
 4789SOL     OW26002   3.903   3.419  11.099  0.0303  0.3219  0.0119
 4789SOL    HW126003   3.881   3.461  11.015 -1.1708  0.0873  0.2029
 4789SOL    HW226004   3.973   3.355  11.085 -1.0125 -1.0658  1.2004
 4790SOL     OW26005   2.862   1.971   7.401 -0.4180  0.3934  0.3448
 4790SOL    HW126006   2.852   2.041   7.465 -2.5409  0.2080  0.2113
 4790SOL    HW226007   2.940   2.001   7.354  0.4939 -0.6519  1.1874
 4791SOL     OW26008   0.729   1.456   8.318 -0.5728 -0.4587  0.6182
 4791SOL    HW126009   0.744   1.376   8.267 -0.2766 -0.7597  1.1774
 4791SOL    HW226010   0.819   1.486   8.322  0.0424 -2.4305  1.5863
 4792SOL     OW26011   0.595   1.361   1.455 -0.6682  0.2203  0.6870
 4792SOL    HW126012   0.540   1.338   1.381  0.1911  0.8727 -0.1547
 4792SOL    HW226013   0.547   1.321   1.528  0.1787 -4.5190 -1.3796
 4793SOL     OW26014   4.517   3.144   8.448 -0.3785 -0.4781 -0.1387
 4793SOL    HW126015   4.475   3.076   8.500  0.2198  0.4827  1.6063
 4793SOL    HW226016   4.606   3.115   8.470 -0.6855 -2.8862 -2.1573
 4794SOL     OW26017   0.401   1.549   1.716 -0.2454 -0.2054 -0.1942
 4794SOL    HW126018   0.423   1.633   1.757  0.0655 -0.9218  1.1105
 4794SOL    HW226019   0.486   1.532   1.674 -1.5397 -3.1766 -1.5715
 4795SOL     OW26020   4.091   1.744   4.647 -0.8084 -0.4539 -0.5152
 4795SOL    HW126021   4.071   1.653   4.670 -1.4706 -0.2504 -0.2832
 4795SOL    HW226022   4.184   1.747   4.668 -0.7691 -1.4377 -0.5262
 4796SOL     OW26023   1.059   3.421  10.461 -0.2603 -0.3115 -0.2965
 4796SOL    HW126024   1.143   3.379  10.444 -0.0162 -0.2556  0.7703
 4796SOL    HW226025   1.061   3.420  10.557  2.7294  0.1738 -0.3750
 4797SOL     OW26026   0.186   0.523   7.252  0.5601 -0.2649  0.0035
 4797SOL    HW126027   0.114   0.480   7.207 -0.7173  0.5538  1.2946
 4797SOL    HW226028   0.234   0.566   7.180  0.1985  0.7290  0.3521
 4798SOL     OW26029   3.423   0.436   6.419  0.0460  0.4030 -0.0311
 4798SOL    HW126030   3.339   0.464   6.382  0.8587  2.0138 -0.6431
 4798SOL    HW226031   3.403   0.365   6.480  1.4747  0.5665  0.6262
 4799SOL     OW26032   4.526   1.351   9.515 -0.2382  0.3674 -0.0029
 4799SOL    HW126033   4.593   1.419   9.520 -0.5987  0.7699 -0.5657
 4799SOL    HW226034   4.560   1.304   9.439  0.1119 -0.0408  0.4100
 4800SOL     OW26035   4.019   3.417  16.926  0.2122 -0.8953 -0.2225
 4800SOL    HW126036   3.988   3.332  16.897  0.2054 -0.5475 -1.2397
 4800SOL    HW226037   4.046   3.447  16.839 -1.7908 -0.4312 -0.6856
 4801SOL     OW26038   1.788   0.353   1.698  0.6238  0.6961 -0.8981
 4801SOL    HW126039   1.798   0.269   1.743 -0.5346  0.1562 -1.6474
 4801SOL    HW226040   1.876   0.389   1.709  0.8142 -0.6386  1.8720
 4802SOL     OW26041   0.470   2.963   6.528 -0.1460 -0.0880 -0.6822
 4802SOL    HW126042   0.533   2.998   6.592 -1.9617 -0.7650  1.4519
 4802SOL    HW226043   0.441   3.043   6.483 -2.1354 -1.2122 -1.4028
 4803SOL     OW26044   0.765   4.462   0.912  0.2985 -0.1890 -0.1528
 4803SOL    HW126045   0.848   4.490   0.873  0.2264 -2.7272 -2.1628
 4803SOL    HW226046   0.805   4.411   0.983  1.1494  0.1612 -0.3834
 4804SOL     OW26047   0.933   1.360  11.149  0.7294 -0.7357  0.6837
 4804SOL    HW126048   1.011   1.414  11.162  2.3782 -3.0534  0.4214
 4804SOL    HW226049   0.869   1.427  11.174 -0.3619 -1.5874  0.1480
 4805SOL     OW26050   4.462   0.442   8.284 -0.0875  0.0375 -0.1781
 4805SOL    HW126051   4.435   0.350   8.293  0.9319 -0.4980 -2.5187
 4805SOL    HW226052   4.477   0.466   8.376  0.8575 -0.8157 -0.1082
 4806SOL     OW26053   0.816   1.122   6.543  0.4026 -0.1075  0.1739
 4806SOL    HW126054   0.807   1.198   6.600  0.2400 -0.5753  0.7700
 4806SOL    HW226055   0.784   1.154   6.459 -0.0517 -3.0918 -0.7812
 4807SOL     OW26056   1.397   3.774   7.735  0.0178 -0.9916 -0.7191
 4807SOL    HW126057   1.324   3.754   7.794  0.4397  0.8513  0.4308
 4807SOL    HW226058   1.409   3.867   7.752  3.0445 -1.5079 -0.1341
 4808SOL     OW26059   0.648   3.018   3.758 -0.4117  0.2280  0.4358
 4808SOL    HW126060   0.619   2.959   3.688  1.1965  0.5214 -0.4878
 4808SOL    HW226061   0.574   3.034   3.816 -0.4807 -1.8583  0.9064
 4809SOL     OW26062   1.809   2.521   1.945  0.0072  0.6965  0.1647
 4809SOL    HW126063   1.846   2.553   1.862 -1.8622  1.2194 -0.4710
 4809SOL    HW226064   1.785   2.607   1.978  0.6859  0.6706  0.7188
 4810SOL     OW26065   1.856   2.731   7.207  0.3317  0.8939  0.4328
 4810SOL    HW126066   1.770   2.743   7.167 -0.1082 -1.9682  0.5300
 4810SOL    HW226067   1.913   2.792   7.161  0.7344 -0.7479 -1.2393
 4811SOL     OW26068   2.589   2.363   8.148  0.6969  0.1344 -0.2978
 4811SOL    HW126069   2.507   2.404   8.122 -0.3737 -1.0998  1.1555
 4811SOL    HW226070   2.624   2.342   8.061 -1.3435 -1.0664 -0.8236
 4812SOL     OW26071   1.158   0.686   1.655 -0.1237  0.8081  0.5749
 4812SOL    HW126072   1.214   0.757   1.625  0.3356 -0.1868 -0.9149
 4812SOL    HW226073   1.163   0.626   1.580  2.2879  2.8575 -0.8660
 4813SOL     OW26074   2.097   3.622   7.653 -0.6815  0.1500 -0.0458
 4813SOL    HW126075   2.008   3.591   7.636 -0.6775 -0.3551  0.8433
 4813SOL    HW226076   2.128   3.624   7.562 -1.4779 -0.7828 -0.3396
 4814SOL     OW26077   2.092   2.691   4.012  0.8099 -0.1625 -0.4762
 4814SOL    HW126078   2.091   2.774   4.060  1.0730 -0.5999  0.2666
 4814SOL    HW226079   2.163   2.651   4.061  0.4583 -1.0511 -0.7023
 4815SOL     OW26080   1.115   3.291  15.004  0.5338 -0.1740 -0.3653
 4815SOL    HW126081   1.103   3.256  15.093 -0.9707  1.9249  0.2470
 4815SOL    HW226082   1.163   3.368  15.036 -0.1417  0.0052  0.2064
 4816SOL     OW26083   0.623   3.581   3.957  0.0542 -0.1175  0.0436
 4816SOL    HW126084   0.580   3.498   3.937  0.3210 -0.5647  1.3266
 4816SOL    HW226085   0.690   3.564   4.023  0.8622 -2.0948 -1.3012
 4817SOL     OW26086   2.276   1.702   6.824  0.3109 -0.2651 -0.1387
 4817SOL    HW126087   2.348   1.720   6.763 -0.9488 -1.5497 -2.0032
 4817SOL    HW226088   2.240   1.791   6.831 -2.0131 -1.0740 -1.8895
 4818SOL     OW26089   3.690   2.298   2.552 -0.9034 -0.5248  0.1750
 4818SOL    HW126090   3.694   2.204   2.534 -0.5097 -0.7062  1.2124
 4818SOL    HW226091   3.779   2.315   2.583 -1.0401  0.2035  0.1704
 4819SOL     OW26092   0.758   3.850   4.465 -0.2248  0.5142  0.0717
 4819SOL    HW126093   0.833   3.909   4.451  0.0104  0.6991  2.0776
 4819SOL    HW226094   0.730   3.835   4.375 -3.2488  2.3697  0.7296
 4820SOL     OW26095   1.024   2.855   8.228 -0.2185 -0.4222 -0.6162
 4820SOL    HW126096   1.107   2.854   8.275 -0.4510 -0.0010 -0.1969
 4820SOL    HW226097   0.985   2.933   8.265 -0.7200 -0.9411 -0.0475
 4821SOL     OW26098   3.718   2.395  14.082  0.3453 -0.2159  0.1803
 4821SOL    HW126099   3.720   2.447  14.002 -0.0043 -3.5469 -1.9880
 4821SOL    HW226100   3.704   2.306  14.048  1.2935  1.5843 -4.9464
 4822SOL     OW26101   2.104   3.312   6.609 -0.6978 -0.1206  0.0028
 4822SOL    HW126102   2.125   3.405   6.602 -0.4636 -0.1555  0.2334
 4822SOL    HW226103   2.014   3.310   6.642 -0.8539  0.0913 -0.4232
 4823SOL     OW26104   4.601   1.179   2.825  0.0357 -0.1146 -0.4573
 4823SOL    HW126105   4.560   1.233   2.758  0.0323 -0.1057 -0.4480
 4823SOL    HW226106   4.560   1.098   2.794 -1.2391 -0.0170  1.0236
 4824SOL     OW26107   0.732   2.904  15.206 -0.0999 -0.3249 -0.2536
 4824SOL    HW126108   0.740   2.981  15.262  0.4804 -0.8585  0.3896
 4824SOL    HW226109   0.805   2.922  15.147  0.0076 -1.3757 -0.4446
 4825SOL     OW26110   2.554   3.781   1.576 -0.2692 -0.0375 -0.1281
 4825SOL    HW126111   2.581   3.761   1.666  0.4943 -2.1426 -0.8237
 4825SOL    HW226112   2.585   3.705   1.527 -0.2314  1.2342 -2.0672
 4826SOL     OW26113   4.555   0.330   6.644  0.3762  0.2056  0.1469
 4826SOL    HW126114   4.507   0.293   6.570 -1.4585 -0.7473  1.8074
 4826SOL    HW226115   4.508   0.306   6.724 -1.2062 -1.9773 -1.4371
 4827SOL     OW26116   0.558   0.791   4.148  0.2887  0.2498 -0.4462
 4827SOL    HW126117   0.522   0.810   4.235 -1.5272 -2.4122 -0.6090
 4827SOL    HW226118   0.532   0.875   4.111 -2.8398 -0.9950 -1.0678
 4828SOL     OW26119   3.916   3.645   8.204 -0.2496  0.2490 -0.4690
 4828SOL    HW126120   3.951   3.718   8.255  0.3063 -0.1252 -0.3081
 4828SOL    HW226121   3.881   3.592   8.276  1.4564 -2.6500 -1.7840
 4829SOL     OW26122   3.664   0.296   3.971 -0.4710 -0.0893  0.3756
 4829SOL    HW126123   3.648   0.329   3.883  2.0462  0.3168  0.0704
 4829SOL    HW226124   3.595   0.231   3.986 -1.2796  0.7546  0.3525
 4830SOL     OW26125   4.229   0.636   6.899  0.0907  0.1020 -0.3943
 4830SOL    HW126126   4.237   0.707   6.835  0.8562 -1.6457 -2.2573
 4830SOL    HW226127   4.282   0.669   6.972  0.6790  3.2493 -2.2677
 4831SOL     OW26128   2.785   2.550  10.666  0.5985  0.5810 -0.4945
 4831SOL    HW126129   2.853   2.615  10.645 -0.0701  1.2013 -0.7545
 4831SOL    HW226130   2.709   2.602  10.693 -0.0464  0.2786 -1.6985
 4832SOL     OW26131   1.072   0.766   8.724 -0.0889 -0.1946 -0.1039
 4832SOL    HW126132   1.136   0.718   8.776 -1.2559 -2.2039 -0.5307
 4832SOL    HW226133   1.117   0.752   8.641 -0.7738 -1.0174 -0.3338
 4833SOL     OW26134   1.468   2.849  15.720 -0.5686 -0.6493 -0.1145
 4833SOL    HW126135   1.535   2.873  15.656 -0.6862 -3.1404 -1.1763
 4833SOL    HW226136   1.408   2.784  15.682 -2.9694  2.2754 -1.3273
 4834SOL     OW26137   4.202   3.240   7.781  0.2248  0.2728  0.1309
 4834SOL    HW126138   4.216   3.145   7.787  1.3393  0.2174 -3.0756
 4834SOL    HW226139   4.108   3.249   7.789  0.1610  1.2517 -1.8799
 4835SOL     OW26140   0.047   4.269   8.864 -0.0961  0.8801 -0.1428
 4835SOL    HW126141   0.002   4.344   8.824 -2.3321 -0.7361 -0.6704
 4835SOL    HW226142   0.096   4.248   8.784 -0.9962 -0.5485 -0.3080
 4836SOL     OW26143   2.677   2.412   8.873  0.0997 -0.0122 -0.3440
 4836SOL    HW126144   2.589   2.444   8.853 -1.8521 -2.8889  3.4723
 4836SOL    HW226145   2.648   2.330   8.915  0.7351 -0.4474 -0.7596
 4837SOL     OW26146   3.642   1.056   8.890  0.4129  0.8569 -0.2895
 4837SOL    HW126147   3.628   1.141   8.849 -1.2612  1.0202  0.6005
 4837SOL    HW226148   3.722   1.075   8.939 -0.3123  0.8528  0.9062
 4838SOL     OW26149   3.568   4.468  14.855  0.0808  0.1130  0.8380
 4838SOL    HW126150   3.564   4.558  14.888 -1.0502  0.2692  0.2610
 4838SOL    HW226151   3.572   4.407  14.929 -0.8499  0.1409  0.9108
 4839SOL     OW26152   4.143   2.553   4.454  0.2377 -0.0097 -0.0390
 4839SOL    HW126153   4.186   2.553   4.368 -1.0063 -0.6152 -0.6608
 4839SOL    HW226154   4.224   2.568   4.502  0.1284 -1.2592  0.5272
 4840SOL     OW26155   0.532   0.686   4.587 -0.5219 -0.2569 -0.5785
 4840SOL    HW126156   0.564   0.597   4.603 -1.5641 -0.5164  0.0660
 4840SOL    HW226157   0.440   0.671   4.609 -0.4426  1.3994  0.8388
 4841SOL     OW26158   4.340   4.597   4.519  0.0162  0.1260  0.0919
 4841SOL    HW126159   4.415   4.547   4.486 -0.9418  0.3592 -2.4825
 4841SOL    HW226160   4.379   4.684   4.525  1.5585 -0.3657 -2.7742
 4842SOL     OW26161   0.829   2.819   9.229  0.5838 -0.5278  0.6337
 4842SOL    HW126162   0.800   2.894   9.176  1.4569  1.1967  2.6145
 4842SOL    HW226163   0.782   2.826   9.312  0.2998 -1.8527  0.5811
 4843SOL     OW26164   3.229   0.099   2.877 -0.2789 -0.6842  0.6997
 4843SOL    HW126165   3.260   0.084   2.966 -4.3936 -0.5078  2.1420
 4843SOL    HW226166   3.300   0.154   2.844 -2.6056  0.9401 -1.5323
 4844SOL     OW26167   0.655   1.605   1.544  0.6169  0.1423 -0.3392
 4844SOL    HW126168   0.636   1.523   1.498  1.3513 -0.4476  0.4169
 4844SOL    HW226169   0.704   1.580   1.622  0.4479 -1.2336 -0.6749
 4845SOL     OW26170   1.771   0.478   4.656  0.2077  0.0696  0.2533
 4845SOL    HW126171   1.685   0.493   4.695 -0.2046 -0.3944 -0.4805
 4845SOL    HW226172   1.745   0.408   4.595  0.2490  1.2155 -1.0865
 4846SOL     OW26173   1.673   0.118   3.982  0.2744 -0.0941 -0.4349
 4846SOL    HW126174   1.746   0.131   3.921  0.8483 -1.4362 -0.0340
 4846SOL    HW226175   1.652   0.210   3.997  1.2464  0.0918 -0.2351
 4847SOL     OW26176   0.567   1.942   3.157 -0.3469  0.1731 -0.1249
 4847SOL    HW126177   0.610   1.876   3.212 -0.6020  0.0660 -0.0537
 4847SOL    HW226178   0.531   1.992   3.230 -0.1123 -0.9204  0.7433
 4848SOL     OW26179   3.465   1.681  12.189 -0.2300 -0.0342 -0.5377
 4848SOL    HW126180   3.456   1.669  12.095  2.4841 -1.0858 -0.6886
 4848SOL    HW226181   3.478   1.591  12.218 -2.3718  0.0882  0.7740
 4849SOL     OW26182   3.426   3.673   9.104 -0.6215  0.4914 -0.5920
 4849SOL    HW126183   3.390   3.761   9.100 -1.0568  0.2712 -1.5464
 4849SOL    HW226184   3.487   3.669   9.029 -0.4126  0.1814 -0.4082
 4850SOL     OW26185   4.685   0.884  14.021  0.1560  0.0227 -0.0966
 4850SOL    HW126186   4.612   0.936  14.056 -0.3679  0.0561 -1.2545
 4850SOL    HW226187   0.019   0.949  14.014 -0.6461  0.8062 -0.8480
 4851SOL     OW26188   2.478   3.714   5.840 -0.5989  0.3890  0.4429
 4851SOL    HW126189   2.492   3.666   5.921 -2.2058 -0.7164  0.0661
 4851SOL    HW226190   2.450   3.799   5.873 -2.2722 -0.0006  0.0357
 4852SOL     OW26191   2.172   4.483  14.787  0.0748  0.3010  0.2267
 4852SOL    HW126192   2.130   4.407  14.827  1.8148 -1.1381 -0.6839
 4852SOL    HW226193   2.188   4.536  14.865  0.3619  0.1684  0.2554
 4853SOL     OW26194   2.421   4.103  17.187 -0.1351 -0.3408  0.1234
 4853SOL    HW126195   2.380   4.018  17.174  1.7506 -0.8465 -2.3008
 4853SOL    HW226196   2.343   4.160  17.189  0.8991  1.0825 -0.6485
 4854SOL     OW26197   4.137   1.999   2.867  0.2624  0.5275 -0.1197
 4854SOL    HW126198   4.043   2.013   2.856 -0.6834 -4.8734  0.8727
 4854SOL    HW226199   4.139   1.994   2.963 -1.3752  0.0960 -0.1083
 4855SOL     OW26200   2.572   0.583   1.005  0.6258  0.3546 -0.0483
 4855SOL    HW126201   2.501   0.646   1.006 -1.2742 -1.7239 -2.4735
 4855SOL    HW226202   2.532   0.506   1.046 -1.8170  0.8825 -1.4223
 4856SOL     OW26203   4.650   1.386   4.095  0.0248  0.1311 -0.0824
 4856SOL    HW126204   4.678   1.463   4.145  1.5934 -2.2848  2.7474
 4856SOL    HW226205   4.646   1.421   4.006  1.2199  0.1592 -0.1305
 4857SOL     OW26206   1.107   1.169   5.946  0.0781 -0.3108  0.2709
 4857SOL    HW126207   1.155   1.238   5.992 -0.5756 -0.4597  1.1691
 4857SOL    HW226208   1.177   1.103   5.941 -1.0048 -1.6309  2.8187
 4858SOL     OW26209   2.216   0.335   5.437 -0.4375  0.3999 -0.2204
 4858SOL    HW126210   2.157   0.357   5.510 -0.4332 -0.8629  0.1717
 4858SOL    HW226211   2.296   0.386   5.449  0.2927 -0.6830 -0.4624
 4859SOL     OW26212   0.562   3.145   2.801 -0.5363  0.0741 -0.3426
 4859SOL    HW126213   0.656   3.136   2.817 -0.7309 -1.5236 -0.1568
 4859SOL    HW226214   0.535   3.196   2.878 -0.4547 -0.1333 -0.1769
 4860SOL     OW26215   2.011   4.016   9.952 -0.3487 -0.3178 -0.1049
 4860SOL    HW126216   2.012   4.095  10.005 -0.6127  0.3003 -1.0143
 4860SOL    HW226217   2.036   4.051   9.867 -0.6201 -0.8873 -0.4251
 4861SOL     OW26218   3.356   2.574  11.564 -0.6238  0.0898 -0.4067
 4861SOL    HW126219   3.443   2.571  11.603  0.0668 -0.4693 -2.0056
 4861SOL    HW226220   3.376   2.569  11.471 -0.7746 -0.4199 -0.4135
 4862SOL     OW26221   0.396   1.396  10.713 -0.3200 -0.0491  0.0676
 4862SOL    HW126222   0.430   1.446  10.638 -0.2885  1.6258  1.1937
 4862SOL    HW226223   0.344   1.462  10.760 -0.1796  1.2590 -1.6002
 4863SOL     OW26224   0.551   3.503   1.974 -0.2837 -0.2459  0.3095
 4863SOL    HW126225   0.505   3.428   1.937  0.3544 -0.8866  0.8147
 4863SOL    HW226226   0.505   3.504   2.058 -2.9916  0.9724 -1.1906
 4864SOL     OW26227   0.006   0.222  16.060 -0.2025 -0.3172 -0.2400
 4864SOL    HW126228   0.016   0.213  15.965  0.8775  1.2550 -0.2811
 4864SOL    HW226229   0.099   0.239  16.076 -0.5188  0.4843  0.7253
 4865SOL     OW26230   3.485   3.461   8.005  0.2817  0.9052 -0.3936
 4865SOL    HW126231   3.480   3.554   8.026 -0.1304  0.2574  2.3946
 4865SOL    HW226232   3.571   3.461   7.962 -0.2834 -1.6570 -1.5566
 4866SOL     OW26233   1.230   4.144   1.098 -0.3691 -0.0901 -0.6553
 4866SOL    HW126234   1.320   4.155   1.069  0.0014 -0.1992  0.4507
 4866SOL    HW226235   1.201   4.222   1.051  2.2501  0.3237 -1.5572
 4867SOL     OW26236   3.556   0.464   9.291  0.2543 -0.4734 -0.2201
 4867SOL    HW126237   3.467   0.471   9.327  1.4431  3.1827  1.9240
 4867SOL    HW226238   3.582   0.386   9.341 -2.5719  0.0686  2.1057
 4868SOL     OW26239   1.624   4.121   7.682 -0.1046 -0.6989  0.1704
 4868SOL    HW126240   1.631   4.089   7.772  1.4310 -0.7297  0.0303
 4868SOL    HW226241   1.632   4.042   7.629 -0.1403  0.2719 -1.2582
 4869SOL     OW26242   4.564   0.642  10.967 -0.0170  0.0708 -0.5030
 4869SOL    HW126243   4.531   0.604  11.049 -2.9932  2.2144 -0.7071
 4869SOL    HW226244   4.554   0.733  10.995  1.9346  0.5183 -1.3226
 4870SOL     OW26245   1.960   0.015   2.309 -0.0237  0.1637  0.1889
 4870SOL    HW126246   1.975   4.686   2.239  1.7077  1.3879 -0.5826
 4870SOL    HW226247   1.988   4.698   2.384  0.5863  2.1191  1.3225
 4871SOL     OW26248   0.706   3.722   8.665  0.0105 -0.0711 -0.6008
 4871SOL    HW126249   0.751   3.690   8.743 -1.5285 -1.7676 -0.4003
 4871SOL    HW226250   0.768   3.779   8.619  0.8915  1.1764  2.1491
 4872SOL     OW26251   0.937   3.577  16.422  0.1354  0.2820  0.3785
 4872SOL    HW126252   0.875   3.622  16.479 -0.3663 -0.7401  0.6404
 4872SOL    HW226253   0.958   3.648  16.361 -2.9950  0.0179 -1.0054
 4873SOL     OW26254   3.804   0.870   1.980 -0.6488 -0.0917  0.1472
 4873SOL    HW126255   3.739   0.910   1.922 -0.1609  0.5754  0.0525
 4873SOL    HW226256   3.764   0.885   2.065 -0.0300  0.2151  0.3832
 4874SOL     OW26257   3.253   3.989   7.487  0.9828 -0.2456  0.2371
 4874SOL    HW126258   3.211   4.070   7.458  2.6323 -0.1841 -2.0064
 4874SOL    HW226259   3.216   3.964   7.571  1.8924 -2.9777 -0.1674
 4875SOL     OW26260   4.157   1.546   5.351  0.2520 -0.6591 -0.6009
 4875SOL    HW126261   4.218   1.511   5.417  0.9195  0.4573 -0.6337
 4875SOL    HW226262   4.120   1.467   5.312 -0.1756 -0.0020 -1.5237
 4876SOL     OW26263   3.178   4.568   4.427 -0.0826 -0.1605 -0.4566
 4876SOL    HW126264   3.229   4.496   4.464  0.5872  0.3682 -0.3385
 4876SOL    HW226265   3.094   4.563   4.472  0.6015  0.1383  0.8847
 4877SOL     OW26266   1.074   4.318  10.783 -0.2097 -0.1024 -0.2176
 4877SOL    HW126267   0.991   4.347  10.745 -0.7338  0.5391  1.4371
 4877SOL    HW226268   1.129   4.329  10.705 -1.6933 -4.1367 -1.8781
 4878SOL     OW26269   2.993   2.200   8.553 -0.2802  0.4407 -0.3509
 4878SOL    HW126270   2.898   2.192   8.549 -0.3360 -0.4050  2.6721
 4878SOL    HW226271   3.017   2.183   8.462 -2.2420 -0.1986 -0.7644
 4879SOL     OW26272   0.981   0.661  14.807  0.2372  0.4133  0.0494
 4879SOL    HW126273   1.072   0.644  14.832 -0.9178 -2.8102  2.1623
 4879SOL    HW226274   0.956   0.736  14.860  0.7247  2.1215 -2.1749
 4880SOL     OW26275   0.820   2.957   5.439  0.0516 -0.3833 -0.1406
 4880SOL    HW126276   0.908   2.938   5.406 -0.8563 -2.6351 -1.2422
 4880SOL    HW226277   0.770   2.876   5.446  1.8997 -1.6435 -1.4784
 4881SOL     OW26278   4.118   3.107   7.228 -0.4718 -0.0040 -0.1301
 4881SOL    HW126279   4.145   3.102   7.137 -1.1341 -2.4968 -0.1697
 4881SOL    HW226280   4.163   3.187   7.255 -1.5280 -0.4631  3.0641
 4882SOL     OW26281   1.701   4.129   8.633 -0.3547 -0.4079 -0.5619
 4882SOL    HW126282   1.740   4.078   8.704  2.3057  1.7474 -0.4584
 4882SOL    HW226283   1.667   4.202   8.685 -1.6035 -0.3137 -1.5152
 4883SOL     OW26284   0.712   4.681   9.737  0.0418 -0.6069  0.6818
 4883SOL    HW126285   0.681   4.600   9.697 -1.3574  0.4005 -0.2491
 4883SOL    HW226286   0.677   4.672   9.826 -0.5919 -0.2114  0.4716
 4884SOL     OW26287   0.098   1.036   6.654  0.2193 -0.0842 -0.2493
 4884SOL    HW126288   0.031   1.057   6.718  1.7685 -0.5291  1.5044
 4884SOL    HW226289   0.118   0.944   6.675 -0.7188  0.4430  2.8897
 4885SOL     OW26290   3.821   0.204   8.462 -0.3630 -0.0592 -0.2239
 4885SOL    HW126291   3.745   0.174   8.511 -1.5417 -1.3832 -2.8548
 4885SOL    HW226292   3.783   0.265   8.399 -3.2502 -0.2110  1.3793
 4886SOL     OW26293   2.451   0.720   5.525  0.4363  0.3015 -0.1193
 4886SOL    HW126294   2.370   0.754   5.486 -1.1412 -1.7793  1.3209
 4886SOL    HW226295   2.497   0.732   5.442 -0.5966  0.5137 -0.6586
 4887SOL     OW26296   0.724   1.903   1.720 -0.7918 -0.2542  0.3783
 4887SOL    HW126297   0.816   1.880   1.731 -0.7495 -0.4068 -0.2839
 4887SOL    HW226298   0.733   1.995   1.745 -0.2208 -0.1459 -0.2141
 4888SOL     OW26299   0.781   1.108   6.956  0.0128 -0.3019 -0.2638
 4888SOL    HW126300   0.840   1.163   7.008  0.9363 -1.3020 -0.2525
 4888SOL    HW226301   0.853   1.068   6.907 -0.7269  0.2640 -1.8099
 4889SOL     OW26302   4.140   1.105  17.242 -0.8619 -0.2429 -0.4101
 4889SOL    HW126303   4.172   1.037  17.301  0.3006  0.5238 -0.1507
 4889SOL    HW226304   4.099   1.163  17.306 -2.0058 -0.9408 -0.5073
 4890SOL     OW26305   2.846   2.228  13.192  0.2608  0.2323  0.0576
 4890SOL    HW126306   2.890   2.310  13.166 -0.6241  1.0851  1.2198
 4890SOL    HW226307   2.755   2.253  13.206  0.4932  0.4806  1.1532
 4891SOL     OW26308   4.244   4.099  14.437  0.4825  0.5342  0.2384
 4891SOL    HW126309   4.211   4.186  14.462 -1.9271 -0.3296  0.0635
 4891SOL    HW226310   4.338   4.119  14.440 -0.0871  2.5811  3.6034
 4892SOL     OW26311   2.505   2.182  15.958  0.0970  0.8909 -0.2582
 4892SOL    HW126312   2.469   2.146  16.039 -1.1793  2.8493  0.0382
 4892SOL    HW226313   2.513   2.102  15.905 -0.6046 -0.3209  1.4476
 4893SOL     OW26314   4.078   4.189   4.540  0.2358 -0.3453  0.4470
 4893SOL    HW126315   4.092   4.274   4.582 -0.2476  1.4110 -2.9304
 4893SOL    HW226316   4.000   4.209   4.489 -0.2080 -0.9353  0.9016
 4894SOL     OW26317   2.919   2.835   4.620  0.0731  0.3617 -0.0066
 4894SOL    HW126318   2.960   2.919   4.599  0.1988  0.8490  2.2562
 4894SOL    HW226319   2.836   2.847   4.574 -1.5210 -0.9164  2.5379
 4895SOL     OW26320   1.786   2.620   9.663  0.4227  0.2864 -0.6058
 4895SOL    HW126321   1.734   2.603   9.741 -0.1842  1.0731 -0.8286
 4895SOL    HW226322   1.847   2.547   9.665  1.1985  0.9498 -0.2769
 4896SOL     OW26323   3.405   1.294   0.049  0.3642 -0.6056  0.0798
 4896SOL    HW126324   3.324   1.244   0.038 -1.7770  2.8397  0.2359
 4896SOL    HW226325   3.460   1.278  17.714 -1.9583  0.5067 -1.8182
 4897SOL     OW26326   4.209   1.601   1.600 -0.7602  0.0716  0.4710
 4897SOL    HW126327   4.180   1.516   1.567  2.2093 -1.1100  0.8636
 4897SOL    HW226328   4.212   1.667   1.530 -0.5088  1.6684  1.9849
 4898SOL     OW26329   3.380   3.454   3.811 -0.4006 -0.3799  0.5827
 4898SOL    HW126330   3.351   3.414   3.893 -1.0449  0.3221  0.6958
 4898SOL    HW226331   3.329   3.535   3.817  0.1948 -0.0012  0.6011
 4899SOL     OW26332   0.211   3.435   9.923  0.0854 -0.2338  0.6608
 4899SOL    HW126333   0.275   3.419   9.993  1.8827 -0.1161 -0.9383
 4899SOL    HW226334   0.247   3.516   9.887  0.1572 -0.1950  0.8218
 4900SOL     OW26335   4.444   1.385   7.772 -0.2638 -0.4632  0.0905
 4900SOL    HW126336   4.449   1.295   7.802 -0.8956 -0.0335  1.4570
 4900SOL    HW226337   4.403   1.431   7.845 -1.1691 -1.8642  0.4622
 4901SOL     OW26338   1.726   0.112   5.214  0.2571 -0.5497 -0.0892
 4901SOL    HW126339   1.770   0.110   5.299 -1.3784  0.3519  0.7809
 4901SOL    HW226340   1.750   0.027   5.177 -1.0419 -0.8130 -0.3241
 4902SOL     OW26341   3.625   3.608   5.576  0.1672 -0.3937  0.5537
 4902SOL    HW126342   3.609   3.516   5.596  0.0684 -0.3787  0.5461
 4902SOL    HW226343   3.717   3.608   5.551 -1.0382  3.0765 -3.9650
 4903SOL     OW26344   4.562   3.775   2.247  0.0713 -0.7842 -0.1201
 4903SOL    HW126345   4.514   3.697   2.222 -0.3949 -0.1637 -1.1774
 4903SOL    HW226346   4.573   3.807   2.157  0.1635 -0.7265 -0.0886
 4904SOL     OW26347   4.223   1.760   6.005  0.2743  0.4524  0.3906
 4904SOL    HW126348   4.215   1.674   5.963 -0.3137  0.4566  0.5014
 4904SOL    HW226349   4.130   1.781   6.013  0.5558  1.0225  2.1303
 4905SOL     OW26350   0.634   1.439   7.709 -0.7621 -0.2979  0.5469
 4905SOL    HW126351   0.683   1.470   7.633  0.7039 -1.3689  1.0518
 4905SOL    HW226352   0.573   1.508   7.733 -0.8115 -0.5184  1.0630
 4906SOL     OW26353   3.195   1.849  15.455 -0.1397  0.2543  0.2270
 4906SOL    HW126354   3.233   1.784  15.515  0.9632  1.8408  1.2248
 4906SOL    HW226355   3.277   1.895  15.442  0.8305 -0.9437  2.0576
 4907SOL     OW26356   1.980   0.087   0.072 -0.1420  0.6536  0.4093
 4907SOL    HW126357   1.911   0.053   0.130 -1.0711 -2.1951 -2.3819
 4907SOL    HW226358   1.944   0.059  17.729 -2.8813 -0.6968  1.9963
 4908SOL     OW26359   3.268   0.344   0.614 -0.4848 -0.8207  0.5138
 4908SOL    HW126360   3.264   0.327   0.708 -0.0068 -1.5507  0.4029
 4908SOL    HW226361   3.332   0.414   0.599 -1.1080 -0.0838  1.2826
 4909SOL     OW26362   2.564   2.370   7.874  0.5550  0.0887 -0.1201
 4909SOL    HW126363   2.634   2.348   7.812  0.9312  4.3071 -1.1919
 4909SOL    HW226364   2.542   2.460   7.852  2.8037  1.0599  1.6218
 4910SOL     OW26365   1.695   1.151   5.516 -0.1705  0.0911  0.3735
 4910SOL    HW126366   1.687   1.244   5.534  1.9583  0.1807  0.7585
 4910SOL    HW226367   1.644   1.152   5.434 -0.4407 -0.2354  0.5348
 4911SOL     OW26368   2.119   2.914   5.001  0.1278 -0.4049 -0.3607
 4911SOL    HW126369   2.084   2.830   5.031  3.6120 -2.0826 -1.0266
 4911SOL    HW226370   2.061   2.922   4.925 -0.4599 -2.3752 -0.1112
 4912SOL     OW26371   4.086   4.151   5.487 -0.0170  0.2301  0.3981
 4912SOL    HW126372   4.181   4.145   5.497 -0.1884 -0.4175  1.6278
 4912SOL    HW226373   4.064   4.063   5.457 -0.5658  0.5646 -0.1756
 4913SOL     OW26374   2.759   2.444   7.253 -0.2964  0.2279 -0.8953
 4913SOL    HW126375   2.761   2.523   7.307 -0.2837 -0.7384  0.5002
 4913SOL    HW226376   2.666   2.430   7.235  0.2085 -1.3045 -2.3670
 4914SOL     OW26377   1.177   1.381   5.271  0.2008  0.3070  0.2251
 4914SOL    HW126378   1.085   1.375   5.243  0.4143  1.7841 -0.8020
 4914SOL    HW226379   1.219   1.426   5.198 -1.6896  1.2217 -0.2992
 4915SOL     OW26380   0.833   2.699   5.147  0.4560 -0.6204 -0.4450
 4915SOL    HW126381   0.868   2.684   5.059  1.9795  0.5623 -0.0636
 4915SOL    HW226382   0.745   2.734   5.136  0.1323 -0.8153  1.5436
 4916SOL     OW26383   0.182   1.600   1.544 -0.2367 -0.2797  0.1669
 4916SOL    HW126384   0.269   1.605   1.583 -0.0498  0.4829 -0.3335
 4916SOL    HW226385   0.153   1.517   1.581 -4.7521  1.2834  0.1197
 4917SOL     OW26386   3.431   3.610  15.294  0.1063 -0.3946 -0.1528
 4917SOL    HW126387   3.425   3.694  15.249 -2.6067 -0.5253 -0.0006
 4917SOL    HW226388   3.502   3.629  15.356  1.5993  1.2806 -2.3695
 4918SOL     OW26389   2.026   3.632  17.315 -0.5822  0.1088  0.0017
 4918SOL    HW126390   2.067   3.715  17.341  1.1575 -1.2223  1.5311
 4918SOL    HW226391   1.968   3.657  17.244 -1.1992 -2.9050 -0.5364
 4919SOL     OW26392   2.927   1.907   9.365 -0.2823  0.2539  0.1180
 4919SOL    HW126393   2.913   1.994   9.327  1.2290  1.2627  1.8747
 4919SOL    HW226394   3.013   1.921   9.404 -0.2702  1.2603 -0.2760
 4920SOL     OW26395   1.355   2.304   3.012 -0.1886  0.6536 -0.5206
 4920SOL    HW126396   1.378   2.357   2.936 -0.4370  2.9565  1.0108
 4920SOL    HW226397   1.397   2.366   3.072 -1.2812  0.4166  0.5064
 4921SOL     OW26398   4.212   1.310   5.726 -0.0419 -0.3519 -0.8380
 4921SOL    HW126399   4.290   1.266   5.762 -1.5715  0.0575  2.9780
 4921SOL    HW226400   4.225   1.308   5.631 -0.8976  1.0021 -0.9825
 4922SOL     OW26401   1.006   4.027  12.591  0.0582 -0.4352 -0.3412
 4922SOL    HW126402   1.024   4.040  12.498 -1.3320  1.4704 -0.3541
 4922SOL    HW226403   1.092   4.030  12.631 -1.6755 -1.1825  3.4166
 4923SOL     OW26404   0.302   1.673   9.624  0.1829  0.0841 -0.2659
 4923SOL    HW126405   0.350   1.664   9.706  1.0790  2.2083 -0.5773
 4923SOL    HW226406   0.334   1.597   9.574 -0.8395 -0.8528  0.5114
 4924SOL     OW26407   3.741   2.178   6.966 -0.7329 -0.0909 -0.0808
 4924SOL    HW126408   3.782   2.179   7.052  0.8559  0.8490 -0.8533
 4924SOL    HW226409   3.821   2.169   6.914 -0.3189 -3.7643  1.1439
 4925SOL     OW26410   0.052   2.132   6.729 -0.2189  0.0867 -0.0082
 4925SOL    HW126411   4.708   2.144   6.677 -0.2126  2.7916  0.6207
 4925SOL    HW226412   0.070   2.039   6.717  2.0352  0.6462 -0.9588
 4926SOL     OW26413   2.944   1.710  15.495 -0.5033  0.1607  0.2308
 4926SOL    HW126414   2.950   1.694  15.589  1.4159 -0.8987 -0.0601
 4926SOL    HW226415   3.029   1.754  15.486  1.3801 -3.1077  1.7973
 4927SOL     OW26416   1.513   4.575  11.553 -0.3986  0.3418 -0.2354
 4927SOL    HW126417   1.536   4.492  11.511 -1.5375 -0.3980  0.5927
 4927SOL    HW226418   1.537   4.558  11.644  0.8963  1.6735 -0.3265
 4928SOL     OW26419   4.287   3.868   6.996 -0.0289  0.1819 -0.5469
 4928SOL    HW126420   4.201   3.850   7.034  0.3715  2.4777  1.4190
 4928SOL    HW226421   4.352   3.819   7.047 -0.9826  0.0883  0.5650
 4929SOL     OW26422   1.400   3.453   4.283 -0.1805 -0.2899  0.4287
 4929SOL    HW126423   1.466   3.386   4.267  0.9004  0.8042  0.3035
 4929SOL    HW226424   1.321   3.406   4.259  1.5788 -3.1272  0.2478
 4930SOL     OW26425   2.924   1.525   3.794 -0.1852  0.3281 -0.3599
 4930SOL    HW126426   3.006   1.477   3.782 -0.7578 -0.7853  0.1357
 4930SOL    HW226427   2.862   1.471   3.746  0.2505 -1.5393  1.1487
 4931SOL     OW26428   4.162   3.955  13.937 -0.0635  0.0748  0.5428
 4931SOL    HW126429   4.175   3.931  13.846  1.1801  1.1380  0.4300
 4931SOL    HW226430   4.116   4.038  13.930  0.4249  0.4373  1.5676
 4932SOL     OW26431   1.687   0.896   9.017 -0.0832  0.1930 -0.2930
 4932SOL    HW126432   1.764   0.878   9.071  1.4030 -0.4992 -2.6364
 4932SOL    HW226433   1.662   0.809   8.986 -0.7017  0.3776 -0.3219
 4933SOL     OW26434   2.551   2.463   2.309  0.3730 -0.2426 -0.4605
 4933SOL    HW126435   2.569   2.424   2.395  0.5976  2.1652  0.5845
 4933SOL    HW226436   2.604   2.413   2.247 -1.0727 -0.1893 -1.7212
 4934SOL     OW26437   3.335   4.307   3.226  0.2258 -0.2320 -0.0400
 4934SOL    HW126438   3.239   4.309   3.230  0.3028  1.5620  0.5477
 4934SOL    HW226439   3.342   4.222   3.183  0.2343 -1.1256  1.7172
 4935SOL     OW26440   4.513   3.804   5.631  0.6935 -0.6471  0.1179
 4935SOL    HW126441   4.577   3.784   5.699 -0.2383 -0.3931  1.0549
 4935SOL    HW226442   4.435   3.834   5.676  0.3354 -1.3388 -0.0333
 4936SOL     OW26443   0.487   0.771  16.789 -0.6620 -0.0925  0.4885
 4936SOL    HW126444   0.400   0.756  16.753  0.3610  0.3797 -2.2470
 4936SOL    HW226445   0.525   0.818  16.714  0.5204 -0.9730  0.5355
 4937SOL     OW26446   1.601   2.870   4.981 -0.5335  0.1350 -0.4456
 4937SOL    HW126447   1.593   2.964   4.998 -1.7546 -0.2341  1.1246
 4937SOL    HW226448   1.547   2.870   4.902  3.2709 -0.1463 -3.0322
 4938SOL     OW26449   2.089   4.664   8.978 -0.3578 -0.3053  0.2435
 4938SOL    HW126450   2.108   0.012   8.936  1.4625 -0.9881 -0.3222
 4938SOL    HW226451   2.171   4.644   9.024  0.6534  1.8068 -0.6570
 4939SOL     OW26452   1.624   3.792  12.789 -0.2325  0.0095  0.0111
 4939SOL    HW126453   1.578   3.874  12.772 -0.8572 -0.1724  0.8568
 4939SOL    HW226454   1.680   3.817  12.862 -0.9980 -0.3809  0.7274
 4940SOL     OW26455   2.982   3.170   8.011 -0.2998 -0.3410 -0.0320
 4940SOL    HW126456   2.908   3.200   7.958  2.3462  2.3475 -2.1740
 4940SOL    HW226457   2.992   3.229   8.086 -1.3100 -1.7425  1.2253
 4941SOL     OW26458   3.424   0.851   2.947  0.4049 -0.2683  0.0610
 4941SOL    HW126459   3.519   0.858   2.953  0.4202 -0.4353  0.0009
 4941SOL    HW226460   3.413   0.879   2.856 -0.6448 -1.8375 -0.2939
 4942SOL     OW26461   1.585   2.141  13.630  0.5674 -0.3405  0.2355
 4942SOL    HW126462   1.504   2.109  13.590  0.8721 -1.3931  0.4570
 4942SOL    HW226463   1.556   2.137  13.721  1.0532 -2.4566  0.3046
 4943SOL     OW26464   1.975   4.395   6.534  0.1582 -0.3851 -0.3921
 4943SOL    HW126465   1.954   4.377   6.626 -0.6976  2.1751 -0.1037
 4943SOL    HW226466   1.978   4.490   6.521  1.2567 -0.0501  2.3387
 4944SOL     OW26467   2.620   2.559   3.427  0.1821  0.0379  0.0193
 4944SOL    HW126468   2.559   2.548   3.353 -0.6223 -2.3893  1.0580
 4944SOL    HW226469   2.570   2.613   3.489  0.0241  0.1386 -0.1937
 4945SOL     OW26470   2.427   1.761   7.563 -0.1426  0.4700 -0.0817
 4945SOL    HW126471   2.367   1.774   7.489  0.9395  1.7441 -0.7298
 4945SOL    HW226472   2.513   1.759   7.521  0.4248 -0.1322  1.1237
 4946SOL     OW26473   4.196   4.378  17.607  0.4541 -0.5536 -0.2847
 4946SOL    HW126474   4.191   4.342  17.695  0.5165 -2.7406 -1.1661
 4946SOL    HW226475   4.238   4.303  17.565 -0.2227 -0.6522 -0.7958
 4947SOL     OW26476   2.460   1.362   9.319 -0.5520 -0.1937 -0.3409
 4947SOL    HW126477   2.391   1.307   9.357 -0.9166  0.8352  0.4668
 4947SOL    HW226478   2.478   1.311   9.240 -0.3061  3.1332 -2.4346
 4948SOL     OW26479   0.673   0.526   5.869  0.5081  0.4099  0.6367
 4948SOL    HW126480   0.693   0.435   5.894 -1.2228  0.5353  2.4539
 4948SOL    HW226481   0.607   0.536   5.937 -0.6519 -2.2054 -0.0842
 4949SOL     OW26482   3.926   0.668   6.446  0.0312 -0.0115 -0.2758
 4949SOL    HW126483   3.888   0.595   6.495  0.2255 -0.3042 -0.5623
 4949SOL    HW226484   3.938   0.732   6.516  2.2670 -1.4235  0.6483
 4950SOL     OW26485   0.948   3.266  14.273  0.2664 -0.2166 -1.1106
 4950SOL    HW126486   0.941   3.198  14.341  1.1795  0.0086 -0.7882
 4950SOL    HW226487   1.039   3.265  14.243  1.1185  0.0455  1.4857
 4951SOL     OW26488   1.253   1.561   0.411 -0.3054 -0.1730  0.1291
 4951SOL    HW126489   1.271   1.655   0.411 -0.1967 -0.1978 -2.7139
 4951SOL    HW226490   1.161   1.565   0.436  0.3242  1.1277  2.2490
 4952SOL     OW26491   3.156   4.644  15.835 -0.3603 -0.1293 -0.0081
 4952SOL    HW126492   3.186   4.574  15.777 -1.4332  1.2540 -2.2738
 4952SOL    HW226493   3.061   4.648  15.823 -0.3816  3.4102  1.4231
 4953SOL     OW26494   3.026   4.579  16.362 -0.0444  0.1137  0.2039
 4953SOL    HW126495   2.957   4.516  16.342 -1.3803  1.7389 -0.2740
 4953SOL    HW226496   3.002   4.583  16.455  1.4680  0.7725  0.5726
 4954SOL     OW26497   0.725   3.078   1.006 -0.2933 -0.1063 -0.2392
 4954SOL    HW126498   0.632   3.101   1.010  0.1919  1.6956  0.4427
 4954SOL    HW226499   0.726   2.984   1.025 -0.9748  0.3295  1.9476
 4955SOL     OW26500   4.669   3.330   9.436 -0.4548 -0.1131  0.1423
 4955SOL    HW126501   0.002   3.286   9.385 -0.2335  0.7797 -0.3298
 4955SOL    HW226502   4.652   3.262   9.501 -2.5479 -0.4010 -0.7139
 4956SOL     OW26503   2.373   3.559   4.479  0.5996 -0.2728 -0.2919
 4956SOL    HW126504   2.457   3.551   4.525 -0.1837  0.0889  1.2041
 4956SOL    HW226505   2.300   3.585   4.535  1.7339  0.9408  0.6319
 4957SOL     OW26506   2.931   0.530   8.835 -0.2653  0.3672 -0.2946
 4957SOL    HW126507   3.001   0.575   8.787  0.1838  1.1984  1.1278
 4957SOL    HW226508   2.979   0.484   8.904 -1.2013  1.1784  0.9060
 4958SOL     OW26509   0.904   1.963   3.624  0.3634  0.0187 -0.4042
 4958SOL    HW126510   0.940   2.051   3.638  1.9943 -0.9776  1.7063
 4958SOL    HW226511   0.896   1.966   3.529 -0.5420  0.9300 -0.3114
 4959SOL     OW26512   1.874   2.366   9.613 -0.1001  0.9642 -0.5390
 4959SOL    HW126513   1.826   2.391   9.534  0.7621  0.2315 -1.3078
 4959SOL    HW226514   1.886   2.274   9.587 -1.4359  1.0009 -1.2944
 4960SOL     OW26515   1.197   4.010   1.792  0.6870  0.1289 -0.3660
 4960SOL    HW126516   1.217   3.977   1.879 -2.0409  0.8182  0.5115
 4960SOL    HW226517   1.199   4.104   1.808 -0.9225  0.3479 -1.4383
 4961SOL     OW26518   2.960   0.613   4.096 -0.0716 -0.3706 -0.1307
 4961SOL    HW126519   2.914   0.628   4.179 -0.1533 -0.5077 -0.1512
 4961SOL    HW226520   2.896   0.560   4.050 -1.3995 -0.9863  2.4246
 4962SOL     OW26521   3.339   3.966  11.218  0.3248 -0.6720  0.3616
 4962SOL    HW126522   3.419   3.927  11.253  2.6359  2.4436 -1.5128
 4962SOL    HW226523   3.296   3.981  11.302  0.6694 -0.8415  0.5695
 4963SOL     OW26524   1.842   1.732   8.705 -0.6694  0.0980  0.1765
 4963SOL    HW126525   1.935   1.722   8.683 -1.1315 -1.2121 -1.2554
 4963SOL    HW226526   1.837   1.725   8.800 -0.8220  1.3640  0.2641
 4964SOL     OW26527   1.487   0.749  12.448  0.0355  0.0582  0.2410
 4964SOL    HW126528   1.499   0.788  12.535  1.0026 -0.0370  0.1528
 4964SOL    HW226529   1.395   0.767  12.430  0.4274  0.0828 -1.6514
 4965SOL     OW26530   4.726   3.708   2.448  1.0698 -0.0356 -0.1324
 4965SOL    HW126531   4.655   3.686   2.507 -1.3531  0.4003 -2.9021
 4965SOL    HW226532   4.679   3.730   2.367  1.3481  2.5830  0.4472
 4966SOL     OW26533   3.230   2.958   5.696  0.9809 -0.1777 -0.2627
 4966SOL    HW126534   3.313   2.975   5.742  0.0959 -0.0911  1.3100
 4966SOL    HW226535   3.266   2.910   5.621  0.1935 -2.6313  0.9388
 4967SOL     OW26536   2.336   0.719   2.573  0.6099 -0.5704  0.5456
 4967SOL    HW126537   2.338   0.705   2.478 -1.3034  1.1006  0.2672
 4967SOL    HW226538   2.410   0.665   2.598  2.1080  1.5847  0.7740
 4968SOL     OW26539   0.379   1.395   4.303  0.0404  0.6298  0.2051
 4968SOL    HW126540   0.396   1.434   4.217  1.2548  0.1776  0.2318
 4968SOL    HW226541   0.298   1.350   4.281  1.0385 -2.0418  2.0825
 4969SOL     OW26542   3.820   1.118   2.688  0.1662 -0.1414  0.3950
 4969SOL    HW126543   3.773   1.201   2.678  2.5403  1.1723  0.0170
 4969SOL    HW226544   3.806   1.072   2.605  1.8937 -0.2338  0.1487
 4970SOL     OW26545   4.212   4.368   0.544  0.1076 -0.7389 -0.6047
 4970SOL    HW126546   4.174   4.344   0.628 -0.0919  0.7042 -0.2883
 4970SOL    HW226547   4.188   4.461   0.540 -1.7507 -1.0810  2.6722
 4971SOL     OW26548   1.035   4.679   9.131 -0.4069 -0.5266 -0.1603
 4971SOL    HW126549   1.076   4.622   9.196 -1.8637  0.0997  1.2902
 4971SOL    HW226550   0.954   4.703   9.175 -0.2680 -0.5097  0.0852
 4972SOL     OW26551   1.400   2.812   7.982 -0.3285  0.2960  0.1386
 4972SOL    HW126552   1.418   2.858   8.064 -0.4038 -1.1426  0.9631
 4972SOL    HW226553   1.381   2.722   8.009  0.9536  0.6549  2.1939
 4973SOL     OW26554   4.005   3.979   3.900  0.0679  0.4838 -0.1424
 4973SOL    HW126555   4.058   4.053   3.872 -0.3667  1.2102  0.9279
 4973SOL    HW226556   3.979   3.948   3.813 -1.6652  2.5616 -0.3418
 4974SOL     OW26557   4.003   4.230  11.555  0.2059 -0.0640 -0.2749
 4974SOL    HW126558   3.991   4.135  11.562 -0.0979  0.0493  0.8248
 4974SOL    HW226559   4.097   4.232  11.573  0.0048  1.0030  0.6865
 4975SOL     OW26560   2.772   2.398   6.397  0.3376  0.0299 -0.0707
 4975SOL    HW126561   2.848   2.341   6.402  0.1696 -0.0181  1.9726
 4975SOL    HW226562   2.702   2.338   6.423  2.2744 -2.1217  0.1459
 4976SOL     OW26563   3.404   0.390   6.978 -0.3347  0.1054 -0.1027
 4976SOL    HW126564   3.494   0.422   6.987 -0.7642  2.1417 -2.9533
 4976SOL    HW226565   3.361   0.468   6.944  1.1981  0.9138 -0.1550
 4977SOL     OW26566   2.993   4.153  16.356  0.2712 -0.0698 -0.3448
 4977SOL    HW126567   3.075   4.202  16.365 -1.3078  1.8717  3.3016
 4977SOL    HW226568   2.956   4.210  16.289 -0.8229 -1.5274 -0.9940
 4978SOL     OW26569   4.031   1.645   2.828 -0.0807 -0.5477 -0.3231
 4978SOL    HW126570   3.948   1.628   2.783 -0.4030 -1.7114  0.7261
 4978SOL    HW226571   3.998   1.679   2.911 -2.4882 -0.9208 -1.1413
 4979SOL     OW26572   1.055   1.766   4.363  0.1063  0.2237  0.0207
 4979SOL    HW126573   1.045   1.737   4.272 -1.6480  0.7093  0.0603
 4979SOL    HW226574   1.148   1.791   4.366 -0.0049  0.4138  1.7976
 4980SOL     OW26575   2.154   4.687   7.015 -0.2418 -0.2354 -0.3846
 4980SOL    HW126576   2.101   4.646   7.083 -0.0199  0.1974  0.0484
 4980SOL    HW226577   2.226   4.723   7.067 -0.7316  0.9702 -0.5367
 4981SOL     OW26578   1.276   2.185  11.253  0.2037  0.6052 -0.0010
 4981SOL    HW126579   1.280   2.261  11.311  1.0439  0.8126 -0.3301
 4981SOL    HW226580   1.213   2.206  11.185  0.9324 -0.2081 -0.9329
 4982SOL     OW26581   2.469   3.250   5.551  0.3519  0.7693  0.0799
 4982SOL    HW126582   2.410   3.313   5.511  0.0166 -1.6965 -3.3302
 4982SOL    HW226583   2.468   3.186   5.479  2.2780  0.0936  0.6317
 4983SOL     OW26584   0.507   2.916   3.979 -0.0681 -0.0585  0.1220
 4983SOL    HW126585   0.515   2.848   3.912  0.0558  0.4885 -0.4195
 4983SOL    HW226586   0.601   2.927   3.994  0.3157  0.4119 -2.4932
 4984SOL     OW26587   1.610   3.293   4.220 -0.6214 -0.7400 -0.3662
 4984SOL    HW126588   1.654   3.224   4.268  3.5718  1.6543 -0.7584
 4984SOL    HW226589   1.626   3.255   4.133  1.7438 -1.7571  0.5174
 4985SOL     OW26590   3.812   0.055  16.509  0.0703 -0.7074 -0.8334
 4985SOL    HW126591   3.722   0.088  16.516 -0.2209 -1.5071 -0.7566
 4985SOL    HW226592   3.858   0.117  16.565 -0.9495  0.4613 -1.2837
 4986SOL     OW26593   3.610   2.009   4.264  0.3132 -0.3986 -0.0336
 4986SOL    HW126594   3.610   2.102   4.243 -0.1976 -1.0647 -2.9530
 4986SOL    HW226595   3.518   1.991   4.249  0.1640 -1.1555  1.8091
 4987SOL     OW26596   2.118   1.121   8.026 -0.1025  0.5132  0.4146
 4987SOL    HW126597   2.171   1.043   8.012 -0.2328  0.5241 -0.1499
 4987SOL    HW226598   2.039   1.100   7.977  1.2158 -2.9003 -0.2243
 4988SOL     OW26599   0.700   4.037   5.305 -0.1407  0.0080  0.7273
 4988SOL    HW126600   0.703   4.118   5.356 -1.2469  1.4675 -1.5300
 4988SOL    HW226601   0.785   4.001   5.330 -1.4425 -2.5545  1.5236
 4989SOL     OW26602   3.503   4.180   9.642  0.0046  0.7886 -0.0247
 4989SOL    HW126603   3.552   4.256   9.673 -1.4881  1.5755  0.4376
 4989SOL    HW226604   3.519   4.181   9.547 -0.3347  4.0510 -0.0480
 4990SOL     OW26605   2.113   0.734   6.256  0.4530 -0.1072  0.1376
 4990SOL    HW126606   2.094   0.809   6.313  0.7591 -0.7914  1.1317
 4990SOL    HW226607   2.200   0.713   6.290  0.0390 -2.3245 -0.1776
 4991SOL     OW26608   4.584   4.547   9.076  0.9076 -1.0098 -0.2185
 4991SOL    HW126609   4.622   4.558   8.988 -0.7766  1.2952 -0.6490
 4991SOL    HW226610   4.603   4.454   9.089  0.9237 -0.8161  1.1097
 4992SOL     OW26611   1.878   2.667   5.808 -0.4758 -0.4085  0.1755
 4992SOL    HW126612   1.853   2.680   5.900 -0.7072 -1.8179  0.3125
 4992SOL    HW226613   1.903   2.755   5.781  1.3204 -1.5733 -1.8988
 4993SOL     OW26614   0.864   2.079  17.117 -0.1739  0.2519 -0.4241
 4993SOL    HW126615   0.906   1.995  17.133 -2.2323 -0.2159  2.6045
 4993SOL    HW226616   0.923   2.124  17.056  2.2908 -1.5945  0.6293
 4994SOL     OW26617   4.075   1.787   7.661 -0.2317 -0.1136 -0.5589
 4994SOL    HW126618   4.136   1.727   7.620  1.0976  1.6311 -1.1515
 4994SOL    HW226619   4.086   1.769   7.755  2.3395  0.4702 -0.7465
 4995SOL     OW26620   0.011   4.622   6.053  0.1770 -0.6772 -0.0342
 4995SOL    HW126621   4.681   4.560   6.023 -0.8684 -0.1794  1.2531
 4995SOL    HW226622   0.088   4.577   6.018  0.3889 -0.4552  0.1484
 4996SOL     OW26623   3.010   4.366   4.266  0.1276  0.0034 -0.6854
 4996SOL    HW126624   3.100   4.334   4.267  0.5941  1.3730  0.4784
 4996SOL    HW226625   3.000   4.383   4.172 -1.1488 -1.2866 -0.7848
 4997SOL     OW26626   3.289   2.062  11.379 -0.7751 -0.3588  0.0623
 4997SOL    HW126627   3.306   2.005  11.455  1.0244 -0.9699 -0.8101
 4997SOL    HW226628   3.259   1.997  11.315  0.8954 -0.1040 -0.9653
 4998SOL     OW26629   0.115   1.082  12.874  0.3243  0.1795  0.3214
 4998SOL    HW126630   0.178   1.140  12.918  0.2820  0.5924 -0.1635
 4998SOL    HW226631   0.058   1.045  12.942 -0.2965  1.6973  0.6232
 4999SOL     OW26632   2.349   0.350  14.798 -0.0851 -0.9264 -0.2540
 4999SOL    HW126633   2.435   0.367  14.760 -0.3033  1.8968  0.4702
 4999SOL    HW226634   2.307   0.436  14.801  1.0926 -0.3024 -1.4386
 5000SOL     OW26635   3.248   1.783   5.861  0.6486 -0.4306 -0.4298
 5000SOL    HW126636   3.288   1.812   5.779  2.4541  0.0842  0.6303
 5000SOL    HW226637   3.323   1.752   5.911  1.0525  2.4088  0.7290
 5001SOL     OW26638   3.814   0.905   1.511 -0.3639 -0.4172  0.0580
 5001SOL    HW126639   3.819   0.822   1.559  1.9213  0.5632  1.4920
 5001SOL    HW226640   3.848   0.966   1.577  2.9715 -1.2885 -0.9121
 5002SOL     OW26641   3.131   3.759   6.424  0.1702  0.1185  0.7671
 5002SOL    HW126642   3.186   3.734   6.349 -0.4801  1.3215 -0.1241
 5002SOL    HW226643   3.197   3.778   6.490  1.0365  1.0113 -0.3415
 5003SOL     OW26644   4.006   1.505  11.114  0.1320  0.2234  0.0629
 5003SOL    HW126645   3.995   1.597  11.140 -1.5583  0.3012 -0.9719
 5003SOL    HW226646   3.970   1.510  11.026 -3.8352  1.5300  1.7303
 5004SOL     OW26647   1.455   1.962   3.067 -0.0888 -0.5569  0.3190
 5004SOL    HW126648   1.453   1.866   3.071 -3.2959 -0.5044 -0.5101
 5004SOL    HW226649   1.366   1.994   3.081 -0.0247 -0.6438  0.9241
 5005SOL     OW26650   0.990   4.100  15.180  0.3153 -0.1256  0.4198
 5005SOL    HW126651   0.963   4.190  15.158  1.5754  0.0978 -0.2478
 5005SOL    HW226652   0.903   4.073  15.207  1.0236 -1.5613  1.2469
 5006SOL     OW26653   1.674   2.933  15.925 -0.0293  0.2858  0.5222
 5006SOL    HW126654   1.641   2.887  16.002  3.2534 -1.7850  0.6818
 5006SOL    HW226655   1.617   2.895  15.858  3.7141 -0.6472 -2.1522
 5007SOL     OW26656   3.248   2.031  11.898 -0.2274  0.5483  0.2307
 5007SOL    HW126657   3.164   1.987  11.883  0.4950 -0.1551 -1.7759
 5007SOL    HW226658   3.315   1.970  11.867 -3.2577 -1.4452 -2.5216
 5008SOL     OW26659   0.012   2.961   3.120  0.2360  0.5524  0.2964
 5008SOL    HW126660   0.014   2.870   3.149  0.3634  0.6510  0.5974
 5008SOL    HW226661   4.673   2.962   3.060 -0.5726 -0.9135  1.2860
 5009SOL     OW26662   4.363   1.862   3.317  0.2183 -0.1620 -0.1089
 5009SOL    HW126663   4.423   1.935   3.330  0.6945 -0.9366  1.9841
 5009SOL    HW226664   4.374   1.812   3.398  2.1271 -0.2318 -0.4240
 5010SOL     OW26665   2.802   0.012   2.128  0.7116  0.0753 -0.6060
 5010SOL    HW126666   2.760   0.061   2.057 -0.2210  0.5532  0.2719
 5010SOL    HW226667   2.802   0.076   2.199  0.8079  0.6699 -1.1355
 5011SOL     OW26668   1.915   3.167  16.731  0.4280 -0.7308 -0.0366
 5011SOL    HW126669   1.830   3.152  16.772 -0.0959  1.2314 -0.4255
 5011SOL    HW226670   1.968   3.120  16.795 -1.5661  0.2045  2.2919
 5012SOL     OW26671   3.311   0.655   6.300 -0.1841  0.0256  0.2272
 5012SOL    HW126672   3.314   0.636   6.206 -0.6229  1.6971 -0.1238
 5012SOL    HW226673   3.380   0.719   6.315  1.2016 -1.5424  0.6225
 5013SOL     OW26674   0.607   1.966   6.713 -0.3421 -0.3209 -0.4744
 5013SOL    HW126675   0.629   1.877   6.687 -0.4578 -0.2350 -0.8667
 5013SOL    HW226676   0.588   2.010   6.630  0.0097  1.4003  0.3640
 5014SOL     OW26677   2.448   4.084  17.525 -0.2582 -0.1853  0.2138
 5014SOL    HW126678   2.534   4.051  17.500  0.7913  2.6996  0.0354
 5014SOL    HW226679   2.476   4.161  17.575 -0.2601 -0.1024  0.0859
 5015SOL     OW26680   3.805   1.601   1.903  0.2991 -0.4863 -0.1824
 5015SOL    HW126681   3.877   1.538   1.898  0.3876 -0.3821 -0.2351
 5015SOL    HW226682   3.836   1.652   1.828 -0.5537 -0.0492 -0.2410
 5016SOL     OW26683   3.245   0.265   3.583 -0.5965 -0.7009  0.0718
 5016SOL    HW126684   3.198   0.251   3.665 -2.3183  1.0027 -0.6157
 5016SOL    HW226685   3.321   0.207   3.581 -0.7138 -0.8353 -0.5464
 5017SOL     OW26686   1.902   2.127  10.063  0.4237 -0.1997  0.1239
 5017SOL    HW126687   1.903   2.215  10.025 -0.7520 -0.0877  0.3736
 5017SOL    HW226688   1.986   2.116  10.107  0.0347  2.0062  1.4452
 5018SOL     OW26689   2.401   1.586   6.513 -0.5567 -0.0062  0.2087
 5018SOL    HW126690   2.403   1.675   6.549  0.6406  1.2525 -2.9858
 5018SOL    HW226691   2.460   1.584   6.437 -1.2613 -1.1668 -0.3062
 5019SOL     OW26692   0.803   1.455  11.868  0.6337 -0.1805  0.7496
 5019SOL    HW126693   0.768   1.529  11.916 -2.0509 -1.4585  0.7528
 5019SOL    HW226694   0.729   1.437  11.810  2.0982  1.1581 -1.5729
 5020SOL     OW26695   2.263   2.153  16.320  0.0488 -0.1434  0.0570
 5020SOL    HW126696   2.314   2.138  16.399  0.9277  2.2227 -0.0511
 5020SOL    HW226697   2.171   2.131  16.336  0.1131 -0.4075  0.0631
 5021SOL     OW26698   3.969   2.420   5.689 -0.3599  0.0093  0.3030
 5021SOL    HW126699   3.892   2.399   5.636 -0.1082 -0.7253  0.2311
 5021SOL    HW226700   3.982   2.343   5.744  0.2607 -0.3071 -0.2969
 5022SOL     OW26701   2.839   4.423   3.028 -0.0285 -0.3596  0.5562
 5022SOL    HW126702   2.916   4.480   3.026 -0.2589 -0.1173 -0.7169
 5022SOL    HW226703   2.854   4.363   2.955  0.2724  0.0054  0.3184
 5023SOL     OW26704   3.347   1.895   1.922 -0.1069  0.5308 -0.1347
 5023SOL    HW126705   3.407   1.829   1.958 -1.6982 -2.6748 -3.3153
 5023SOL    HW226706   3.266   1.858   1.959  0.3710  1.0307  1.4283
 5024SOL     OW26707   2.966   0.198   4.403  0.5772  0.5350 -0.0325
 5024SOL    HW126708   2.998   0.167   4.488  0.6392  2.9253  0.8264
 5024SOL    HW226709   2.984   0.126   4.343  1.5584 -0.5831  1.5868
 5025SOL     OW26710   1.086   3.492   8.474 -0.0253  0.2377  0.3137
 5025SOL    HW126711   1.024   3.495   8.547 -3.6078 -1.3941 -2.6669
 5025SOL    HW226712   1.162   3.540   8.507  0.9146 -2.2221  1.7308
 5026SOL     OW26713   4.172   2.242  10.657  0.1717 -0.2827 -0.7561
 5026SOL    HW126714   4.089   2.199  10.679  0.0692  0.3629  0.1315
 5026SOL    HW226715   4.230   2.166  10.662  1.8416  1.0654  0.7229
 5027SOL     OW26716   4.063   3.041   7.518  0.2780  0.1469  0.0485
 5027SOL    HW126717   4.121   3.055   7.592  2.7353  2.3055 -2.2744
 5027SOL    HW226718   4.077   3.124   7.471 -0.6010  0.6132  0.6116
 5028SOL     OW26719   1.869   3.138   7.897  1.1145 -0.1509 -0.5880
 5028SOL    HW126720   1.785   3.172   7.864  0.9121 -0.5700 -0.5071
 5028SOL    HW226721   1.883   3.179   7.982 -0.6704 -0.4771 -0.1249
 5029SOL     OW26722   4.664   1.785   1.576 -0.5145 -0.0719  0.0408
 5029SOL    HW126723   4.603   1.713   1.564 -0.9682  0.2736  0.2900
 5029SOL    HW226724   4.735   1.740   1.530 -1.2655 -1.0777 -0.1245
 5030SOL     OW26725   1.039   3.508   1.610 -0.3664 -0.2937 -0.4839
 5030SOL    HW126726   1.044   3.435   1.672  0.3358  2.7367  3.0464
 5030SOL    HW226727   1.119   3.498   1.557  0.8518 -0.7494  1.4277
 5031SOL     OW26728   4.137   1.796   0.498 -0.2169  0.3513 -0.0004
 5031SOL    HW126729   4.108   1.725   0.441 -0.3569 -0.3586  0.9610
 5031SOL    HW226730   4.114   1.877   0.451  1.2882  1.3873  1.0534
 5032SOL     OW26731   1.284   1.925   6.831  0.1368  0.2098 -0.5850
 5032SOL    HW126732   1.240   1.921   6.916 -2.8550 -1.1599 -2.1971
 5032SOL    HW226733   1.360   1.867   6.835  0.6969  0.8896 -1.3406
 5033SOL     OW26734   4.334   3.984   9.408 -0.3757  0.0416 -0.8439
 5033SOL    HW126735   4.391   4.060   9.399  0.3727 -0.1881  2.0264
 5033SOL    HW226736   4.266   4.010   9.470 -2.1360 -2.6354 -1.6357
 5034SOL     OW26737   3.260   0.613   0.217 -0.0075  0.4904  0.2979
 5034SOL    HW126738   3.192   0.630   0.282 -0.1852 -1.8925  0.7315
 5034SOL    HW226739   3.269   0.518   0.213 -4.0162  0.1676 -1.3541
 5035SOL     OW26740   2.531   3.096   4.276 -0.3939 -0.4390  0.1519
 5035SOL    HW126741   2.590   3.168   4.254 -1.6217  0.0770 -1.4800
 5035SOL    HW226742   2.494   3.135   4.356 -0.8314  0.1840 -0.3519
 5036SOL     OW26743   1.751   3.467   3.754 -0.6102 -0.5392  0.1835
 5036SOL    HW126744   1.732   3.561   3.753  0.6292 -0.2844  0.4705
 5036SOL    HW226745   1.676   3.432   3.707 -1.4079  1.0320  0.2998
 5037SOL     OW26746   4.563   2.760   2.451 -0.4159 -0.0581 -0.6635
 5037SOL    HW126747   4.489   2.782   2.507  0.5479 -0.7679  0.9026
 5037SOL    HW226748   4.528   2.700   2.385 -1.3382 -0.4453  0.1691
 5038SOL     OW26749   2.527   2.207   9.605 -0.1818  0.2159 -0.0316
 5038SOL    HW126750   2.503   2.292   9.567  0.5716 -0.0679 -1.1125
 5038SOL    HW226751   2.493   2.223   9.693  0.2219  2.0000 -0.1949
 5039SOL     OW26752   0.884   1.821  17.191 -0.2784  0.6149 -0.7520
 5039SOL    HW126753   0.950   1.752  17.188 -0.3917  0.4731 -0.1061
 5039SOL    HW226754   0.857   1.801  17.281  1.2217 -0.2610 -0.4934
 5040SOL     OW26755   2.263   4.338   7.171  0.0883 -0.0648  0.2017
 5040SOL    HW126756   2.291   4.246   7.169 -3.1713 -1.0894  0.8025
 5040SOL    HW226757   2.215   4.355   7.252  0.2975  1.7043 -0.0525
 5041SOL     OW26758   1.950   1.432   6.152 -0.1959 -0.0284  0.3960
 5041SOL    HW126759   1.873   1.376   6.139  2.4220 -2.9687 -2.5248
 5041SOL    HW226760   2.000   1.423   6.072 -0.9290  1.6578 -0.2568
 5042SOL     OW26761   4.695   2.376   0.892  0.5194 -0.6718 -0.1946
 5042SOL    HW126762   0.034   2.375   0.952  2.5442 -2.7029 -2.7823
 5042SOL    HW226763   4.708   2.460   0.847 -1.8833 -0.6187 -0.8059
 5043SOL     OW26764   3.814   1.505   8.382  0.0756  0.3134  0.1814
 5043SOL    HW126765   3.736   1.560   8.383  0.2317  0.5193  1.6215
 5043SOL    HW226766   3.825   1.493   8.288  0.3432  1.7928  0.0337
 5044SOL     OW26767   1.903   2.501  15.355 -0.7614  0.6147 -0.0107
 5044SOL    HW126768   1.899   2.580  15.409  0.7907 -0.7615  2.1133
 5044SOL    HW226769   1.982   2.461  15.391 -1.3043  0.5382  1.0845
 5045SOL     OW26770   4.609   4.255   0.551  0.3534 -0.1197  0.0237
 5045SOL    HW126771   4.565   4.198   0.615  0.1000  0.8095  0.6788
 5045SOL    HW226772   4.701   4.236   0.566  0.5072  1.2592  0.7441
 5046SOL     OW26773   2.242   2.933   8.952 -0.9216  0.2723 -0.1591
 5046SOL    HW126774   2.225   2.909   9.043 -1.1965  0.2382 -0.2185
 5046SOL    HW226775   2.335   2.955   8.959 -0.8918  0.4565 -1.1441
 5047SOL     OW26776   4.427   3.584   0.268 -0.0804  0.2828  0.2441
 5047SOL    HW126777   4.391   3.515   0.212 -0.5471 -0.1181  1.0460
 5047SOL    HW226778   4.521   3.568   0.271 -0.2806 -1.1982 -1.0638
 5048SOL     OW26779   0.618   0.440   7.225 -0.2724  0.8253  0.5490
 5048SOL    HW126780   0.644   0.496   7.298 -4.0895  2.0381  0.9747
 5048SOL    HW226781   0.546   0.393   7.267  0.1302 -0.3058 -0.0264
 5049SOL     OW26782   0.728   1.010   9.467  0.0237  0.1521 -0.2954
 5049SOL    HW126783   0.783   1.059   9.406  1.3577 -0.4475  0.4258
 5049SOL    HW226784   0.701   1.087   9.518 -1.6295 -0.2875 -0.5110
 5050SOL     OW26785   1.644   4.519   8.548  0.0765  0.3030  0.5199
 5050SOL    HW126786   1.622   4.455   8.615 -0.0583 -2.5243 -2.2226
 5050SOL    HW226787   1.560   4.543   8.508 -0.4836  2.6826  3.1798
 5051SOL     OW26788   2.799   1.432   8.031 -0.5535 -0.3831  0.2037
 5051SOL    HW126789   2.757   1.359   8.077 -1.0198 -1.5131 -2.0258
 5051SOL    HW226790   2.850   1.472   8.101  0.7715  0.7556 -1.4295
 5052SOL     OW26791   3.543   1.119   7.313 -0.0805 -0.5357  0.3050
 5052SOL    HW126792   3.533   1.167   7.231  0.3452 -1.5709 -0.3425
 5052SOL    HW226793   3.461   1.079   7.340 -0.5467  1.5410  2.0497
 5053SOL     OW26794   1.037   3.119   6.798  0.1643  0.5941  0.5874
 5053SOL    HW126795   1.082   3.204   6.796 -0.1273  0.7517  0.6709
 5053SOL    HW226796   1.040   3.081   6.710  2.9734  0.5391  0.7261
 5054SOL     OW26797   1.325   3.785   8.161  1.0622  0.2917 -0.2947
 5054SOL    HW126798   1.282   3.868   8.182  0.0644 -0.2023 -0.4119
 5054SOL    HW226799   1.371   3.762   8.242 -0.0048 -0.8976 -0.0299
 5055SOL     OW26800   0.921   1.597   1.058 -0.1661  0.3058  0.3187
 5055SOL    HW126801   0.898   1.527   0.996 -2.0260 -0.4041  1.8254
 5055SOL    HW226802   0.848   1.657   1.043 -1.3308 -1.2270 -0.1084
 5056SOL     OW26803   0.132   2.410   2.940 -0.7178  0.2668  0.3548
 5056SOL    HW126804   0.061   2.432   2.880  1.1241 -1.6223 -2.5242
 5056SOL    HW226805   0.116   2.317   2.957  0.8227 -0.0058  0.3641
 5057SOL     OW26806   0.820   2.261   6.316  0.4947 -0.3976 -0.4890
 5057SOL    HW126807   0.821   2.350   6.281  2.6049  0.6008  2.1568
 5057SOL    HW226808   0.907   2.260   6.355  0.1277 -0.4615  0.3266
 5058SOL     OW26809   3.069   4.157  17.464  1.0187 -0.2342 -0.4412
 5058SOL    HW126810   3.092   4.076  17.511  0.4573 -0.8663 -1.2547
 5058SOL    HW226811   3.071   4.231  17.525  0.1911 -0.2730 -0.3618
 5059SOL     OW26812   0.176   3.052   4.115 -0.1179  0.4266 -0.4671
 5059SOL    HW126813   0.224   3.133   4.095  0.0411  0.2057 -0.9664
 5059SOL    HW226814   0.139   3.034   4.029  0.2290 -1.0149 -0.3038
 5060SOL     OW26815   2.388   0.989   0.446 -0.7484 -0.1780  0.0577
 5060SOL    HW126816   2.357   0.908   0.485 -0.5211  0.6232  1.9168
 5060SOL    HW226817   2.360   1.044   0.519 -0.0122 -0.4885  0.5739
 5061SOL     OW26818   2.761   3.731   6.843  0.4927 -0.1683 -0.1887
 5061SOL    HW126819   2.699   3.662   6.866 -0.2312  0.6294  0.2311
 5061SOL    HW226820   2.801   3.694   6.764 -0.2039 -1.2925 -0.0045
 5062SOL     OW26821   3.961   2.771   5.483 -0.0132  0.8720 -0.2637
 5062SOL    HW126822   4.011   2.782   5.402  3.2796  0.0177  1.6728
 5062SOL    HW226823   4.005   2.825   5.549  1.7386 -1.6510  0.6575
 5063SOL     OW26824   1.416   4.549   4.898  0.1876 -0.5423 -0.3150
 5063SOL    HW126825   1.453   4.626   4.857 -0.2290  1.0295  2.2187
 5063SOL    HW226826   1.441   4.477   4.840  1.1169  0.0889 -0.6804
 5064SOL     OW26827   0.065   1.895   3.377  0.1943  0.4209 -0.5519
 5064SOL    HW126828   0.155   1.880   3.347  0.4333 -0.6211  0.6737
 5064SOL    HW226829   0.032   1.940   3.300 -1.2698 -0.4481 -0.4380
 5065SOL     OW26830   1.190   2.641   1.427 -0.0517  0.3143  0.0001
 5065SOL    HW126831   1.210   2.554   1.461 -2.2401 -0.0889  0.2916
 5065SOL    HW226832   1.268   2.663   1.376 -0.8476  2.2786 -0.3875
 5066SOL     OW26833   0.506   2.468   6.418  0.0141  0.3419  0.2027
 5066SOL    HW126834   0.508   2.492   6.325 -1.0902 -0.5557 -0.0403
 5066SOL    HW226835   0.570   2.397   6.427 -0.6339 -0.5568 -2.3335
 5067SOL     OW26836   1.400   3.178   3.727 -0.0409  0.3269  0.2885
 5067SOL    HW126837   1.362   3.212   3.808 -0.6072 -0.0693  0.1861
 5067SOL    HW226838   1.322   3.153   3.678 -0.1030 -0.5553  0.8512
 5068SOL     OW26839   1.691   0.160   2.333 -0.0882 -0.8264 -0.1166
 5068SOL    HW126840   1.756   0.090   2.345 -1.0840 -1.5135  1.3183
 5068SOL    HW226841   1.741   0.226   2.285 -1.6364 -0.7471 -1.5925
 5069SOL     OW26842   1.615   3.845   2.881  0.5874  0.3711  0.2067
 5069SOL    HW126843   1.671   3.831   2.805  3.2580 -1.3398  2.5280
 5069SOL    HW226844   1.679   3.890   2.935  0.8764 -1.6948  1.5531
 5070SOL     OW26845   3.007   3.890   6.876 -0.7057  0.2856  0.0866
 5070SOL    HW126846   3.019   3.820   6.811 -0.7266  2.6689 -2.4782
 5070SOL    HW226847   2.932   3.922   6.826 -0.5419  0.7440  0.1306
 5071SOL     OW26848   1.014   4.691   6.903  0.0556  0.4486 -0.5094
 5071SOL    HW126849   0.953   0.002   6.960  0.2125 -2.7810  2.3294
 5071SOL    HW226850   1.094   0.007   6.898 -0.7180  1.7870  0.8872
 5072SOL     OW26851   4.263   3.052   8.573  0.0093 -0.4080  0.1181
 5072SOL    HW126852   4.333   3.004   8.619 -0.3941 -2.7482 -1.7312
 5072SOL    HW226853   4.185   2.997   8.566 -0.0805 -0.3426  0.5886
 5073SOL     OW26854   0.626   2.073   2.630 -0.0934 -0.7591  0.5493
 5073SOL    HW126855   0.629   2.068   2.726 -0.0576  0.0293  0.5870
 5073SOL    HW226856   0.707   2.109   2.596  0.2527 -1.7130  0.3645
 5074SOL     OW26857   0.076   2.708   4.589  0.0020  0.0139 -0.1182
 5074SOL    HW126858   0.133   2.774   4.629  1.6187 -0.7122 -1.2389
 5074SOL    HW226859   0.138   2.638   4.572 -0.5760 -0.1005 -1.7634
 5075SOL     OW26860   1.380   2.501   1.624 -0.6589  0.3067  0.0234
 5075SOL    HW126861   1.430   2.443   1.567 -0.8051  1.2155 -1.0138
 5075SOL    HW226862   1.355   2.446   1.698 -0.9446 -0.4319 -0.6310
 5076SOL     OW26863   2.392   1.705   0.668  0.3864  0.6251  0.0039
 5076SOL    HW126864   2.456   1.750   0.614  0.0006  0.0688 -0.9282
 5076SOL    HW226865   2.439   1.625   0.693 -0.5978 -0.0783 -0.4003
 5077SOL     OW26866   3.418   1.687  15.565  0.0453  0.0540  0.1515
 5077SOL    HW126867   3.452   1.601  15.589  1.9803  0.3816 -1.4593
 5077SOL    HW226868   3.483   1.722  15.504  1.6405  1.4625  2.6606
 5078SOL     OW26869   1.506   2.377   8.876 -0.5118 -0.0603 -0.4054
 5078SOL    HW126870   1.437   2.333   8.926 -1.5826  0.1737 -1.6561
 5078SOL    HW226871   1.574   2.394   8.941  2.9096 -1.2758 -3.6698
 5079SOL     OW26872   0.863   0.678  16.151 -0.7766  0.8493  0.4102
 5079SOL    HW126873   0.863   0.715  16.063  2.4010 -0.5242 -0.1819
 5079SOL    HW226874   0.928   0.608  16.146 -0.2655  1.5618 -3.1154
 5080SOL     OW26875   2.753   4.334   3.444 -0.1158 -0.6962  0.1676
 5080SOL    HW126876   2.706   4.294   3.370  0.2839 -0.9398  0.0414
 5080SOL    HW226877   2.806   4.403   3.404 -0.7226  1.0312  2.3279
 5081SOL     OW26878   2.796   3.458  12.514  0.1445 -0.1020 -0.2795
 5081SOL    HW126879   2.815   3.394  12.445  0.6568  0.1092 -0.3358
 5081SOL    HW226880   2.874   3.455  12.569 -0.0628 -1.5744 -0.0719
 5082SOL     OW26881   4.516   3.812   7.517  0.1683 -0.5898  0.4023
 5082SOL    HW126882   4.424   3.837   7.506 -0.0085 -1.2597  0.3045
 5082SOL    HW226883   4.534   3.859   7.598 -1.5604  0.0227  0.4413
 5083SOL     OW26884   3.890   3.464  10.471  0.1669  0.3705  0.1894
 5083SOL    HW126885   3.973   3.510  10.480  0.2080  0.2422  0.4591
 5083SOL    HW226886   3.913   3.424  10.387 -0.2989  0.0962  0.1916
 5084SOL     OW26887   2.245   4.502   6.470  0.0068  0.1742 -0.0247
 5084SOL    HW126888   2.216   4.541   6.388  0.3305  0.0259 -0.2079
 5084SOL    HW226889   2.174   4.443   6.497 -1.1182  0.9930 -1.1947
 5085SOL     OW26890   1.356   1.254   5.429 -0.0784  0.7769  0.0705
 5085SOL    HW126891   1.327   1.229   5.517  1.9213 -0.5188  0.3809
 5085SOL    HW226892   1.273   1.283   5.392 -0.6430  0.9672  1.4587
 5086SOL     OW26893   2.589   1.471   4.080 -0.2100 -0.2892 -0.1744
 5086SOL    HW126894   2.668   1.422   4.059 -1.2887 -3.3239  2.7142
 5086SOL    HW226895   2.545   1.461   3.996 -1.0853 -1.4732  0.4262
 5087SOL     OW26896   2.842   2.384  16.319  0.2114 -0.3345 -0.2788
 5087SOL    HW126897   2.822   2.388  16.413 -0.6259  0.3624 -0.4844
 5087SOL    HW226898   2.925   2.336  16.324  0.8289  0.8234  0.5765
 5088SOL     OW26899   4.400   1.721   7.002 -0.0677 -0.2375 -0.1842
 5088SOL    HW126900   4.495   1.707   7.012  0.2684  1.7456 -0.5072
 5088SOL    HW226901   4.406   1.816   6.991  1.0539 -0.4099 -1.0993
 5089SOL     OW26902   3.449   0.720  14.086 -0.7964 -0.1430 -0.2207
 5089SOL    HW126903   3.543   0.709  14.072 -0.6631  0.8231 -0.0747
 5089SOL    HW226904   3.438   0.653  14.154  0.2329  0.3259  0.4082
 5090SOL     OW26905   4.402   3.419   7.771 -0.0537 -0.1103 -0.6639
 5090SOL    HW126906   4.442   3.352   7.715  1.5331  0.5373 -0.2899
 5090SOL    HW226907   4.330   3.363   7.802 -0.9776  0.2064 -2.2267
 5091SOL     OW26908   0.451   1.185  13.314 -0.6528  0.2657 -0.1651
 5091SOL    HW126909   0.398   1.172  13.235 -1.8741 -1.0802  0.8662
 5091SOL    HW226910   0.528   1.231  13.281  0.4049 -3.1166 -2.4533
 5092SOL     OW26911   0.896   2.887   3.600 -0.3117  0.0350 -0.0127
 5092SOL    HW126912   0.913   2.950   3.669  4.2522  0.2360 -1.3167
 5092SOL    HW226913   0.815   2.840   3.622 -0.2626  0.5701  1.3089
 5093SOL     OW26914   4.538   1.041   9.026  0.3693 -0.2139  0.2699
 5093SOL    HW126915   4.586   1.123   9.035 -3.3421  2.0805 -0.5086
 5093SOL    HW226916   4.586   0.980   9.081 -1.1190 -0.6224  1.1161
 5094SOL     OW26917   4.682   3.163   5.036  0.2777  0.3790 -0.7118
 5094SOL    HW126918   4.596   3.203   5.048 -0.9832 -2.0235 -1.8752
 5094SOL    HW226919   4.687   3.148   4.942  2.1345  1.9137 -0.8737
 5095SOL     OW26920   4.430   3.051   6.919  0.0677 -0.1247  0.3030
 5095SOL    HW126921   4.449   3.055   6.826 -1.8201 -0.9982 -0.1123
 5095SOL    HW226922   4.518   3.064   6.955  0.4512  1.1369 -1.1015
 5096SOL     OW26923   3.923   1.568   5.074  0.5856  0.2690  0.2371
 5096SOL    HW126924   3.882   1.567   4.988 -1.0307  1.4914  0.9907
 5096SOL    HW226925   3.859   1.617   5.126  0.1447 -0.3690  0.2907
 5097SOL     OW26926   3.498   0.112   3.610  0.0389  0.0927  0.0520
 5097SOL    HW126927   3.573   0.053   3.604  0.4273  0.7198 -1.1666
 5097SOL    HW226928   3.534   0.194   3.644 -0.1294 -0.0735  0.6305
 5098SOL     OW26929   0.801   3.557   0.101 -0.4212 -0.5554 -0.0976
 5098SOL    HW126930   0.802   3.601   0.186  1.1303 -0.2334 -0.2908
 5098SOL    HW226931   0.713   3.518   0.103  0.0085 -1.5348 -0.0826
 5099SOL     OW26932   1.081   1.485   8.713 -0.3310  0.5090 -0.2811
 5099SOL    HW126933   1.034   1.409   8.679 -0.7132 -0.0542  1.5032
 5099SOL    HW226934   1.166   1.465   8.675 -0.3106 -0.8998  0.4981
 5100SOL     OW26935   1.490   1.121   6.524 -0.1275  0.7450 -0.1877
 5100SOL    HW126936   1.504   1.101   6.617 -0.1238  0.1340 -0.3186
 5100SOL    HW226937   1.562   1.178   6.495  0.7806  2.0451  4.5095
 5101SOL     OW26938   2.535   0.242  12.591  0.4463 -0.3653 -0.4679
 5101SOL    HW126939   2.521   0.194  12.673  0.4631 -3.3866 -2.2066
 5101SOL    HW226940   2.500   0.169  12.539 -0.5948 -0.1314 -0.0934
 5102SOL     OW26941   2.424   2.491   6.321  0.1863 -0.4189 -0.0745
 5102SOL    HW126942   2.332   2.468   6.310 -0.4834  2.8286 -1.3112
 5102SOL    HW226943   2.457   2.414   6.366  2.1532  1.4089  1.6137
 5103SOL     OW26944   4.004   3.150   8.978  0.2655  0.1540 -0.5285
 5103SOL    HW126945   4.093   3.136   8.944  0.6495  3.1570 -0.7820
 5103SOL    HW226946   4.014   3.172   9.070  2.9069 -1.5011 -0.4113
 5104SOL     OW26947   3.783   0.353   3.500 -0.3659 -0.6337  0.2384
 5104SOL    HW126948   3.878   0.342   3.508 -0.1555 -0.2585 -1.6510
 5104SOL    HW226949   3.772   0.441   3.462 -0.7059 -0.5851  0.4451
 5105SOL     OW26950   0.836   3.019   4.488  0.6196  0.3843  0.0013
 5105SOL    HW126951   0.829   3.101   4.439  2.2351  0.5850  0.1152
 5105SOL    HW226952   0.818   2.955   4.419  0.6967  0.2856  0.0715
 5106SOL     OW26953   2.065   3.200   2.189 -0.0727  0.6964 -0.0750
 5106SOL    HW126954   2.140   3.221   2.245 -0.3392  1.0764  0.1387
 5106SOL    HW226955   1.995   3.250   2.232 -2.2432  0.2254 -3.0647
 5107SOL     OW26956   4.367   2.739  17.213  0.5429  0.1833  0.0779
 5107SOL    HW126957   4.406   2.763  17.297  1.1046  1.2175 -0.4781
 5107SOL    HW226958   4.296   2.680  17.237 -0.8970  2.0869  0.5212
 5108SOL     OW26959   3.598   1.526   5.534  0.3420 -0.1413 -0.1203
 5108SOL    HW126960   3.638   1.575   5.463  2.0026  0.4888  1.2476
 5108SOL    HW226961   3.673   1.505   5.591 -0.2138 -1.0069  0.3028
 5109SOL     OW26962   3.760   1.142   1.007  0.7036 -0.1387  0.2022
 5109SOL    HW126963   3.665   1.145   1.022  0.4919 -2.4604 -0.6280
 5109SOL    HW226964   3.797   1.170   1.091 -0.8048  1.5328  0.3148
 5110SOL     OW26965   0.779   1.678   1.954  0.0170  0.2917 -0.3569
 5110SOL    HW126966   0.828   1.756   1.981  0.4493 -0.2927  0.5156
 5110SOL    HW226967   0.688   1.709   1.956 -0.4981 -1.1231 -1.6579
 5111SOL     OW26968   2.006   4.365   2.705 -0.4196 -0.0876 -0.1762
 5111SOL    HW126969   1.931   4.330   2.754 -1.1734  2.0751  0.2000
 5111SOL    HW226970   2.060   4.287   2.714 -1.2222 -0.7184 -0.7738
 5112SOL     OW26971   0.390   2.698   2.085  0.5653 -0.3165  0.6477
 5112SOL    HW126972   0.480   2.726   2.098  0.3316  0.0831  1.3963
 5112SOL    HW226973   0.340   2.779   2.087 -0.4924 -0.9567  0.0097
 5113SOL     OW26974   0.206   2.110   7.334  0.5169 -0.2318 -0.5606
 5113SOL    HW126975   0.147   2.185   7.340  0.0616 -0.4547 -2.3365
 5113SOL    HW226976   0.282   2.152   7.294  0.1680 -0.6961 -1.7191
 5114SOL     OW26977   4.330   1.154  11.826 -0.6714 -0.4173  0.1118
 5114SOL    HW126978   4.356   1.072  11.869 -0.1518 -0.1755  0.2623
 5114SOL    HW226979   4.290   1.201  11.898 -0.2786 -0.1979  0.1875
 5115SOL     OW26980   1.511   4.263   5.073  0.3235  0.2055  0.0967
 5115SOL    HW126981   1.495   4.256   4.979 -1.9220 -2.1483  0.6590
 5115SOL    HW226982   1.430   4.309   5.095  0.5094  0.5919 -0.0173
 5116SOL     OW26983   1.105   2.079   4.405  0.0747 -0.1990 -0.7888
 5116SOL    HW126984   1.149   2.000   4.436 -0.2539 -0.4794 -1.0363
 5116SOL    HW226985   1.016   2.048   4.389 -0.2825  0.1386  0.4797
 5117SOL     OW26986   2.562   2.490   5.733  0.3937  0.0821  0.1039
 5117SOL    HW126987   2.658   2.488   5.732  0.3285 -2.9312  0.9683
 5117SOL    HW226988   2.548   2.397   5.713  1.3664  0.4430 -2.2022
 5118SOL     OW26989   3.280   0.125   1.372  0.4521 -0.2345 -0.1570
 5118SOL    HW126990   3.254   0.176   1.448  1.0179  1.4288 -1.0912
 5118SOL    HW226991   3.353   0.072   1.403  1.5561  1.2858 -0.1692
 5119SOL     OW26992   2.583   0.711   1.724  0.1110  0.3077  0.2003
 5119SOL    HW126993   2.604   0.619   1.712  1.4023  0.7078 -0.6116
 5119SOL    HW226994   2.668   0.755   1.724  0.3915 -0.2779  3.0061
 5120SOL     OW26995   3.727   2.484   3.906 -0.1003  0.6399 -0.0908
 5120SOL    HW126996   3.685   2.507   3.989  0.0178 -3.0568  0.9674
 5120SOL    HW226997   3.819   2.472   3.927 -0.6148 -1.3285  1.0073
 5121SOL     OW26998   1.129   3.351  10.714  0.3731  0.5234  0.0338
 5121SOL    HW126999   1.123   3.428  10.770  1.5682  0.6045  0.0373
 5121SOL    HW227000   1.136   3.278  10.775 -0.5318  0.8524  0.5348
 5122SOL     OW27001   0.621   0.066   2.786  0.0159 -0.0991 -0.1805
 5122SOL    HW127002   0.594   0.095   2.872 -1.2114 -0.3139 -0.4989
 5122SOL    HW227003   0.539   0.049   2.740 -0.5967 -0.3561  1.0094
 5123SOL     OW27004   3.029   0.568  16.161 -0.3975  0.2739  0.1430
 5123SOL    HW127005   3.030   0.652  16.115 -2.9515 -0.6946 -1.7024
 5123SOL    HW227006   3.067   0.515  16.091 -1.6764 -0.5383  0.0636
 5124SOL     OW27007   3.351   0.411  17.145  0.1469 -0.0928 -0.8056
 5124SOL    HW127008   3.376   0.464  17.221  1.5145 -3.3252  0.9859
 5124SOL    HW227009   3.431   0.426  17.095 -0.4377  1.2080 -1.3630
 5125SOL     OW27010   4.545   2.273   5.592 -0.0156 -0.0986  0.3671
 5125SOL    HW127011   4.453   2.251   5.579 -0.5139  3.1933 -1.7435
 5125SOL    HW227012   4.534   2.365   5.616 -1.5611  0.1285 -1.2070
 5126SOL     OW27013   4.075   2.848   1.774  0.0211  0.2816  0.2711
 5126SOL    HW127014   4.004   2.904   1.742  0.5589  1.7633  1.6692
 5126SOL    HW227015   4.133   2.921   1.797  0.8272 -0.6368  1.1679
 5127SOL     OW27016   2.952   1.789   4.728  0.2831  0.2510 -0.1047
 5127SOL    HW127017   2.940   1.740   4.809 -0.5409 -1.3613 -1.2045
 5127SOL    HW227018   2.935   1.724   4.660  1.3519  0.4231 -0.5244
 5128SOL     OW27019   2.874   3.870   1.745  0.1988  0.3719 -0.0217
 5128SOL    HW127020   2.836   3.957   1.757  0.4434  0.3871  0.5963
 5128SOL    HW227021   2.944   3.871   1.809  0.9450 -0.9931 -0.8136
 5129SOL     OW27022   2.089   0.564   9.729  0.0290  0.2826 -0.7129
 5129SOL    HW127023   2.168   0.596   9.684  1.1201 -0.9733  0.3102
 5129SOL    HW227024   2.050   0.641   9.770  0.6589  0.2759 -0.1031
 5130SOL     OW27025   3.311   0.875   9.241  0.3531 -0.0232 -0.2337
 5130SOL    HW127026   3.320   0.970   9.252  0.2464 -0.3034  2.4024
 5130SOL    HW227027   3.372   0.853   9.312  2.0772 -0.2867 -1.8105
 5131SOL     OW27028   0.643   1.278  15.538  0.6740  0.1218 -0.5639
 5131SOL    HW127029   0.616   1.214  15.603  0.0368 -0.2692 -1.2158
 5131SOL    HW227030   0.560   1.317  15.510  0.9894  0.5511 -0.9053
 5132SOL     OW27031   1.758   2.866   6.037  0.1831 -0.0524  0.1665
 5132SOL    HW127032   1.755   2.962   6.032  2.9785 -0.0138 -0.9295
 5132SOL    HW227033   1.853   2.858   6.030  0.4796  3.9351 -0.1422
 5133SOL     OW27034   3.544   0.657   1.104 -0.6235  0.6647  0.4659
 5133SOL    HW127035   3.521   0.611   1.023  1.3637  1.0932 -0.3578
 5133SOL    HW227036   3.570   0.741   1.066  1.0754 -0.1277 -0.1148
 5134SOL     OW27037   3.553   0.535   8.702 -0.1730  0.0914  0.3483
 5134SOL    HW127038   3.504   0.616   8.715 -0.5285  0.0764 -0.9141
 5134SOL    HW227039   3.630   0.554   8.649  0.8179  0.0054  1.7583
 5135SOL     OW27040   4.359   1.405   5.182 -0.1637 -0.1599 -0.7579
 5135SOL    HW127041   4.423   1.470   5.152 -0.0671  1.1900  2.3844
 5135SOL    HW227042   4.317   1.381   5.099  0.4875  0.1931 -1.1849
 5136SOL     OW27043   1.167   1.010   2.655  0.2186 -0.0141 -0.4345
 5136SOL    HW127044   1.254   0.970   2.660  0.2386 -0.1887 -1.8883
 5136SOL    HW227045   1.110   0.954   2.707 -0.9893 -2.1054 -3.9476
 5137SOL     OW27046   1.398   0.958   4.223  0.5129  0.7292  0.1225
 5137SOL    HW127047   1.477   0.919   4.183  0.0072  0.0012 -0.1611
 5137SOL    HW227048   1.332   0.890   4.210  0.1539  1.0934  0.0275
 5138SOL     OW27049   0.387   3.383   1.636 -0.4412 -0.3924  0.3431
 5138SOL    HW127050   0.360   3.345   1.719 -1.8876 -1.6366 -0.6875
 5138SOL    HW227051   0.462   3.438   1.657  0.6621 -1.8146  0.1454
 5139SOL     OW27052   4.254   2.326   8.641  0.6554 -0.1724  0.2263
 5139SOL    HW127053   4.212   2.252   8.684  1.8983 -0.6564  0.5811
 5139SOL    HW227054   4.308   2.289   8.571  0.2606 -1.0064  0.3598
 5140SOL     OW27055   1.350   0.206  16.638 -0.6525  0.0895 -0.0950
 5140SOL    HW127056   1.393   0.187  16.554 -0.6705  1.9671 -0.5402
 5140SOL    HW227057   1.417   0.266  16.671 -0.4984 -0.2236  0.1560
 5141SOL     OW27058   4.369   0.507   0.213 -0.0986 -0.4865  0.0162
 5141SOL    HW127059   4.275   0.486   0.214 -0.0757 -0.6752 -1.4838
 5141SOL    HW227060   4.363   0.592   0.255 -1.7881 -0.5636 -0.0739
 5142SOL     OW27061   3.246   0.637   3.446 -0.7005 -0.3241  0.7958
 5142SOL    HW127062   3.173   0.575   3.437 -1.6894  1.0303 -0.4438
 5142SOL    HW227063   3.209   0.724   3.455  0.8644  0.3844  0.2734
 5143SOL     OW27064   1.878   4.121  16.225 -0.2754 -0.6560 -0.1677
 5143SOL    HW127065   1.903   4.176  16.151 -0.2529  1.4064  1.3781
 5143SOL    HW227066   1.941   4.144  16.293  0.7293  2.0320 -1.9926
 5144SOL     OW27067   1.264   2.770   0.063 -0.5476 -0.4932  0.1083
 5144SOL    HW127068   1.335   2.707   0.055  1.0058  1.3106 -0.2779
 5144SOL    HW227069   1.305   2.838   0.116  1.3810 -0.6792 -1.1331
 5145SOL     OW27070   3.213   1.026   1.518 -0.1439  0.1685 -0.2948
 5145SOL    HW127071   3.189   1.011   1.609 -2.5746 -0.9507 -1.1102
 5145SOL    HW227072   3.137   0.986   1.475  0.6873 -1.3895 -0.3276
 5146SOL     OW27073   3.185   1.775  12.498 -0.1337  0.1668  0.2620
 5146SOL    HW127074   3.265   1.810  12.538  0.9564 -2.7871  0.6442
 5146SOL    HW227075   3.207   1.765  12.406 -0.6860 -0.7200  0.2311
 5147SOL     OW27076   3.539   0.525   0.835  0.2677 -0.6001 -0.1149
 5147SOL    HW127077   3.535   0.511   0.741 -0.2702  1.1959 -0.3550
 5147SOL    HW227078   3.472   0.463   0.863  1.0654 -1.9228 -1.1144
 5148SOL     OW27079   0.120   4.278   3.922 -0.4173 -0.0244  0.4594
 5148SOL    HW127080   0.059   4.300   3.852  1.5998 -0.2119 -1.3757
 5148SOL    HW227081   0.102   4.339   3.995  0.1074 -2.5232  2.6807
 5149SOL     OW27082   4.735   4.083   7.631  0.5117  0.0834  0.5459
 5149SOL    HW127083   4.716   3.999   7.674  1.4340 -0.3467  0.1205
 5149SOL    HW227084   4.663   4.134   7.668  0.9408  0.1446  1.3013
 5150SOL     OW27085   2.638   0.453   6.923 -0.1637 -0.9594 -0.3223
 5150SOL    HW127086   2.679   0.445   7.010 -0.7828 -1.2097 -0.0524
 5150SOL    HW227087   2.706   0.411   6.870  0.5992 -0.3408  0.1536
 5151SOL     OW27088   1.985   1.149   3.898  0.1336 -0.5278 -0.3482
 5151SOL    HW127089   2.019   1.212   3.834 -1.7276  2.5144  1.6324
 5151SOL    HW227090   2.028   1.177   3.979  0.6046 -0.9350 -0.4549
 5152SOL     OW27091   1.750   3.239   3.407 -0.1696 -0.1092 -0.3747
 5152SOL    HW127092   1.727   3.162   3.355 -0.5545 -1.2404  1.4731
 5152SOL    HW227093   1.728   3.202   3.492  1.4080 -1.0425 -0.3743
 5153SOL     OW27094   4.537   0.530   9.011  0.6999 -0.1807  0.0336
 5153SOL    HW127095   4.563   0.454   8.960 -1.6938 -2.8820  2.8846
 5153SOL    HW227096   4.603   0.535   9.081  1.0157  1.4749 -0.3692
 5154SOL     OW27097   3.988   1.984   8.109 -0.4243 -0.4305 -0.7881
 5154SOL    HW127098   4.080   2.007   8.118 -0.5642 -0.3241  0.3155
 5154SOL    HW227099   3.999   1.891   8.126  1.5370  0.2006  1.2828
 5155SOL     OW27100   2.672   3.787   6.293 -0.0401  0.1792 -0.3103
 5155SOL    HW127101   2.716   3.732   6.228 -0.5859 -0.7988  0.1488
 5155SOL    HW227102   2.655   3.723   6.363  0.3284 -0.3035 -0.6597
 5156SOL     OW27103   0.029   1.541   4.513 -0.0611  0.1180 -0.4716
 5156SOL    HW127104   0.068   1.548   4.600  2.5972 -2.5091 -1.4427
 5156SOL    HW227105   0.075   1.611   4.468  2.3180 -1.2750 -0.2240
 5157SOL     OW27106   4.414   2.713  16.832 -0.2229  0.0643 -0.2561
 5157SOL    HW127107   4.353   2.731  16.761 -1.6932  0.2708  1.0580
 5157SOL    HW227108   4.376   2.771  16.898  1.8722  1.0046  0.1446
 5158SOL     OW27109   1.589   0.031   8.752 -0.0648 -0.2265  0.4524
 5158SOL    HW127110   1.660   4.723   8.705 -1.8153  1.1120 -3.3866
 5158SOL    HW227111   1.630   0.062   8.832  0.2490  0.5678 -0.0186
 5159SOL     OW27112   1.514   4.275   4.289  0.3614  0.5006 -0.1306
 5159SOL    HW127113   1.518   4.301   4.197  1.2548  0.5893 -0.0595
 5159SOL    HW227114   1.425   4.299   4.316 -0.4513 -0.4384 -1.9163
 5160SOL     OW27115   0.861   0.049   5.238  0.4933  0.0614 -0.1589
 5160SOL    HW127116   0.873   0.142   5.258  0.3594  0.2742 -1.0758
 5160SOL    HW227117   0.919   0.040   5.163 -0.9172 -2.1715 -0.9801
 5161SOL     OW27118   0.596   1.062   8.607 -0.5126 -0.2614  0.3292
 5161SOL    HW127119   0.636   1.149   8.614 -0.8945 -0.1914  1.5094
 5161SOL    HW227120   0.670   1.007   8.580  0.5443 -0.4721  3.6245
 5162SOL     OW27121   4.707   1.551   2.538 -0.4128  0.4449 -0.8963
 5162SOL    HW127122   0.050   1.509   2.570 -0.6732 -0.3354 -1.2685
 5162SOL    HW227123   0.012   1.598   2.464  1.8498 -1.0004 -0.5568
 5163SOL     OW27124   3.615   0.786   8.356 -0.1394  0.3435 -0.1651
 5163SOL    HW127125   3.546   0.829   8.408 -1.0776 -2.5999  1.0015
 5163SOL    HW227126   3.688   0.805   8.416 -0.5250  0.0513  0.3918
 5164SOL     OW27127   2.639   2.505   4.311 -0.2875 -0.5000 -0.0292
 5164SOL    HW127128   2.563   2.563   4.322 -0.3047 -0.5049 -0.1185
 5164SOL    HW227129   2.677   2.544   4.232  0.6601  1.5638  1.4204
 5165SOL     OW27130   4.168   1.965   3.154  0.0068  0.1233 -0.2728
 5165SOL    HW127131   4.098   2.019   3.190  0.4244  1.2618 -1.1785
 5165SOL    HW227132   4.225   1.973   3.230  1.4600  1.1132 -1.4544
 5166SOL     OW27133   1.445   1.588   7.227  0.1806 -0.2294  0.5053
 5166SOL    HW127134   1.435   1.644   7.304 -0.6254 -1.1683  1.0725
 5166SOL    HW227135   1.540   1.577   7.235  0.0233 -0.2538  2.3637
 5167SOL     OW27136   3.671   1.585  10.235  0.4201  0.0470  0.1427
 5167SOL    HW127137   3.712   1.586  10.149  2.5817 -2.9768  1.1168
 5167SOL    HW227138   3.583   1.611  10.210  0.2853  0.1190  0.6859
 5168SOL     OW27139   2.091   1.558   9.391 -0.1225 -0.0485 -0.0036
 5168SOL    HW127140   2.143   1.537   9.468  0.1211 -0.7407 -0.3600
 5168SOL    HW227141   2.157   1.568   9.323 -1.7420 -0.6368 -1.6710
 5169SOL     OW27142   2.957   3.221  10.528  0.2982  0.1140 -0.3370
 5169SOL    HW127143   2.941   3.308  10.491  1.4074  0.2476 -0.4879
 5169SOL    HW227144   2.895   3.168  10.478  0.8408 -0.1206 -0.7571
 5170SOL     OW27145   3.594   0.982  13.579  0.3098 -0.7771 -0.1078
 5170SOL    HW127146   3.602   1.054  13.516 -0.1659  1.3472  2.2507
 5170SOL    HW227147   3.542   0.923  13.524 -3.0144 -0.7257  2.9926
 5171SOL     OW27148   4.240   1.997   7.506  0.0393 -0.2684 -0.5616
 5171SOL    HW127149   4.321   2.008   7.556  0.1580 -1.4617 -0.4799
 5171SOL    HW227150   4.187   1.937   7.560  2.9769 -0.7707  1.8008
 5172SOL     OW27151   3.973   4.126   8.886  0.2019 -0.6070 -0.1321
 5172SOL    HW127152   3.906   4.069   8.924 -1.1870 -0.3196 -2.1399
 5172SOL    HW227153   3.930   4.211   8.892  1.2484 -0.1431  0.6636
 5173SOL     OW27154   0.498   3.450   5.334  0.3130 -0.0399  0.0158
 5173SOL    HW127155   0.482   3.498   5.415  0.9422  2.6828 -1.4921
 5173SOL    HW227156   0.547   3.375   5.367  0.4932 -1.2463 -2.9429
 5174SOL     OW27157   4.315   0.176   0.209  0.6855 -0.0138 -0.3802
 5174SOL    HW127158   4.357   0.150   0.126 -2.0526  0.9863 -2.0847
 5174SOL    HW227159   4.348   0.105   0.265 -0.2868  0.1239  0.3552
 5175SOL     OW27160   1.211   2.491   4.755  0.1514 -0.1023 -0.0498
 5175SOL    HW127161   1.227   2.398   4.740  2.4216  0.1031  1.0811
 5175SOL    HW227162   1.239   2.511   4.844 -2.2217 -2.5574  1.2541
 5176SOL     OW27163   1.357   2.903   9.042 -0.0495  0.2261  0.1530
 5176SOL    HW127164   1.348   2.985   9.090  3.3478  0.8555 -0.2768
 5176SOL    HW227165   1.355   2.847   9.119  0.5617  2.0975  1.5309
 5177SOL     OW27166   4.176   3.866   0.926 -0.1007  0.1085 -0.0133
 5177SOL    HW127167   4.242   3.912   0.977  2.3899 -1.8494 -1.4815
 5177SOL    HW227168   4.227   3.811   0.867  0.0851  0.5563 -0.2700
 5178SOL     OW27169   3.902   0.281   8.098 -0.1384 -0.1661 -0.0804
 5178SOL    HW127170   3.842   0.312   8.166  1.0067  0.4089  0.6810
 5178SOL    HW227171   3.842   0.213   8.069 -0.3935 -0.4836  1.1885
 5179SOL     OW27172   1.600   2.527  12.477 -0.5956 -0.3633 -0.2380
 5179SOL    HW127173   1.598   2.554  12.568 -3.1568  1.1353 -0.7387
 5179SOL    HW227174   1.594   2.613  12.437  1.1717 -0.3175 -0.4016
 5180SOL     OW27175   1.058   0.246   3.800 -0.3153  0.6923 -0.1329
 5180SOL    HW127176   1.074   0.177   3.736  2.1992 -0.5456  1.8690
 5180SOL    HW227177   0.963   0.257   3.794 -0.0569  2.6429 -0.5302
 5181SOL     OW27178   3.154   4.711   2.266 -0.5733 -0.4936  0.0446
 5181SOL    HW127179   3.090   4.712   2.337 -1.0227 -1.2897 -0.3459
 5181SOL    HW227180   3.214   4.644   2.298 -0.8513 -0.2931  0.9814
 5182SOL     OW27181   3.078   2.208  17.033 -0.5292  0.5842 -0.3542
 5182SOL    HW127182   3.045   2.121  17.011 -0.3976  0.2234  0.8542
 5182SOL    HW227183   3.005   2.261  17.002 -2.9747 -1.3495  2.1135
 5183SOL     OW27184   3.173   4.331   4.985  0.0804  0.2072 -0.4109
 5183SOL    HW127185   3.111   4.386   4.937 -0.7799 -0.9765 -0.6396
 5183SOL    HW227186   3.148   4.243   4.956  0.7358 -0.2319  0.3756
 5184SOL     OW27187   0.735   3.367  16.803 -0.2460  0.2070  0.1099
 5184SOL    HW127188   0.816   3.414  16.825 -0.3994  1.6718 -2.4837
 5184SOL    HW227189   0.681   3.378  16.882 -0.7056  2.9613 -0.5863
 5185SOL     OW27190   3.608   3.907   6.445  0.1115  0.0832 -0.2742
 5185SOL    HW127191   3.516   3.934   6.436 -0.2147 -1.2299 -0.8577
 5185SOL    HW227192   3.611   3.850   6.368  1.0686  1.6688 -1.4000
 5186SOL     OW27193   0.370   0.687   6.870  0.0841  0.2323  0.4542
 5186SOL    HW127194   0.346   0.599   6.897 -0.6683  0.1630 -0.4206
 5186SOL    HW227195   0.415   0.670   6.787 -1.7914 -1.9806 -0.1267
 5187SOL     OW27196   4.610   4.232   6.770  0.4770 -0.3039  0.2076
 5187SOL    HW127197   4.579   4.188   6.691 -1.1963  0.2008  0.5787
 5187SOL    HW227198   4.611   4.153   6.823  2.0259 -1.2184 -1.1737
 5188SOL     OW27199   3.952   2.094   3.250  0.4616  0.1626  0.1663
 5188SOL    HW127200   3.897   2.150   3.305 -0.4556 -0.1403 -0.4454
 5188SOL    HW227201   3.879   2.043   3.214  1.0384 -2.3058  2.4584
 5189SOL     OW27202   4.095   2.305  12.824 -0.2398  0.3163 -0.1391
 5189SOL    HW127203   4.020   2.355  12.791 -0.7593 -0.0677  0.4609
 5189SOL    HW227204   4.058   2.259  12.900 -3.8235  1.7677 -1.0010
 5190SOL     OW27205   0.268   4.324   2.859 -0.1001  0.2708 -0.2483
 5190SOL    HW127206   0.304   4.235   2.854 -0.3996  0.1892 -1.0241
 5190SOL    HW227207   0.350   4.370   2.877  0.5937 -0.2411 -2.0587
 5191SOL     OW27208   3.465   0.222   2.796  0.0607 -0.6288  0.6418
 5191SOL    HW127209   3.522   0.282   2.843  1.3566 -0.5384 -1.0231
 5191SOL    HW227210   3.508   0.143   2.829 -0.6594 -0.8562  1.0328
 5192SOL     OW27211   3.819   0.833   8.537 -0.2540  0.4777  0.0662
 5192SOL    HW127212   3.881   0.825   8.464  0.3963 -1.9676  0.8960
 5192SOL    HW227213   3.817   0.929   8.543  1.4904  0.4646  0.8976
 5193SOL     OW27214   3.999   1.955  17.390 -0.1324  0.8683  0.4758
 5193SOL    HW127215   4.010   2.049  17.407 -0.8605  0.8528  1.0147
 5193SOL    HW227216   3.931   1.941  17.456 -2.9885  0.2356 -2.6075
 5194SOL     OW27217   3.083   3.770   2.942 -0.4257  0.2688  0.0752
 5194SOL    HW127218   3.131   3.688   2.927  1.2003  1.5246 -1.6823
 5194SOL    HW227219   3.032   3.742   3.018 -0.9259  1.0937  0.0433
 5195SOL     OW27220   2.694   0.097   1.824 -0.0285  0.1978 -0.2167
 5195SOL    HW127221   2.764   0.045   1.785  0.7590 -0.0854  1.5712
 5195SOL    HW227222   2.619   0.040   1.838 -2.0445  3.0660  0.7463
 5196SOL     OW27223   4.557   3.107   6.662  0.1071 -0.5934 -0.2797
 5196SOL    HW127224   4.570   3.143   6.574  1.5698  1.4585  0.7718
 5196SOL    HW227225   4.646   3.084   6.688 -0.3455 -0.4616  1.3883
 5197SOL     OW27226   4.140   4.658   0.795 -0.1540  0.3739 -0.1224
 5197SOL    HW127227   4.060   4.694   0.833  0.5771 -0.4689  2.2218
 5197SOL    HW227228   4.187   4.633   0.874 -0.4287 -3.2597 -1.1092
 5198SOL     OW27229   4.369   1.865   1.748 -0.1105  0.1199  0.3635
 5198SOL    HW127230   4.391   1.892   1.659  0.2929 -0.7498  0.1974
 5198SOL    HW227231   4.392   1.772   1.757  1.6107  0.3262 -2.1006
 5199SOL     OW27232   1.847   0.571   8.401  0.5581 -0.3687  0.4204
 5199SOL    HW127233   1.842   0.545   8.309 -0.0898 -0.0233  0.3579
 5199SOL    HW227234   1.759   0.556   8.436  0.6059 -2.1623 -0.2040
 5200SOL     OW27235   1.365   3.701  15.569 -0.4240  0.4210 -0.1365
 5200SOL    HW127236   1.317   3.691  15.487 -1.9698 -1.8017  1.0419
 5200SOL    HW227237   1.416   3.782  15.570  1.7536 -0.9297 -2.0121
 5201SOL     OW27238   2.787   1.241   5.578  0.7185 -0.2206  0.5767
 5201SOL    HW127239   2.836   1.215   5.500  0.0595 -0.5408  0.2647
 5201SOL    HW227240   2.800   1.336   5.581 -1.9709  0.2032 -1.1055
 5202SOL     OW27241   1.000   1.558   7.487  0.0574 -0.2298 -0.0077
 5202SOL    HW127242   1.007   1.481   7.543 -1.1072 -0.0504  0.3723
 5202SOL    HW227243   1.070   1.607   7.531 -0.8649  0.8296  0.2821
 5203SOL     OW27244   3.488   0.686   1.795  0.0913 -0.5673  0.5005
 5203SOL    HW127245   3.508   0.596   1.824 -1.0142 -1.2832 -1.0027
 5203SOL    HW227246   3.477   0.670   1.701 -0.5681 -1.0845  0.6656
 5204SOL     OW27247   1.186   0.296   7.160  0.0379 -0.6327  0.0664
 5204SOL    HW127248   1.095   0.302   7.190 -0.1246 -2.6809 -0.0151
 5204SOL    HW227249   1.168   0.244   7.082  1.1827  0.0957 -0.6663
 5205SOL     OW27250   2.497   1.514   0.243  0.2808 -0.4951 -0.1114
 5205SOL    HW127251   2.532   1.425   0.255 -0.8111 -1.0675 -1.2063
 5205SOL    HW227252   2.483   1.514   0.149 -0.6321  0.6065  0.0251
 5206SOL     OW27253   1.489   2.313   6.120  0.6385 -0.4235 -0.4017
 5206SOL    HW127254   1.520   2.241   6.175 -2.3674 -1.4763 -0.0361
 5206SOL    HW227255   1.541   2.292   6.042 -0.5741  1.4452 -1.7182
 5207SOL     OW27256   0.639   3.299   6.057 -0.2035 -0.4990  0.3119
 5207SOL    HW127257   0.667   3.301   6.149  0.3837  1.1124  0.0942
 5207SOL    HW227258   0.572   3.366   6.051  0.5840  0.4647  2.1590
 5208SOL     OW27259   2.506   0.429   8.988 -0.0422  0.3403 -0.6758
 5208SOL    HW127260   2.516   0.468   8.902  3.0364 -1.4885 -1.1462
 5208SOL    HW227261   2.492   0.507   9.042  0.8562  0.7189 -0.9941
 5209SOL     OW27262   1.050   2.413  14.736 -0.0902 -0.7416 -0.2783
 5209SOL    HW127263   1.114   2.483  14.731  0.4115 -1.1575  0.4184
 5209SOL    HW227264   1.090   2.358  14.803 -2.1220  0.5097  1.9737
 5210SOL     OW27265   0.014   1.625   4.177 -0.1030  0.1572  0.1503
 5210SOL    HW127266   0.056   1.625   4.263 -0.7395  0.4631  0.4598
 5210SOL    HW227267   0.077   1.672   4.122  0.6171 -3.1299 -1.7935
 5211SOL     OW27268   3.647   4.617  16.970  0.0989 -0.0647  0.4272
 5211SOL    HW127269   3.734   4.578  16.959 -0.8160 -2.2140  0.6782
 5211SOL    HW227270   3.623   4.603  16.878 -0.5400 -0.9451  0.7292
 5212SOL     OW27271   1.883   0.516  14.008 -1.0388  0.5017  0.1053
 5212SOL    HW127272   1.947   0.530  14.078 -1.6566  2.6424  0.2393
 5212SOL    HW227273   1.921   0.431  13.982  1.4188  1.8107 -0.6348
 5213SOL     OW27274   3.322   2.550  13.780  0.1485 -0.1700  0.4854
 5213SOL    HW127275   3.328   2.615  13.710  0.2025  0.1620  0.7951
 5213SOL    HW227276   3.343   2.598  13.860 -0.8739 -0.8191  1.1562
 5214SOL     OW27277   3.923   0.240   0.464  0.2710  0.1543  0.1174
 5214SOL    HW127278   3.985   0.288   0.409  0.4644 -0.3555 -0.1046
 5214SOL    HW227279   3.973   0.167   0.499 -0.7398 -1.1258 -1.1401
 5215SOL     OW27280   4.454   1.188   5.790 -0.1902 -0.1492  0.4215
 5215SOL    HW127281   4.547   1.182   5.770 -0.3133  2.8227 -1.0588
 5215SOL    HW227282   4.449   1.159   5.881 -0.2165  1.4735  0.9231
 5216SOL     OW27283   0.446   3.364   4.291  0.1396  0.3819  0.3502
 5216SOL    HW127284   0.378   3.355   4.358  0.0140 -4.9259 -0.5045
 5216SOL    HW227285   0.467   3.458   4.295 -0.5070  0.5527 -0.3661
 5217SOL     OW27286   2.045   4.490   4.786 -0.1832 -0.2558  0.3837
 5217SOL    HW127287   2.037   4.584   4.805 -0.1026  0.3613 -2.5504
 5217SOL    HW227288   1.992   4.447   4.853 -1.1060 -0.2774 -0.3635
 5218SOL     OW27289   3.290   0.787  12.232  0.4555  1.1240  0.0449
 5218SOL    HW127290   3.340   0.827  12.302  0.2153 -1.1475  1.5329
 5218SOL    HW227291   3.230   0.857  12.207 -1.1823 -0.2258  0.1638
 5219SOL     OW27292   3.153   1.927   5.381  0.1751  0.1850  0.6108
 5219SOL    HW127293   3.128   1.838   5.406 -0.2956  1.4258  4.4677
 5219SOL    HW227294   3.154   1.921   5.285  0.1098  0.7047  0.5807
 5220SOL     OW27295   4.364   1.653   4.554 -0.2215  0.3595 -0.4362
 5220SOL    HW127296   4.369   1.605   4.637 -0.8533  1.0974  0.0190
 5220SOL    HW227297   4.416   1.730   4.573  0.8876 -1.5137  4.0301
 5221SOL     OW27298   0.244   0.325  17.725 -0.2924 -0.1720 -0.6835
 5221SOL    HW127299   0.195   0.385   0.039 -0.7112 -1.2599  0.1240
 5221SOL    HW227300   0.175   0.271  17.688 -2.0757  2.0702 -0.6229
 5222SOL     OW27301   2.898   1.355   5.338  0.4553  0.2026 -0.0308
 5222SOL    HW127302   2.886   1.265   5.309  0.4276  0.7684 -1.7396
 5222SOL    HW227303   2.815   1.393   5.310  0.0250 -2.0117 -1.7762
 5223SOL     OW27304   0.112   4.361   8.472 -0.3103  0.0803  0.6373
 5223SOL    HW127305   0.185   4.342   8.532  0.0499  0.1138  0.2140
 5223SOL    HW227306   0.077   4.273   8.455 -0.5106 -0.1260  2.1892
 5224SOL     OW27307   4.567   3.816   7.250 -0.0246 -0.1092  0.1382
 5224SOL    HW127308   4.490   3.772   7.216 -0.9385  1.5658  0.0112
 5224SOL    HW227309   4.556   3.813   7.345  1.8085  1.4605  0.4040
 5225SOL     OW27310   0.209   2.903   2.115  0.0454 -0.8806  0.4597
 5225SOL    HW127311   0.179   2.841   2.182  2.7556  0.0475  2.4940
 5225SOL    HW227312   0.205   2.982   2.168  0.4979  1.1071 -2.4801
 5226SOL     OW27313   2.749   4.588   7.847 -0.3197  0.2208  0.3010
 5226SOL    HW127314   2.740   4.572   7.753  3.7121  0.1711 -0.0854
 5226SOL    HW227315   2.658   4.604   7.870 -0.3150  1.6885 -0.7786
 5227SOL     OW27316   1.069   3.142  16.061 -0.1324 -0.3146 -0.8237
 5227SOL    HW127317   1.129   3.172  15.992  2.4450  0.3796  1.7334
 5227SOL    HW227318   1.072   3.206  16.132  0.3669 -1.3213  0.0509
 5228SOL     OW27319   0.116   2.294   4.727  0.1572 -0.0285  0.3435
 5228SOL    HW127320   0.053   2.246   4.780  0.0056  0.1214  0.2962
 5228SOL    HW227321   0.050   2.324   4.665  1.2007  1.7502  0.0782
 5229SOL     OW27322   3.286   1.549   6.517  0.0682 -0.7971  0.1931
 5229SOL    HW127323   3.238   1.479   6.474 -0.5230  0.7566 -1.6936
 5229SOL    HW227324   3.304   1.603   6.440 -1.7725 -1.5834 -0.7819
 5230SOL     OW27325   3.714   0.027  16.123  0.0221 -0.4721  0.4923
 5230SOL    HW127326   3.632   0.051  16.080  0.1076  1.8164  1.6544
 5230SOL    HW227327   3.774   0.087  16.079 -0.7052  0.4156  0.7197
 5231SOL     OW27328   4.378   1.857   0.632  0.4347  0.0479  0.2543
 5231SOL    HW127329   4.306   1.804   0.596  1.3059 -2.1982  1.7782
 5231SOL    HW227330   4.327   1.928   0.671 -0.3143  1.7586 -3.8292
 5232SOL     OW27331   0.588   3.104  10.454 -0.0635 -0.1241 -0.3532
 5232SOL    HW127332   0.625   3.126  10.539 -0.0199 -2.8487  0.3293
 5232SOL    HW227333   0.605   3.009  10.450 -2.4285 -0.4961 -1.7697
 5233SOL     OW27334   1.744   0.628  11.671 -0.1057 -0.0887 -0.2878
 5233SOL    HW127335   1.712   0.654  11.584 -0.3409 -1.6213 -0.6468
 5233SOL    HW227336   1.715   0.537  11.663  0.2375 -0.3694  1.7745
 5234SOL     OW27337   4.088   2.952   4.030  0.1326  0.0517  0.2136
 5234SOL    HW127338   4.104   2.857   4.034 -0.7349 -0.1133 -0.4054
 5234SOL    HW227339   4.003   2.945   3.987 -0.0846 -0.3782  0.7109
 5235SOL     OW27340   1.249   3.869   4.676 -0.2622 -0.1560 -0.1253
 5235SOL    HW127341   1.191   3.889   4.603 -0.1513 -2.5274 -0.8691
 5235SOL    HW227342   1.255   3.961   4.704 -2.5435  0.7301 -2.6296
 5236SOL     OW27343   2.333   1.502   7.250  0.0893  0.2139  0.1748
 5236SOL    HW127344   2.325   1.595   7.267  1.8937  1.0545 -3.5890
 5236SOL    HW227345   2.307   1.495   7.158 -0.4477 -0.8558  0.4032
 5237SOL     OW27346   1.917   0.356   8.716  0.0708  0.2098 -0.4382
 5237SOL    HW127347   1.962   0.308   8.785 -2.2122 -0.6321  0.4745
 5237SOL    HW227348   1.989   0.381   8.657  0.7421 -0.0769  0.2581
 5238SOL     OW27349   3.711   4.108   1.336  1.0553  0.6030 -0.2654
 5238SOL    HW127350   3.667   4.155   1.265  2.9021 -0.9141 -2.4207
 5238SOL    HW227351   3.768   4.052   1.283 -0.9168 -0.5002 -1.1999
 5239SOL     OW27352   4.575   2.727   9.298 -0.2570  0.7466  0.3224
 5239SOL    HW127353   4.648   2.681   9.258 -0.0948  0.8252  0.5320
 5239SOL    HW227354   4.499   2.682   9.259 -0.3097  2.5083 -1.6027
 5240SOL     OW27355   2.328   0.310   6.152 -0.0683  0.5633  0.0108
 5240SOL    HW127356   2.304   0.379   6.091 -0.7917  0.9743  0.7622
 5240SOL    HW227357   2.277   0.240   6.110  0.5860  0.1543 -0.1054
 5241SOL     OW27358   0.839   0.192   8.251  0.0175  0.4676  0.0093
 5241SOL    HW127359   0.817   0.144   8.330 -2.4106  1.8442  0.1849
 5241SOL    HW227360   0.754   0.215   8.213  0.5416  0.6675 -1.0371
 5242SOL     OW27361   0.266   1.391   4.993  0.1282 -0.4409  0.0753
 5242SOL    HW127362   0.358   1.374   4.973 -0.1529 -0.4285 -1.1968
 5242SOL    HW227363   0.268   1.384   5.089  0.2196  1.5106  0.2087
 5243SOL     OW27364   3.499   3.318   7.725  0.3898  0.1575  0.2785
 5243SOL    HW127365   3.404   3.322   7.722  0.3452  0.4341  1.7271
 5243SOL    HW227366   3.522   3.410   7.741  1.1205  0.4443 -2.4958
 5244SOL     OW27367   2.793   4.704   2.890 -0.1412  0.4509  0.4563
 5244SOL    HW127368   2.726   4.670   2.831  2.4556 -0.4911 -1.9434
 5244SOL    HW227369   2.860   4.636   2.883 -1.9213 -0.9135 -3.0963
 5245SOL     OW27370   1.937   3.144   4.439 -0.1093 -0.5081 -0.1241
 5245SOL    HW127371   1.868   3.152   4.504  0.5137 -2.5117  0.7786
 5245SOL    HW227372   1.891   3.119   4.358  0.2006 -1.6248  0.0453
 5246SOL     OW27373   1.581   0.493   9.518  0.8141  0.4626 -0.0905
 5246SOL    HW127374   1.594   0.424   9.583 -2.0709  0.4324  0.4623
 5246SOL    HW227375   1.488   0.515   9.518  0.8560  0.6453 -3.8993
 5247SOL     OW27376   1.048   1.376   1.174  0.1975  0.3273 -0.5358
 5247SOL    HW127377   1.013   1.459   1.140 -0.3888  0.1073 -0.4631
 5247SOL    HW227378   0.992   1.357   1.249 -1.4411 -1.5824 -2.2795
 5248SOL     OW27379   2.905   2.486   8.462 -0.2021 -0.6112  0.5632
 5248SOL    HW127380   2.935   2.426   8.394 -2.1837 -0.9100 -0.0376
 5248SOL    HW227381   2.817   2.488   8.424 -0.5444  0.2804  1.3950
 5249SOL     OW27382   0.402   4.462  16.006  0.5243  0.1271  0.1526
 5249SOL    HW127383   0.343   4.404  16.054 -0.6400 -0.1702 -1.6251
 5249SOL    HW227384   0.432   4.398  15.942  0.3252 -1.6928  1.8820
 5250SOL     OW27385   2.328   3.363  15.959 -0.1897  0.0168 -0.4980
 5250SOL    HW127386   2.279   3.433  16.002  2.0652  0.8249  0.7917
 5250SOL    HW227387   2.265   3.292  15.950  0.4635 -0.3465 -2.2497
 5251SOL     OW27388   0.449   3.913   6.324  0.3460 -0.5497 -0.0461
 5251SOL    HW127389   0.466   3.874   6.239  1.8041 -0.0026  0.0102
 5251SOL    HW227390   0.364   3.875   6.346 -0.3639  1.6278  1.0454
 5252SOL     OW27391   1.427   3.632  11.520 -0.3060 -0.3348  0.3145
 5252SOL    HW127392   1.395   3.559  11.467  0.5382 -0.4950  0.0193
 5252SOL    HW227393   1.481   3.585  11.584 -0.5257 -1.6108 -0.4470
 5253SOL     OW27394   4.128   0.285  12.273 -0.0443  0.0005 -0.3764
 5253SOL    HW127395   4.057   0.276  12.335 -0.9385  0.8707 -1.2733
 5253SOL    HW227396   4.152   0.194  12.254 -1.7614 -0.7576  1.1345
 5254SOL     OW27397   2.203   1.436   9.604 -0.1334 -0.5092  0.3783
 5254SOL    HW127398   2.265   1.385   9.656  0.3238 -1.3348 -0.9855
 5254SOL    HW227399   2.142   1.464   9.672 -0.4505  0.3715 -0.2639
 5255SOL     OW27400   0.212   0.189  12.268 -0.0507 -0.0521 -0.6329
 5255SOL    HW127401   0.185   0.129  12.199 -2.1054 -0.4638  0.5310
 5255SOL    HW227402   0.283   0.217  12.210  0.6373 -0.1529  0.1455
 5256SOL     OW27403   4.194   0.047   5.374 -0.1400  0.2906  0.0386
 5256SOL    HW127404   4.208   4.700   5.418 -0.4546  0.7354  0.9694
 5256SOL    HW227405   4.146   0.092   5.444  0.8856 -1.1243  1.6487
 5257SOL     OW27406   0.548   3.663   6.512 -0.1848  0.5209  0.5166
 5257SOL    HW127407   0.577   3.587   6.564  1.7549 -0.1598 -1.5548
 5257SOL    HW227408   0.523   3.728   6.577  1.2455 -0.1041  1.7129
 5258SOL     OW27409   3.758   0.556  13.853 -1.0373  0.4619  0.6289
 5258SOL    HW127410   3.706   0.632  13.882 -0.4457  1.4888 -0.9947
 5258SOL    HW227411   3.832   0.560  13.913 -0.6102 -2.9060  0.3187
 5259SOL     OW27412   4.164   0.172   7.050  0.4559  0.2332  0.2902
 5259SOL    HW127413   4.116   0.099   7.011  1.0515 -1.5141  2.7937
 5259SOL    HW227414   4.093   0.235   7.060  0.6887  0.7066 -1.0611
 5260SOL     OW27415   0.061   0.163  17.059  0.6724 -0.9359  0.1660
 5260SOL    HW127416   0.000   0.232  17.085  0.1562 -1.1235 -0.5310
 5260SOL    HW227417   0.068   0.171  16.964 -1.1699  1.5821  0.2407
 5261SOL     OW27418   1.306   3.012   0.186 -0.1700  0.3867 -0.1724
 5261SOL    HW127419   1.247   3.010   0.261 -0.6370 -1.2790 -0.5850
 5261SOL    HW227420   1.390   3.044   0.219  1.3432 -1.7680 -1.9939
 5262SOL     OW27421   4.186   4.689   7.962  0.4532 -0.6551  0.0620
 5262SOL    HW127422   4.096   4.696   7.929  0.8557  2.2477 -0.4413
 5262SOL    HW227423   4.187   0.024   8.027  0.2618 -0.9072  0.3444
 5263SOL     OW27424   3.292   1.243   7.876 -0.0925 -0.3699  0.4140
 5263SOL    HW127425   3.344   1.174   7.834  0.3228  0.9934 -1.2727
 5263SOL    HW227426   3.235   1.266   7.803  0.2323  1.9644  0.9047
 5264SOL     OW27427   0.428   4.059  10.803 -0.3598 -0.6826  0.1446
 5264SOL    HW127428   0.363   4.126  10.782  0.5220 -0.6462 -2.5149
 5264SOL    HW227429   0.487   4.102  10.865 -1.8680  0.2972  0.8927
 5265SOL     OW27430   0.746   4.621   3.187  0.4611  0.3659  0.6236
 5265SOL    HW127431   0.724   4.529   3.171  0.5515  0.6751 -1.2806
 5265SOL    HW227432   0.666   4.667   3.165  0.8300  1.0314  0.6908
 5266SOL     OW27433   2.029   4.124   6.497  0.6974 -0.2898 -0.1483
 5266SOL    HW127434   2.000   4.214   6.506  3.4764  0.7407 -1.4985
 5266SOL    HW227435   1.951   4.088   6.454  1.8249 -2.3851 -0.4952
 5267SOL     OW27436   1.364   3.514  10.393  0.0427 -0.2037  0.0742
 5267SOL    HW127437   1.334   3.570  10.321  0.0229  0.7932  0.8492
 5267SOL    HW227438   1.454   3.546  10.398 -0.0779 -0.4883  4.0550
 5268SOL     OW27439   3.049   0.037   2.037 -0.4175 -0.3578 -0.2951
 5268SOL    HW127440   2.961   0.026   2.073  0.7741 -1.2735  2.2800
 5268SOL    HW227441   3.095   0.008   2.115 -1.2514 -0.7057  0.0644
 5269SOL     OW27442   1.611   4.608   3.113 -0.0623 -0.5204  0.3973
 5269SOL    HW127443   1.533   4.650   3.149  1.1212  0.8962  1.2917
 5269SOL    HW227444   1.659   4.688   3.093 -1.8147  0.2829 -0.5967
 5270SOL     OW27445   4.632   2.696   0.581  0.5520 -0.6609  0.3147
 5270SOL    HW127446   4.583   2.617   0.561  1.1635 -1.0528  0.3775
 5270SOL    HW227447   4.678   2.668   0.660  0.0339 -1.5866  0.2825
 5271SOL     OW27448   2.841   0.922  15.257  0.0816  0.0143  0.1196
 5271SOL    HW127449   2.866   0.995  15.201 -0.2386  0.2192  0.2441
 5271SOL    HW227450   2.926   0.881  15.245  0.1106 -0.5700  2.4162
 5272SOL     OW27451   3.889   4.672   7.906  0.2922  0.4643  0.5771
 5272SOL    HW127452   3.802   4.704   7.883  0.9117  1.8551  0.2171
 5272SOL    HW227453   3.872   4.634   7.992 -0.7501  0.9092  0.5661
 5273SOL     OW27454   2.334   0.094   5.387 -0.3971  0.5182  0.2473
 5273SOL    HW127455   2.292   0.180   5.389 -2.1613 -0.3459 -0.0696
 5273SOL    HW227456   2.368   0.081   5.476  2.0125  0.3514 -0.7004
 5274SOL     OW27457   4.209   2.386   4.141 -0.5358  0.3192 -0.0778
 5274SOL    HW127458   4.282   2.424   4.190  1.2349 -0.1246 -2.3633
 5274SOL    HW227459   4.167   2.325   4.202 -0.0045  2.4968  2.4632
 5275SOL     OW27460   0.913   0.673   2.095 -0.1634 -0.0144 -0.4099
 5275SOL    HW127461   0.862   0.723   2.032 -0.2830  0.2402 -0.1106
 5275SOL    HW227462   0.941   0.741   2.156 -2.8776 -0.3694  1.2319
 5276SOL     OW27463   0.770   3.856  12.701  0.3431  0.3938  0.0074
 5276SOL    HW127464   0.729   3.879  12.617  0.6885  1.6313  0.1767
 5276SOL    HW227465   0.852   3.897  12.673 -0.3530  0.9711 -1.2083
 5277SOL     OW27466   1.352   2.515  15.374 -0.3307 -0.1290  0.1320
 5277SOL    HW127467   1.443   2.524  15.346 -1.2574  0.8125 -2.6158
 5277SOL    HW227468   1.320   2.506  15.285  0.9079 -0.4913 -0.2836
 5278SOL     OW27469   0.698   4.507   1.400 -0.2910  0.2047 -0.4906
 5278SOL    HW127470   0.749   4.588   1.392 -1.8526  1.1410 -0.7883
 5278SOL    HW227471   0.676   4.492   1.308 -0.1165  0.6229 -0.5988
 5279SOL     OW27472   3.310   2.604   4.321  0.3808 -0.0386 -0.1404
 5279SOL    HW127473   3.355   2.639   4.244  0.3694 -0.5323 -0.3679
 5279SOL    HW227474   3.216   2.594   4.304 -0.1551  2.3236  1.3410
 5280SOL     OW27475   3.018   3.162  15.235  0.4418  0.6246  0.5253
 5280SOL    HW127476   2.956   3.090  15.222  0.5716  0.6207 -0.0535
 5280SOL    HW227477   3.065   3.127  15.310  0.2597  1.5275  1.0632
 5281SOL     OW27478   4.358   1.433   5.469  0.2940 -0.4697 -0.4076
 5281SOL    HW127479   4.435   1.413   5.416 -2.1569 -0.5958 -3.9226
 5281SOL    HW227480   4.310   1.352   5.457  0.1459 -0.0633 -2.4346
 5282SOL     OW27481   3.244   0.482   2.448  0.3407  0.3244  0.2580
 5282SOL    HW127482   3.158   0.447   2.428  0.8071 -1.3413  1.1355
 5282SOL    HW227483   3.295   0.410   2.410 -2.0310 -0.4710 -1.3678
 5283SOL     OW27484   3.454   1.269  12.959  0.1639 -0.2371 -0.0970
 5283SOL    HW127485   3.427   1.200  13.020  0.1449  1.2932  1.6147
 5283SOL    HW227486   3.513   1.207  12.915  1.1956 -0.7507  1.9930
 5284SOL     OW27487   0.611   3.533   1.394  0.1011 -0.1538 -0.3122
 5284SOL    HW127488   0.689   3.588   1.381  1.1276 -1.9331 -1.7114
 5284SOL    HW227489   0.629   3.516   1.486 -1.8965  0.1675  0.1305
 5285SOL     OW27490   0.615   4.714   4.845  0.0864  0.1297  0.2490
 5285SOL    HW127491   0.531   4.725   4.889  0.3730  1.8066  0.3738
 5285SOL    HW227492   0.671   0.037   4.895 -1.3224  0.6187  1.2523
 5286SOL     OW27493   3.617   3.671   3.833  0.0087 -0.4341  0.6450
 5286SOL    HW127494   3.572   3.625   3.903 -0.4168  0.0139  0.6642
 5286SOL    HW227495   3.630   3.758   3.871  1.4110 -0.6747  0.7122
 5287SOL     OW27496   1.524   3.698   4.240  0.2804 -0.1992  0.6048
 5287SOL    HW127497   1.613   3.715   4.211  0.4130 -0.2112  1.0080
 5287SOL    HW227498   1.519   3.603   4.253 -0.6423 -0.2070  0.1758
 5288SOL     OW27499   0.742   2.780   8.301  0.2737 -0.1399  0.2397
 5288SOL    HW127500   0.834   2.781   8.327  0.1082 -1.3554  0.8758
 5288SOL    HW227501   0.745   2.777   8.205 -1.7959 -0.6385  0.1868
 5289SOL     OW27502   1.849   3.637   4.578 -0.1849 -0.0324  0.0739
 5289SOL    HW127503   1.764   3.656   4.617 -0.0794  0.7621 -0.0736
 5289SOL    HW227504   1.830   3.602   4.491 -3.7215 -1.1028  1.2971
 5290SOL     OW27505   0.130   2.338   3.196  0.2509  0.1381 -0.0015
 5290SOL    HW127506   0.188   2.266   3.171  0.0579  0.3011 -0.9361
 5290SOL    HW227507   0.123   2.389   3.115 -0.0643  0.9389  0.5281
 5291SOL     OW27508   0.563   3.178   0.757  0.4823 -0.2808  0.4900
 5291SOL    HW127509   0.525   3.123   0.688 -1.1287  1.0305  0.3294
 5291SOL    HW227510   0.516   3.134   0.828 -0.4135  0.3592  0.2964
 5292SOL     OW27511   4.045   0.918   8.863  0.2170 -0.4991  0.5020
 5292SOL    HW127512   4.127   0.931   8.911  0.3854  2.2400 -0.5621
 5292SOL    HW227513   4.054   0.985   8.796 -0.6917  0.8706  1.7568
 5293SOL     OW27514   3.540   0.125   7.994  0.2300 -0.0141 -0.1582
 5293SOL    HW127515   3.608   0.114   8.061  0.3438  1.0427 -0.0954
 5293SOL    HW227516   3.510   0.214   8.012  0.6439  0.6294 -2.7174
 5294SOL     OW27517   1.584   3.789  10.749  0.0988  0.3252  0.5368
 5294SOL    HW127518   1.536   3.712  10.782  2.0777 -0.9046  0.5066
 5294SOL    HW227519   1.569   3.792  10.655 -5.0830  0.1658  1.3173
 5295SOL     OW27520   4.345   2.472   8.052 -0.2078 -0.1511 -0.0431
 5295SOL    HW127521   4.330   2.396   8.108  0.8281 -0.3212  0.0172
 5295SOL    HW227522   4.440   2.471   8.041 -0.1048  1.7537  0.6407
 5296SOL     OW27523   3.936   3.704   9.203  0.1283 -0.5105 -0.4054
 5296SOL    HW127524   3.935   3.644   9.278 -1.4955  0.1404  0.0933
 5296SOL    HW227525   4.017   3.751   9.224  0.0336 -0.5691  0.1016
 5297SOL     OW27526   2.202   0.506   3.938 -0.7903 -0.0216  0.1036
 5297SOL    HW127527   2.236   0.494   3.849  1.6045  2.0952  0.7179
 5297SOL    HW227528   2.170   0.596   3.930 -0.8963 -0.0433  0.2937
 5298SOL     OW27529   1.233   2.643   2.697  0.1292  0.0910  0.4590
 5298SOL    HW127530   1.138   2.648   2.685 -0.2987 -0.5290  3.5806
 5298SOL    HW227531   1.246   2.701   2.771  1.4722 -0.8895  0.9850
 5299SOL     OW27532   2.447   2.733   5.618  0.6050 -0.6395 -0.3962
 5299SOL    HW127533   2.519   2.788   5.650  1.1771 -0.2240 -2.4142
 5299SOL    HW227534   2.457   2.652   5.668  1.9913  0.8035  1.6639
 5300SOL     OW27535   0.041   3.468   2.018  0.3776 -0.4038  0.2788
 5300SOL    HW127536   0.062   3.530   1.948  3.0862 -0.1489  1.3240
 5300SOL    HW227537   4.698   3.435   1.975  1.3940 -1.4624 -0.7982
 5301SOL     OW27538   4.731   4.411   5.289 -0.6412 -0.5155  0.6051
 5301SOL    HW127539   0.068   4.455   5.245  0.9583 -1.9874  1.7632
 5301SOL    HW227540   4.657   4.467   5.269  0.8999  0.2145 -2.9428
 5302SOL     OW27541   2.820   3.085   1.661  0.2343  0.2240 -0.4435
 5302SOL    HW127542   2.800   3.039   1.579 -0.4284 -0.0905 -0.1053
 5302SOL    HW227543   2.820   3.177   1.635 -0.0381  0.3126 -0.1363
 5303SOL     OW27544   1.217   0.767   2.256  0.0302  0.2529 -0.2580
 5303SOL    HW127545   1.206   0.825   2.180 -0.4867 -0.0496 -0.4166
 5303SOL    HW227546   1.285   0.813   2.304 -2.7621  2.0796  1.9483
 5304SOL     OW27547   1.076   3.772  10.122 -0.3589 -0.1085  0.0950
 5304SOL    HW127548   1.160   3.814  10.137  0.7002 -0.8667 -3.7377
 5304SOL    HW227549   1.030   3.851  10.094  0.1511  0.4934  0.9484
 5305SOL     OW27550   3.411   0.926   6.311 -0.0330 -0.0753  0.3674
 5305SOL    HW127551   3.339   0.986   6.334 -0.3358 -0.2402 -0.1557
 5305SOL    HW227552   3.469   0.928   6.387  0.0097 -1.3250  0.3566
 5306SOL     OW27553   4.482   1.729   3.984  0.2662 -0.2152 -0.3466
 5306SOL    HW127554   4.481   1.706   4.076  1.8307 -0.8018 -0.4951
 5306SOL    HW227555   4.558   1.786   3.990  0.3796 -0.3405 -0.5895
 5307SOL     OW27556   1.782   2.285   4.533  0.6428 -0.3415 -0.2864
 5307SOL    HW127557   1.759   2.198   4.500  2.3468 -1.2824  1.0430
 5307SOL    HW227558   1.871   2.304   4.503  0.0277 -0.8185 -2.3777
 5308SOL     OW27559   4.409   4.112   8.627 -0.2755  0.0887 -0.0567
 5308SOL    HW127560   4.446   4.197   8.605 -0.2527  0.1595  0.2571
 5308SOL    HW227561   4.463   4.093   8.703  1.6348  1.9579 -0.9241
 5309SOL     OW27562   0.913   0.319   5.253  0.0517  0.0105  0.0602
 5309SOL    HW127563   0.912   0.410   5.222 -0.6688 -0.2705 -0.7183
 5309SOL    HW227564   1.000   0.326   5.293  1.6897  0.5984 -3.5943
 5310SOL     OW27565   2.903   4.711  14.750 -0.0942 -0.2115  0.2561
 5310SOL    HW127566   2.915   4.664  14.668  0.7717  0.2859  0.0946
 5310SOL    HW227567   2.809   4.731  14.752  0.2176  1.3539 -0.6585
 5311SOL     OW27568   3.636   1.442   4.929 -0.0778 -0.5640  0.2095
 5311SOL    HW127569   3.694   1.483   4.865  1.8135 -2.0855  0.9386
 5311SOL    HW227570   3.637   1.515   4.991 -0.4329 -0.5092  0.1528
 5312SOL     OW27571   4.683   1.888   6.681 -0.4319 -0.0598  0.1375
 5312SOL    HW127572   4.716   1.798   6.691 -1.9759 -0.9075 -2.3976
 5312SOL    HW227573   4.651   1.890   6.591  0.9080 -1.3181 -0.3795
 5313SOL     OW27574   2.465   0.384   1.804  0.0428 -0.6109  1.2502
 5313SOL    HW127575   2.435   0.294   1.793 -0.0879 -0.5831  1.3730
 5313SOL    HW227576   2.407   0.414   1.875  1.1873  2.1891  0.9666
 5314SOL     OW27577   3.401   0.804   4.574 -0.4969 -0.3195 -0.2066
 5314SOL    HW127578   3.352   0.741   4.627  0.3618 -2.7876 -2.3079
 5314SOL    HW227579   3.436   0.746   4.506  1.0423 -0.5357  0.7669
 5315SOL     OW27580   1.228   2.347   1.437 -0.1208 -0.2972 -0.2195
 5315SOL    HW127581   1.231   2.280   1.369  1.6600 -1.6016  1.1711
 5315SOL    HW227582   1.225   2.308   1.524  1.7954 -2.0572 -0.9383
 5316SOL     OW27583   0.193   2.243   9.027 -0.5424  0.8276  0.5219
 5316SOL    HW127584   0.236   2.321   9.063 -0.8135  0.8713  0.7538
 5316SOL    HW227585   0.163   2.282   8.946 -0.7332  0.8945  0.6236
 5317SOL     OW27586   0.051   1.136   7.274  0.2406 -0.1282 -0.1759
 5317SOL    HW127587   0.098   1.179   7.346 -1.1926  1.9889 -0.5231
 5317SOL    HW227588   0.104   1.143   7.195 -0.5475 -3.8634 -1.0659
 5318SOL     OW27589   0.548   0.388  14.655  0.2012  0.1257 -0.2306
 5318SOL    HW127590   0.531   0.463  14.711  0.2396 -0.3789  0.4610
 5318SOL    HW227591   0.538   0.323  14.724  2.6523 -1.0219 -0.9367
 5319SOL     OW27592   2.158   2.395   9.120  0.6456  0.3676 -0.2406
 5319SOL    HW127593   2.157   2.387   9.216 -0.6425  1.8094 -0.1410
 5319SOL    HW227594   2.065   2.383   9.102  0.6319 -0.0377  0.1104
 5320SOL     OW27595   1.282   3.192   9.653 -0.3236 -0.1605 -0.5270
 5320SOL    HW127596   1.353   3.192   9.718  0.0437 -0.5893 -0.9295
 5320SOL    HW227597   1.338   3.163   9.581 -1.2660 -0.8800 -0.9732
 5321SOL     OW27598   2.537   0.306  17.420 -0.1968  0.5264 -0.3456
 5321SOL    HW127599   2.541   0.211  17.415  2.4206  0.4647  2.6195
 5321SOL    HW227600   2.510   0.326  17.331  0.1595  0.2880 -0.5080
 5322SOL     OW27601   3.889   1.997   4.335 -0.8161 -0.6975  0.5703
 5322SOL    HW127602   3.795   2.012   4.330 -0.9238 -1.3436  0.6973
 5322SOL    HW227603   3.882   1.902   4.346  2.0598 -1.2863 -2.7312
 5323SOL     OW27604   3.132   1.621   9.636  0.2135  0.3450 -0.3229
 5323SOL    HW127605   3.150   1.564   9.562  0.4316 -2.8670  2.1840
 5323SOL    HW227606   3.038   1.607   9.642  0.1530  0.1326 -1.8918
 5324SOL     OW27607   4.723   0.449   4.784  0.4346  0.2008 -0.1077
 5324SOL    HW127608   4.699   0.378   4.843  1.3628  0.1243  0.1613
 5324SOL    HW227609   0.082   0.444   4.774  0.7624  1.7828  2.3240
 5325SOL     OW27610   1.785   0.382  12.002 -0.3462  0.0423 -0.1307
 5325SOL    HW127611   1.860   0.339  12.043 -0.2399 -0.7678 -1.1636
 5325SOL    HW227612   1.821   0.465  11.971  0.1250 -0.3051 -0.5089
 5326SOL     OW27613   0.877   2.513   8.257 -0.1174 -0.4135  0.2074
 5326SOL    HW127614   0.937   2.463   8.314  1.3165 -0.0539 -0.9757
 5326SOL    HW227615   0.918   2.494   8.173 -0.0044  0.9214 -0.0372
 5327SOL     OW27616   0.858   0.663   8.523 -0.3318  0.5469  0.1878
 5327SOL    HW127617   0.888   0.651   8.613  1.5463 -0.6796 -0.6007
 5327SOL    HW227618   0.774   0.616   8.518  1.0279 -1.8367 -0.2870
 5328SOL     OW27619   2.438   1.387   5.447  0.2807  0.4761 -0.5623
 5328SOL    HW127620   2.491   1.455   5.489 -1.3300  1.4993 -0.2126
 5328SOL    HW227621   2.434   1.323   5.518 -1.4165 -0.1458 -1.2443
 5329SOL     OW27622   2.159   3.312   4.477 -0.3408  0.2793  0.2948
 5329SOL    HW127623   2.095   3.242   4.466 -0.1691 -0.0350  1.2081
 5329SOL    HW227624   2.110   3.384   4.439  0.1941 -0.5932 -2.0168
 5330SOL     OW27625   2.767   3.940   7.935  0.1894 -0.5700 -0.7233
 5330SOL    HW127626   2.745   3.969   8.023  1.0833  1.2494 -1.0962
 5330SOL    HW227627   2.689   3.968   7.887  0.5204  1.5465 -0.0154
 5331SOL     OW27628   4.200   3.714   3.740  0.4822  0.6241  0.0824
 5331SOL    HW127629   4.130   3.661   3.779 -1.1334  1.8515 -1.1336
 5331SOL    HW227630   4.256   3.737   3.814 -0.5975  1.7940  0.5219
 5332SOL     OW27631   0.943   1.333  17.169  0.2913 -0.0012 -0.3982
 5332SOL    HW127632   1.023   1.356  17.215  0.5755 -0.7636 -0.5175
 5332SOL    HW227633   0.903   1.287  17.243 -0.4522  0.0349 -0.7705
 5333SOL     OW27634   2.968   0.166   6.591  0.5257 -0.9019 -0.2791
 5333SOL    HW127635   3.035   0.125   6.647 -0.1406 -1.0014  0.4405
 5333SOL    HW227636   2.946   0.096   6.530 -2.4807  1.2806 -1.7067
 5334SOL     OW27637   0.395   1.748  14.597 -0.1180 -0.5481  0.0927
 5334SOL    HW127638   0.391   1.840  14.571  0.5576 -0.3775  0.5691
 5334SOL    HW227639   0.462   1.719  14.536  0.9391 -0.8420  1.3766
 5335SOL     OW27640   2.079   0.184   8.118  0.3073  0.6008 -0.1387
 5335SOL    HW127641   2.164   0.174   8.161 -0.4327 -0.2961  1.1249
 5335SOL    HW227642   2.093   0.164   8.026 -2.4370 -0.3164 -0.3477
 5336SOL     OW27643   4.403   4.263  12.126 -0.8702  0.4713  0.1815
 5336SOL    HW127644   4.345   4.310  12.067 -0.7608 -0.6906 -0.8465
 5336SOL    HW227645   4.444   4.330  12.181  1.9115 -1.7811  0.8580
 5337SOL     OW27646   1.891   1.938  14.710 -0.3537  0.2219  0.2539
 5337SOL    HW127647   1.948   1.881  14.761 -1.2336  2.1464  3.4061
 5337SOL    HW227648   1.812   1.933  14.764 -0.5368 -0.5430 -0.0857
 5338SOL     OW27649   3.054   3.495  15.931 -0.2268 -0.4610  0.1943
 5338SOL    HW127650   3.098   3.515  16.014  0.9482 -0.2898 -0.4722
 5338SOL    HW227651   3.117   3.526  15.866 -0.2903  1.3844  1.0019
 5339SOL     OW27652   1.859   3.381  16.305 -0.1625 -0.3257 -0.0594
 5339SOL    HW127653   1.891   3.402  16.393 -1.2712 -2.0963  0.7459
 5339SOL    HW227654   1.882   3.459  16.254 -1.2869  0.1730  0.1910
 5340SOL     OW27655   0.099   1.290   8.600 -0.4757  0.5492 -0.1264
 5340SOL    HW127656   0.109   1.265   8.692  0.4849  1.3897  0.0065
 5340SOL    HW227657   0.175   1.248   8.559 -2.9872 -2.7367 -1.4190
 5341SOL     OW27658   0.239   3.586   3.090  0.1696  0.4886  0.4198
 5341SOL    HW127659   0.288   3.641   3.151  0.6712 -0.6466  1.0437
 5341SOL    HW227660   0.229   3.651   3.020  0.7792 -0.8453 -0.9039
 5342SOL     OW27661   1.493   2.444   3.194 -0.0421  0.0303  0.5820
 5342SOL    HW127662   1.554   2.414   3.261 -0.2780  0.0915  0.8238
 5342SOL    HW227663   1.438   2.491   3.257  1.4165  0.5778  1.4247
 5343SOL     OW27664   2.415   1.624  13.385  0.3893  0.6219  0.4352
 5343SOL    HW127665   2.499   1.580  13.393  1.1909  2.0606 -0.0528
 5343SOL    HW227666   2.384   1.627  13.476 -3.3318 -1.6195 -0.7799
 5344SOL     OW27667   3.442   3.664  14.660  0.0570  0.4899  0.4265
 5344SOL    HW127668   3.385   3.588  14.670  2.2404 -1.2757 -0.4962
 5344SOL    HW227669   3.528   3.622  14.654 -0.6891 -0.8033 -1.0227
 5345SOL     OW27670   0.176   0.020  12.054  0.1903  0.3612  0.3370
 5345SOL    HW127671   0.127   4.677  12.030 -1.4195  1.8121 -1.0661
 5345SOL    HW227672   0.222   0.048  11.975  0.8996  0.5373  0.8091
 5346SOL     OW27673   0.274   1.291  12.935  0.2561  0.3897 -0.0599
 5346SOL    HW127674   0.250   1.378  12.965 -0.6669 -0.0644  0.5300
 5346SOL    HW227675   0.362   1.299  12.899  0.8597 -0.3470  1.2383
 5347SOL     OW27676   3.028   0.230  14.832  0.1965  0.0891  1.0189
 5347SOL    HW127677   3.115   0.192  14.819  0.7587  1.5621  0.4561
 5347SOL    HW227678   2.978   0.149  14.816 -0.4767  0.5350  0.8498
 5348SOL     OW27679   0.837   1.247   5.757  0.5441  0.7617 -0.6443
 5348SOL    HW127680   0.855   1.168   5.705 -0.5305  2.1457 -3.1058
 5348SOL    HW227681   0.797   1.298   5.687 -0.7507 -0.3429 -0.7090
 5349SOL     OW27682   1.747   3.351   5.796  0.0313 -0.4168  0.0062
 5349SOL    HW127683   1.715   3.263   5.776  0.6251 -0.5043 -0.5440
 5349SOL    HW227684   1.714   3.383   5.712 -1.1512 -1.7915 -0.0663
 5350SOL     OW27685   0.078   1.234   7.860 -0.0360 -0.2272  0.0733
 5350SOL    HW127686   0.025   1.284   7.799 -1.4243  1.5415  2.6988
 5350SOL    HW227687   0.012   1.210   7.926  0.2751 -2.6316 -0.5088
 5351SOL     OW27688   2.381   3.750  11.050 -0.0857  0.1819 -0.3753
 5351SOL    HW127689   2.441   3.807  11.003 -0.4973 -0.5861 -1.8207
 5351SOL    HW227690   2.371   3.671  10.999 -0.0472  0.3392 -0.6240
 5352SOL     OW27691   0.687   1.011   7.754  0.1977 -0.0113  0.8250
 5352SOL    HW127692   0.643   1.089   7.787 -0.3593 -0.3278  0.8337
 5352SOL    HW227693   0.772   1.025   7.796  1.1385 -1.2506 -0.6430
 5353SOL     OW27694   0.393   3.020  17.263 -0.1488  0.0067 -0.8902
 5353SOL    HW127695   0.405   3.080  17.336  0.4206 -0.3833 -0.6636
 5353SOL    HW227696   0.347   2.948  17.306  1.6308 -1.4366 -1.4278
 5354SOL     OW27697   4.692   3.790   3.490 -0.2194  0.2948  0.0840
 5354SOL    HW127698   4.605   3.829   3.484 -1.2466 -2.0498 -0.2042
 5354SOL    HW227699   4.734   3.833   3.563  0.8102  2.0303 -1.5270
 5355SOL     OW27700   0.855   3.029   2.846  0.0401 -0.4024  0.0136
 5355SOL    HW127701   0.786   3.014   2.910 -0.8172  2.3682 -0.2484
 5355SOL    HW227702   0.836   2.957   2.786  1.1064  1.1888 -2.2506
 5356SOL     OW27703   2.010   0.731  10.419 -0.0389  0.5050  0.7655
 5356SOL    HW127704   2.028   0.771  10.334  0.6971 -1.3382  0.0491
 5356SOL    HW227705   1.980   0.646  10.389 -0.7165  1.6084 -1.6709
 5357SOL     OW27706   1.329   4.389   3.527  0.3828 -0.2625 -0.0523
 5357SOL    HW127707   1.299   4.312   3.574  2.3974  0.1421  1.8651
 5357SOL    HW227708   1.409   4.412   3.573  1.8863  1.2493 -3.3708
 5358SOL     OW27709   1.046   3.211   7.642  0.5021  0.1556  0.6220
 5358SOL    HW127710   1.049   3.213   7.738 -0.9475 -0.3438  0.6842
 5358SOL    HW227711   1.119   3.265   7.613 -0.7937  0.1233 -2.6171
 5359SOL     OW27712   1.680   0.619  10.933 -0.6216  0.7307 -0.5459
 5359SOL    HW127713   1.716   0.531  10.930  0.0349  0.9482  1.0281
 5359SOL    HW227714   1.590   0.602  10.906 -0.6595 -0.1701  0.1693
 5360SOL     OW27715   2.559   4.246   5.702  0.0801 -0.3902  0.0455
 5360SOL    HW127716   2.488   4.249   5.766 -1.4188 -0.1705 -1.6189
 5360SOL    HW227717   2.548   4.330   5.657 -1.3913 -0.4869  0.2335
 5361SOL     OW27718   4.676   2.427   1.860  0.0646  0.0298 -0.0200
 5361SOL    HW127719   4.617   2.353   1.864  2.3426 -1.6582  2.9962
 5361SOL    HW227720   4.686   2.446   1.954 -2.1503  0.6246  0.0770
 5362SOL     OW27721   3.513   0.969   8.603  0.0583 -0.2468  0.2233
 5362SOL    HW127722   3.454   1.044   8.613 -1.5895 -1.3916 -0.8763
 5362SOL    HW227723   3.591   0.992   8.654 -0.9576  1.0713  1.1994
 5363SOL     OW27724   0.473   0.625   2.575  0.8684  0.2505  0.6115
 5363SOL    HW127725   0.553   0.603   2.621  0.1099 -2.8449  0.4317
 5363SOL    HW227726   0.497   0.623   2.482 -2.4594 -1.5551 -0.1994
 5364SOL     OW27727   0.652   4.155   4.939  0.4669 -0.3866  0.4004
 5364SOL    HW127728   0.672   4.172   4.847  0.5103 -1.6732  0.1775
 5364SOL    HW227729   0.719   4.089   4.957  2.7224  1.5451 -0.8101
 5365SOL     OW27730   2.509   0.452   8.723  0.4684 -0.1328 -0.0239
 5365SOL    HW127731   2.591   0.424   8.683 -0.2858 -0.6099 -1.2757
 5365SOL    HW227732   2.478   0.521   8.663  1.2785 -0.4149 -0.7738
 5366SOL     OW27733   2.650   2.620   6.610  0.6071 -0.2537 -0.0937
 5366SOL    HW127734   2.645   2.635   6.705  0.8479  0.3143 -0.1725
 5366SOL    HW227735   2.559   2.633   6.584  0.3132 -1.2929  0.4028
 5367SOL     OW27736   3.152   0.932   4.255 -0.2937  0.1951  0.4017
 5367SOL    HW127737   3.213   0.998   4.286  0.0962  0.1889 -0.3521
 5367SOL    HW227738   3.113   0.889   4.331 -0.0558  1.0477  0.9956
 5368SOL     OW27739   3.569   1.715   2.352 -0.4299 -0.1285  0.2460
 5368SOL    HW127740   3.549   1.625   2.324 -3.3454  0.7304 -0.3977
 5368SOL    HW227741   3.653   1.726   2.307 -0.1797  3.3627  1.5935
 5369SOL     OW27742   0.437   2.794  10.651 -0.3602 -0.0087  0.6482
 5369SOL    HW127743   0.402   2.824  10.567  0.7337 -2.8813 -0.8405
 5369SOL    HW227744   0.439   2.879  10.695  0.0617  1.4822 -2.2420
 5370SOL     OW27745   0.520   0.026   1.196 -0.3685  0.0708  0.1883
 5370SOL    HW127746   0.495   4.671   1.214  1.4302 -0.5707 -0.5447
 5370SOL    HW227747   0.593   0.013   1.135 -1.0339  1.6220 -0.9045
 5371SOL     OW27748   2.014   4.033   6.185  0.6815 -0.2118  0.9270
 5371SOL    HW127749   2.103   4.009   6.212  0.7328  0.8119  1.7031
 5371SOL    HW227750   2.015   4.129   6.189 -1.1615 -0.1122 -1.2951
 5372SOL     OW27751   3.166   3.887   0.168 -0.1440 -0.0540  0.3105
 5372SOL    HW127752   3.102   3.837   0.117  1.0927 -0.0819 -1.1978
 5372SOL    HW227753   3.151   3.860   0.259 -0.0640 -3.0188 -0.5638
 5373SOL     OW27754   3.833   1.401  10.383  0.1840  0.1906 -0.0146
 5373SOL    HW127755   3.845   1.354  10.301 -0.0083  0.1210 -0.0014
 5373SOL    HW227756   3.754   1.447  10.359  0.1022 -0.2818 -0.6381
 5374SOL     OW27757   2.278   0.863   9.847 -0.4680 -0.8197 -0.8471
 5374SOL    HW127758   2.228   0.799   9.896  1.1594 -1.0091  0.5531
 5374SOL    HW227759   2.235   0.937   9.891  1.5100 -0.9239  1.2822
 5375SOL     OW27760   4.275   0.314   0.847 -0.0956  0.2168 -0.1659
 5375SOL    HW127761   4.182   0.293   0.840 -0.5117  2.0137 -0.0631
 5375SOL    HW227762   4.282   0.328   0.753 -1.4056  0.1345 -0.2863
 5376SOL     OW27763   2.267   2.695   3.786 -0.3582 -0.7732 -0.3683
 5376SOL    HW127764   2.202   2.684   3.854 -0.6406  0.7336 -0.3808
 5376SOL    HW227765   2.347   2.667   3.831  0.3842 -3.5445 -3.4152
 5377SOL     OW27766   1.352   2.039   6.418 -0.2936 -0.0263  0.0033
 5377SOL    HW127767   1.307   2.090   6.350 -2.2746  0.2715  1.5218
 5377SOL    HW227768   1.408   2.096   6.470 -1.8908 -0.3712  2.1291
 5378SOL     OW27769   4.500   0.166   7.218  0.2733 -0.1654  0.3173
 5378SOL    HW127770   4.479   0.080   7.183 -0.0073  0.1661 -0.3297
 5378SOL    HW227771   4.416   0.212   7.225  0.6852  0.6622 -0.2572
 5379SOL     OW27772   2.814   2.072   8.092  0.0929  0.3470 -0.3343
 5379SOL    HW127773   2.786   2.125   8.167  1.3345 -0.2903  0.5719
 5379SOL    HW227774   2.815   1.984   8.130 -1.3523  0.4718 -0.0020
 5380SOL     OW27775   4.048   4.556   6.487 -0.2382 -0.8811 -0.1744
 5380SOL    HW127776   4.093   4.567   6.403  0.3679  0.7367  0.3553
 5380SOL    HW227777   3.969   4.508   6.461  0.1464 -1.5116 -0.1683
 5381SOL     OW27778   0.931   0.771  12.820 -1.0125 -0.4392  0.2047
 5381SOL    HW127779   1.021   0.747  12.796 -0.4468  0.7870  1.0772
 5381SOL    HW227780   0.887   0.686  12.823  1.3806 -1.6892  0.4204
 5382SOL     OW27781   2.336   0.753   0.994 -0.0883 -0.8186  0.1384
 5382SOL    HW127782   2.268   0.807   0.952  1.1425  0.1463 -0.6062
 5382SOL    HW227783   2.410   0.813   0.999 -0.7221 -0.0023 -0.1143
 5383SOL     OW27784   1.685   2.088   8.642 -0.3256  0.1002  0.1932
 5383SOL    HW127785   1.755   2.023   8.649  0.5060  1.0949  1.1142
 5383SOL    HW227786   1.720   2.155   8.584 -2.7804  0.2801 -1.0661
 5384SOL     OW27787   4.510   4.144   7.430  0.4648 -0.5586  0.3992
 5384SOL    HW127788   4.593   4.097   7.415  1.2887  0.8292  0.6114
 5384SOL    HW227789   4.478   4.119   7.516 -0.5488  0.9548  0.4494
 5385SOL     OW27790   2.273   2.829   3.410  0.0085  0.1258 -0.8964
 5385SOL    HW127791   2.179   2.844   3.396  0.0133  0.0766 -0.9778
 5385SOL    HW227792   2.296   2.921   3.423 -2.3011  0.4881  0.5877
 5386SOL     OW27793   1.155   2.574  11.402 -0.0521  0.2744  0.3298
 5386SOL    HW127794   1.229   2.635  11.393 -0.7001  0.6325 -2.7932
 5386SOL    HW227795   1.188   2.501  11.454 -1.6432 -0.9248 -0.3593
 5387SOL     OW27796   1.461   3.378  10.802  0.0988 -0.2049  0.1858
 5387SOL    HW127797   1.405   3.301  10.801  1.3280 -1.1308  2.0432
 5387SOL    HW227798   1.410   3.444  10.848  1.5046 -0.8088  2.5974
 5388SOL     OW27799   1.216   2.549  12.072 -0.0322 -0.8657 -0.6071
 5388SOL    HW127800   1.199   2.634  12.031 -1.5576  0.2162  2.3001
 5388SOL    HW227801   1.291   2.572  12.126 -0.5290  1.4207 -0.8770
 5389SOL     OW27802   4.676   2.774  16.727  0.4599  0.0726  0.6410
 5389SOL    HW127803   4.600   2.747  16.779 -0.5066  0.9762 -0.3064
 5389SOL    HW227804   4.706   2.851  16.775 -0.5053  0.4306  0.6890
 5390SOL     OW27805   1.185   4.100  15.372 -0.4706 -0.1181  0.7319
 5390SOL    HW127806   1.242   4.045  15.318 -1.3913 -0.3243 -0.0277
 5390SOL    HW227807   1.106   4.096  15.318 -1.0976 -0.1617  1.6514
 5391SOL     OW27808   4.084   3.889  16.928 -0.2598  0.1711 -0.0596
 5391SOL    HW127809   3.999   3.854  16.953  0.8638 -1.1755  1.8243
 5391SOL    HW227810   4.108   3.831  16.855  0.3893  2.4790 -1.6680
 5392SOL     OW27811   1.613   0.320   5.056  0.4853 -0.2362 -0.3585
 5392SOL    HW127812   1.605   0.245   4.997 -2.0302  0.5732 -1.0393
 5392SOL    HW227813   1.640   0.273   5.135  1.9463 -0.3488 -0.9383
 5393SOL     OW27814   3.474   2.436   3.769 -0.6141 -0.6426  0.1401
 5393SOL    HW127815   3.499   2.470   3.855  0.0399 -3.8212  1.2018
 5393SOL    HW227816   3.454   2.516   3.720 -0.6188 -0.3894  0.5552
 5394SOL     OW27817   0.577   2.244   9.476 -0.5459  0.0012 -0.3599
 5394SOL    HW127818   0.640   2.305   9.439 -0.8108  0.3767 -0.1974
 5394SOL    HW227819   0.590   2.254   9.571  1.6163 -0.3536 -0.6335
 5395SOL     OW27820   3.992   0.873   6.662  0.5232  0.2300  0.3596
 5395SOL    HW127821   3.939   0.948   6.634 -0.0970  0.0929  1.1616
 5395SOL    HW227822   3.957   0.852   6.749 -0.8601  1.0125 -0.0199
 5396SOL     OW27823   4.725   2.468  17.108 -0.3610  0.1629 -0.3178
 5396SOL    HW127824   0.049   2.540  17.087  0.7846 -1.0532 -1.2159
 5396SOL    HW227825   0.035   2.421  17.177  2.5616  1.7903 -1.1516
 5397SOL     OW27826   2.436   0.471   4.185 -0.5314  0.0017 -0.8639
 5397SOL    HW127827   2.445   0.542   4.122  0.4679 -0.0802 -0.8178
 5397SOL    HW227828   2.453   0.524   4.263 -0.1976 -2.9297  1.0625
 5398SOL     OW27829   2.054   0.468   5.258  0.0883  0.1096  0.9495
 5398SOL    HW127830   2.114   0.413   5.308 -1.6560 -1.3238  1.4728
 5398SOL    HW227831   2.027   0.406   5.191  0.9981  1.7851 -0.9366
 5399SOL     OW27832   0.530   0.088   0.653  0.0983 -0.0390 -0.0242
 5399SOL    HW127833   0.487   0.034   0.720 -1.8528  2.2594  0.5703
 5399SOL    HW227834   0.503   0.046   0.571  0.8550  2.2695 -1.4243
 5400SOL     OW27835   2.986   1.201   6.806 -0.2600  0.2521 -0.1240
 5400SOL    HW127836   3.049   1.134   6.780 -0.0359  1.3218 -2.3399
 5400SOL    HW227837   2.994   1.265   6.735 -1.0785 -1.0952 -1.4443
 5401SOL     OW27838   3.979   2.477   4.783 -0.2983  0.0488 -0.1441
 5401SOL    HW127839   3.966   2.393   4.738  1.3474 -1.0799  1.5375
 5401SOL    HW227840   3.952   2.528   4.706 -3.3084 -1.7265 -0.2771
 5402SOL     OW27841   1.620   0.311   6.231 -0.4734 -0.0352  0.1828
 5402SOL    HW127842   1.629   0.339   6.322  0.4274  0.9466 -0.2079
 5402SOL    HW227843   1.690   0.361   6.190 -1.4245  0.3581 -0.9527
 5403SOL     OW27844   4.091   1.544   1.843 -0.0954 -0.6005  0.3143
 5403SOL    HW127845   4.110   1.594   1.763  0.6038 -1.8441 -0.3138
 5403SOL    HW227846   4.168   1.487   1.836  0.6798  0.1194  3.0706
 5404SOL     OW27847   4.707   0.910  17.088  0.0352 -0.5815 -0.6934
 5404SOL    HW127848   4.690   0.915  16.994  1.1017 -0.7458 -0.8967
 5404SOL    HW227849   4.619   0.903  17.124  0.7605  1.1457  1.4250
 5405SOL     OW27850   3.830   2.153   7.963 -0.2775 -0.2280 -0.4512
 5405SOL    HW127851   3.873   2.106   8.034  1.6533 -1.2308 -2.2649
 5405SOL    HW227852   3.904   2.210   7.940  0.7701 -2.1896 -1.9604
 5406SOL     OW27853   4.581   0.585   6.241 -0.6883  0.1685 -0.8973
 5406SOL    HW127854   4.493   0.612   6.270 -0.4777 -0.1534  0.0353
 5406SOL    HW227855   4.567   0.497   6.205 -1.2180  0.4951 -1.4903
 5407SOL     OW27856   0.704   3.205  13.998 -0.7798 -0.1178  0.1840
 5407SOL    HW127857   0.704   3.121  14.044 -1.2158 -0.5855 -0.6761
 5407SOL    HW227858   0.630   3.256  14.031 -0.4187  0.5449 -0.0323
 5408SOL     OW27859   4.698   4.724   7.403 -0.2752  0.6005  0.1537
 5408SOL    HW127860   4.680   0.046   7.329  0.4996 -0.3597 -0.7863
 5408SOL    HW227861   0.052   0.003   7.432  0.3989 -2.0455 -0.5350
 5409SOL     OW27862   1.641   2.075   4.751  0.1586  0.3853  0.0441
 5409SOL    HW127863   1.704   2.074   4.824 -0.1531  1.6164  0.3227
 5409SOL    HW227864   1.589   2.147   4.787  0.6259  0.2787  0.9174
 5410SOL     OW27865   3.515   1.148  12.600  0.4475 -0.4629  0.2434
 5410SOL    HW127866   3.594   1.202  12.596  0.5103 -0.6707 -1.2851
 5410SOL    HW227867   3.537   1.094  12.677  1.3867 -1.0808 -0.4521
 5411SOL     OW27868   2.249   0.648  10.543  0.0803 -0.2229 -0.4751
 5411SOL    HW127869   2.166   0.650  10.495  0.1116  0.6982 -0.4805
 5411SOL    HW227870   2.317   0.676  10.482  0.5374 -0.8147 -0.2424
 5412SOL     OW27871   4.155   2.124  17.075 -0.2951 -0.6465 -0.3470
 5412SOL    HW127872   4.137   2.105  16.983 -1.2494 -0.6771 -0.1543
 5412SOL    HW227873   4.196   2.041  17.099  0.4876 -0.3451 -0.6253
 5413SOL     OW27874   1.175   4.317  16.899  0.2580  0.0516 -0.0464
 5413SOL    HW127875   1.097   4.296  16.848 -0.9674  2.8391  0.6925
 5413SOL    HW227876   1.207   4.394  16.852 -1.8231  0.7713 -0.3165
 5414SOL     OW27877   3.835   4.132   9.179 -0.1560  0.3468  0.1523
 5414SOL    HW127878   3.916   4.183   9.182 -0.0098  0.1990 -1.4790
 5414SOL    HW227879   3.821   4.110   9.271  0.3403  1.5263  0.5067
 5415SOL     OW27880   3.338   2.372   1.309 -0.2430 -0.3917 -0.1147
 5415SOL    HW127881   3.388   2.327   1.378  0.1839 -0.2849 -0.3567
 5415SOL    HW227882   3.382   2.343   1.229  0.8845 -0.2836  0.4647
 5416SOL     OW27883   3.105   4.053   6.457  0.3986 -0.0179  0.3442
 5416SOL    HW127884   3.023   4.100   6.467 -1.4513 -3.4866  1.6177
 5416SOL    HW227885   3.075   3.962   6.462  3.3437 -0.9319  1.1185
 5417SOL     OW27886   4.268   3.635   7.712 -0.5739  0.2771  0.0986
 5417SOL    HW127887   4.347   3.587   7.737 -0.4502 -0.1829 -1.1849
 5417SOL    HW227888   4.255   3.683   7.794  1.7251 -0.7851  1.1089
 5418SOL     OW27889   0.225   3.103  12.769 -0.2552  0.2790 -0.0814
 5418SOL    HW127890   0.188   3.133  12.852  0.3000 -0.1352  0.3165
 5418SOL    HW227891   0.319   3.119  12.782 -0.3775 -0.0264  1.1767
 5419SOL     OW27892   1.794   4.072   3.567 -0.1198  0.3657 -0.4857
 5419SOL    HW127893   1.836   4.147   3.524  2.2584 -1.1749 -0.8786
 5419SOL    HW227894   1.861   4.005   3.560 -1.4877 -1.0927  0.4654
 5420SOL     OW27895   2.853   3.587   0.479  0.0313 -0.0965  0.7809
 5420SOL    HW127896   2.871   3.529   0.553 -0.5042  0.3892  1.2983
 5420SOL    HW227897   2.938   3.629   0.469  0.1421 -0.3991  0.5012
 5421SOL     OW27898   1.552   0.865   5.030 -0.3222 -0.2158  0.1606
 5421SOL    HW127899   1.558   0.899   5.120 -1.3100 -2.2613  0.9931
 5421SOL    HW227900   1.517   0.937   4.977 -0.8394 -1.0640 -0.6367
 5422SOL     OW27901   0.603   4.547   4.185 -0.1730 -0.4959 -0.4867
 5422SOL    HW127902   0.639   4.544   4.274 -1.4293  0.2051  0.0548
 5422SOL    HW227903   0.579   4.456   4.167  0.7237 -0.6291 -0.9946
 5423SOL     OW27904   1.177   2.855   0.843 -0.3433  0.4257  0.1892
 5423SOL    HW127905   1.139   2.893   0.922 -0.7325  0.1082  0.1549
 5423SOL    HW227906   1.158   2.762   0.852  2.0116 -0.2367 -1.4120
 5424SOL     OW27907   3.729   2.293  13.149  0.3257 -0.5844 -0.1911
 5424SOL    HW127908   3.661   2.231  13.174 -0.4545 -0.2547 -1.5017
 5424SOL    HW227909   3.724   2.348  13.228 -0.7030  1.0385 -1.3612
 5425SOL     OW27910   3.090   1.275  15.016  0.3890 -0.0017 -0.7084
 5425SOL    HW127911   3.149   1.298  14.944  0.4223  1.2467 -0.2810
 5425SOL    HW227912   3.024   1.345  15.014  0.2856 -0.0905 -0.3805
 5426SOL     OW27913   3.617   3.755   8.877 -0.9127 -0.2909  0.2021
 5426SOL    HW127914   3.628   3.849   8.890  1.3472 -0.5515  0.0784
 5426SOL    HW227915   3.706   3.736   8.906 -0.3218 -0.3013 -1.6698
 5427SOL     OW27916   3.540   2.339  17.161  0.0312 -0.2730  0.0585
 5427SOL    HW127917   3.549   2.355  17.067 -5.2786  2.5297  0.0393
 5427SOL    HW227918   3.564   2.247  17.172  1.4447  0.2226  1.1934
 5428SOL     OW27919   1.128   1.797   5.643 -0.0919 -0.3614  0.1194
 5428SOL    HW127920   1.103   1.775   5.733 -1.9638 -0.9404 -0.5412
 5428SOL    HW227921   1.153   1.709   5.613  0.6303 -0.2259  0.3181
 5429SOL     OW27922   3.662   2.536   5.923 -0.5263  0.1759 -0.1321
 5429SOL    HW127923   3.589   2.543   5.984 -1.4805 -1.9819 -1.0121
 5429SOL    HW227924   3.730   2.570   5.980 -1.0406  2.2808 -0.7831
 5430SOL     OW27925   0.063   0.188   4.530  0.0884 -0.4411 -0.5426
 5430SOL    HW127926   0.133   0.182   4.465  0.8416  0.2113  0.2083
 5430SOL    HW227927   0.106   0.241   4.597 -0.5578 -4.0811  2.7620
 5431SOL     OW27928   1.397   3.298   7.628 -0.9868  0.4883  0.0707
 5431SOL    HW127929   1.323   3.355   7.608 -0.0050  1.4897 -0.7524
 5431SOL    HW227930   1.444   3.288   7.545  1.5119 -2.6337  1.8683
 5432SOL     OW27931   3.501   3.887   7.884 -0.4159 -0.0570 -0.0405
 5432SOL    HW127932   3.439   3.931   7.826  0.1996 -0.5521 -1.0850
 5432SOL    HW227933   3.448   3.861   7.958 -2.0228  3.0085 -0.0984
 5433SOL     OW27934   3.980   4.008  13.280 -0.1138  0.4868  0.0434
 5433SOL    HW127935   4.073   4.017  13.257  0.3825 -0.2279  1.7707
 5433SOL    HW227936   3.967   3.916  13.302 -3.7169  1.0375  0.0632
 5434SOL     OW27937   4.304   4.656  13.007  0.5470 -0.1213 -0.1177
 5434SOL    HW127938   4.376   4.651  13.069 -0.0364  1.0397  0.6581
 5434SOL    HW227939   4.330   4.610  12.927  0.3986  0.9537 -0.7863
 5435SOL     OW27940   0.137   3.568   6.027 -0.2659 -0.1825  0.1338
 5435SOL    HW127941   0.055   3.547   6.071 -1.4441  0.4965 -1.7550
 5435SOL    HW227942   0.120   3.657   5.996  2.5294 -0.0859 -1.0994
 5436SOL     OW27943   1.556   1.420  10.513  0.1166  0.9410  0.1180
 5436SOL    HW127944   1.504   1.436  10.435  0.0130  2.9902  0.6062
 5436SOL    HW227945   1.497   1.408  10.587 -0.0655 -0.1703 -0.2059
 5437SOL     OW27946   2.055   3.592   6.554 -0.1338  0.3360  0.2626
 5437SOL    HW127947   2.081   3.682   6.576  0.9837  0.2992 -0.8731
 5437SOL    HW227948   1.999   3.612   6.479  0.9976 -0.3119 -0.7595
 5438SOL     OW27949   2.031   0.157   3.424  0.3554  0.0698  0.4171
 5438SOL    HW127950   1.992   0.203   3.349  0.0366 -1.1251 -0.1479
 5438SOL    HW227951   1.961   0.159   3.489  0.6505 -2.8615  0.8146
 5439SOL     OW27952   2.339   3.239   6.059  0.1056  0.2941 -0.0430
 5439SOL    HW127953   2.291   3.294   5.998 -0.4456  1.7784  1.7262
 5439SOL    HW227954   2.369   3.299   6.128 -0.8039  0.8740 -0.1629
 5440SOL     OW27955   1.101   4.492   2.193  0.4782  0.7253  0.1025
 5440SOL    HW127956   1.023   4.462   2.239  0.0300  1.6552 -0.0691
 5440SOL    HW227957   1.134   4.562   2.249  1.7830  0.2059 -0.0031
 5441SOL     OW27958   4.624   3.571   7.775  0.5764  0.1134 -0.0543
 5441SOL    HW127959   4.682   3.516   7.829  1.0097  1.2663  0.6519
 5441SOL    HW227960   4.539   3.527   7.777  1.1360 -1.0374 -1.4531
 5442SOL     OW27961   2.198   3.309   0.352  0.3002 -0.2239  0.5415
 5442SOL    HW127962   2.271   3.314   0.290 -0.1113 -0.2366  0.0587
 5442SOL    HW227963   2.235   3.247   0.416 -1.7088 -1.9560  0.0336
 5443SOL     OW27964   3.828   3.887   3.180  0.0138 -0.0184 -0.7318
 5443SOL    HW127965   3.807   3.946   3.252 -1.2040 -1.8905  0.4514
 5443SOL    HW227966   3.902   3.840   3.219  0.3740  0.3827 -0.9292
 5444SOL     OW27967   4.244   3.381   8.493 -0.0953  0.8403  0.1411
 5444SOL    HW127968   4.169   3.364   8.549 -0.3393 -0.4321 -0.5760
 5444SOL    HW227969   4.220   3.331   8.415 -3.7600  0.5802  1.4762
 5445SOL     OW27970   4.019   0.438   1.024 -0.0731  0.5989  0.0623
 5445SOL    HW127971   3.931   0.468   1.002 -0.0777 -1.7624 -3.0675
 5445SOL    HW227972   4.044   0.376   0.956 -0.9300 -1.5813  1.7427
 5446SOL     OW27973   0.725   2.168  11.883  0.2789  0.0273  0.2131
 5446SOL    HW127974   0.721   2.240  11.946 -1.6991 -1.2415  1.5590
 5446SOL    HW227975   0.674   2.198  11.808  3.0466 -1.1683 -2.1185
 5447SOL     OW27976   2.031   4.716   5.135 -0.2540  0.3154 -0.0320
 5447SOL    HW127977   2.112   4.670   5.158 -0.1973 -0.3928 -1.6091
 5447SOL    HW227978   1.990   4.701   5.220 -0.2945 -0.8354 -0.2566
 5448SOL     OW27979   3.600   1.151   6.347  0.8344 -0.0547  0.2424
 5448SOL    HW127980   3.561   1.221   6.398  1.5822  1.3896 -1.1741
 5448SOL    HW227981   3.544   1.156   6.269  1.3327 -3.3857 -0.3706
 5449SOL     OW27982   2.261   3.939   6.224  0.4304 -0.0694 -0.5773
 5449SOL    HW127983   2.307   3.967   6.146  0.5033  2.0180  0.2198
 5449SOL    HW227984   2.247   3.844   6.227  0.4211 -0.0410  0.6189
 5450SOL     OW27985   0.063   3.419   4.129  0.0924  0.0128  0.1584
 5450SOL    HW127986   0.017   3.341   4.160  0.3465 -0.3797 -0.4422
 5450SOL    HW227987   0.012   3.489   4.170 -0.0883 -0.8761  1.4428
 5451SOL     OW27988   0.728   3.900   9.950  0.5071  0.4281  0.0454
 5451SOL    HW127989   0.714   3.814   9.989 -2.5460  0.4718 -0.9628
 5451SOL    HW227990   0.823   3.900   9.943  0.2159 -4.0140 -3.7925
 5452SOL     OW27991   3.084   1.814   4.055  0.2424  0.3884  0.0348
 5452SOL    HW127992   2.992   1.787   4.053  1.0913 -2.4762 -0.6479
 5452SOL    HW227993   3.122   1.758   3.987  0.9505  2.0129 -0.9016
 5453SOL     OW27994   1.357   2.604   4.357  0.2466  0.5455  0.0617
 5453SOL    HW127995   1.262   2.614   4.350  0.1937 -0.5311 -0.7015
 5453SOL    HW227996   1.366   2.539   4.426 -1.6567  0.9002  0.6388
 5454SOL     OW27997   1.406   1.771   7.451  0.3738 -0.3149  0.2658
 5454SOL    HW127998   1.400   1.842   7.387  0.9613 -0.3433  0.1748
 5454SOL    HW227999   1.469   1.798   7.518  1.4350 -1.2968 -0.3228
 5455SOL     OW28000   1.314   2.180   1.656  0.5684  0.3501 -0.3203
 5455SOL    HW128001   1.341   2.227   1.735  1.5935 -0.9111  0.0672
 5455SOL    HW228002   1.389   2.190   1.597 -0.7955 -0.9037 -2.2591
 5456SOL     OW28003   4.416   2.002   0.419 -0.5105  0.1653 -0.0430
 5456SOL    HW128004   4.384   1.929   0.472  2.2598 -0.2970  0.9936
 5456SOL    HW228005   4.338   2.036   0.374 -1.0301 -0.9556  0.0301
 5457SOL     OW28006   0.085   3.336   3.079  0.5233  0.2872 -0.1493
 5457SOL    HW128007   0.077   3.431   3.083 -0.0683  0.1664  1.5446
 5457SOL    HW228008   0.101   3.315   2.987 -0.1461  0.2588 -0.2562
 5458SOL     OW28009   0.137   3.654   2.210  0.2585 -0.6263 -0.5101
 5458SOL    HW128010   0.099   3.581   2.161  1.0451 -1.0391 -0.5073
 5458SOL    HW228011   0.112   3.634   2.300 -1.2787  1.4328 -0.4784
 5459SOL     OW28012   0.086   0.530  12.426  0.5468 -0.2610  0.2858
 5459SOL    HW128013   4.734   0.569  12.423  0.4131 -0.5310  0.6530
 5459SOL    HW228014   0.140   0.598  12.466  0.3399  1.2686 -2.0383
 5460SOL     OW28015   0.416   3.528   2.223 -0.8825 -0.5595  0.1162
 5460SOL    HW128016   0.424   3.589   2.296 -0.4336 -0.7216  0.2042
 5460SOL    HW228017   0.450   3.454   2.273  1.1913  0.1837 -0.2118
 5461SOL     OW28018   0.995   0.169   9.384 -0.7581  0.2098  0.0507
 5461SOL    HW128019   0.930   0.113   9.342 -0.4745 -0.1452  0.0850
 5461SOL    HW228020   0.973   0.256   9.350 -1.9728 -0.8380 -1.8474
 5462SOL     OW28021   0.130   3.669   1.476  0.2976 -0.9949 -0.3148
 5462SOL    HW128022   0.085   3.605   1.420 -0.0486 -0.9628 -0.0765
 5462SOL    HW228023   0.212   3.664   1.427 -0.8138 -2.3805 -2.0550
 5463SOL     OW28024   3.330   3.834   4.543 -0.0353 -0.1089  0.3956
 5463SOL    HW128025   3.304   3.912   4.593  0.5860  0.0822  0.4245
 5463SOL    HW228026   3.375   3.794   4.617  0.3726 -0.9189 -0.2956
 5464SOL     OW28027   0.287   4.691  15.876 -0.1061  0.1025 -0.6347
 5464SOL    HW128028   0.316   4.619  15.931 -2.9273  1.5540  2.7248
 5464SOL    HW228029   0.274   0.028  15.938  2.0058  0.1429 -0.2213
 5465SOL     OW28030   0.155   0.826  12.820 -0.2507  0.1885  0.3454
 5465SOL    HW128031   0.158   0.922  12.819  2.3967  0.0953 -0.4633
 5465SOL    HW228032   0.168   0.809  12.913  0.6092  0.7177  0.3211
 5466SOL     OW28033   1.183   4.325   0.308 -0.2191 -0.4458  0.4460
 5466SOL    HW128034   1.208   4.363   0.392 -0.9511  2.1172 -0.5080
 5466SOL    HW228035   1.119   4.255   0.319 -3.0667  1.9550 -0.6997
 5467SOL     OW28036   0.532   2.812   4.560 -0.4070 -0.5153  0.3090
 5467SOL    HW128037   0.498   2.872   4.494  0.7458 -0.0652  0.1286
 5467SOL    HW228038   0.456   2.804   4.619 -1.0499  0.3981 -0.3900
 5468SOL     OW28039   3.398   1.004  12.413 -0.1673 -0.1266 -0.1032
 5468SOL    HW128040   3.443   1.065  12.471  1.0583  0.5339 -1.7359
 5468SOL    HW228041   3.305   1.010  12.435  0.0899 -0.5769  1.1038
 5469SOL     OW28042   0.102   2.177   5.633 -0.8561  0.7918 -0.0461
 5469SOL    HW128043   0.127   2.269   5.630  2.0340 -0.0806 -2.2903
 5469SOL    HW228044   0.007   2.190   5.625 -0.8598  2.9591  3.3361
 5470SOL     OW28045   2.952   1.731   5.534  0.3704 -0.1794 -0.3032
 5470SOL    HW128046   2.886   1.796   5.557  0.7637  0.3153 -0.5916
 5470SOL    HW228047   2.975   1.694   5.619 -3.5105 -1.2128  0.3145
 5471SOL     OW28048   4.224   3.343   7.003 -0.7053  0.0271  0.7054
 5471SOL    HW128049   4.135   3.358   6.973 -0.2059  0.6613 -0.4513
 5471SOL    HW228050   4.256   3.299   6.924  0.6651  0.6171  0.9312
 5472SOL     OW28051   3.455   0.714   7.289  0.5268  0.4029 -0.0056
 5472SOL    HW128052   3.493   0.726   7.376  2.7094 -0.7964 -0.7976
 5472SOL    HW228053   3.518   0.759   7.233  1.4976 -0.8092  0.1220
 5473SOL     OW28054   3.235   2.260  15.997 -0.2350  0.0454 -0.0283
 5473SOL    HW128055   3.201   2.347  15.981  0.3929 -0.1172 -2.1455
 5473SOL    HW228056   3.280   2.280  16.080 -2.1051  0.4387  0.8862
 5474SOL     OW28057   1.333   3.876   0.463 -0.8635  0.2617  0.5868
 5474SOL    HW128058   1.409   3.839   0.418 -0.0629  0.9827  1.3492
 5474SOL    HW228059   1.336   3.808   0.531 -2.0002 -1.1640 -0.7790
 5475SOL     OW28060   4.081   2.837   8.384  0.2330 -0.2554 -0.0103
 5475SOL    HW128061   4.151   2.841   8.319 -1.7369 -1.5056 -2.2149
 5475SOL    HW228062   4.017   2.783   8.338  0.3869 -1.6877  1.4567
 5476SOL     OW28063   2.555   4.369   3.036  0.1423 -0.6163 -0.0080
 5476SOL    HW128064   2.487   4.436   3.044  0.0276 -0.7639  0.2791
 5476SOL    HW228065   2.636   4.415   3.014  0.9657 -2.7270 -1.3823
 5477SOL     OW28066   0.643   3.143   6.675 -0.3089 -0.0002 -0.0282
 5477SOL    HW128067   0.634   3.118   6.767  0.4394 -0.9054 -0.2092
 5477SOL    HW228068   0.666   3.235   6.692  0.2334 -0.0711 -0.3575
 5478SOL     OW28069   1.140   4.486   8.156 -0.4054  0.3610  0.2762
 5478SOL    HW128070   1.110   4.575   8.173  0.5833  0.8350 -0.4068
 5478SOL    HW228071   1.063   4.440   8.189 -0.8740  0.9379 -0.0151
 5479SOL     OW28072   4.638   2.345   7.670 -0.1172  0.7914 -0.1738
 5479SOL    HW128073   4.551   2.346   7.630  0.3075  0.2217 -1.1062
 5479SOL    HW228074   4.643   2.257   7.709  4.2942  0.7683 -0.7979
 5480SOL     OW28075   1.600   1.120   1.667  0.2751 -0.4857  0.1636
 5480SOL    HW128076   1.505   1.121   1.653  0.0376 -0.4201  1.7780
 5480SOL    HW228077   1.610   1.204   1.712  0.8987 -0.6430  0.3119
 5481SOL     OW28078   1.938   1.007   8.781  0.0769  0.2204 -0.2890
 5481SOL    HW128079   1.866   1.067   8.802 -0.2364 -0.4845  0.6717
 5481SOL    HW228080   1.900   0.956   8.709 -0.7200 -2.2624  1.8542
 5482SOL     OW28081   0.701   3.832   2.717 -0.4171 -0.0149 -0.2283
 5482SOL    HW128082   0.726   3.859   2.806  0.5334  0.0672 -0.5233
 5482SOL    HW228083   0.614   3.871   2.720 -0.3807  0.0514 -0.0216
 5483SOL     OW28084   3.321   0.959   5.437 -0.1712  0.6761 -0.4528
 5483SOL    HW128085   3.377   0.951   5.359 -1.3267 -0.1679 -1.1988
 5483SOL    HW228086   3.311   1.054   5.446  1.7074  0.8622 -0.2972
 5484SOL     OW28087   1.704   2.246   3.015 -0.3025 -0.0625  0.4513
 5484SOL    HW128088   1.678   2.208   2.931 -0.8037 -0.9846  1.0252
 5484SOL    HW228089   1.689   2.338   2.995  1.0691 -0.0719 -0.6138
 5485SOL     OW28090   2.848   0.105  12.245 -0.2206  0.1134  0.0391
 5485SOL    HW128091   2.910   0.140  12.180  0.8111 -0.2479  0.8272
 5485SOL    HW228092   2.874   0.014  12.259  1.2633  0.2464 -1.7191
 5486SOL     OW28093   0.191   1.776   8.856  0.0751  0.4392 -0.8519
 5486SOL    HW128094   0.118   1.715   8.844 -0.2471  0.3305  1.5815
 5486SOL    HW228095   0.142   1.853   8.884  0.7709  0.6609 -0.2350
 5487SOL     OW28096   3.706   1.946   3.025  0.0141  0.0015 -0.8668
 5487SOL    HW128097   3.670   1.860   3.003 -1.3918  0.9549 -2.2107
 5487SOL    HW228098   3.642   1.990   3.082  0.9523  1.8312 -1.2372
 5488SOL     OW28099   0.250   0.373   4.722  0.4003 -0.1562  0.0598
 5488SOL    HW128100   0.272   0.307   4.788 -4.0338 -0.7006  0.9880
 5488SOL    HW228101   0.313   0.352   4.652  1.4148  3.7961 -0.1998
 5489SOL     OW28102   0.689   2.419   6.898 -0.4790 -0.2416 -0.2057
 5489SOL    HW128103   0.669   2.425   6.992  0.2947 -0.8805 -0.0015
 5489SOL    HW228104   0.603   2.447   6.867 -0.1090  0.8550 -0.2473
 5490SOL     OW28105   3.373   0.254   2.346 -0.2203 -0.0668  0.5834
 5490SOL    HW128106   3.453   0.264   2.398 -0.2934  1.3299  0.4215
 5490SOL    HW228107   3.319   0.192   2.394 -0.8310 -0.9696 -1.2515
 5491SOL     OW28108   4.267   2.734   6.213  0.0942  0.3651 -0.0662
 5491SOL    HW128109   4.306   2.821   6.224 -0.4056  0.8803 -2.3188
 5491SOL    HW228110   4.348   2.684   6.204 -0.1918 -0.2944  1.0907
 5492SOL     OW28111   1.438   4.411   4.556 -0.0894 -0.1052  0.1599
 5492SOL    HW128112   1.424   4.426   4.462  3.3158  0.3288 -0.2832
 5492SOL    HW228113   1.434   4.501   4.586 -1.1194 -0.4676  1.1219
 5493SOL     OW28114   2.330   3.436   5.433 -0.3276  0.3582  0.0378
 5493SOL    HW128115   2.393   3.506   5.413 -1.0538  0.8919 -0.3915
 5493SOL    HW228116   2.251   3.491   5.440 -0.3487  0.4460 -0.9262
 5494SOL     OW28117   2.462   2.260  17.401  0.4698 -0.5671 -0.2135
 5494SOL    HW128118   2.495   2.348  17.415  2.8954 -1.3288 -1.1189
 5494SOL    HW228119   2.539   2.217  17.364  1.5752  1.2745 -0.0253
 5495SOL     OW28120   0.744   4.420  12.964  0.2712 -0.2156 -0.6361
 5495SOL    HW128121   0.782   4.495  13.011 -1.9610  1.2810 -1.2377
 5495SOL    HW228122   0.742   4.466  12.881 -1.8050  0.3592 -0.2507
 5496SOL     OW28123   0.545   2.781   7.945  0.0208 -0.2052 -0.6720
 5496SOL    HW128124   0.551   2.689   7.971 -0.6082 -0.3566 -1.0443
 5496SOL    HW228125   0.635   2.809   7.930  0.3322 -1.6823 -1.5335
 5497SOL     OW28126   4.713   4.445   2.049 -0.4044  0.0773  0.6200
 5497SOL    HW128127   4.723   4.394   1.968 -3.0640 -0.1724  0.4381
 5497SOL    HW228128   0.047   4.408   2.103  1.1577  2.0420 -0.0830
 5498SOL     OW28129   1.005   3.356   3.201 -0.6530  0.0051  0.3358
 5498SOL    HW128130   1.051   3.438   3.218  0.2261 -0.2569 -0.7840
 5498SOL    HW228131   0.918   3.386   3.175 -0.3827  0.3367 -0.1941
 5499SOL     OW28132   0.692   2.915   3.033  0.3422 -0.2314 -0.1910
 5499SOL    HW128133   0.721   2.940   3.121 -0.6039 -0.7949  0.2935
 5499SOL    HW228134   0.600   2.898   3.053  0.4906 -0.8013  0.0100
 5500SOL     OW28135   0.785   0.822   1.890 -0.3169  0.3790  0.0477
 5500SOL    HW128136   0.832   0.896   1.852 -1.3381  1.9462  1.7960
 5500SOL    HW228137   0.788   0.764   1.815 -0.1278  0.0440  0.3147
 5501SOL     OW28138   0.983   1.616   8.252  0.1379  0.0495 -0.2385
 5501SOL    HW128139   1.027   1.699   8.268 -1.2920  0.7726 -0.0529
 5501SOL    HW228140   0.982   1.605   8.157 -0.3568  1.1731 -0.3645
 5502SOL     OW28141   4.583   3.394   5.933  0.8334 -0.0578  0.2552
 5502SOL    HW128142   4.626   3.311   5.915  0.8755  0.0132  0.0303
 5502SOL    HW228143   4.494   3.384   5.901  0.5552  1.0941  0.6637
 5503SOL     OW28144   0.156   2.842  11.862  0.5103 -0.0218  0.2181
 5503SOL    HW128145   0.063   2.855  11.881  1.1236  5.0297 -0.2668
 5503SOL    HW228146   0.197   2.888  11.935  1.0957 -0.0289 -0.1008
 5504SOL     OW28147   0.693   0.447  11.493  0.4978  0.3273 -0.0704
 5504SOL    HW128148   0.651   0.389  11.429 -0.1894  0.6757  0.0628
 5504SOL    HW228149   0.695   0.530  11.444  0.8617  0.9615  1.0147
 5505SOL     OW28150   1.879   2.874   9.020 -0.6197  0.2057 -0.6021
 5505SOL    HW128151   1.949   2.935   8.998 -0.0530  0.1867  1.1622
 5505SOL    HW228152   1.929   2.798   9.049  1.3857  0.4314 -3.4565
 5506SOL     OW28153   3.071   1.604   5.768  0.9625  0.6547 -0.6118
 5506SOL    HW128154   3.143   1.541   5.771  0.2828 -0.0508  1.3327
 5506SOL    HW228155   3.127   1.676   5.796  2.7920 -0.3315 -1.7989
 5507SOL     OW28156   3.396   1.465   8.707 -0.3881  0.1750 -0.3826
 5507SOL    HW128157   3.408   1.437   8.617  1.2126  1.8765 -0.7230
 5507SOL    HW228158   3.301   1.458   8.714 -0.3636  0.1766 -0.0363
 5508SOL     OW28159   1.354   3.638   9.980 -0.3548 -0.2540 -0.5563
 5508SOL    HW128160   1.346   3.545  10.002 -1.2411  0.0146  0.2612
 5508SOL    HW228161   1.264   3.660   9.959 -0.0842  1.4591  0.0222
 5509SOL     OW28162   0.747   2.027   2.300 -0.1396 -0.3784 -0.2540
 5509SOL    HW128163   0.761   2.116   2.268 -1.6072 -0.6558 -1.5989
 5509SOL    HW228164   0.804   2.022   2.377 -0.0911 -0.3322 -0.2870
 5510SOL     OW28165   0.712   0.896   4.509 -0.2231  0.2029 -0.3836
 5510SOL    HW128166   0.661   0.929   4.435  1.6097  1.4979 -1.0678
 5510SOL    HW228167   0.691   0.803   4.509  0.2122  0.1058 -0.5011
 5511SOL     OW28168   4.665   3.031  13.016 -0.0520 -0.0762  0.0916
 5511SOL    HW128169   4.620   3.101  12.969  1.1712  0.9720  0.4989
 5511SOL    HW228170   0.006   3.083  13.041  1.0513 -0.5629 -2.2504
 5512SOL     OW28171   2.258   3.660   8.567 -0.3776  0.0411 -0.0380
 5512SOL    HW128172   2.211   3.676   8.649 -2.5153 -2.3725 -0.8064
 5512SOL    HW228173   2.278   3.569   8.588 -1.6037 -0.2183 -0.0089
 5513SOL     OW28174   2.826   2.258   6.793 -0.2067  0.5314  0.1247
 5513SOL    HW128175   2.794   2.168   6.789 -0.8664  0.8438 -1.5590
 5513SOL    HW228176   2.749   2.310   6.770  0.5480  1.2965 -0.6608
 5514SOL     OW28177   2.876   3.428  10.360  0.2322 -0.0920  0.1157
 5514SOL    HW128178   2.954   3.482  10.349 -0.4223  0.5718 -1.3215
 5514SOL    HW228179   2.889   3.376  10.281  1.1922 -0.5617  0.5880
 5515SOL     OW28180   4.153   3.315   7.499 -0.4806  0.1123  0.0492
 5515SOL    HW128181   4.194   3.296   7.584  0.1660  2.5790  0.2992
 5515SOL    HW228182   4.174   3.404   7.471  1.1279  0.0044  0.9131
 5516SOL     OW28183   3.690   1.359  15.179 -0.2760 -0.1552  0.1936
 5516SOL    HW128184   3.698   1.270  15.214 -0.8915 -0.9248 -1.6402
 5516SOL    HW228185   3.596   1.358  15.159  0.0249  3.4327 -1.2756
 5517SOL     OW28186   3.565   0.161   2.543  0.2127 -0.2357  1.0981
 5517SOL    HW128187   3.522   0.187   2.625 -0.0405 -0.0818  0.9175
 5517SOL    HW228188   3.651   0.202   2.552 -0.5613  1.8358 -0.8282
 5518SOL     OW28189   1.625   2.496   9.851  0.4504 -0.0529  0.3917
 5518SOL    HW128190   1.626   2.427   9.917 -1.6466  1.3753  1.9092
 5518SOL    HW228191   1.533   2.491   9.824  0.7541  1.4467 -0.9521
 5519SOL     OW28192   1.328   1.430   8.616 -0.0825  0.3623 -0.0253
 5519SOL    HW128193   1.355   1.348   8.575  1.6909  1.2624 -0.6847
 5519SOL    HW228194   1.364   1.485   8.545  2.1046  0.9498  1.5281
 5520SOL     OW28195   4.393   2.866   5.169 -0.1830  0.0334  0.5143
 5520SOL    HW128196   4.477   2.911   5.179 -1.7222  2.8231  1.0416
 5520SOL    HW228197   4.358   2.914   5.094  1.1145  0.4900  0.2045
 5521SOL     OW28198   1.780   1.975   7.530  0.4900 -0.0014 -0.3387
 5521SOL    HW128199   1.729   1.918   7.588 -0.5485  1.1562 -0.0942
 5521SOL    HW228200   1.776   2.062   7.570  1.4073 -0.9921  1.8976
 5522SOL     OW28201   4.372   1.879   5.231 -0.3402 -0.2002 -0.1371
 5522SOL    HW128202   4.301   1.831   5.186  1.4495 -3.4752  0.5559
 5522SOL    HW228203   4.323   1.948   5.276 -1.0206  0.8473 -2.4554
 5523SOL     OW28204   3.797   1.076  17.559  0.1649  0.1174 -0.1882
 5523SOL    HW128205   3.855   1.037  17.494 -2.3663 -3.4472 -0.2819
 5523SOL    HW228206   3.752   1.135  17.499  0.1893  0.3199 -0.0077
 5524SOL     OW28207   2.470   1.012   3.314  0.3526 -0.0722  0.4330
 5524SOL    HW128208   2.440   1.099   3.287 -0.8005 -1.9753 -4.3861
 5524SOL    HW228209   2.396   0.970   3.271 -0.2015 -0.3168  1.6197
 5525SOL     OW28210   3.278   2.740   0.190 -0.6276  0.2610 -0.4325
 5525SOL    HW128211   3.212   2.680   0.226  0.3361 -2.4890 -3.3052
 5525SOL    HW228212   3.253   2.730   0.098 -0.7213  0.9401 -0.4817
 5526SOL     OW28213   3.455   2.755   6.485 -0.1981 -0.2578 -0.1861
 5526SOL    HW128214   3.527   2.692   6.492 -0.1512 -0.0817  0.9826
 5526SOL    HW228215   3.487   2.827   6.431 -1.6554 -0.2432 -1.0327
 5527SOL     OW28216   0.291   2.669   8.496 -0.3702  0.2778 -0.0216
 5527SOL    HW128217   0.353   2.604   8.464 -0.8921  0.8581 -2.1674
 5527SOL    HW228218   0.223   2.669   8.429 -0.6710 -0.1536  0.2793
 5528SOL     OW28219   1.663   0.330   2.875 -0.0931  0.0110 -0.5529
 5528SOL    HW128220   1.645   0.337   2.781  2.5586  2.0163 -0.9374
 5528SOL    HW228221   1.757   0.308   2.876  0.0560  0.7012 -0.0440
 5529SOL     OW28222   1.226   0.591   1.922 -0.1683  0.0796 -0.2934
 5529SOL    HW128223   1.181   0.670   1.954 -0.9249 -0.5270  0.1410
 5529SOL    HW228224   1.220   0.605   1.828 -1.1998  0.8727 -0.1111
 5530SOL     OW28225   2.083   4.506   7.750  0.5591 -0.3072  0.3592
 5530SOL    HW128226   2.079   4.411   7.739  0.0208 -0.3484  0.8885
 5530SOL    HW228227   2.049   4.500   7.839  2.5917  0.9072  1.2118
 5531SOL     OW28228   3.400   1.399   8.441 -0.7270  0.8580 -0.0709
 5531SOL    HW128229   3.436   1.415   8.354 -1.5861 -0.2219 -0.6296
 5531SOL    HW228230   3.388   1.304   8.444 -0.3963  0.8003 -0.8233
 5532SOL     OW28231   2.344   3.533  15.755  0.6708  0.0797  0.3049
 5532SOL    HW128232   2.349   3.464  15.821 -1.7098 -1.0725 -0.7380
 5532SOL    HW228233   2.259   3.512  15.716  2.3083 -2.6659 -1.8311
 5533SOL     OW28234   1.906   0.075   5.435  0.1278 -0.8435  0.4254
 5533SOL    HW128235   1.843   0.126   5.486  1.6926 -0.8547  2.4134
 5533SOL    HW228236   1.983   0.080   5.493  0.2618  0.6629  0.1258
 5534SOL     OW28237   3.844   2.237  16.539  0.0098  1.0034  0.6118
 5534SOL    HW128238   3.862   2.213  16.630 -1.4514  2.1985  1.2050
 5534SOL    HW228239   3.772   2.174  16.526 -0.0145  1.2241 -0.3092
 5535SOL     OW28240   1.664   3.112   5.095  0.1118  0.2620 -0.6843
 5535SOL    HW128241   1.671   3.092   5.188  1.1532 -2.7272 -1.4240
 5535SOL    HW228242   1.664   3.207   5.104  2.1819 -0.0612  2.7202
 5536SOL     OW28243   4.095   0.046   3.939 -0.3070  0.1011 -0.1204
 5536SOL    HW128244   4.141   0.040   4.023 -1.2838  1.5203  0.5099
 5536SOL    HW228245   4.006   0.044   3.975 -0.3553  0.0040 -0.2467
 5537SOL     OW28246   0.076   4.065  11.810  0.2826 -0.7753  0.1809
 5537SOL    HW128247   0.015   4.138  11.821  4.4387  2.7125 -0.3697
 5537SOL    HW228248   0.056   4.044  11.718 -0.8027  0.3660  0.1516
 5538SOL     OW28249   3.165   3.810  15.789 -0.1162 -0.2718  0.2348
 5538SOL    HW128250   3.150   3.841  15.878  0.2756  1.1862 -0.2103
 5538SOL    HW228251   3.201   3.722  15.796  1.5794  0.2578 -1.9864
 5539SOL     OW28252   3.168   1.813  10.644 -0.0241  0.4048  0.3521
 5539SOL    HW128253   3.122   1.846  10.567 -1.1023  1.0484  1.2810
 5539SOL    HW228254   3.096   1.768  10.687  0.6609 -0.3139  0.7548
 5540SOL     OW28255   2.521   4.681   6.260 -0.0599  0.1022 -0.8679
 5540SOL    HW128256   2.562   4.721   6.337 -0.3073 -1.0697 -0.1344
 5540SOL    HW228257   2.437   4.719   6.286  0.6327  0.8076  0.3678
 5541SOL     OW28258   3.578   2.335   5.753 -0.0872  0.4937 -0.3263
 5541SOL    HW128259   3.659   2.288   5.734  0.3125  1.1106 -0.1351
 5541SOL    HW228260   3.616   2.399   5.813  0.7361  0.6190 -0.9913
 5542SOL     OW28261   2.201   2.856   9.766 -0.3968 -0.2429  0.2886
 5542SOL    HW128262   2.228   2.784   9.708 -0.4039  0.0355 -0.0642
 5542SOL    HW228263   2.162   2.914   9.701 -0.2189  0.2914  0.6658
 5543SOL     OW28264   2.529   0.622   4.474  0.1732  0.0312 -0.2290
 5543SOL    HW128265   2.513   0.620   4.569  1.9683 -1.7486  0.0458
 5543SOL    HW228266   2.443   0.638   4.434  0.2555  0.6966 -0.1272
 5544SOL     OW28267   1.484   3.237   9.844 -0.7134 -0.4995  0.0278
 5544SOL    HW128268   1.571   3.275   9.856 -0.0940 -1.3405 -1.7686
 5544SOL    HW228269   1.449   3.244   9.933 -0.0519 -0.5513  0.2926
 5545SOL     OW28270   1.163   4.511  14.737  0.7796  1.0429 -0.2559
 5545SOL    HW128271   1.142   4.431  14.690  1.8250 -0.2855  1.5123
 5545SOL    HW228272   1.218   4.492  14.813  1.1084 -0.4462 -0.8698
 5546SOL     OW28273   2.115   1.218   5.051 -0.0731 -0.2925 -0.0092
 5546SOL    HW128274   2.042   1.233   5.112  0.1071  0.6797 -0.0333
 5546SOL    HW228275   2.098   1.283   4.983  0.0686 -1.0653 -0.7760
 5547SOL     OW28276   1.112   1.036   3.188  0.0344 -0.2578 -0.4136
 5547SOL    HW128277   1.150   1.111   3.234 -0.3700 -0.2439 -0.1021
 5547SOL    HW228278   1.034   1.011   3.238 -1.2862  1.0134 -1.8140
 5548SOL     OW28279   0.978   3.361   9.787  0.0068  0.3006  0.0273
 5548SOL    HW128280   1.025   3.380   9.706  0.3118  1.2357  0.4206
 5548SOL    HW228281   0.959   3.449   9.821  0.4934 -0.0090  1.0821
 5549SOL     OW28282   1.768   3.001   5.336  0.1564  0.0042  0.3921
 5549SOL    HW128283   1.850   2.953   5.347 -0.2747 -0.6556  0.7104
 5549SOL    HW228284   1.706   2.935   5.368  0.1943  0.0241  0.5071
 5550SOL     OW28285   0.608   0.193   2.213  0.0163  0.0012  0.3889
 5550SOL    HW128286   0.644   0.162   2.130  0.0359 -1.2722  0.8865
 5550SOL    HW228287   0.654   0.277   2.226  0.0462 -0.0338  0.5063
 5551SOL     OW28288   3.794   3.787   0.928  0.5621  0.2410  0.2640
 5551SOL    HW128289   3.876   3.742   0.908  1.1516  0.8473  1.3443
 5551SOL    HW228290   3.736   3.743   0.865  0.4091 -0.5386  0.9537
 5552SOL     OW28291   0.733   1.843   7.562  0.2282  0.3926 -0.4335
 5552SOL    HW128292   0.713   1.856   7.655 -3.4692 -0.5016 -1.0951
 5552SOL    HW228293   0.811   1.897   7.551 -0.6205  1.5210 -0.9428
 5553SOL     OW28294   2.646   0.351   7.542  0.4891  0.6064  0.0329
 5553SOL    HW128295   2.609   0.354   7.631 -1.4873 -0.6986 -0.7657
 5553SOL    HW228296   2.643   0.444   7.518  0.5902  0.2710 -1.2577
 5554SOL     OW28297   1.221   0.147   6.920  0.3291 -0.2036  0.5434
 5554SOL    HW128298   1.296   0.099   6.953  1.5883  1.4298  0.0932
 5554SOL    HW228299   1.274   0.215   6.877  0.5173  0.5450  1.9538
 5555SOL     OW28300   3.924   3.630  11.304 -0.6371  0.3373 -0.0262
 5555SOL    HW128301   3.842   3.597  11.341 -0.7638 -0.1066 -0.7084
 5555SOL    HW228302   3.926   3.583  11.221  0.5270 -0.3218  0.3792
 5556SOL     OW28303   4.356   1.487   4.784  0.0824 -0.0618 -0.2097
 5556SOL    HW128304   4.392   1.399   4.770 -0.7761 -0.3298 -0.7346
 5556SOL    HW228305   4.418   1.522   4.848 -1.8781  0.6644  1.2767
 5557SOL     OW28306   2.519   0.164   4.427 -0.1025  0.0569 -0.1212
 5557SOL    HW128307   2.604   0.121   4.427  1.0259  2.3084 -1.8458
 5557SOL    HW228308   2.485   0.145   4.514 -0.5936 -1.3771 -0.6282
 5558SOL     OW28309   2.719   3.563   2.183 -0.3284  0.2190  0.4504
 5558SOL    HW128310   2.784   3.493   2.197 -3.0710 -2.2673  0.6705
 5558SOL    HW228311   2.760   3.633   2.235 -1.1570  0.9498  0.1130
 5559SOL     OW28312   0.445   4.141   2.845 -0.2651  0.3444 -0.2642
 5559SOL    HW128313   0.447   4.072   2.778  3.5881  0.3803 -0.2106
 5559SOL    HW228314   0.484   4.206   2.787 -0.4919  1.8761  1.2990
 5560SOL     OW28315   3.582   2.506   4.172  0.1264  0.2280  0.3579
 5560SOL    HW128316   3.514   2.549   4.120 -0.7555 -1.5667  0.0239
 5560SOL    HW228317   3.579   2.557   4.254 -0.7223  1.2119 -0.2743
 5561SOL     OW28318   4.633   4.566   1.491  0.2443 -0.0061 -0.1328
 5561SOL    HW128319   4.702   4.525   1.542 -2.5455 -0.6479  3.1262
 5561SOL    HW228320   4.664   4.656   1.484 -1.2100  0.3528 -2.1962
 5562SOL     OW28321   3.579   4.431   2.190 -0.5166  0.1835 -0.0557
 5562SOL    HW128322   3.517   4.466   2.126  0.8419  1.6607 -0.5645
 5562SOL    HW228323   3.567   4.498   2.257  2.7253 -0.0395  0.7829
 5563SOL     OW28324   4.538   2.321   8.974 -0.0817 -0.5343 -0.3005
 5563SOL    HW128325   4.628   2.315   8.944  0.2839  0.3324  0.6282
 5563SOL    HW228326   4.500   2.361   8.896 -0.7300 -1.0066 -0.2281
 5564SOL     OW28327   2.895   1.473   7.260 -0.0305  0.0835  0.5288
 5564SOL    HW128328   2.944   1.414   7.204 -1.2104 -0.2593 -0.1429
 5564SOL    HW228329   2.816   1.491   7.210 -1.4178 -1.8905  2.0038
 5565SOL     OW28330   4.330   1.382  11.618 -0.2315  0.0684 -0.2176
 5565SOL    HW128331   4.330   1.298  11.664  3.4222  0.9583  1.4120
 5565SOL    HW228332   4.236   1.386  11.602 -0.5549  0.6470  1.9187
 5566SOL     OW28333   2.249   2.714   5.407 -0.2054  0.4695  0.1349
 5566SOL    HW128334   2.282   2.680   5.323 -0.3622  0.5303  0.0480
 5566SOL    HW228335   2.327   2.702   5.461 -1.8387 -0.0155  2.3969
 5567SOL     OW28336   3.928   1.410   7.751  0.1758 -0.1769 -0.2039
 5567SOL    HW128337   3.889   1.489   7.713 -0.1834 -0.3017 -0.1018
 5567SOL    HW228338   4.016   1.436   7.725  0.6970 -1.4747  0.2740
 5568SOL     OW28339   0.778   1.564   6.223  0.1868 -0.4007 -0.3444
 5568SOL    HW128340   0.860   1.614   6.229  0.1504 -0.3905  0.0561
 5568SOL    HW228341   0.779   1.537   6.131 -1.6315 -1.7418  0.0350
 5569SOL     OW28342   4.708   0.614   2.864 -0.0478 -0.4996  0.0727
 5569SOL    HW128343   4.615   0.629   2.849  0.1550  1.1358  0.5031
 5569SOL    HW228344   0.014   0.676   2.804 -1.7542  1.5742  1.0483
 5570SOL     OW28345   3.354   4.176  11.613  0.5415 -0.1942  0.2426
 5570SOL    HW128346   3.308   4.253  11.578 -0.5507 -1.7518 -1.7025
 5570SOL    HW228347   3.297   4.109  11.577 -1.8316  2.7355 -1.5183
 5571SOL     OW28348   4.084   0.567   8.868 -0.2457 -0.1782  0.0497
 5571SOL    HW128349   4.004   0.618   8.855  0.2581  0.6971  0.4147
 5571SOL    HW228350   4.137   0.616   8.930  1.0769 -0.8997 -0.5140
 5572SOL     OW28351   3.003   1.065   0.536  0.7445 -0.1355 -0.3019
 5572SOL    HW128352   3.016   1.061   0.631 -0.2988  0.5248 -0.1365
 5572SOL    HW228353   2.973   1.153   0.517  2.0135 -0.1727 -2.4231
 5573SOL     OW28354   3.294   2.732  10.373  0.5387 -0.0174  0.1961
 5573SOL    HW128355   3.381   2.714  10.339  0.4742  2.7803 -1.4800
 5573SOL    HW228356   3.250   2.774  10.299  0.3130 -2.5062 -1.0925
 5574SOL     OW28357   0.433   2.432   6.716 -0.0040  0.1166 -0.2875
 5574SOL    HW128358   0.421   2.348   6.760 -1.2468 -0.3450 -1.5263
 5574SOL    HW228359   0.381   2.416   6.638 -0.6657  1.7000 -0.1873
 5575SOL     OW28360   3.957   4.026   0.871  0.6555 -0.5370  0.3511
 5575SOL    HW128361   4.045   3.988   0.877  0.5066 -1.3183 -2.1104
 5575SOL    HW228362   3.912   3.941   0.872  1.3446 -0.9066  0.5730
 5576SOL     OW28363   1.389   4.050  16.701 -0.2226 -0.0631  0.4362
 5576SOL    HW128364   1.389   4.067  16.795 -0.7153  1.2771  0.1965
 5576SOL    HW228365   1.318   3.987  16.690 -0.1437  0.0096 -0.5098
 5577SOL     OW28366   2.527   0.152  10.983 -0.4569 -0.0970 -0.4830
 5577SOL    HW128367   2.471   0.167  10.907 -0.2636  3.3420  0.0685
 5577SOL    HW228368   2.477   0.192  11.054  1.5643 -0.4914  1.1801
 5578SOL     OW28369   2.963   1.323   6.123  0.0081  0.1092 -0.3817
 5578SOL    HW128370   2.918   1.384   6.065 -0.0485 -0.4787 -0.9598
 5578SOL    HW228371   2.912   1.246   6.097  0.9102 -0.6293  0.0590
 5579SOL     OW28372   0.158   0.660   4.968  0.0211 -0.1587 -0.0388
 5579SOL    HW128373   0.127   0.648   5.058  1.5135 -0.4620  0.4480
 5579SOL    HW228374   0.075   0.638   4.928  1.2994 -0.2373 -2.6350
 5580SOL     OW28375   3.811   1.242   6.173  0.0735  0.0027 -0.0975
 5580SOL    HW128376   3.764   1.198   6.243  0.6702 -0.9680 -0.3036
 5580SOL    HW228377   3.903   1.235   6.199  0.4120 -0.7387 -1.4705
 5581SOL     OW28378   2.365   0.970  17.415  0.3958 -0.2969 -0.1194
 5581SOL    HW128379   2.356   1.051  17.366  1.1961 -1.6845 -2.5731
 5581SOL    HW228380   2.300   0.915  17.371  0.5230 -0.0099 -0.6652
 5582SOL     OW28381   3.032   2.656   5.532 -0.5413 -0.2129 -0.0098
 5582SOL    HW128382   3.126   2.640   5.520 -0.5391 -0.3632  0.2082
 5582SOL    HW228383   3.004   2.647   5.441  0.5581  0.2789 -0.4002
 5583SOL     OW28384   0.016   0.309   8.974 -0.2814 -0.2588  0.2692
 5583SOL    HW128385   4.710   0.278   8.894  0.3273  3.0350 -1.3226
 5583SOL    HW228386   4.734   0.236   9.033 -2.3675  0.9077  1.0641
 5584SOL     OW28387   1.096   1.865  15.055 -0.5326 -0.1039 -0.6250
 5584SOL    HW128388   1.057   1.839  14.972 -0.7375 -1.1680 -0.1915
 5584SOL    HW228389   1.128   1.780  15.085  1.1268  1.6168  2.5640
 5585SOL     OW28390   3.822   1.393  13.476 -0.1709  1.0311 -0.4378
 5585SOL    HW128391   3.740   1.388  13.526  0.3116 -2.4102  0.0507
 5585SOL    HW228392   3.892   1.405  13.540  0.3214 -1.5267 -0.4961
 5586SOL     OW28393   1.519   2.213  12.499  0.0955 -0.2630  0.1223
 5586SOL    HW128394   1.546   2.302  12.475  0.6392 -0.3163  0.5296
 5586SOL    HW228395   1.533   2.164  12.419 -0.2916  0.5572 -0.4564
 5587SOL     OW28396   1.007   3.814   0.201  0.2078  0.1215  0.1157
 5587SOL    HW128397   1.050   3.802   0.285  0.9978  0.0565 -0.2946
 5587SOL    HW228398   0.922   3.851   0.226 -0.5709 -1.5572 -0.0756
 5588SOL     OW28399   2.801   0.178   6.174  0.3474  0.1325  0.0975
 5588SOL    HW128400   2.809   0.193   6.080 -0.6272 -2.3704 -0.3796
 5588SOL    HW228401   2.757   0.257   6.206 -0.7963 -1.3702  2.2422
 5589SOL     OW28402   0.155   1.096   2.715  0.1461  0.0300  0.2410
 5589SOL    HW128403   0.077   1.151   2.722  0.4797  0.5831 -0.2633
 5589SOL    HW228404   0.189   1.099   2.804 -1.0162 -0.3343  0.6896
 5590SOL     OW28405   0.745   2.091   1.233 -0.3079 -0.6549 -0.6740
 5590SOL    HW128406   0.746   2.114   1.326 -0.6214  0.5691 -0.9800
 5590SOL    HW228407   0.650   2.084   1.222 -0.2116 -1.5873 -0.9819
 5591SOL     OW28408   1.190   1.918   9.419  0.1828 -0.2941  0.0113
 5591SOL    HW128409   1.160   1.861   9.349 -1.2187  1.9950 -1.2713
 5591SOL    HW228410   1.278   1.933   9.384 -0.0465 -0.2990 -0.5781
 5592SOL     OW28411   3.240   4.287   7.837 -0.4884 -0.1522 -0.2312
 5592SOL    HW128412   3.254   4.354   7.771 -1.2096  0.2333 -0.0020
 5592SOL    HW228413   3.146   4.269   7.833 -1.1047  2.8330  0.7567
 5593SOL     OW28414   3.230   0.526   1.981  0.6525  0.6639  0.2351
 5593SOL    HW128415   3.164   0.464   2.012  0.1760  0.8915 -0.3358
 5593SOL    HW228416   3.311   0.479   2.006 -0.0510  1.2594  3.6019
 5594SOL     OW28417   3.059   1.716   4.417  0.4141  1.0272  0.4258
 5594SOL    HW128418   3.052   1.771   4.339  0.4460  0.0822 -0.2455
 5594SOL    HW228419   2.985   1.751   4.466 -0.9601 -1.3104  0.0421
 5595SOL     OW28420   3.187   0.544   4.223 -0.3958  0.0941 -0.2857
 5595SOL    HW128421   3.159   0.603   4.293 -1.4834 -1.5598  0.6545
 5595SOL    HW228422   3.117   0.559   4.160 -0.4103 -1.9601 -0.7500
 5596SOL     OW28423   2.636   2.494   6.172 -0.2499 -0.4453  0.1364
 5596SOL    HW128424   2.689   2.476   6.250  1.5938  0.7522 -0.8522
 5596SOL    HW228425   2.550   2.500   6.215 -0.9895  0.3116 -1.4296
 5597SOL     OW28426   0.378   1.499   4.065  0.2012  0.3982 -0.4668
 5597SOL    HW128427   0.409   1.582   4.029  0.7461 -0.4790 -2.0398
 5597SOL    HW228428   0.289   1.520   4.034 -0.0319  1.1830  0.7469
 5598SOL     OW28429   1.277   1.182   7.819  0.2034  0.3486 -0.3304
 5598SOL    HW128430   1.262   1.137   7.902  0.1831  1.2250  0.1445
 5598SOL    HW228431   1.340   1.127   7.773  1.0781  1.5665 -0.5921
 5599SOL     OW28432   3.321   1.862   5.616  0.3681 -0.1543  0.1215
 5599SOL    HW128433   3.322   1.879   5.522 -0.8320 -0.8983 -0.0237
 5599SOL    HW228434   3.363   1.945   5.639 -1.7939  1.4433 -1.6331
 5600SOL     OW28435   1.651   2.264   5.918  0.1814 -0.5084  0.3288
 5600SOL    HW128436   1.642   2.169   5.920 -1.0762 -0.3849  0.2630
 5600SOL    HW228437   1.718   2.279   5.851  0.5197  1.0643  1.0025
 5601SOL     OW28438   1.054   2.003  12.637 -0.5522  0.0075  0.3452
 5601SOL    HW128439   1.006   2.074  12.594 -0.5720  0.4113  1.0308
 5601SOL    HW228440   1.129   2.056  12.664  0.0297 -0.9019  0.5295
 5602SOL     OW28441   1.494   2.676   3.760 -0.5047 -0.2471  0.3482
 5602SOL    HW128442   1.419   2.720   3.719  1.9060  1.9273 -1.7504
 5602SOL    HW228443   1.467   2.694   3.850 -0.5911 -2.5603  0.7818
 5603SOL     OW28444   0.817   2.635   5.755 -0.1299 -0.3516 -0.0507
 5603SOL    HW128445   0.874   2.651   5.680  2.3286  0.3125  1.9832
 5603SOL    HW228446   0.775   2.552   5.732  1.2499 -0.3501 -2.5358
 5604SOL     OW28447   1.681   4.491   3.493 -0.2218  0.8948 -0.7998
 5604SOL    HW128448   1.619   4.483   3.565  2.0705 -2.3584  0.8618
 5604SOL    HW228449   1.715   4.578   3.514  0.1721  0.6959 -0.6058
 5605SOL     OW28450   2.597   2.822  13.121  0.1497  0.1969 -0.4880
 5605SOL    HW128451   2.514   2.839  13.167  1.2229  0.4128  1.3816
 5605SOL    HW228452   2.567   2.807  13.031 -0.1583 -0.5413 -0.2626
 5606SOL     OW28453   4.006   1.057   7.520 -0.2880 -0.1553  0.4639
 5606SOL    HW128454   3.936   1.120   7.541  0.9386  0.8426  1.5191
 5606SOL    HW228455   4.034   1.017   7.602 -0.0087 -1.8741 -0.4617
 5607SOL     OW28456   3.086   3.237   2.921  0.5159 -0.1455 -0.3179
 5607SOL    HW128457   3.161   3.238   2.981  1.0746 -0.6525 -1.0117
 5607SOL    HW228458   3.128   3.222   2.836 -0.3650 -1.5758 -0.5005
 5608SOL     OW28459   3.498   4.216   9.357  0.0318  0.0009 -0.2644
 5608SOL    HW128460   3.415   4.172   9.335  0.3239  0.3129 -2.0263
 5608SOL    HW228461   3.488   4.301   9.313 -0.3781  1.1547  2.0943
 5609SOL     OW28462   1.332   2.860   6.836 -0.2123  0.3395  0.1042
 5609SOL    HW128463   1.267   2.809   6.885 -0.2523 -0.3478 -0.6726
 5609SOL    HW228464   1.288   2.855   6.752  0.7901 -0.0485 -0.3959
 5610SOL     OW28465   4.334   4.370   8.111 -0.4900  0.0811 -0.4123
 5610SOL    HW128466   4.376   4.409   8.034 -2.4269  1.2974 -0.8552
 5610SOL    HW228467   4.255   4.339   8.066 -1.5265 -0.3270  1.7117
 5611SOL     OW28468   1.074   3.694   5.457 -0.0952 -0.1515 -0.3434
 5611SOL    HW128469   1.142   3.638   5.420 -0.2835 -0.1267 -0.7232
 5611SOL    HW228470   1.055   3.655   5.542  0.2947 -0.0196 -0.1912
 5612SOL     OW28471   1.319   0.900   9.264 -0.6672  0.5177 -0.2313
 5612SOL    HW128472   1.371   0.956   9.207  1.2868 -0.3924  0.6561
 5612SOL    HW228473   1.233   0.912   9.223 -0.6167 -5.3103 -2.1372
 5613SOL     OW28474   1.593   3.346   5.261  0.1650  0.4667 -0.1764
 5613SOL    HW128475   1.558   3.428   5.296 -1.3107 -0.2068 -0.0849
 5613SOL    HW228476   1.536   3.276   5.294  1.2523 -1.0320 -1.4782
 5614SOL     OW28477   2.696   1.375  14.285  0.2977 -0.0449 -0.2496
 5614SOL    HW128478   2.650   1.348  14.365  2.2672  0.0193  0.9129
 5614SOL    HW228479   2.779   1.327  14.288  1.1408  1.3865 -0.7157
 5615SOL     OW28480   3.830   0.396  14.692  0.0564 -0.4761 -0.4027
 5615SOL    HW128481   3.756   0.414  14.634  0.5708 -0.0364 -0.9256
 5615SOL    HW228482   3.831   0.303  14.713  0.3139 -0.2386  0.6170
 5616SOL     OW28483   1.749   1.525   8.032  0.2031 -0.9231 -0.1912
 5616SOL    HW128484   1.737   1.434   8.005 -0.1536 -1.3066  1.2919
 5616SOL    HW228485   1.673   1.572   7.996 -0.0254 -0.4679  0.9052
 5617SOL     OW28486   2.387   2.546   8.099  0.1462 -0.9683 -0.3390
 5617SOL    HW128487   2.294   2.547   8.121 -0.0568 -1.2371 -1.2151
 5617SOL    HW228488   2.380   2.591   8.016 -1.3321  1.4282  1.0890
 5618SOL     OW28489   2.880   1.085   7.448 -0.2432 -0.5798  0.3417
 5618SOL    HW128490   2.878   1.177   7.423  0.0333 -0.3445  1.1709
 5618SOL    HW228491   2.970   1.070   7.420  0.2139 -0.1824  1.5784
 5619SOL     OW28492   1.737   2.434   4.757  0.0397 -0.2481  0.0742
 5619SOL    HW128493   1.684   2.495   4.704  0.7682  0.0371 -0.3324
 5619SOL    HW228494   1.765   2.376   4.687 -0.1686  0.1898 -0.3796
 5620SOL     OW28495   4.064   0.699  15.448  0.4136 -0.3852 -0.5176
 5620SOL    HW128496   4.131   0.739  15.502 -1.2184  2.8114 -0.8827
 5620SOL    HW228497   4.024   0.775  15.406  1.1176 -0.9089 -2.1196
 5621SOL     OW28498   3.008   2.458   6.823 -0.1651 -0.0489  0.2313
 5621SOL    HW128499   2.945   2.386   6.824 -0.4203  0.2316  3.6114
 5621SOL    HW228500   3.067   2.418   6.759  0.9872  0.2621  1.1194
 5622SOL     OW28501   4.272   3.852   7.451 -0.1527 -0.4430  0.2632
 5622SOL    HW128502   4.217   3.856   7.530 -2.8221  0.2288 -1.6530
 5622SOL    HW228503   4.208   3.879   7.385  0.7689 -1.9688 -1.2643
 5623SOL     OW28504   2.790   4.435   8.107 -0.6413 -0.1094 -0.2557
 5623SOL    HW128505   2.783   4.510   8.165 -0.2600 -0.4478  0.2334
 5623SOL    HW228506   2.803   4.474   8.021 -0.3032  1.3785  0.4810
 5624SOL     OW28507   1.072   3.105  10.264 -0.1978 -1.1182  0.2553
 5624SOL    HW128508   1.133   3.163  10.310  0.5213 -1.5577 -0.1520
 5624SOL    HW228509   1.090   3.141  10.177  0.5873 -2.9488 -0.3245
 5625SOL     OW28510   2.629   1.790   3.919  0.2635 -0.1643 -0.5774
 5625SOL    HW128511   2.555   1.823   3.970 -2.1049 -1.0810 -3.4510
 5625SOL    HW228512   2.683   1.868   3.910  1.1121 -0.7267 -0.3568
 5626SOL     OW28513   0.497   2.246   5.661 -0.3266 -0.1257  0.3997
 5626SOL    HW128514   0.446   2.187   5.717 -1.2598 -0.7814 -1.1286
 5626SOL    HW228515   0.475   2.214   5.573 -1.1412 -0.0567  0.5792
 5627SOL     OW28516   1.879   3.979   2.511 -0.2640  0.1509  0.2022
 5627SOL    HW128517   1.849   4.010   2.426  1.3990 -1.5647 -1.0005
 5627SOL    HW228518   1.971   4.004   2.521 -0.1683 -0.9343  2.0197
 5628SOL     OW28519   0.393   0.279   7.265 -0.0272  0.3696 -0.2169
 5628SOL    HW128520   0.435   0.209   7.216 -1.1473  0.1563 -0.8532
 5628SOL    HW228521   0.302   0.267   7.237  0.2215 -1.0952 -0.3806
 5629SOL     OW28522   1.602   2.848  16.154 -0.0790 -0.6750 -0.1199
 5629SOL    HW128523   1.615   2.760  16.189 -0.3810 -0.9407 -0.6645
 5629SOL    HW228524   1.676   2.902  16.178 -0.6271  0.0217 -0.0109
 5630SOL     OW28525   4.526   2.381  17.732 -0.3820  0.8086 -0.9051
 5630SOL    HW128526   4.594   2.346  17.675 -0.0637 -0.4575  0.2625
 5630SOL    HW228527   4.574   2.448   0.039 -0.6736  2.4288 -2.8234
 5631SOL     OW28528   1.620   4.380   2.619 -0.6312 -0.2350  0.3835
 5631SOL    HW128529   1.622   4.413   2.709 -0.3805 -1.0236  0.6642
 5631SOL    HW228530   1.611   4.285   2.626  2.3254 -0.3051  3.1714
 5632SOL     OW28531   0.914   2.059   7.912  0.3315 -0.2672 -0.4882
 5632SOL    HW128532   0.969   1.988   7.881 -0.1743 -2.0519  2.7553
 5632SOL    HW228533   0.828   2.018   7.908  0.0585  0.1920  0.7628
 5633SOL     OW28534   0.851   3.367  16.254  0.0703 -0.2208 -0.1771
 5633SOL    HW128535   0.920   3.306  16.280  0.5327  0.1630 -0.5073
 5633SOL    HW228536   0.873   3.450  16.297  0.8815 -0.0141 -0.9937
 5634SOL     OW28537   4.169   4.300   1.103 -0.1958  0.4858 -0.3700
 5634SOL    HW128538   4.149   4.282   1.195 -1.1847 -0.4844 -0.7839
 5634SOL    HW228539   4.174   4.395   1.119  1.0461  0.3494  0.0421
 5635SOL     OW28540   3.134   2.969  16.707  0.5243  0.4717  0.0121
 5635SOL    HW128541   3.101   2.922  16.783 -2.9536  0.9469 -1.2160
 5635SOL    HW228542   3.174   2.906  16.647 -1.3637  0.5531 -1.3277
 5636SOL     OW28543   1.719   4.558   5.533 -0.1673  0.4103 -0.4966
 5636SOL    HW128544   1.744   4.554   5.441  0.0271  1.4081 -0.4869
 5636SOL    HW228545   1.699   4.466   5.546  0.2667  0.7501  2.7001
 5637SOL     OW28546   3.728   1.987  12.892 -0.2468 -0.2174 -0.2102
 5637SOL    HW128547   3.814   1.987  12.851 -0.6909 -0.8285 -1.1547
 5637SOL    HW228548   3.705   1.910  12.840  1.9949 -1.9750  1.4453
 5638SOL     OW28549   1.108   2.700   6.894 -0.5141 -0.3694 -0.0765
 5638SOL    HW128550   1.123   2.637   6.824 -1.5631 -1.4220  0.6558
 5638SOL    HW228551   1.037   2.662   6.947 -0.6837  0.0111 -0.0346
 5639SOL     OW28552   2.348   3.707  17.362 -0.6260 -0.2207 -0.5452
 5639SOL    HW128553   2.275   3.767  17.377  0.1645  0.2028  1.4567
 5639SOL    HW228554   2.345   3.714  17.266 -0.4341  1.5339 -0.4155
 5640SOL     OW28555   3.566   2.862  11.145 -0.1381 -0.2303 -0.5051
 5640SOL    HW128556   3.524   2.825  11.222  2.7773  0.6556  1.5005
 5640SOL    HW228557   3.633   2.795  11.131  0.6514  0.4657  0.0190
 5641SOL     OW28558   4.715   0.467   2.351 -0.4218  0.1317  0.1542
 5641SOL    HW128559   4.622   0.446   2.358 -0.7372  0.9792 -1.5027
 5641SOL    HW228560   4.713   0.558   2.381 -1.3190  0.9727 -2.4544
 5642SOL     OW28561   3.614   4.218  11.268 -0.0992  0.3099 -0.0825
 5642SOL    HW128562   3.682   4.248  11.328 -0.4928  1.1126 -0.0362
 5642SOL    HW228563   3.556   4.294  11.259 -1.0542 -0.3686  0.2840
 5643SOL     OW28564   4.625   1.123   4.347 -0.0677  0.4363 -0.2674
 5643SOL    HW128565   4.681   1.197   4.371  0.1580 -0.2879  1.4009
 5643SOL    HW228566   4.552   1.150   4.403 -0.3054 -2.8793  1.0087
 5644SOL     OW28567   0.089   1.884   7.251 -0.0226 -0.0815  0.4660
 5644SOL    HW128568   0.138   1.961   7.279  0.0767 -0.4452  1.3181
 5644SOL    HW228569   0.163   1.824   7.258 -0.2424 -0.5948 -1.6002
 5645SOL     OW28570   2.868   0.230   2.934  0.0598  0.6575 -0.3343
 5645SOL    HW128571   2.792   0.287   2.952  0.1049 -0.1672  2.4700
 5645SOL    HW228572   2.817   0.149   2.943  0.1044  0.6569 -0.0838
 5646SOL     OW28573   3.380   4.537   2.000  0.0323 -0.3944  0.7468
 5646SOL    HW128574   3.342   4.532   1.913 -0.7921 -1.5539  1.1786
 5646SOL    HW228575   3.380   4.631   2.021  0.0114  0.2382 -2.1308
 5647SOL     OW28576   3.922   0.836   7.347  0.0568  0.2942 -0.3158
 5647SOL    HW128577   3.916   0.880   7.431 -1.4500 -1.0028  0.2483
 5647SOL    HW228578   4.008   0.800   7.370 -0.9460 -1.6157  0.4104
 5648SOL     OW28579   3.931   3.075  12.494 -1.0501 -0.1157  0.3160
 5648SOL    HW128580   3.898   3.161  12.465  1.5470  0.8318  0.1744
 5648SOL    HW228581   4.012   3.093  12.542 -0.9674 -1.1533  0.5619
 5649SOL     OW28582   0.266   4.664   4.943 -0.0359  0.3804 -0.0351
 5649SOL    HW128583   0.248   4.585   4.892 -0.5991  1.4058 -1.4527
 5649SOL    HW228584   0.335   4.634   5.001 -0.0569 -1.6859 -1.0573
 5650SOL     OW28585   2.032   3.005   0.695  0.4680 -0.1627  0.2134
 5650SOL    HW128586   2.022   3.044   0.608 -0.2756 -0.2535  0.2598
 5650SOL    HW228587   2.012   3.083   0.746  0.4823 -0.0544  0.0524
 5651SOL     OW28588   2.251   3.212  13.312 -0.2048  0.2009  0.3645
 5651SOL    HW128589   2.229   3.283  13.372  0.9644 -0.6214  1.7535
 5651SOL    HW228590   2.346   3.212  13.321 -0.1581  0.0996 -0.1214
 5652SOL     OW28591   2.342   2.271  10.315  0.1669 -0.0358  0.7402
 5652SOL    HW128592   2.418   2.220  10.288  0.5639  1.4914 -1.0394
 5652SOL    HW228593   2.369   2.353  10.274  1.2681 -1.1270 -0.7116
 5653SOL     OW28594   2.095   2.663   2.165 -0.0212  0.4741 -0.3552
 5653SOL    HW128595   2.103   2.686   2.072 -2.2561 -1.9675 -1.1468
 5653SOL    HW228596   2.170   2.700   2.212 -0.7252  0.7491  0.5443
 5654SOL     OW28597   2.214   2.359   6.202  0.5641  0.0102  0.2311
 5654SOL    HW128598   2.183   2.297   6.137  2.3583 -0.5688 -0.0583
 5654SOL    HW228599   2.126   2.377   6.237  0.1945  0.7704 -1.0810
 5655SOL     OW28600   4.094   2.132  11.370 -0.6394  0.0051  0.3020
 5655SOL    HW128601   4.161   2.129  11.438 -0.6200  0.1522  0.2892
 5655SOL    HW228602   4.142   2.124  11.288 -1.8604  0.7959 -0.5062
 5656SOL     OW28603   2.887   1.935   4.492 -0.4698 -0.1974  0.5491
 5656SOL    HW128604   2.899   1.921   4.586 -0.9892  0.9292  0.7870
 5656SOL    HW228605   2.795   1.915   4.473 -0.7289  1.5563 -0.0790
 5657SOL     OW28606   3.676   3.378   6.474  0.3885  0.3470  0.3929
 5657SOL    HW128607   3.726   3.296   6.469  1.8020  1.2277  0.2325
 5657SOL    HW228608   3.668   3.398   6.380  0.8357 -2.3357 -0.2273
 5658SOL     OW28609   0.241   1.166   2.985 -0.5984 -0.2355 -0.3701
 5658SOL    HW128610   0.247   1.238   3.049  4.1633 -1.3508  0.4414
 5658SOL    HW228611   0.177   1.107   3.023 -0.4710  0.1928  0.5225
 5659SOL     OW28612   1.395   1.627   3.068 -0.2957 -0.5891  0.1395
 5659SOL    HW128613   1.308   1.656   3.095 -0.2499 -2.1702  1.9714
 5659SOL    HW228614   1.430   1.590   3.149 -1.1238  0.0102  0.7694
 5660SOL     OW28615   4.276   0.659   5.416 -0.0307 -0.6500 -0.1692
 5660SOL    HW128616   4.289   0.735   5.360  0.0549 -0.0541  0.6661
 5660SOL    HW228617   4.363   0.619   5.417  1.7575  3.2927  0.0708
 5661SOL     OW28618   0.215   0.758   3.813 -0.4061  0.1974 -0.3078
 5661SOL    HW128619   0.265   0.759   3.731  1.0529 -0.3936  0.5702
 5661SOL    HW228620   0.129   0.725   3.786 -0.6153  1.0224 -0.6379
 5662SOL     OW28621   1.512   4.568   3.718  0.0195  0.2016 -0.1911
 5662SOL    HW128622   1.426   4.609   3.709 -1.6385 -3.6708 -1.4971
 5662SOL    HW228623   1.529   4.571   3.812  0.9964  1.3427 -0.3988
 5663SOL     OW28624   4.599   4.051   8.142  0.9321  0.4849 -0.4615
 5663SOL    HW128625   4.586   3.976   8.200  1.8367  1.4253  0.9454
 5663SOL    HW228626   4.574   4.021   8.055  1.4696  1.9491 -1.1119
 5664SOL     OW28627   2.589   2.420  17.715  0.2491 -0.6745 -0.0826
 5664SOL    HW128628   2.609   2.415  17.621  0.1504  0.1173 -0.1515
 5664SOL    HW228629   2.568   2.513  17.727  0.5993 -0.6761  0.5167
 5665SOL     OW28630   4.274   1.071  14.461  0.0280 -0.1399 -0.7465
 5665SOL    HW128631   4.323   1.153  14.452 -0.3906  0.3561  1.3980
 5665SOL    HW228632   4.306   1.046  14.548 -1.3162  1.8133  0.3033
 5666SOL     OW28633   0.888   1.191   7.482  0.1960 -0.4342  0.4132
 5666SOL    HW128634   0.857   1.167   7.569  1.9048 -1.1659  0.8385
 5666SOL    HW228635   0.981   1.207   7.501  0.0799  1.1759 -0.3170
 5667SOL     OW28636   1.671   3.563   6.542 -0.1761 -0.1934 -0.2731
 5667SOL    HW128637   1.709   3.650   6.525 -2.7651  0.5643 -2.1514
 5667SOL    HW228638   1.616   3.584   6.617 -1.3441  1.6767 -1.6413
 5668SOL     OW28639   4.464   2.288   1.000 -0.1776  0.0415  0.6190
 5668SOL    HW128640   4.547   2.306   0.956 -0.6008 -1.6004 -0.8953
 5668SOL    HW228641   4.405   2.336   0.942 -0.2128 -3.7734 -2.5952
 5669SOL     OW28642   0.966   4.030   9.592  0.0046  0.6235  0.2144
 5669SOL    HW128643   0.998   4.078   9.668 -2.7704 -0.4765  2.0713
 5669SOL    HW228644   0.871   4.042   9.598 -0.4847 -2.9831 -0.6485
 5670SOL     OW28645   3.775   3.488   5.173  0.2820 -0.0006  0.0021
 5670SOL    HW128646   3.843   3.421   5.185  0.1599 -0.5624 -2.3838
 5670SOL    HW228647   3.759   3.484   5.078  1.3295 -1.2736 -0.1152
 5671SOL     OW28648   3.861   2.226  13.453  0.7728  0.0895  0.2508
 5671SOL    HW128649   3.771   2.228  13.483  1.2535 -1.4619  1.8126
 5671SOL    HW228650   3.892   2.136  13.467  1.0548  0.3395  1.2095
 5672SOL     OW28651   1.841   2.810   8.429  0.4924 -0.4663 -0.5202
 5672SOL    HW128652   1.846   2.886   8.486 -0.7006 -0.1614 -0.8183
 5672SOL    HW228653   1.829   2.857   8.346  1.4395 -0.8994 -0.8989
 5673SOL     OW28654   3.586   3.330   6.881 -0.1693 -0.0482  0.3589
 5673SOL    HW128655   3.617   3.403   6.934 -2.6635  2.4432 -1.6413
 5673SOL    HW228656   3.598   3.250   6.932 -0.9742 -0.3743  0.0330
 5674SOL     OW28657   2.167   4.170   0.127  0.5221 -0.0914  0.0664
 5674SOL    HW128658   2.118   4.101   0.170  0.8174  0.3647  1.1488
 5674SOL    HW228659   2.257   4.166   0.158  0.1486 -0.0662  1.1649
 5675SOL     OW28660   4.129   3.264   3.778 -0.0858 -0.4677  0.5293
 5675SOL    HW128661   4.207   3.251   3.725 -0.1700 -0.3073  0.3669
 5675SOL    HW228662   4.115   3.359   3.778 -0.7672 -0.5707 -0.4494
 5676SOL     OW28663   2.162   0.133   6.049 -0.2808  0.0923 -0.3728
 5676SOL    HW128664   2.079   0.179   6.035 -0.6941 -0.5465 -0.0466
 5676SOL    HW228665   2.149   0.060   5.988 -0.0517 -0.7861  0.6187
 5677SOL     OW28666   3.010   1.129   9.141 -0.2369 -0.1696 -0.3222
 5677SOL    HW128667   2.931   1.173   9.110 -0.1786  0.5704  0.5815
 5677SOL    HW228668   2.971   1.055   9.187 -0.4181  0.7901  1.0496
 5678SOL     OW28669   2.684   4.688   5.072  0.2810 -0.1960  0.1218
 5678SOL    HW128670   2.731   4.605   5.071  2.5400  1.1017 -0.6525
 5678SOL    HW228671   2.733   4.732   5.142  0.0543 -3.3678  2.3095
 5679SOL     OW28672   1.837   4.333   4.892 -0.1304 -0.3117 -0.1718
 5679SOL    HW128673   1.873   4.268   4.831  1.8710  1.2453 -0.6851
 5679SOL    HW228674   1.781   4.379   4.830 -0.4248 -0.1774  0.1998
 5680SOL     OW28675   4.153   0.489  17.153 -0.5440  0.5463 -0.2852
 5680SOL    HW128676   4.168   0.401  17.187 -2.8612  0.2699  0.0169
 5680SOL    HW228677   4.072   0.472  17.104 -1.5672 -1.6991  2.2038
 5681SOL     OW28678   3.125   0.976  17.447  0.4159  0.3754 -0.1561
 5681SOL    HW128679   3.033   0.965  17.422  0.2230 -0.5191  0.9182
 5681SOL    HW228680   3.172   0.899  17.415  1.9006 -0.1050  3.2037
 5682SOL     OW28681   2.508   0.870   7.996  0.0542 -0.7899  0.5573
 5682SOL    HW128682   2.543   0.954   7.967 -0.8083 -0.8661 -0.7012
 5682SOL    HW228683   2.557   0.804   7.947  2.0934  1.0279  0.1424
 5683SOL     OW28684   0.607   3.383   8.133  0.7952  0.1753 -0.3530
 5683SOL    HW128685   0.543   3.407   8.200  0.6999  0.6403 -0.6129
 5683SOL    HW228686   0.663   3.460   8.127  1.1831 -0.2401 -1.8741
 5684SOL     OW28687   4.004   1.324  17.447 -0.3465  0.3462 -0.0322
 5684SOL    HW128688   3.987   1.415  17.472 -3.7081 -0.3793  0.2704
 5684SOL    HW228689   3.957   1.286  17.521  0.2875  0.6317  0.5252
 5685SOL     OW28690   1.393   3.593   9.428 -0.7532  0.5634  0.0209
 5685SOL    HW128691   1.477   3.552   9.444 -1.2160 -1.3779 -2.4338
 5685SOL    HW228692   1.385   3.649   9.505 -0.2573 -0.5203  0.8395
 5686SOL     OW28693   1.227   2.830  12.428  0.4220 -1.1262  0.1457
 5686SOL    HW128694   1.184   2.777  12.495 -1.0558  1.1508  0.9727
 5686SOL    HW228695   1.299   2.858  12.483 -0.9548  0.1798  1.2953
 5687SOL     OW28696   0.628   0.153  17.618 -0.2794  0.0692 -0.4954
 5687SOL    HW128697   0.546   0.178  17.662 -0.1922 -0.7405  0.1211
 5687SOL    HW228698   0.656   0.235  17.579  0.5760 -0.3399 -0.7301
 5688SOL     OW28699   1.155   1.408   3.028  0.0562 -0.0540  0.5528
 5688SOL    HW128700   1.246   1.382   3.038  0.3109  0.1009 -1.4291
 5688SOL    HW228701   1.138   1.374   2.941 -1.4343 -2.1465  1.6649
 5689SOL     OW28702   3.612   3.557   7.033 -0.2730  0.2260  0.3302
 5689SOL    HW128703   3.517   3.545   7.040 -0.2719  1.1317  2.0044
 5689SOL    HW228704   3.635   3.609   7.110 -2.4136  0.2451  0.9664
 5690SOL     OW28705   2.654   0.387   6.250 -0.5429  0.0591 -0.6841
 5690SOL    HW128706   2.622   0.450   6.315 -0.5628 -2.2287  1.5121
 5690SOL    HW228707   2.584   0.406   6.188 -0.0129  1.1068 -0.9595
 5691SOL     OW28708   0.944   4.069   7.376 -0.3410  0.0336 -1.0348
 5691SOL    HW128709   1.031   4.078   7.338  0.1241 -0.5529 -0.1087
 5691SOL    HW228710   0.899   4.120   7.309  1.4652  2.3413 -0.4994
 5692SOL     OW28711   1.042   3.998   3.562  0.3046  0.1404 -0.3639
 5692SOL    HW128712   1.024   4.053   3.485  1.2408  0.4675 -0.3582
 5692SOL    HW228713   0.955   3.969   3.587 -0.0320 -0.3509 -2.1165
 5693SOL     OW28714   1.626   3.384   7.761 -0.0019  0.1798 -0.0679
 5693SOL    HW128715   1.544   3.336   7.747  0.9800 -1.6291  0.3962
 5693SOL    HW228716   1.645   3.361   7.851 -1.4301 -1.0466 -0.0847
 5694SOL     OW28717   4.323   2.485   2.986  0.2840  0.0988  0.0968
 5694SOL    HW128718   4.375   2.423   3.036  1.1859  2.2224  1.8069
 5694SOL    HW228719   4.398   2.529   2.946 -0.5693 -1.9813 -3.7803
 5695SOL     OW28720   2.159   0.026   4.257 -0.2083  0.2606  0.1174
 5695SOL    HW128721   2.153   0.122   4.255 -1.4021  0.1695 -1.1651
 5695SOL    HW228722   2.145   4.731   4.347  0.2843 -0.8523 -0.1911
 5696SOL     OW28723   1.860   0.383   5.684 -0.2270  0.5684  0.3731
 5696SOL    HW128724   1.826   0.317   5.624  0.2260  1.2012 -0.5864
 5696SOL    HW228725   1.930   0.424   5.633 -0.3672 -0.1009 -0.3501
 5697SOL     OW28726   4.732   2.888   2.638 -0.1661  0.3085 -0.1998
 5697SOL    HW128727   4.693   2.841   2.564  0.3780 -0.6930  0.1506
 5697SOL    HW228728   0.081   2.845   2.653  0.7017  1.7415 -0.9449
 5698SOL     OW28729   4.187   3.754  16.692 -0.0720  0.8476 -0.5690
 5698SOL    HW128730   4.171   3.768  16.599  0.8387  0.1966 -0.8229
 5698SOL    HW228731   4.275   3.791  16.685 -0.6947  2.1002 -1.7391
 5699SOL     OW28732   4.178   4.573   1.123 -0.3959  0.1758  0.4712
 5699SOL    HW128733   4.202   4.593   1.213 -0.3273  0.0499  0.4815
 5699SOL    HW228734   4.172   4.666   1.102 -1.2627 -0.2578 -1.2024
 5700SOL     OW28735   2.090   0.051   6.789  0.5877 -0.2667 -0.2923
 5700SOL    HW128736   2.120   0.050   6.880  1.4375 -1.6563 -0.5784
 5700SOL    HW228737   2.049   0.137   6.780  2.6502  0.6787 -0.4629
 5701SOL     OW28738   1.480   4.038   2.131 -0.3640  0.3034 -0.1702
 5701SOL    HW128739   1.554   3.996   2.174 -1.2413 -0.1731  0.8744
 5701SOL    HW228740   1.462   4.113   2.188 -0.2388 -0.4453  0.8584
 5702SOL     OW28741   0.984   4.455   4.177 -0.3689  0.8818  0.2106
 5702SOL    HW128742   1.035   4.514   4.121  1.4878 -2.4980 -1.7152
 5702SOL    HW228743   1.011   4.477   4.266  0.7060  1.1216 -0.1752
 5703SOL     OW28744   1.757   1.209   6.515 -0.2452  0.3587 -0.4754
 5703SOL    HW128745   1.762   1.198   6.609  1.7512  2.3178 -0.3475
 5703SOL    HW228746   1.788   1.126   6.480 -1.8629 -1.1294  1.6234
 5704SOL     OW28747   3.015   1.529   2.762 -0.2252  0.4058  0.0333
 5704SOL    HW128748   2.998   1.502   2.672  2.7016  0.0880 -0.4311
 5704SOL    HW228749   3.102   1.570   2.764  0.3098 -0.7734  0.8168
 5705SOL     OW28750   0.742   3.909   3.557 -0.1127 -0.0574 -0.3738
 5705SOL    HW128751   0.720   3.888   3.648 -0.6790  1.9141 -0.0515
 5705SOL    HW228752   0.672   3.969   3.532  0.8784  1.1183 -0.3658
 5706SOL     OW28753   2.921   0.049  15.755 -0.1860  0.2236  0.2661
 5706SOL    HW128754   2.881   0.076  15.838 -3.3433  1.9575 -1.8108
 5706SOL    HW228755   2.845   0.020  15.704  2.3218  0.2665 -3.4462
 5707SOL     OW28756   4.395   1.407   6.021  0.5971 -0.0962  0.3717
 5707SOL    HW128757   4.429   1.389   5.933 -0.6870  1.6754 -0.4788
 5707SOL    HW228758   4.477   1.415   6.071  0.4788  1.7008  0.2559
 5708SOL     OW28759   3.370   0.115   9.019 -0.5517  0.7692  0.1612
 5708SOL    HW128760   3.458   0.123   8.982 -1.2024  0.1814 -1.5063
 5708SOL    HW228761   3.310   0.151   8.955 -0.0943 -0.0797 -0.7392
 5709SOL     OW28762   4.277   0.385   6.222  0.4270  0.3061  0.1003
 5709SOL    HW128763   4.367   0.357   6.204  0.8947 -0.1082  3.0569
 5709SOL    HW228764   4.297   0.467   6.266 -0.1024  0.5826 -0.1659
 5710SOL     OW28765   1.711   3.896   7.467 -0.1272  0.5749  0.1034
 5710SOL    HW128766   1.689   3.830   7.533 -1.5701  1.5978  0.6414
 5710SOL    HW228767   1.687   3.860   7.382  2.0807 -0.8543  0.0633
 5711SOL     OW28768   2.310   0.403   6.404 -0.0518  0.5962 -0.7963
 5711SOL    HW128769   2.329   0.367   6.318  1.5947 -1.9713  0.6410
 5711SOL    HW228770   2.342   0.330   6.456 -2.0703  0.5945  0.4759
 5712SOL     OW28771   3.084   4.068   9.474  0.2596  0.0394 -0.1101
 5712SOL    HW128772   3.072   4.129   9.547 -1.0992 -0.4856  0.0974
 5712SOL    HW228773   3.118   3.993   9.522  1.1287  1.5990  1.7250
 5713SOL     OW28774   3.396   3.081   1.774 -0.5499 -0.0759 -0.7057
 5713SOL    HW128775   3.367   3.060   1.863  0.9545  1.8551  0.2371
 5713SOL    HW228776   3.315   3.112   1.734 -0.9693  0.8021  0.8191
 5714SOL     OW28777   3.533   2.796   0.073  0.5119  0.4143 -0.2464
 5714SOL    HW128778   3.565   2.708   0.055  1.8886  0.9316 -0.2966
 5714SOL    HW228779   3.448   2.780   0.115  0.5439  0.8555 -0.0090
 5715SOL     OW28780   0.524   1.673   6.494 -0.6149 -0.5641 -0.8264
 5715SOL    HW128781   0.581   1.736   6.451 -0.9590  0.6135  0.4544
 5715SOL    HW228782   0.533   1.604   6.428 -1.8136 -0.2544 -1.3191
 5716SOL     OW28783   3.448   3.706   5.386  0.3521  0.2461 -0.0951
 5716SOL    HW128784   3.500   3.670   5.458  0.8225 -0.5020 -0.8135
 5716SOL    HW228785   3.451   3.635   5.322 -2.7636 -0.1923  0.2160
 5717SOL     OW28786   2.227   1.601   2.794  0.0362  0.4370 -0.0428
 5717SOL    HW128787   2.201   1.511   2.813 -1.8244  0.9984  0.0567
 5717SOL    HW228788   2.231   1.606   2.699  1.6720  1.6665  0.0785
 5718SOL     OW28789   4.360   3.277  12.225 -0.0395  0.2664 -0.0593
 5718SOL    HW128790   4.314   3.277  12.141  1.1339 -0.9546 -0.7039
 5718SOL    HW228791   4.397   3.365  12.237 -0.6768  0.5075  0.1312
 5719SOL     OW28792   4.172   0.965  16.167 -0.6872 -0.4736  0.1337
 5719SOL    HW128793   4.240   0.912  16.126 -1.1333 -0.7364 -0.2630
 5719SOL    HW228794   4.190   1.056  16.143 -2.0765 -0.1190  0.4376
 5720SOL     OW28795   3.004   3.213  13.643 -0.1917  0.4091 -0.0138
 5720SOL    HW128796   2.974   3.269  13.715  1.7700  0.2972  0.8861
 5720SOL    HW228797   2.922   3.187  13.600 -1.7101 -0.5912  3.4418
 5721SOL     OW28798   3.301   3.373  11.606 -0.6533 -0.3485  0.8635
 5721SOL    HW128799   3.293   3.467  11.588 -1.1167 -0.3808  0.8816
 5721SOL    HW228800   3.210   3.344  11.592 -0.5710 -1.2197  2.1585
 5722SOL     OW28801   0.550   4.611   3.435  0.2789  0.3616  0.0852
 5722SOL    HW128802   0.546   4.539   3.498 -0.2995  2.2803  2.2840
 5722SOL    HW228803   0.465   4.644   3.464  0.0469 -1.0547  1.0239
 5723SOL     OW28804   2.722   1.863  16.920 -0.0762 -0.3271 -0.3650
 5723SOL    HW128805   2.649   1.895  16.868  0.5725  0.7112 -0.6375
 5723SOL    HW228806   2.670   1.798  16.967 -0.2369 -0.9331 -1.3815
 5724SOL     OW28807   2.897   2.652   6.491 -0.0350  0.0662 -0.0411
 5724SOL    HW128808   2.811   2.678   6.524 -0.1484 -0.4976  0.0984
 5724SOL    HW228809   2.874   2.569   6.449  2.7087 -0.3203 -0.7851
 5725SOL     OW28810   4.345   0.755   4.378  0.0411 -0.3066 -0.3018
 5725SOL    HW128811   4.270   0.730   4.324 -0.0315  1.1529 -0.8609
 5725SOL    HW228812   4.320   0.753   4.470 -0.3069 -0.1977 -0.3966
 5726SOL     OW28813   0.351   3.098   5.095  0.5168  0.1806  0.3558
 5726SOL    HW128814   0.408   3.046   5.039 -0.0489 -3.0532  2.7876
 5726SOL    HW228815   0.405   3.173   5.119  1.7831 -0.2517 -1.1502
 5727SOL     OW28816   3.825   2.634   9.559 -0.0406 -0.4799 -0.2068
 5727SOL    HW128817   3.869   2.549   9.564 -0.7569 -0.8709 -0.5756
 5727SOL    HW228818   3.778   2.623   9.476 -1.4266 -0.7731  0.6279
 5728SOL     OW28819   4.506   2.797   5.428  0.4102  0.1245  0.2203
 5728SOL    HW128820   4.486   2.811   5.335  0.0071 -2.5876 -0.0957
 5728SOL    HW228821   4.490   2.888   5.453 -0.2332  0.4904 -1.5652
 5729SOL     OW28822   3.355   4.352   4.498 -0.0820  0.1095  0.1219
 5729SOL    HW128823   3.431   4.410   4.509 -0.0133 -0.0728  0.6155
 5729SOL    HW228824   3.361   4.302   4.580  0.5309 -2.8022 -1.6616
 5730SOL     OW28825   4.574   4.435   2.861  0.3606 -0.2266 -0.5125
 5730SOL    HW128826   4.553   4.528   2.859 -0.2921 -0.2834  2.8376
 5730SOL    HW228827   4.670   4.442   2.866  0.2130  1.2111  0.4678
 5731SOL     OW28828   0.439   4.553  16.268 -0.2845  0.0079  0.5017
 5731SOL    HW128829   0.462   4.483  16.329 -1.1576 -0.4953  0.2571
 5731SOL    HW228830   0.454   4.511  16.184 -1.2839 -0.9925  0.8173
 5732SOL     OW28831   4.062   1.357   2.202 -0.3000 -0.2380  0.1101
 5732SOL    HW128832   4.088   1.443   2.170  0.4031 -0.1578  0.8990
 5732SOL    HW228833   4.139   1.332   2.254  0.2653  0.9244 -0.1842
 5733SOL     OW28834   1.680   0.684   3.398  0.0004  0.2132 -0.5970
 5733SOL    HW128835   1.733   0.760   3.421  0.3726 -0.3422  0.4073
 5733SOL    HW228836   1.608   0.701   3.459  0.0443 -1.2404 -0.1192
 5734SOL     OW28837   2.498   3.808   0.819  0.0538  0.8864  1.1080
 5734SOL    HW128838   2.555   3.795   0.743  1.5474 -1.2391  2.5652
 5734SOL    HW228839   2.550   3.772   0.891  1.4241  3.8889  1.6249
 5735SOL     OW28840   1.064   2.272   5.350 -0.3197  0.1224 -0.3185
 5735SOL    HW128841   1.118   2.349   5.371  1.7098 -1.1965 -0.7315
 5735SOL    HW228842   1.103   2.211   5.413 -1.0067 -0.6260 -0.6235
 5736SOL     OW28843   3.236   2.139   7.763 -0.1826  0.6933  0.1360
 5736SOL    HW128844   3.151   2.106   7.790 -0.2602  0.1281 -0.8019
 5736SOL    HW228845   3.220   2.136   7.669  0.3435 -0.8642  0.0880
 5737SOL     OW28846   2.709   0.880   6.363 -0.0625 -0.6835  0.4738
 5737SOL    HW128847   2.668   0.830   6.434  0.5229 -2.0006 -0.1065
 5737SOL    HW228848   2.759   0.938   6.420  0.7183  0.1995 -1.1195
 5738SOL     OW28849   1.840   2.916   2.272 -0.2230 -0.0494  0.5845
 5738SOL    HW128850   1.775   2.927   2.341  0.5180 -1.6821  1.5322
 5738SOL    HW228851   1.928   2.911   2.311  1.2560 -1.4176 -2.8923
 5739SOL     OW28852   3.595   4.548   8.220  1.2861  0.5957  0.0137
 5739SOL    HW128853   3.505   4.532   8.247  1.4167 -0.4175 -0.1149
 5739SOL    HW228854   3.639   4.519   8.300 -0.0457  0.2013  0.6061
 5740SOL     OW28855   2.893   1.164  13.091  0.3557  0.2051  0.7439
 5740SOL    HW128856   2.888   1.207  13.006 -1.5396 -1.0616  0.2204
 5740SOL    HW228857   2.852   1.080  13.071  1.3334 -0.4202  1.3165
 5741SOL     OW28858   2.887   1.579   6.000 -0.7086 -0.2000  0.5197
 5741SOL    HW128859   2.929   1.593   5.916 -1.3751 -1.3034 -0.0040
 5741SOL    HW228860   2.819   1.647   5.997 -2.4175 -1.9976 -1.6472
 5742SOL     OW28861   2.152   1.710  16.120  0.0686 -0.4961  0.2266
 5742SOL    HW128862   2.185   1.623  16.096 -0.1210 -0.1507 -1.2398
 5742SOL    HW228863   2.224   1.742  16.175  0.1918  2.1851 -1.5335
 5743SOL     OW28864   2.435   0.005  14.163 -0.6744 -0.6277 -0.3404
 5743SOL    HW128865   2.385   4.692  14.228 -0.3690 -0.1543  0.2408
 5743SOL    HW228866   2.523   4.703  14.165 -1.0043 -1.4900 -2.0038
 5744SOL     OW28867   2.194   4.599   5.895 -0.3753 -0.1867 -0.4285
 5744SOL    HW128868   2.116   4.584   5.841 -0.5005 -3.2093  0.5688
 5744SOL    HW228869   2.228   4.513   5.918  1.3836 -0.2180 -3.0996
 5745SOL     OW28870   1.487   2.268  11.056  0.0144 -0.3488 -0.0668
 5745SOL    HW128871   1.451   2.203  11.116 -1.2431 -0.1997 -0.6722
 5745SOL    HW228872   1.433   2.238  10.983 -1.7592  1.9193  0.2966
 5746SOL     OW28873   0.788   0.031   6.414  0.3463 -0.4093  0.1194
 5746SOL    HW128874   0.766   0.084   6.491 -0.7556 -1.1864  0.3463
 5746SOL    HW228875   0.754   4.679   6.429  1.1791 -0.8499 -0.6398
 5747SOL     OW28876   4.580   0.153  16.246 -0.3945  0.3852 -0.0459
 5747SOL    HW128877   4.509   0.139  16.183 -1.0316 -0.4047  0.8523
 5747SOL    HW228878   4.650   0.172  16.182 -0.6664 -2.5932 -1.2749
 5748SOL     OW28879   2.089   1.255   6.353 -0.0015 -0.2146  0.2211
 5748SOL    HW128880   2.022   1.322   6.334 -0.4249 -0.8112 -0.3752
 5748SOL    HW228881   2.160   1.276   6.293 -1.3135 -0.9318 -1.6039
 5749SOL     OW28882   2.752   1.572  17.367 -0.6808 -0.0748 -0.0553
 5749SOL    HW128883   2.662   1.585  17.338 -0.7360 -1.5215 -0.5143
 5749SOL    HW228884   2.746   1.506  17.435 -1.5821  2.2525  2.0998
 5750SOL     OW28885   3.220   0.728   5.158  0.3956  0.1824 -0.4216
 5750SOL    HW128886   3.256   0.694   5.076 -0.2289  2.0821 -1.4858
 5750SOL    HW228887   3.252   0.684   5.236  1.1877 -0.3161 -1.0251
 5751SOL     OW28888   3.656   3.465   4.377 -0.0099  0.2552 -0.1889
 5751SOL    HW128889   3.669   3.456   4.471  0.6160 -1.7242 -0.4511
 5751SOL    HW228890   3.562   3.480   4.365  0.7350  3.7392 -1.8518
 5752SOL     OW28891   1.524   2.385  10.735 -0.2285  0.4497 -0.2264
 5752SOL    HW128892   1.458   2.372  10.666  0.8395 -1.8696 -0.8105
 5752SOL    HW228893   1.543   2.298  10.770 -0.1171  1.6722  2.7252
 5753SOL     OW28894   4.150   0.512   7.224 -0.3635  0.3153  0.8473
 5753SOL    HW128895   4.140   0.536   7.132  2.8953  1.2885  0.7356
 5753SOL    HW228896   4.067   0.489   7.265 -1.0203  1.8525  0.3412
 5754SOL     OW28897   3.782   0.610   3.505  0.7371 -0.8080  0.1237
 5754SOL    HW128898   3.781   0.664   3.584  2.5106  0.3468 -0.6528
 5754SOL    HW228899   3.810   0.672   3.438  1.6399  0.4813  1.6897
 5755SOL     OW28900   2.167   0.744  15.894 -1.0156  0.1432  0.1312
 5755SOL    HW128901   2.161   0.679  15.963 -3.9007  1.7131  1.3478
 5755SOL    HW228902   2.246   0.793  15.916 -0.5808 -0.5071  0.0161
 5756SOL     OW28903   2.726   1.546   1.913  0.0998 -0.6264  0.1654
 5756SOL    HW128904   2.720   1.629   1.962 -3.3171 -0.5071 -0.4604
 5756SOL    HW228905   2.664   1.584   1.851  0.9292 -1.3061 -1.0846
 5757SOL     OW28906   1.082   3.924   1.043  0.4034 -0.4713  0.7028
 5757SOL    HW128907   1.127   4.006   1.063 -0.5959  0.4749 -0.9508
 5757SOL    HW228908   1.132   3.871   1.106 -2.2528 -0.7557  2.5453
 5758SOL     OW28909   1.109   1.323   7.609 -0.2925  0.1662 -0.0157
 5758SOL    HW128910   1.183   1.347   7.553 -1.0949 -2.7167 -2.3443
 5758SOL    HW228911   1.148   1.266   7.675  0.6907 -0.9334 -1.5333
 5759SOL     OW28912   2.629   0.126   1.159  0.9161 -0.2970 -0.6642
 5759SOL    HW128913   2.601   0.037   1.180  1.4440 -0.0999  0.8714
 5759SOL    HW228914   2.702   0.113   1.098  1.1774  1.3093 -0.6836
 5760SOL     OW28915   0.994   1.681  11.982  0.0181  0.1129 -0.5171
 5760SOL    HW128916   0.931   1.614  12.011  1.3114 -1.4927 -1.4508
 5760SOL    HW228917   1.068   1.630  11.950  0.8037 -0.7202  2.5903
 5761SOL     OW28918   3.010   0.142   2.708  0.7150  0.4817  0.6692
 5761SOL    HW128919   2.937   0.182   2.755 -0.3176 -1.2597  0.5632
 5761SOL    HW228920   3.063   0.127   2.786  1.5315  1.2957  0.2605
 5762SOL     OW28921   3.507   1.104   3.397 -0.2214 -0.3492  0.2298
 5762SOL    HW128922   3.506   1.011   3.419 -0.3116 -0.1139  1.2246
 5762SOL    HW228923   3.468   1.103   3.309  3.2327 -1.6545 -1.2668
 5763SOL     OW28924   2.365   1.859   3.998  0.0329  0.3337 -0.6815
 5763SOL    HW128925   2.356   1.884   3.906  0.5088 -0.3624 -0.9157
 5763SOL    HW228926   2.278   1.895   4.014  0.2942  0.3042  0.7795
 5764SOL     OW28927   2.903   2.458  12.288  0.0300  0.5872 -0.0237
 5764SOL    HW128928   2.977   2.490  12.339  1.2984 -2.4483  0.0603
 5764SOL    HW228929   2.884   2.524  12.222  1.0527 -0.3444 -1.2581
 5765SOL     OW28930   3.779   3.517   4.892 -0.1654  0.5854 -0.2611
 5765SOL    HW128931   3.849   3.575   4.862  0.3863  0.4184  0.7171
 5765SOL    HW228932   3.841   3.452   4.926 -0.7315  0.4164  0.4482
 5766SOL     OW28933   0.884   0.586   4.474 -0.4744 -0.3740 -0.0825
 5766SOL    HW128934   0.813   0.579   4.538  0.2919  0.1436  0.8414
 5766SOL    HW228935   0.837   0.562   4.395  0.3616  0.4605 -0.8312
 5767SOL     OW28936   2.923   1.729  17.182 -0.2294  0.2187 -0.0070
 5767SOL    HW128937   2.877   1.696  17.260  0.6105 -0.0667  0.3756
 5767SOL    HW228938   2.898   1.663  17.118 -1.6433  1.1629 -0.4050
 5768SOL     OW28939   3.378   3.966   4.119  0.6269 -0.6102  0.3773
 5768SOL    HW128940   3.318   4.015   4.176 -0.6562 -0.6080 -0.9954
 5768SOL    HW228941   3.349   3.875   4.118 -1.1534 -0.0304  0.4454
 5769SOL     OW28942   1.597   0.073   4.884 -0.0315 -0.1286  0.2544
 5769SOL    HW128943   1.648   0.026   4.949  1.4690  1.1250 -0.0337
 5769SOL    HW228944   1.639   0.070   4.798 -1.4483  0.6591 -0.4730
 5770SOL     OW28945   4.142   0.269   2.592  0.0972 -0.0980  0.9283
 5770SOL    HW128946   4.091   0.239   2.516 -1.2203  0.7153  1.4915
 5770SOL    HW228947   4.122   0.362   2.606  1.6344 -0.0818  3.0465
 5771SOL     OW28948   3.314   2.790   7.140  0.7405 -0.3193 -0.3884
 5771SOL    HW128949   3.257   2.720   7.170 -0.8654  1.2141  0.1880
 5771SOL    HW228950   3.362   2.763   7.062  0.0400  0.8630 -1.2407
 5772SOL     OW28951   3.970   1.508  12.236  0.0481 -0.8244 -0.1021
 5772SOL    HW128952   4.044   1.450  12.257  0.3301  0.4536  2.4305
 5772SOL    HW228953   4.006   1.557  12.162  0.1613 -0.9268 -0.1166
 5773SOL     OW28954   3.024   0.314  15.813  0.5899  0.2336 -0.3964
 5773SOL    HW128955   3.003   0.222  15.793 -1.2514  0.3368  1.0754
 5773SOL    HW228956   2.939   0.354  15.793  0.2212 -0.1879  0.3157
 5774SOL     OW28957   2.423   2.130   6.236 -0.1193  0.4314  1.2526
 5774SOL    HW128958   2.428   2.050   6.184 -2.1577  0.6442  0.7182
 5774SOL    HW228959   2.338   2.162   6.206  0.5738  0.5044 -0.6633
 5775SOL     OW28960   2.412   2.872   4.178  0.0912  0.7765 -0.0327
 5775SOL    HW128961   2.328   2.904   4.145 -0.6571 -2.7532 -1.6093
 5775SOL    HW228962   2.450   2.955   4.207  2.6715 -0.0780 -0.9083
 5776SOL     OW28963   1.286   3.892   4.158  0.3778  0.3443 -0.9711
 5776SOL    HW128964   1.366   3.943   4.146  1.1483 -0.3924  1.0362
 5776SOL    HW228965   1.330   3.821   4.204  0.0763  1.6730  1.4105
 5777SOL     OW28966   3.727   3.798   4.610 -0.2701 -0.5971 -0.0086
 5777SOL    HW128967   3.786   3.733   4.647 -0.3196 -0.3920  0.4307
 5777SOL    HW228968   3.753   3.874   4.662 -2.6864  0.1188  0.1581
 5778SOL     OW28969   4.038   1.681   7.920  0.5506 -0.0556 -0.7229
 5778SOL    HW128970   4.127   1.645   7.914  0.8802  0.4439  1.3747
 5778SOL    HW228971   4.027   1.707   8.011 -0.0840 -1.4410 -0.4109
 5779SOL     OW28972   3.883   1.568   3.893  0.4446 -0.4965  0.3350
 5779SOL    HW128973   3.814   1.538   3.953  1.8647 -0.9726  1.7543
 5779SOL    HW228974   3.945   1.497   3.913  1.8010  0.5496 -0.1893
 5780SOL     OW28975   4.313   1.584  11.249 -0.4265 -0.3090 -0.0050
 5780SOL    HW128976   4.344   1.526  11.320 -0.4430  1.7745  1.7089
 5780SOL    HW228977   4.389   1.642  11.253 -1.9150  1.6078  0.0804
 5781SOL     OW28978   0.670   4.075   9.601 -0.4378  0.1337 -0.6399
 5781SOL    HW128979   0.653   3.981   9.594  0.2373  0.0198 -0.7546
 5781SOL    HW228980   0.654   4.091   9.694  0.4125 -1.1602 -0.2716
 5782SOL     OW28981   1.290   0.475   9.252  0.0546  0.6950 -0.2885
 5782SOL    HW128982   1.295   0.490   9.346 -0.5166 -3.1528  0.3257
 5782SOL    HW228983   1.374   0.520   9.239  0.7263 -1.1229 -2.3084
 5783SOL     OW28984   1.505   2.088   7.010  0.3580 -0.2856 -0.4430
 5783SOL    HW128985   1.584   2.044   6.979  0.3514  0.4834 -1.5258
 5783SOL    HW228986   1.535   2.168   7.053  0.1882 -0.9997  1.0029
 5784SOL     OW28987   4.434   3.290   8.679  0.5195  0.4994  0.3103
 5784SOL    HW128988   4.450   3.225   8.610 -2.5559 -1.3127  1.3110
 5784SOL    HW228989   4.377   3.344   8.625 -0.4789  0.5008  1.3770
 5785SOL     OW28990   3.314   3.049   6.985  0.2363 -0.3119 -0.2988
 5785SOL    HW128991   3.402   3.084   6.977  0.2590 -0.5887 -1.1813
 5785SOL    HW228992   3.335   2.987   7.055 -2.8074 -1.6761 -0.5622
 5786SOL     OW28993   1.658   2.640   3.103 -0.1499 -0.3531 -0.1973
 5786SOL    HW128994   1.591   2.582   3.139 -0.8348 -1.4607 -3.2577
 5786SOL    HW228995   1.694   2.588   3.031 -1.3273 -0.9986 -0.3248
 5787SOL     OW28996   1.711   1.387   8.978 -0.1315 -0.0347 -0.4161
 5787SOL    HW128997   1.731   1.300   8.943  0.3073  0.3056 -1.0015
 5787SOL    HW228998   1.687   1.348   9.062  1.8205 -1.0210 -0.3037
 5788SOL     OW28999   2.712   1.779   2.039 -0.0324 -0.1717  0.3606
 5788SOL    HW129000   2.619   1.795   2.028  0.2618  0.7026 -0.9119
 5788SOL    HW229001   2.717   1.842   2.112  0.6386 -0.8817  0.9290
 5789SOL     OW29002   4.492   1.987   6.872  0.4235  0.0090  0.4257
 5789SOL    HW129003   4.566   1.950   6.823 -0.0651 -1.1670  0.5946
 5789SOL    HW229004   4.537   2.070   6.891 -0.7254  0.6244  0.4446
 5790SOL     OW29005   1.489   0.423   9.009 -0.1393 -0.2119  0.4803
 5790SOL    HW129006   1.438   0.403   8.931 -1.0146 -0.4036  1.1084
 5790SOL    HW229007   1.457   0.361   9.074 -1.3855 -0.6599 -0.5697
 5791SOL     OW29008   0.798   0.938  17.553 -0.2435 -0.3626 -0.0658
 5791SOL    HW129009   0.848   0.940  17.635  0.9722  0.5597 -0.8403
 5791SOL    HW229010   0.847   0.988  17.488 -0.0318 -1.6817 -0.9148
 5792SOL     OW29011   1.866   3.010   1.193 -0.0776  0.4381 -0.0524
 5792SOL    HW129012   1.830   3.046   1.274 -0.3338 -1.0513  0.4959
 5792SOL    HW229013   1.859   3.090   1.142  1.3831 -1.1371 -2.7094
 5793SOL     OW29014   0.752   1.027   1.670  0.0594  0.1939  0.8789
 5793SOL    HW129015   0.680   0.965   1.681  1.0707 -0.7443  2.2277
 5793SOL    HW229016   0.692   1.096   1.640 -2.5330 -1.6509  1.8039
 5794SOL     OW29017   4.168   2.350  10.152  0.2679 -0.0189 -0.2833
 5794SOL    HW129018   4.174   2.283  10.084  0.7456  0.9136 -1.1461
 5794SOL    HW229019   4.125   2.286  10.210  0.1273  0.1805 -0.1667
 5795SOL     OW29020   2.127   0.525   2.718  0.2156 -0.3645  0.3422
 5795SOL    HW129021   2.179   0.591   2.672 -0.9132  0.4752  0.2938
 5795SOL    HW229022   2.081   0.580   2.781 -2.4052  0.6528 -2.4587
 5796SOL     OW29023   0.835   1.915   4.337  0.5990 -0.2713 -0.0038
 5796SOL    HW129024   0.775   1.848   4.304 -0.7214  0.6009  0.6546
 5796SOL    HW229025   0.915   1.864   4.351  0.7809  0.4443  1.5557
 5797SOL     OW29026   2.820   3.291   6.319  0.0307  0.4523  0.1865
 5797SOL    HW129027   2.891   3.233   6.346 -0.2590  0.0909  0.1724
 5797SOL    HW229028   2.830   3.368   6.375 -0.3300 -0.1263  1.0505
 5798SOL     OW29029   2.105   0.284   7.797 -0.1611 -0.4223 -0.1350
 5798SOL    HW129030   2.028   0.318   7.752 -1.2459 -1.3059  1.0565
 5798SOL    HW229031   2.118   0.203   7.748  2.8082 -0.3115  0.4737
 5799SOL     OW29032   1.153   4.509   4.955  0.1362 -0.1882  0.3538
 5799SOL    HW129033   1.244   4.512   4.923 -0.3274 -0.1038 -0.9444
 5799SOL    HW229034   1.152   4.425   5.001  1.7324 -2.1717 -3.1403
 5800SOL     OW29035   3.826   2.928  13.477 -0.1075  0.5493 -0.0363
 5800SOL    HW129036   3.860   2.937  13.566  0.2521 -2.1540  0.1007
 5800SOL    HW229037   3.787   3.014  13.460 -0.1626  0.4846 -0.2386
 5801SOL     OW29038   3.037   3.499   4.302 -0.9994 -0.2092  0.0557
 5801SOL    HW129039   2.973   3.461   4.241 -1.4412  0.3659  0.1494
 5801SOL    HW229040   3.066   3.572   4.247  1.0919 -0.9370  0.2227
 5802SOL     OW29041   0.127   0.260  17.351  0.8379 -0.2574  0.2026
 5802SOL    HW129042   0.167   0.347  17.355 -2.6427  1.4281 -1.1992
 5802SOL    HW229043   0.079   0.260  17.268 -0.3981  0.4150  0.9125
 5803SOL     OW29044   2.923   0.275  15.520  0.9035 -0.4728  0.3695
 5803SOL    HW129045   2.935   0.370  15.517  1.7994 -0.5848  0.4307
 5803SOL    HW229046   2.854   0.260  15.456 -0.2125  1.5655  1.0914
 5804SOL     OW29047   0.471   2.287   2.980  0.1679 -0.1195  0.1172
 5804SOL    HW129048   0.515   2.205   2.957  2.6722  0.9264  1.2711
 5804SOL    HW229049   0.389   2.249   3.013 -0.3987  2.0249  1.1399
 5805SOL     OW29050   0.538   3.612   4.676  0.2671 -0.4414  0.1594
 5805SOL    HW129051   0.515   3.544   4.740 -0.9704 -0.5998 -0.4396
 5805SOL    HW229052   0.611   3.566   4.634  0.9638  0.6259  0.2113
 5806SOL     OW29053   2.486   2.011   3.018 -0.4645 -0.0016  0.8004
 5806SOL    HW129054   2.549   2.024   3.089 -0.3346  0.6497  0.5635
 5806SOL    HW229055   2.436   2.092   3.013 -0.1175  0.2576  1.4777
 5807SOL     OW29056   2.873   4.161  13.542  0.1250 -0.4971 -0.0679
 5807SOL    HW129057   2.906   4.249  13.561 -0.5688 -0.0349 -1.0412
 5807SOL    HW229058   2.868   4.131  13.633 -1.1394 -0.2242 -0.0507
 5808SOL     OW29059   1.083   0.458   5.949  0.0927 -0.5058 -0.1732
 5808SOL    HW129060   1.039   0.490   6.028  1.4919  2.5577 -0.6380
 5808SOL    HW229061   1.052   0.368   5.955 -0.2868 -0.4611 -1.5050
 5809SOL     OW29062   4.102   4.282   0.788  0.2535  0.3053  0.1147
 5809SOL    HW129063   4.089   4.311   0.878  0.8925  1.2645 -0.1032
 5809SOL    HW229064   4.035   4.218   0.765  0.7717 -1.7010  4.1995
 5810SOL     OW29065   4.411   4.137   0.757  0.1333  0.7118 -0.0163
 5810SOL    HW129066   4.376   4.226   0.766 -0.6940  0.2248  1.5593
 5810SOL    HW229067   4.422   4.109   0.848 -0.9765 -0.9982 -0.4180
 5811SOL     OW29068   0.882   1.062   1.421  0.0719  0.2785 -0.0437
 5811SOL    HW129069   0.858   1.081   1.512 -1.7888 -1.4163 -0.1694
 5811SOL    HW229070   0.880   1.148   1.379  0.2445  1.5196  2.5049
 5812SOL     OW29071   0.118   2.609   3.837  0.2938 -0.4919  0.1972
 5812SOL    HW129072   0.129   2.571   3.925 -0.4463 -0.2966  0.3801
 5812SOL    HW229073   0.117   2.702   3.859 -1.2319 -0.1424 -1.3204
 5813SOL     OW29074   3.017   0.797   0.003  0.1858  0.3474  0.1902
 5813SOL    HW129075   2.974   0.718   0.036  2.5398 -0.8622  0.3542
 5813SOL    HW229076   2.947   0.858   0.028 -0.9025 -0.6776 -0.3858
 5814SOL     OW29077   4.220   0.034   4.218 -0.0124  0.2987  0.0236
 5814SOL    HW129078   4.266   0.061   4.298  0.0797 -1.7707  0.6629
 5814SOL    HW229079   4.247   0.105   4.160  0.2650  0.2361  0.0745
 5815SOL     OW29080   1.715   1.316   6.093  0.1612  0.1206 -0.3032
 5815SOL    HW129081   1.631   1.279   6.121  0.1041 -0.6717 -1.5060
 5815SOL    HW229082   1.712   1.291   6.000 -4.0393  1.0077 -0.4012
 5816SOL     OW29083   0.356   3.177   1.212 -0.1031 -0.7927 -0.2202
 5816SOL    HW129084   0.353   3.260   1.260 -2.2703 -1.1298  0.2098
 5816SOL    HW229085   0.449   3.181   1.190  0.2676 -0.6480  1.3931
 5817SOL     OW29086   3.821   1.130   6.840 -0.4008 -0.2978 -0.1242
 5817SOL    HW129087   3.859   1.083   6.914 -1.2548  2.2926  1.9680
 5817SOL    HW229088   3.792   1.214   6.875  1.7746  0.8695 -1.1315
 5818SOL     OW29089   2.230   3.675   7.382 -0.1738  0.0152 -0.2141
 5818SOL    HW129090   2.317   3.664   7.345 -1.1060 -1.8620 -1.8698
 5818SOL    HW229091   2.191   3.606   7.329  0.9689 -1.1021  0.4019
 5819SOL     OW29092   1.260   3.949  10.186  0.3394 -0.1063 -0.1528
 5819SOL    HW129093   1.298   3.974  10.270  0.3398 -1.3454  0.2199
 5819SOL    HW229094   1.325   3.988  10.129 -1.5791  3.1950 -0.1043
 5820SOL     OW29095   0.688   4.053   3.240 -0.1084 -0.1873 -0.0500
 5820SOL    HW129096   0.630   4.024   3.170  0.1786  0.2031 -0.4495
 5820SOL    HW229097   0.642   4.009   3.311 -2.6468 -0.2212 -1.7275
 5821SOL     OW29098   3.505   1.047  17.549 -0.0929 -1.0927 -0.5630
 5821SOL    HW129099   3.590   1.073  17.582 -1.4562  0.4482  1.7112
 5821SOL    HW229100   3.485   0.967  17.598 -0.9486 -1.0321 -0.8078
 5822SOL     OW29101   4.135   2.379  13.259  0.1788 -0.1966 -0.3332
 5822SOL    HW129102   4.074   2.434  13.307 -0.1507  1.3373 -2.5399
 5822SOL    HW229103   4.176   2.441  13.198  1.4594  1.0247  1.7853
 5823SOL     OW29104   0.625   3.969  10.637  0.2057 -0.0368  0.0833
 5823SOL    HW129105   0.601   4.059  10.615 -0.5962 -0.6363 -1.4737
 5823SOL    HW229106   0.558   3.956  10.704 -0.0346  2.6594  0.3510
 5824SOL     OW29107   2.768   0.521   1.226  0.2022 -0.3265  0.0191
 5824SOL    HW129108   2.761   0.600   1.173 -0.5055  0.1682  0.8439
 5824SOL    HW229109   2.689   0.470   1.207  0.1422  0.0793 -0.8359
 5825SOL     OW29110   4.731   0.684   5.710 -0.0736 -0.4635 -0.1011
 5825SOL    HW129111   0.078   0.661   5.667 -0.9419 -0.8013 -1.5771
 5825SOL    HW229112   0.013   0.644   5.796 -1.6897 -1.1223 -0.0722
 5826SOL     OW29113   2.246   1.342   6.137 -0.2662  0.7634 -0.0815
 5826SOL    HW129114   2.321   1.401   6.131 -1.0349  1.7949  0.5047
 5826SOL    HW229115   2.205   1.371   6.056 -0.1588  1.8100  0.2484
 5827SOL     OW29116   4.068   0.166   1.439 -0.4830 -0.4028  0.7274
 5827SOL    HW129117   3.997   0.231   1.437  0.2036  0.2568 -1.5513
 5827SOL    HW229118   4.140   0.213   1.397  0.5330 -2.6706 -0.0893
 5828SOL     OW29119   4.672   4.108  10.728 -0.0181  0.5782 -0.0710
 5828SOL    HW129120   0.020   4.079  10.693 -0.0916  0.6933 -0.3449
 5828SOL    HW229121   4.652   4.190  10.682  1.2319  0.3150 -1.0811
 5829SOL     OW29122   4.484   0.730   5.031  0.2230  0.6605 -0.0833
 5829SOL    HW129123   4.399   0.688   5.016  0.3919  0.6409 -0.9852
 5829SOL    HW229124   4.466   0.761   5.120 -2.0998 -0.7099 -0.0626
 5830SOL     OW29125   1.654   3.305   1.703  0.8908  0.7634 -0.8918
 5830SOL    HW129126   1.642   3.230   1.645 -1.9196  1.1532 -0.7956
 5830SOL    HW229127   1.741   3.294   1.740  0.6438 -2.7000 -1.3072
 5831SOL     OW29128   1.868   4.611   6.822 -0.1350  0.4645 -0.0766
 5831SOL    HW129129   1.955   4.644   6.842 -0.3616  0.2369  1.2975
 5831SOL    HW229130   1.882   4.517   6.812  0.7960  0.4347  1.4953
 5832SOL     OW29131   2.464   4.192  10.947 -0.6122  0.0868  0.4871
 5832SOL    HW129132   2.428   4.105  10.928 -0.6877  0.2214  0.0209
 5832SOL    HW229133   2.405   4.256  10.906  1.1068 -0.1566 -2.3670
 5833SOL     OW29134   2.358   1.298  13.745 -0.1975  0.0907 -0.6276
 5833SOL    HW129135   2.285   1.238  13.730 -1.2644  1.3707 -0.5667
 5833SOL    HW229136   2.364   1.304  13.841 -1.2396  0.9985 -0.6227
 5834SOL     OW29137   4.608   0.973   7.392 -0.0486  0.0528  0.0678
 5834SOL    HW129138   4.665   1.039   7.353  0.7735 -1.7926 -1.8454
 5834SOL    HW229139   4.663   0.898   7.413  0.6610  0.7269  0.6444
 5835SOL     OW29140   2.451   4.396  17.280 -0.4111  0.4742 -0.0864
 5835SOL    HW129141   2.462   4.305  17.252 -3.8975  0.2246 -0.6500
 5835SOL    HW229142   2.495   4.390  17.365 -0.7588 -0.7568  0.0030
 5836SOL     OW29143   2.135   3.661   4.602  0.3245 -0.0742  0.2789
 5836SOL    HW129144   2.117   3.751   4.577 -1.0992 -0.8856 -1.6482
 5836SOL    HW229145   2.049   3.619   4.594  0.3844  0.1110 -1.4492
 5837SOL     OW29146   1.997   1.000   6.987 -0.6886 -0.3119  0.2938
 5837SOL    HW129147   2.043   0.953   7.056 -2.4553  0.2467  1.8391
 5837SOL    HW229148   1.965   1.079   7.030  2.6944 -0.3830  2.9512
 5838SOL     OW29149   0.233   0.616   5.618  0.0262  0.8219  0.6143
 5838SOL    HW129150   0.254   0.702   5.583  1.2887 -0.0012 -0.6410
 5838SOL    HW229151   0.277   0.628   5.703 -0.1028  0.3021  0.7552
 5839SOL     OW29152   4.185   1.763   9.718 -0.1757  0.1126  0.7337
 5839SOL    HW129153   4.156   1.773   9.627  1.0039  1.4498  0.5133
 5839SOL    HW229154   4.221   1.674   9.723  0.1422  0.1643 -0.6336
 5840SOL     OW29155   4.527   2.568   2.841  0.2617  1.0906  0.2535
 5840SOL    HW129156   4.470   2.564   2.763  2.5130 -4.3489 -1.1605
 5840SOL    HW229157   4.617   2.565   2.809  0.3313  1.2305  0.4430
 5841SOL     OW29158   4.253   3.322   2.726 -0.3391  0.2848  0.0892
 5841SOL    HW129159   4.233   3.238   2.683  0.9746  1.6752 -3.2438
 5841SOL    HW229160   4.260   3.389   2.659 -2.1763  0.0027 -0.3893
 5842SOL     OW29161   2.224   3.752   3.419  0.0090 -0.0436  0.5631
 5842SOL    HW129162   2.192   3.839   3.396  1.0674 -0.2328 -1.6674
 5842SOL    HW229163   2.149   3.698   3.394  0.4101  0.0193 -0.7858
 5843SOL     OW29164   1.821   3.385   4.779  0.3228  1.0197  0.6797
 5843SOL    HW129165   1.806   3.474   4.748 -2.5652  0.7761  1.3214
 5843SOL    HW229166   1.741   3.332   4.769  0.1898  1.3285  0.0906
 5844SOL     OW29167   4.440   3.715   8.899 -0.0266 -0.2212  0.1274
 5844SOL    HW129168   4.438   3.798   8.947 -0.1952 -0.3385  0.3222
 5844SOL    HW229169   4.380   3.733   8.826 -0.9704  0.2351  1.0104
 5845SOL     OW29170   1.299   0.586   4.811  0.2846  0.5151 -0.4714
 5845SOL    HW129171   1.378   0.536   4.791  0.1884 -0.9357  2.7884
 5845SOL    HW229172   1.237   0.531   4.763 -1.2088  1.6641  0.1265
 5846SOL     OW29173   1.713   4.077   9.724  0.3979 -0.1741  0.2999
 5846SOL    HW129174   1.655   4.048   9.654  1.0763  1.7703 -1.0433
 5846SOL    HW229175   1.675   4.161   9.746 -0.1318 -0.3752  0.1429
 5847SOL     OW29176   2.297   1.602   9.203 -0.3084  0.5011 -0.4571
 5847SOL    HW129177   2.360   1.536   9.233 -0.7970  0.9847  1.6048
 5847SOL    HW229178   2.362   1.668   9.180  1.8250 -0.9576  1.3079
 5848SOL     OW29179   2.549   1.093  14.252  0.2230 -0.5495 -0.0898
 5848SOL    HW129180   2.634   1.051  14.262  0.3707 -0.1727  0.2154
 5848SOL    HW229181   2.536   1.064  14.161  0.1584  2.3668 -0.9850
 5849SOL     OW29182   0.788   4.202  12.607  0.1217 -0.4962 -0.2788
 5849SOL    HW129183   0.862   4.142  12.619 -0.4682 -1.1783 -0.0616
 5849SOL    HW229184   0.833   4.279  12.572 -0.8342  0.2893  0.2015
 5850SOL     OW29185   2.378   1.915   8.036  0.6957 -0.3850 -0.6233
 5850SOL    HW129186   2.284   1.935   8.044  0.7788 -0.6419  1.1476
 5850SOL    HW229187   2.397   1.934   7.945 -1.2848 -0.0119 -0.9605
 5851SOL     OW29188   2.980   4.197   8.848 -0.2577 -0.1830 -0.0186
 5851SOL    HW129189   2.887   4.219   8.846 -0.9035 -3.0155 -1.8839
 5851SOL    HW229190   3.017   4.274   8.804  1.2086 -1.9053 -1.8658
 5852SOL     OW29191   0.406   4.733   0.891  1.2810 -0.4899  0.4206
 5852SOL    HW129192   0.490   4.734   0.935  2.0056  0.0815 -0.9845
 5852SOL    HW229193   0.385   4.640   0.895  1.4686 -0.5794 -0.7543
 5853SOL     OW29194   2.480   1.269   6.350 -0.1995 -0.0602  0.3062
 5853SOL    HW129195   2.441   1.216   6.419  1.2384 -1.8363 -0.2392
 5853SOL    HW229196   2.408   1.321   6.313 -0.0561 -1.3967 -1.8739
 5854SOL     OW29197   2.362   1.628   7.824  0.6047 -0.2203 -0.6305
 5854SOL    HW129198   2.363   1.628   7.728 -1.2845 -0.9891 -0.6523
 5854SOL    HW229199   2.454   1.638   7.850  0.9132 -1.5167 -1.2073
 5855SOL     OW29200   1.431   1.202   4.120  0.0467  0.4278  0.0834
 5855SOL    HW129201   1.438   1.114   4.155  0.4312  0.6296  0.5083
 5855SOL    HW229202   1.345   1.188   4.080  0.2562  1.3158 -0.6951
 5856SOL     OW29203   0.737   2.645   3.367 -0.0335 -0.7913  0.0555
 5856SOL    HW129204   0.685   2.680   3.439 -0.8141  1.5542 -1.6402
 5856SOL    HW229205   0.735   2.717   3.304 -2.3613 -0.5089  0.4575
 5857SOL     OW29206   1.183   1.558  14.578 -0.5153 -0.1999  0.1617
 5857SOL    HW129207   1.154   1.624  14.515  0.0307 -0.0382  0.0768
 5857SOL    HW229208   1.177   1.598  14.665 -2.4914  3.0834 -1.4876
 5858SOL     OW29209   0.834   4.507  16.898  0.0555  0.2275  0.5020
 5858SOL    HW129210   0.755   4.518  16.952 -1.1748  0.1682 -1.2704
 5858SOL    HW229211   0.803   4.537  16.813  2.1770  0.3550 -0.2194
 5859SOL     OW29212   1.077   0.373   0.630  0.2799 -0.5507  0.1437
 5859SOL    HW129213   1.128   0.449   0.659 -2.4723  1.1031  0.6353
 5859SOL    HW229214   1.010   0.368   0.698  0.8288 -0.8974  0.6603
 5860SOL     OW29215   1.673   2.558  10.548  0.0692 -0.5022  0.1930
 5860SOL    HW129216   1.614   2.503  10.600  0.0785 -0.1480  0.5743
 5860SOL    HW229217   1.694   2.490  10.483 -0.5288 -2.8600  2.4684
 5861SOL     OW29218   0.273   4.484   0.900  0.5585  0.4616 -0.0538
 5861SOL    HW129219   0.349   4.430   0.880 -1.3974 -3.3272  2.8283
 5861SOL    HW229220   0.206   4.455   0.838  0.3273 -3.1665  1.9346
 5862SOL     OW29221   3.422   4.384  10.316 -0.0201  0.2494  0.1348
 5862SOL    HW129222   3.400   4.467  10.274 -0.5432  0.4472  0.8130
 5862SOL    HW229223   3.517   4.393  10.316  0.0495 -0.4650  0.0342
 5863SOL     OW29224   0.741   0.752   5.419  0.1874  0.0462 -0.1037
 5863SOL    HW129225   0.746   0.703   5.501 -1.8555  0.6125  0.3416
 5863SOL    HW229226   0.647   0.764   5.412  0.5243  3.5805  1.5921
 5864SOL     OW29227   3.650   2.594   8.059  0.0645 -0.5717 -0.1078
 5864SOL    HW129228   3.693   2.572   8.142  3.4751 -1.1460 -2.0463
 5864SOL    HW229229   3.643   2.689   8.071  0.2786 -0.5696  0.0161
 5865SOL     OW29230   4.213   3.835  10.562 -0.0073 -0.2144  0.2350
 5865SOL    HW129231   4.284   3.860  10.503 -0.8880  0.9084 -0.3306
 5865SOL    HW229232   4.171   3.912  10.600  2.6065  1.1853  0.3019
 5866SOL     OW29233   2.998   1.511   8.187 -0.0654  0.0302  0.0734
 5866SOL    HW129234   3.087   1.498   8.154 -0.9714 -2.5102 -1.3198
 5866SOL    HW229235   3.000   1.465   8.271 -0.9119  1.0836  0.6653
 5867SOL     OW29236   4.156   4.180   7.006  0.0130  0.2360 -0.1872
 5867SOL    HW129237   4.090   4.158   7.072  0.7921  0.5301  0.6810
 5867SOL    HW229238   4.105   4.233   6.946  0.1933  1.0239  0.3566
 5868SOL     OW29239   3.679   4.033   8.969 -0.3468  0.5787  0.2328
 5868SOL    HW129240   3.725   4.073   9.043  0.0108 -2.4413  1.6275
 5868SOL    HW229241   3.637   4.111   8.932 -0.6828 -0.1544 -0.9342
 5869SOL     OW29242   2.964   1.449   2.234  0.2109 -0.2109 -0.3399
 5869SOL    HW129243   2.977   1.441   2.328  1.1751  2.6832 -0.2309
 5869SOL    HW229244   3.042   1.398   2.209  1.3381  2.0367 -1.4385
 5870SOL     OW29245   1.647   2.834  15.466 -0.5033 -0.4063 -0.4181
 5870SOL    HW129246   1.742   2.851  15.467 -0.2906 -1.7096  0.9982
 5870SOL    HW229247   1.657   2.741  15.486  2.5080 -0.0582 -0.3040
 5871SOL     OW29248   3.900   3.086   5.133 -0.2249 -0.0193 -0.0336
 5871SOL    HW129249   3.901   2.992   5.111  1.7314  0.1887 -0.8069
 5871SOL    HW229250   3.829   3.080   5.196 -0.9157 -0.0132 -0.8034
 5872SOL     OW29251   3.437   2.545   7.402  0.0770  0.3861 -0.2241
 5872SOL    HW129252   3.437   2.526   7.496  0.9157  2.1027  0.1175
 5872SOL    HW229253   3.529   2.550   7.375  0.8714 -1.1728  2.2085
 5873SOL     OW29254   2.093   1.532   0.036  0.1717  0.1665  0.4410
 5873SOL    HW129255   2.031   1.600   0.010 -1.4463 -0.6657  2.1074
 5873SOL    HW229256   2.171   1.581   0.062  0.6820 -0.6710  0.4665
 5874SOL     OW29257   2.125   3.531   3.055  0.0821 -0.3963  0.2628
 5874SOL    HW129258   2.043   3.502   3.094 -0.5993 -0.2489 -1.0872
 5874SOL    HW229259   2.112   3.521   2.961 -0.9188 -1.6196  0.5326
 5875SOL     OW29260   2.226   3.910   3.713  0.4907  0.0678  0.7356
 5875SOL    HW129261   2.295   3.907   3.647  1.2144  0.6812  1.4723
 5875SOL    HW229262   2.179   3.991   3.693 -1.0736 -0.9262  0.3084
 5876SOL     OW29263   0.710   1.145  10.969  0.8435  0.4430  0.1910
 5876SOL    HW129264   0.676   1.171  10.883 -2.2796 -0.1676  1.2657
 5876SOL    HW229265   0.763   1.069  10.945  1.0505  0.1445  1.5867
 5877SOL     OW29266   2.551   0.894   1.350  0.2434  0.1341 -0.6202
 5877SOL    HW129267   2.572   0.985   1.330 -0.5882  0.1940 -1.1966
 5877SOL    HW229268   2.515   0.901   1.439  0.4400 -0.4778 -0.4901
 5878SOL     OW29269   2.592   2.832   3.107  0.0203  0.3444 -0.6087
 5878SOL    HW129270   2.510   2.881   3.109 -1.0651 -1.5350  0.9087
 5878SOL    HW229271   2.575   2.752   3.059 -0.1143 -0.2860  0.4857
 5879SOL     OW29272   1.844   4.310   1.406 -0.7226 -0.3929 -0.1282
 5879SOL    HW129273   1.906   4.320   1.478 -1.6327 -1.8264  0.8413
 5879SOL    HW229274   1.868   4.222   1.376 -0.9972 -0.8330  0.9357
 5880SOL     OW29275   3.099   3.595   2.521 -0.3903  1.1772  0.1886
 5880SOL    HW129276   3.149   3.515   2.506 -0.1020  0.8130  3.0432
 5880SOL    HW229277   3.064   3.572   2.608  0.3497  1.6608  0.6107
 5881SOL     OW29278   3.854   4.457   8.081 -0.3287 -0.3185  0.5402
 5881SOL    HW129279   3.878   4.401   8.155  4.2087  0.4474 -0.3365
 5881SOL    HW229280   3.767   4.487   8.106 -0.9414 -1.9105  0.2988
 5882SOL     OW29281   3.068   4.544   3.079 -0.5602 -0.3003 -0.7027
 5882SOL    HW129282   3.069   4.622   3.136 -2.2482  1.2439 -2.8070
 5882SOL    HW229283   3.064   4.484   3.154 -3.3995 -1.5138 -1.8260
 5883SOL     OW29284   3.001   1.314  17.245  0.7409 -0.3315  0.3555
 5883SOL    HW129285   2.981   1.388  17.187  1.1047  1.4660  2.5429
 5883SOL    HW229286   3.026   1.353  17.328  0.2901  1.9727 -0.5806
 5884SOL     OW29287   4.395   2.469   4.328 -0.2964  0.2123  0.5675
 5884SOL    HW129288   4.412   2.390   4.379 -1.6191  0.5295  1.4768
 5884SOL    HW229289   4.465   2.529   4.353 -0.3634  0.2371  0.6934
 5885SOL     OW29290   3.190   3.801   2.353 -0.6481  0.6281  0.1633
 5885SOL    HW129291   3.148   3.741   2.416 -2.1732  2.6285  1.0397
 5885SOL    HW229292   3.127   3.872   2.364 -1.6040 -0.1743 -0.1654
 5886SOL     OW29293   4.365   2.905  13.548  0.4764  0.2760 -0.1575
 5886SOL    HW129294   4.451   2.885  13.511 -0.2558  0.0690 -1.7420
 5886SOL    HW229295   4.335   2.821  13.580  0.8809 -0.0076 -0.5119
 5887SOL     OW29296   1.165   1.984  13.038  0.1279 -0.4201 -0.4856
 5887SOL    HW129297   1.181   1.896  13.071  3.6324  0.4794  0.1512
 5887SOL    HW229298   1.071   1.975  13.019  0.0106 -1.3702  0.5457
 5888SOL     OW29299   3.738   1.781   2.093 -0.1453  0.2204 -0.0919
 5888SOL    HW129300   3.832   1.802   2.095 -0.0367 -0.1735 -1.1369
 5888SOL    HW229301   3.750   1.711   2.029 -3.4813  1.1602 -1.7644
 5889SOL     OW29302   3.244   1.816  12.230 -0.5342 -0.0119  0.0894
 5889SOL    HW129303   3.315   1.752  12.222 -2.4627 -2.1873  0.0763
 5889SOL    HW229304   3.256   1.886  12.167  1.7260  0.3440  0.9222
 5890SOL     OW29305   4.361   0.722   3.164  0.1610 -0.1609  0.1105
 5890SOL    HW129306   4.285   0.762   3.206  1.4253 -0.1175  2.3159
 5890SOL    HW229307   4.341   0.739   3.071 -0.5474 -0.3943  0.2184
 5891SOL     OW29308   0.709   3.143   8.114 -0.2489  0.1121  0.0894
 5891SOL    HW129309   0.741   3.160   8.026 -1.7873  2.1878 -0.0687
 5891SOL    HW229310   0.672   3.230   8.132  0.8566  0.5426  0.2821
 5892SOL     OW29311   1.646   1.959   5.955  0.2141 -0.5663  0.0747
 5892SOL    HW129312   1.734   1.923   5.959 -0.8513 -3.1342  0.6799
 5892SOL    HW229313   1.594   1.879   5.945  1.1228 -1.0855 -0.4366
 5893SOL     OW29314   3.074   0.246   7.977 -0.4420  0.2235 -0.5842
 5893SOL    HW129315   3.036   0.214   8.058 -0.6056 -0.6182 -0.9892
 5893SOL    HW229316   3.087   0.169   7.921  1.9261 -0.4591  0.9017
 5894SOL     OW29317   4.055   4.160  11.232 -0.5858  0.0925 -0.3053
 5894SOL    HW129318   4.022   4.126  11.315  0.3678 -0.3730 -0.1247
 5894SOL    HW229319   4.022   4.097  11.168 -0.5254 -0.7600  0.5208
 5895SOL     OW29320   4.277   4.688   1.389 -0.2208 -0.3382  0.2244
 5895SOL    HW129321   4.293   4.660   1.479  0.0790 -1.8071 -0.2942
 5895SOL    HW229322   4.228   0.034   1.397 -0.0618 -0.3821  1.6348
 5896SOL     OW29323   1.487   4.109   9.548  0.2699  0.4299 -0.2711
 5896SOL    HW129324   1.491   4.057   9.468 -0.6524 -1.1560  0.7069
 5896SOL    HW229325   1.455   4.191   9.511 -1.5213 -0.9321 -1.7437
 5897SOL     OW29326   1.793   2.434  10.250 -0.8845 -0.2853 -0.1229
 5897SOL    HW129327   1.855   2.484  10.197  0.9174 -1.6179  0.7144
 5897SOL    HW229328   1.715   2.489  10.245  0.3744  1.4956 -0.2186
 5898SOL     OW29329   2.537   1.281   7.381 -0.7071 -0.4319 -0.1759
 5898SOL    HW129330   2.499   1.219   7.318  2.6564  0.8212 -3.4435
 5898SOL    HW229331   2.478   1.356   7.373  0.9684  1.0831  1.7424
 5899SOL     OW29332   2.328   0.974   1.841 -0.2547 -0.3029 -0.1774
 5899SOL    HW129333   2.272   0.913   1.793  1.2188 -1.2245 -0.7478
 5899SOL    HW229334   2.390   0.909   1.874 -0.6533 -0.0172  1.1021
 5900SOL     OW29335   2.649   0.757  17.411 -0.3231 -0.3374 -0.4636
 5900SOL    HW129336   2.740   0.743  17.386  0.3055  0.6134  1.2961
 5900SOL    HW229337   2.601   0.727  17.334 -2.2222 -0.9910  0.9590
 5901SOL     OW29338   4.066   4.077   2.231  0.3757  0.0811  0.1955
 5901SOL    HW129339   4.004   4.020   2.275  0.0279 -0.7686 -1.3743
 5901SOL    HW229340   4.012   4.096   2.154  1.3204 -1.4791 -0.8636
 5902SOL     OW29341   1.643   3.692  13.109  0.7485 -0.6126 -0.7149
 5902SOL    HW129342   1.655   3.615  13.164  3.5688  1.8773  2.1235
 5902SOL    HW229343   1.733   3.720  13.095  0.5834  0.5382  0.5145
 5903SOL     OW29344   2.495   3.262   9.688  0.9131 -0.1662 -0.3885
 5903SOL    HW129345   2.567   3.262   9.750 -0.9383  2.6749  1.7633
 5903SOL    HW229346   2.537   3.205   9.624  1.1819 -1.3570  0.8363
 5904SOL     OW29347   4.113   1.493   4.002  0.2651 -0.1066  0.1865
 5904SOL    HW129348   4.137   1.410   3.961 -1.3520 -1.1580  1.3970
 5904SOL    HW229349   4.142   1.485   4.093 -0.4448  1.7662  0.5669
 5905SOL     OW29350   4.440   0.282  16.933 -0.3923 -0.4094  0.3572
 5905SOL    HW129351   4.499   0.322  16.996  1.2880  0.3001 -1.6659
 5905SOL    HW229352   4.408   0.362  16.890  2.5854  0.6851  0.2284
 5906SOL     OW29353   3.547   1.617   7.367  0.0062 -0.2438  0.3881
 5906SOL    HW129354   3.479   1.661   7.417 -1.7676  0.8080 -2.9351
 5906SOL    HW229355   3.495   1.555   7.315  0.2845  0.5615 -0.8436
 5907SOL     OW29356   0.324   1.870   5.733  1.0180  0.1374 -0.9883
 5907SOL    HW129357   0.228   1.873   5.727  1.0149 -1.3198 -1.4814
 5907SOL    HW229358   0.348   1.958   5.763  0.2235  0.5078 -1.4234
 5908SOL     OW29359   4.149   0.287   6.625  0.6717  0.2075 -0.1290
 5908SOL    HW129360   4.068   0.307   6.673  0.2900  0.2686 -0.7911
 5908SOL    HW229361   4.157   0.191   6.631  1.0654  0.3663  1.7324
 5909SOL     OW29362   1.867   1.614   8.956  0.7980 -0.0395  0.1031
 5909SOL    HW129363   1.825   1.660   9.029  0.7735 -0.1315  0.1474
 5909SOL    HW229364   1.819   1.532   8.968  0.8605 -0.2674 -1.2351
 5910SOL     OW29365   4.404   2.704   7.391  0.2718 -0.7713  0.0369
 5910SOL    HW129366   4.338   2.770   7.368 -0.5731 -1.3517  0.8171
 5910SOL    HW229367   4.461   2.725   7.317 -1.5946  1.5009 -0.7845
 5911SOL     OW29368   4.575   0.303  11.403  0.1322 -0.0776 -0.3961
 5911SOL    HW129369   4.628   0.235  11.362 -1.3218 -0.4246 -1.6597
 5911SOL    HW229370   4.508   0.254  11.450 -0.4106  1.5841  0.5727
 5912SOL     OW29371   1.444   0.784   7.289  0.0387  0.0448  0.0255
 5912SOL    HW129372   1.421   0.703   7.243  3.5505 -1.2259  0.5085
 5912SOL    HW229373   1.525   0.814   7.247 -0.5022 -0.4606 -1.3901
 5913SOL     OW29374   2.723   2.750  10.976  0.0339  0.1317  0.3683
 5913SOL    HW129375   2.748   2.668  11.018  2.7287  0.6345 -0.2398
 5913SOL    HW229376   2.803   2.797  11.004 -0.0406 -1.5779  3.4561
 5914SOL     OW29377   4.695   0.788  11.327 -0.8844  0.3039  0.6295
 5914SOL    HW129378   4.735   0.870  11.353 -1.6214  0.9253 -0.2249
 5914SOL    HW229379   0.030   0.725  11.340  0.5612  1.5115 -1.5105
 5915SOL     OW29380   3.516   0.882   6.062  0.1806 -0.8364 -0.0340
 5915SOL    HW129381   3.475   0.929   6.135 -0.3560  0.6766 -1.3236
 5915SOL    HW229382   3.583   0.833   6.109 -0.0097  0.6350  1.7973
 5916SOL     OW29383   3.335   0.973   7.424 -0.3994 -0.9258 -0.1790
 5916SOL    HW129384   3.362   0.888   7.389 -1.5059 -0.6135 -1.7648
 5916SOL    HW229385   3.315   0.938   7.511 -2.3740 -0.5332 -0.4789
 5917SOL     OW29386   3.629   4.634   6.206 -0.1179 -0.1997  0.9304
 5917SOL    HW129387   3.696   4.566   6.203 -0.4099 -0.4134 -0.4941
 5917SOL    HW229388   3.598   4.641   6.116  1.6820 -1.3305  0.2279
 5918SOL     OW29389   0.773   1.502   1.759  0.4065  0.0316  0.0119
 5918SOL    HW129390   0.781   1.420   1.806 -0.0809  0.0270  0.0813
 5918SOL    HW229391   0.787   1.568   1.827 -4.7723  2.3736 -1.2081
 5919SOL     OW29392   3.756   1.608   0.049  0.3283 -0.3198  0.2797
 5919SOL    HW129393   3.801   1.593   0.132  0.4833 -0.1470  0.2260
 5919SOL    HW229394   3.825   1.599  17.726  0.4330  0.7534  0.2527
 5920SOL     OW29395   3.630   3.096   8.340 -0.2312 -0.4025 -0.6719
 5920SOL    HW129396   3.700   3.159   8.358 -1.8343  0.4021  2.7807
 5920SOL    HW229397   3.593   3.130   8.258  1.1510  4.5274  0.7789
 5921SOL     OW29398   2.191   1.617  10.808 -0.6280 -0.6734 -0.0869
 5921SOL    HW129399   2.165   1.573  10.889  0.9579  0.0850  0.8231
 5921SOL    HW229400   2.194   1.542  10.748  1.7414 -0.5440 -0.1224
 5922SOL     OW29401   2.112   3.425   8.403 -0.2703 -0.3781 -0.6329
 5922SOL    HW129402   2.089   3.348   8.456 -2.3277  1.4488  1.1146
 5922SOL    HW229403   2.180   3.392   8.345 -1.9290 -1.8201 -1.7777
 5923SOL     OW29404   1.179   4.467  12.418 -0.5887  0.5260  0.1003
 5923SOL    HW129405   1.207   4.507  12.335  0.6402  1.7182  1.0830
 5923SOL    HW229406   1.222   4.383  12.400  0.3217  0.8428  0.8167
 5924SOL     OW29407   2.348   0.667   1.590  0.0943 -0.3882  0.6658
 5924SOL    HW129408   2.312   0.736   1.645 -0.0250 -0.9696  1.3192
 5924SOL    HW229409   2.436   0.666   1.627  0.6370 -1.1667 -0.6404
 5925SOL     OW29410   0.721   0.090  15.190 -0.1902 -0.3050  0.2304
 5925SOL    HW129411   0.759   0.117  15.107 -1.9869 -1.7264 -1.0548
 5925SOL    HW229412   0.699   0.173  15.233  4.4777  0.7383  0.6012
 5926SOL     OW29413   3.813   3.023   8.825 -0.1153 -0.0868  0.2109
 5926SOL    HW129414   3.866   3.032   8.745  1.3972  0.8113  1.3214
 5926SOL    HW229415   3.882   3.057   8.882 -0.7236  1.0342  0.2956
 5927SOL     OW29416   4.642   2.686   7.715 -0.8122  0.5893  0.0477
 5927SOL    HW129417   4.679   2.663   7.629 -0.0689 -0.5344  0.6682
 5927SOL    HW229418   4.654   2.781   7.724  1.0938  0.3950 -0.3392
 5928SOL     OW29419   2.641   2.806   4.766  0.2804 -0.5968  0.6025
 5928SOL    HW129420   2.662   2.832   4.676 -0.8203  0.5868  0.6746
 5928SOL    HW229421   2.710   2.828   4.828  0.3619  0.8835 -0.0024
 5929SOL     OW29422   2.481   2.907   3.781 -0.6153  0.3572  0.6969
 5929SOL    HW129423   2.386   2.912   3.791 -0.6614 -1.4621  1.1695
 5929SOL    HW229424   2.504   2.979   3.841 -0.8234  0.1652  1.0088
 5930SOL     OW29425   3.595   1.746   0.395 -0.0793  0.7553  0.6854
 5930SOL    HW129426   3.658   1.675   0.383 -0.8131 -0.1607  2.4371
 5930SOL    HW229427   3.559   1.722   0.480  0.6066  2.3620  1.4324
 5931SOL     OW29428   3.108   0.545  12.165  0.2531  0.2072 -0.3947
 5931SOL    HW129429   3.040   0.611  12.175 -0.1016 -0.2769  0.4443
 5931SOL    HW229430   3.183   0.586  12.208  0.8064  0.8596 -2.0214
 5932SOL     OW29431   1.548   3.083   4.001 -0.0705 -0.2674 -0.0593
 5932SOL    HW129432   1.599   3.004   4.022  3.0945  2.5089  2.7769
 5932SOL    HW229433   1.458   3.053   4.009 -0.5534  1.4050  0.7064
 5933SOL     OW29434   0.228   4.227  11.624 -0.3097 -0.1313  0.0832
 5933SOL    HW129435   0.180   4.151  11.591 -1.4628 -0.0666  1.6683
 5933SOL    HW229436   0.185   4.297  11.574  0.9960 -0.2471 -1.2286
 5934SOL     OW29437   2.823   2.893   4.252  0.6985  0.0315 -0.4315
 5934SOL    HW129438   2.899   2.836   4.242  1.1357  0.5533 -0.0381
 5934SOL    HW229439   2.868   2.962   4.204  0.6692  0.8482  0.6996
 5935SOL     OW29440   1.386   4.511   6.100 -0.6973 -0.1158  0.4359
 5935SOL    HW129441   1.403   4.605   6.110 -0.3871 -0.1466  0.2222
 5935SOL    HW229442   1.404   4.482   6.189  0.4135 -0.5964  0.0526
 5936SOL     OW29443   3.472   4.539   0.008  0.2547  0.5907 -0.2767
 5936SOL    HW129444   3.474   4.518   0.101 -0.3308  0.4778 -0.2939
 5936SOL    HW229445   3.563   4.521  17.725 -0.4758 -1.2902 -1.5725
 5937SOL     OW29446   4.518   2.473   3.539 -0.6522  0.1151  0.2134
 5937SOL    HW129447   4.531   2.383   3.569  3.5698  0.6962  0.1623
 5937SOL    HW229448   4.569   2.467   3.458 -1.2622 -1.0429 -0.0866
 5938SOL     OW29449   2.746   0.556   0.761 -0.3472  0.6160  0.3089
 5938SOL    HW129450   2.680   0.550   0.831  0.4399 -3.0773  0.7275
 5938SOL    HW229451   2.689   0.578   0.687  1.3969  1.3463 -0.8070
 5939SOL     OW29452   3.719   3.553   6.691 -0.7957  0.1208 -0.0251
 5939SOL    HW129453   3.788   3.616   6.668 -1.2747 -0.3374 -2.7549
 5939SOL    HW229454   3.716   3.501   6.610  1.9742 -0.8225  0.4846
 5940SOL     OW29455   0.613   3.421   3.514  0.3933  0.0274 -0.2638
 5940SOL    HW129456   0.538   3.471   3.546  1.1285  1.6652 -1.1005
 5940SOL    HW229457   0.684   3.482   3.531  1.8578 -1.9169  0.6203
 5941SOL     OW29458   2.571   4.713   6.527 -0.2009 -0.2846  0.1309
 5941SOL    HW129459   2.578   0.048   6.591  0.7972 -0.1414 -0.1348
 5941SOL    HW229460   2.513   4.651   6.571  0.1273 -0.1885  0.6949
 5942SOL     OW29461   2.832   3.340   3.660  0.6756 -0.1150 -0.4240
 5942SOL    HW129462   2.819   3.427   3.625 -0.4814  0.5218  1.5670
 5942SOL    HW229463   2.793   3.286   3.591 -0.0779 -0.3323  0.1545
 5943SOL     OW29464   2.809   4.411  16.396  0.3788 -0.6301  0.4031
 5943SOL    HW129465   2.715   4.428  16.406  1.0170  2.7726  0.5087
 5943SOL    HW229466   2.804   4.393  16.302  0.1375 -0.6975  0.4290
 5944SOL     OW29467   1.385   0.013   7.930  0.1131  0.3345  0.0235
 5944SOL    HW129468   1.298   0.015   7.889 -0.4744  1.5049  1.3317
 5944SOL    HW229469   1.364   0.005   8.023 -2.0989 -0.9630 -0.5830
 5945SOL     OW29470   0.594   4.177  15.899 -0.1069  0.6056 -0.2620
 5945SOL    HW129471   0.668   4.121  15.874  1.7317  2.0416  2.0142
 5945SOL    HW229472   0.536   4.116  15.943  0.7915  0.3643  0.5790
 5946SOL     OW29473   0.336   0.836   5.496  0.1219 -0.1953  0.5672
 5946SOL    HW129474   0.371   0.807   5.412 -1.7546  0.0605 -0.3024
 5946SOL    HW229475   0.407   0.892   5.528  0.0340 -0.1653  0.7081
 5947SOL     OW29476   1.377   3.757  17.538  0.1478 -0.0799  0.6761
 5947SOL    HW129477   1.310   3.728  17.600 -0.4518 -0.9102 -0.3608
 5947SOL    HW229478   1.392   3.669  17.503 -1.3431 -0.3105  0.5897
 5948SOL     OW29479   2.431   2.651   4.333 -0.4892  0.3630  0.3141
 5948SOL    HW129480   2.431   2.675   4.426 -0.0690 -2.8877  1.1781
 5948SOL    HW229481   2.422   2.736   4.291  1.4971 -0.5047 -1.8793
 5949SOL     OW29482   1.112   4.010  17.566  0.2516 -0.4592  0.1456
 5949SOL    HW129483   1.170   4.084  17.549  0.6713 -0.1541  2.9802
 5949SOL    HW229484   1.079   4.025  17.654 -1.5762 -1.1011 -0.4278
 5950SOL     OW29485   3.455   3.080   6.540 -0.1548  0.1468  0.0392
 5950SOL    HW129486   3.365   3.049   6.536  0.8618 -2.9589  0.8066
 5950SOL    HW229487   3.449   3.165   6.583  1.2965 -0.7784  2.0812
 5951SOL     OW29488   3.322   1.733   4.866 -0.3395 -0.6262  0.5419
 5951SOL    HW129489   3.317   1.710   4.959 -0.2845  1.6456  1.0968
 5951SOL    HW229490   3.269   1.659   4.835 -1.0677  0.2841 -0.3827
 5952SOL     OW29491   1.108   3.441   7.284  0.4103 -0.2491  0.0830
 5952SOL    HW129492   1.015   3.421   7.293  0.1349  1.2788  0.6311
 5952SOL    HW229493   1.093   3.532   7.258 -1.2222 -1.1829 -2.2794
 5953SOL     OW29494   1.418   3.764   5.567 -0.1426  0.1068 -0.1377
 5953SOL    HW129495   1.497   3.750   5.619  0.3074  2.4556 -0.2018
 5953SOL    HW229496   1.364   3.707   5.622 -1.0740  1.0323 -0.0997
 5954SOL     OW29497   4.071   2.661   5.714  0.3588  0.0153  0.2686
 5954SOL    HW129498   4.056   2.627   5.626  1.6084 -1.8608  0.7901
 5954SOL    HW229499   4.035   2.598   5.776 -1.9756 -0.5380 -1.6387
 5955SOL     OW29500   3.637   1.089   3.789 -0.3687  0.1798  0.5426
 5955SOL    HW129501   3.621   1.031   3.864  0.0021  0.2232  0.6541
 5955SOL    HW229502   3.547   1.117   3.772  0.3159  1.3426 -1.0951
 5956SOL     OW29503   1.513   4.516  12.059  0.1483 -0.1274 -0.3873
 5956SOL    HW129504   1.584   4.528  12.122  0.7865 -1.0816 -0.9313
 5956SOL    HW229505   1.551   4.559  11.982 -0.7348  0.3620 -0.5475
 5957SOL     OW29506   3.945   3.974   3.637  0.4064 -0.3460 -0.4553
 5957SOL    HW129507   4.007   3.958   3.566 -0.9626 -0.2352 -1.6903
 5957SOL    HW229508   3.869   3.920   3.615  0.7486 -0.5846 -1.0646
 5958SOL     OW29509   3.561   0.423   1.813  0.3026 -0.4719  0.1809
 5958SOL    HW129510   3.490   0.360   1.820 -0.4646  0.7274  3.1552
 5958SOL    HW229511   3.612   0.390   1.887 -1.1232 -0.6687  1.0715
 5959SOL     OW29512   3.895   1.307  17.715 -0.3727 -0.1036 -0.2775
 5959SOL    HW129513   3.804   1.333  17.720  0.0835  0.9414  2.0671
 5959SOL    HW229514   3.894   1.211  17.724 -0.7601  0.0538  1.1729
 5960SOL     OW29515   1.717   1.644   4.642 -0.0870  0.3478 -0.5830
 5960SOL    HW129516   1.811   1.646   4.660 -0.2591 -1.9105  0.5512
 5960SOL    HW229517   1.705   1.549   4.638  0.3619  0.2865 -0.3869
 5961SOL     OW29518   1.428   3.341   7.075 -0.4539  0.2719 -0.1196
 5961SOL    HW129519   1.370   3.302   7.141 -3.0918  0.4252 -2.3314
 5961SOL    HW229520   1.408   3.292   6.995  1.0657  0.0318 -0.3529
 5962SOL     OW29521   0.956   2.051  15.575  0.1429 -0.5102  0.3036
 5962SOL    HW129522   0.930   2.021  15.487 -0.8591 -0.2074  0.4997
 5962SOL    HW229523   0.917   1.991  15.637  0.7851 -0.7086  0.5124
 5963SOL     OW29524   0.384   0.758   6.400  0.2533 -0.1562  0.4189
 5963SOL    HW129525   0.316   0.817   6.368 -2.8240 -3.6002  0.6526
 5963SOL    HW229526   0.450   0.767   6.331 -0.0873 -1.5598 -0.1006
 5964SOL     OW29527   1.047   3.206  15.251  0.1193  1.2730 -0.4201
 5964SOL    HW129528   1.099   3.249  15.319 -0.8757 -0.5552  1.4933
 5964SOL    HW229529   0.970   3.170  15.295  0.2883 -0.5049 -1.5511
 5965SOL     OW29530   2.768   4.615  10.527  0.2592  0.4478  0.7416
 5965SOL    HW129531   2.769   4.627  10.622  2.1698 -1.0188  0.9045
 5965SOL    HW229532   2.741   4.704  10.503 -1.4069  0.0828  1.2697
 5966SOL     OW29533   1.208   0.603   6.950 -0.0599  0.3471  0.5123
 5966SOL    HW129534   1.133   0.662   6.945  0.9731  1.5746 -0.5046
 5966SOL    HW229535   1.194   0.538   6.881  0.8356  2.2070 -1.4206
 5967SOL     OW29536   0.248   0.469  10.556  0.1213 -0.2122 -0.2025
 5967SOL    HW129537   0.209   0.417  10.485  0.0521 -2.9668  1.8349
 5967SOL    HW229538   0.174   0.462  10.617 -1.0498 -0.9628 -1.6801
 5968SOL     OW29539   2.264   1.174   9.416 -0.0011  0.3262  0.0689
 5968SOL    HW129540   2.288   1.225   9.493 -1.5062 -0.2619  0.9252
 5968SOL    HW229541   2.172   1.200   9.412  0.1477  1.0384  1.5762
 5969SOL     OW29542   0.958   1.178   5.277 -0.0888  0.3677  0.2810
 5969SOL    HW129543   0.978   1.091   5.242 -1.7332 -0.1496  0.6436
 5969SOL    HW229544   0.870   1.185   5.239 -0.8735  0.6649  2.1795
 5970SOL     OW29545   1.861   0.713   7.363 -0.1440 -0.0126 -0.5872
 5970SOL    HW129546   1.951   0.689   7.388 -0.8869 -3.2625 -0.9773
 5970SOL    HW229547   1.860   0.702   7.268 -1.3410  0.7464 -0.6567
 5971SOL     OW29548   0.184   0.378   8.279  0.2562  0.0615  0.3350
 5971SOL    HW129549   0.206   0.303   8.334  0.2329 -1.9102 -2.3737
 5971SOL    HW229550   0.106   0.349   8.231  0.1958  0.7147  0.0373
 5972SOL     OW29551   1.243   0.762   3.557  0.3652  0.3805  0.1300
 5972SOL    HW129552   1.201   0.712   3.487 -1.9716  1.2843  0.9195
 5972SOL    HW229553   1.167   0.812   3.586 -0.7744 -1.8815  1.0156
 5973SOL     OW29554   3.293   3.629  11.555 -0.4756  0.3582 -0.3153
 5973SOL    HW129555   3.326   3.642  11.466 -4.1757 -1.6742 -1.9758
 5973SOL    HW229556   3.340   3.699  11.601 -2.7981  0.6522  1.5988
 5974SOL     OW29557   2.109   0.645   7.492 -0.1416  0.5412  0.3487
 5974SOL    HW129558   2.179   0.684   7.440 -0.3461  0.2730 -0.1276
 5974SOL    HW229559   2.109   0.702   7.569 -2.1875  1.4363 -0.2848
 5975SOL     OW29560   2.500   1.331  14.623  0.1991  0.3607  0.1126
 5975SOL    HW129561   2.484   1.423  14.642 -1.7807 -0.1736  1.0533
 5975SOL    HW229562   2.487   1.285  14.706  0.4241 -0.8705 -0.5372
 5976SOL     OW29563   0.304   2.857   7.819  0.6378 -0.1558 -0.4200
 5976SOL    HW129564   0.379   2.811   7.856 -1.1908 -1.4356  1.6557
 5976SOL    HW229565   0.227   2.820   7.862  0.0978 -1.0315 -2.1503
 5977SOL     OW29566   1.757   2.537  14.594 -0.1453 -0.1472 -0.0211
 5977SOL    HW129567   1.778   2.508  14.683  2.1839  1.5332 -0.0168
 5977SOL    HW229568   1.670   2.572  14.612 -0.5701 -0.1407 -2.1692
 5978SOL     OW29569   2.351   0.660   6.373 -0.0935 -0.2448  0.0841
 5978SOL    HW129570   2.394   0.679   6.456 -2.5837 -2.2708  1.8290
 5978SOL    HW229571   2.359   0.565   6.374 -0.0654 -0.2723 -2.5471
 5979SOL     OW29572   0.610   1.627   2.900 -0.2573 -0.1350  0.7003
 5979SOL    HW129573   0.617   1.532   2.901  0.9782 -0.0632 -0.6292
 5979SOL    HW229574   0.541   1.638   2.965  0.4120  5.2400  0.5135
 5980SOL     OW29575   4.553   3.057   5.493  0.4348 -0.1114 -0.6205
 5980SOL    HW129576   4.642   3.041   5.523  0.8642  1.1010 -1.2745
 5980SOL    HW229577   4.566   3.071   5.399  0.1447  0.7648 -0.5280
 5981SOL     OW29578   3.842   4.273   7.322 -0.1158  0.5589 -0.3398
 5981SOL    HW129579   3.750   4.271   7.347 -0.7542 -0.6159 -2.7822
 5981SOL    HW229580   3.885   4.266   7.407 -2.1523  0.7466  0.7037
 5982SOL     OW29581   1.823   2.958   6.988  0.1712  0.0363 -0.3257
 5982SOL    HW129582   1.886   2.889   6.968 -0.3162 -0.4561 -0.1618
 5982SOL    HW229583   1.752   2.956   6.923 -1.2461 -1.5713  1.2739
 5983SOL     OW29584   2.175   2.958   4.036  0.4773  0.1973  0.1242
 5983SOL    HW129585   2.164   2.984   3.945 -1.8920  0.6964  0.5563
 5983SOL    HW229586   2.118   3.018   4.085  0.2751  0.1485 -0.0508
 5984SOL     OW29587   0.987   2.916  12.299  0.3282 -0.3093  0.4969
 5984SOL    HW129588   0.972   2.823  12.279 -2.3640  0.8061 -2.7127
 5984SOL    HW229589   1.064   2.907  12.356 -0.3615  2.2545  1.8340
 5985SOL     OW29590   1.426   1.585   7.762  0.0890  0.3953 -0.0163
 5985SOL    HW129591   1.415   1.518   7.830 -2.0979  0.5780 -0.1957
 5985SOL    HW229592   1.490   1.554   7.698 -0.0585 -0.5644  0.2986
 5986SOL     OW29593   3.823   3.748  16.676 -0.3242  0.3289  0.5350
 5986SOL    HW129594   3.902   3.696  16.660  0.0006  1.7666 -2.7064
 5986SOL    HW229595   3.817   3.746  16.771 -0.8510  1.2302  0.5223
 5987SOL     OW29596   3.182   1.576  15.651  0.0688  0.1161 -0.2645
 5987SOL    HW129597   3.273   1.606  15.653 -0.2442  1.0637 -0.0279
 5987SOL    HW229598   3.183   1.525  15.570  0.7159  1.1292 -0.8942
 5988SOL     OW29599   0.304   1.955   6.682 -0.4598  0.3698  0.1321
 5988SOL    HW129600   0.281   1.889   6.747  1.0898 -2.5817 -2.2938
 5988SOL    HW229601   0.361   2.013   6.732 -0.5947 -0.8028  1.6407
 5989SOL     OW29602   4.217   3.103   5.371 -0.0138 -0.5674 -0.3655
 5989SOL    HW129603   4.243   3.099   5.463 -0.6459 -1.5048 -0.2316
 5989SOL    HW229604   4.192   3.012   5.360 -1.0435 -0.1839 -1.2554
 5990SOL     OW29605   3.469   2.088   4.534  0.6396 -0.1325  0.9018
 5990SOL    HW129606   3.450   2.040   4.453 -1.8209 -2.5155  2.9339
 5990SOL    HW229607   3.427   2.172   4.515  1.5115 -0.4215 -2.4058
 5991SOL     OW29608   4.501   2.222   3.896 -0.1054 -1.4940 -0.1789
 5991SOL    HW129609   4.495   2.226   3.800  0.7836 -1.5520 -0.2436
 5991SOL    HW229610   4.446   2.144   3.902 -3.4735  0.9531  0.6728
 5992SOL     OW29611   1.997   2.898   3.424 -0.2082 -0.3525  0.4801
 5992SOL    HW129612   1.938   2.895   3.349  2.1281  1.5567 -1.4340
 5992SOL    HW229613   1.967   2.972   3.478 -0.4556 -1.7841  2.2946
 5993SOL     OW29614   0.646   0.522  13.878 -0.1013 -0.0895 -0.5580
 5993SOL    HW129615   0.570   0.562  13.835  0.3264  1.8208  0.4569
 5993SOL    HW229616   0.606   0.474  13.950  0.3079  2.8994  1.6819
 5994SOL     OW29617   2.555   3.247  15.136 -0.0303  0.6083  0.0640
 5994SOL    HW129618   2.650   3.257  15.143 -0.3368  2.6167  1.4500
 5994SOL    HW229619   2.554   3.154  15.155 -0.1271  0.5493 -0.2293
 5995SOL     OW29620   1.520   4.031   4.108 -0.5089 -0.7907 -0.7048
 5995SOL    HW129621   1.567   4.061   4.030  0.2171 -0.7840 -0.2679
 5995SOL    HW229622   1.578   4.081   4.166 -0.7824  1.6774 -2.5948
 5996SOL     OW29623   0.825   1.306   4.944 -0.3565  0.2837 -0.3772
 5996SOL    HW129624   0.903   1.258   4.918 -0.2276  0.5623 -0.5136
 5996SOL    HW229625   0.843   1.389   4.899  0.9604 -0.2783 -0.8657
 5997SOL     OW29626   1.320   1.412   6.200  0.2246  0.3813 -0.2737
 5997SOL    HW129627   1.233   1.372   6.208  0.7857 -1.3443 -2.8482
 5997SOL    HW229628   1.301   1.462   6.121  0.5211 -0.7771 -1.0886
 5998SOL     OW29629   4.682   3.022   7.332  0.4581  0.0898  0.9154
 5998SOL    HW129630   4.730   3.089   7.380  2.0644 -1.3944  1.3895
 5998SOL    HW229631   0.000   2.948   7.361  1.4627  0.8234  0.9200
 5999SOL     OW29632   1.950   3.593   6.813 -0.4139  0.5472  0.0419
 5999SOL    HW129633   1.943   3.586   6.718  1.1589 -1.1853  0.0454
 5999SOL    HW229634   2.024   3.652   6.826 -1.1203  1.3282  0.5653
 6000SOL     OW29635   3.109   0.481   6.592 -0.0098  0.0557  0.0733
 6000SOL    HW129636   3.049   0.494   6.518 -0.4256 -0.8562  0.2577
 6000SOL    HW229637   3.090   0.392   6.622 -2.1504  0.0295 -1.3246
 6001SOL     OW29638   0.903   2.858  12.038 -0.4241 -0.2413  0.1693
 6001SOL    HW129639   0.991   2.829  12.015 -0.6808 -1.0941  0.2553
 6001SOL    HW229640   0.901   2.942  11.993 -1.1050  0.4642  1.5121
 6002SOL     OW29641   2.333   0.248  11.473  0.3765  0.1513 -0.5134
 6002SOL    HW129642   2.426   0.272  11.479  0.4669  0.2573 -2.5089
 6002SOL    HW229643   2.335   0.210  11.385  2.4165 -0.6823 -0.1053
 6003SOL     OW29644   2.084   1.135   5.936  0.8345 -0.0763 -0.5037
 6003SOL    HW129645   2.162   1.092   5.973 -0.0940 -0.3367  1.1547
 6003SOL    HW229646   2.111   1.226   5.948  0.3786 -0.0687  0.4727
 6004SOL     OW29647   1.098   3.821   2.380 -0.0519 -0.6511 -0.8525
 6004SOL    HW129648   1.145   3.760   2.322 -0.1177 -1.3574 -0.1523
 6004SOL    HW229649   1.170   3.879   2.403 -0.8923  0.1499 -0.2631
 6005SOL     OW29650   1.296   2.367  17.656 -0.1908  0.3101 -0.4012
 6005SOL    HW129651   1.319   2.453  17.620 -0.4919  0.0672 -1.1852
 6005SOL    HW229652   1.245   2.319  17.590  0.1095 -2.0549  1.1126
 6006SOL     OW29653   4.694   0.038  16.481 -0.2168 -0.4082  0.4627
 6006SOL    HW129654   0.045   0.014  16.449 -0.9842 -1.6233 -0.7320
 6006SOL    HW229655   4.644   0.052  16.401  0.0641  0.7965  0.5028
 6007SOL     OW29656   0.944   1.211   3.904 -0.1322 -0.5009  0.6901
 6007SOL    HW129657   0.884   1.138   3.912 -1.6321  0.6618 -0.0397
 6007SOL    HW229658   0.933   1.257   3.987 -1.6720 -2.5624  1.6301
 6008SOL     OW29659   4.599   0.830  11.709  0.5904 -0.2392 -0.4069
 6008SOL    HW129660   4.552   0.869  11.783  0.4547 -3.4762  1.2372
 6008SOL    HW229661   4.661   0.901  11.693 -2.0312  1.6962 -1.9264
 6009SOL     OW29662   3.859   4.017   9.667 -0.2184 -0.3776 -0.0148
 6009SOL    HW129663   3.809   3.941   9.695 -2.1655  0.9834  0.1812
 6009SOL    HW229664   3.818   4.037   9.583  0.6738 -1.0519 -0.6169
 6010SOL     OW29665   4.389   3.139   3.395 -0.1971  0.4240 -0.5038
 6010SOL    HW129666   4.464   3.137   3.336  1.5864 -0.6439  1.7970
 6010SOL    HW229667   4.323   3.157   3.328  0.7087 -1.6264 -1.9678
 6011SOL     OW29668   0.145   1.332   9.635 -0.8644  0.0257 -0.4346
 6011SOL    HW129669   0.131   1.417   9.675 -1.7300  0.0080 -0.6850
 6011SOL    HW229670   0.230   1.336   9.591 -0.9148 -1.9671 -0.7179
 6012SOL     OW29671   2.451   0.028   3.171 -0.0135  0.6447 -0.0679
 6012SOL    HW129672   2.528   4.708   3.184  0.9671  2.1117  0.3785
 6012SOL    HW229673   2.404   0.006   3.251  1.9127 -0.1742  0.8382
 6013SOL     OW29674   0.527   1.431   5.580 -0.1428 -0.2752  0.7426
 6013SOL    HW129675   0.513   1.378   5.658  1.6810 -0.1703  1.1373
 6013SOL    HW229676   0.590   1.487   5.626 -0.3912  0.9069 -0.3481
 6014SOL     OW29677   3.645   0.537   6.584 -0.8058 -0.0720 -0.6934
 6014SOL    HW129678   3.606   0.476   6.646  0.9743 -0.5216 -0.0304
 6014SOL    HW229679   3.576   0.533   6.518 -0.9713  0.7361 -0.5734
 6015SOL     OW29680   2.941   3.987   2.115  0.0254  0.5301 -0.3062
 6015SOL    HW129681   2.965   4.006   2.206  0.1851 -0.3803 -0.1595
 6015SOL    HW229682   3.021   3.946   2.081  2.2265  1.4846  3.5958
 6016SOL     OW29683   3.042   4.092   9.099 -0.5216  0.1074 -0.2471
 6016SOL    HW129684   3.039   4.137   9.015 -0.7650 -0.1002 -0.3509
 6016SOL    HW229685   3.090   4.157   9.148 -1.3827  0.6064 -0.0648
 6017SOL     OW29686   2.723   4.385  12.134  0.5707 -0.0499  0.3692
 6017SOL    HW129687   2.774   4.371  12.054  0.7961 -1.5523  0.7849
 6017SOL    HW229688   2.779   4.428  12.199  0.4682 -0.7544  0.9235
 6018SOL     OW29689   4.404   2.210   8.461 -0.0560  0.4159 -0.3409
 6018SOL    HW129690   4.497   2.236   8.465  0.9878 -3.4548  0.4601
 6018SOL    HW229691   4.407   2.127   8.508  0.0790  1.2033  1.0501
 6019SOL     OW29692   3.440   0.897   8.950  0.3185  0.3411 -0.0205
 6019SOL    HW129693   3.447   0.876   9.043  1.4271  2.7242  0.4420
 6019SOL    HW229694   3.523   0.944   8.940  0.1726  0.3738 -1.1589
 6020SOL     OW29695   2.057   0.415   1.697 -0.2585 -0.2456 -0.1575
 6020SOL    HW129696   2.143   0.457   1.695  0.1237 -1.0778 -2.0680
 6020SOL    HW229697   2.038   0.406   1.603  0.2625  0.3488 -0.3181
 6021SOL     OW29698   0.150   1.239   7.518  0.1422  0.2782  0.0461
 6021SOL    HW129699   0.094   1.284   7.582 -0.3418  0.9587 -0.8534
 6021SOL    HW229700   0.231   1.269   7.558 -1.0922  1.7487  1.4536
 6022SOL     OW29701   4.367   2.404   9.536 -0.7375 -0.0975 -0.3340
 6022SOL    HW129702   4.329   2.481   9.578 -2.7980 -0.4432 -1.5717
 6022SOL    HW229703   4.423   2.372   9.607 -2.6947 -2.0549  0.3195
 6023SOL     OW29704   3.692   2.714  12.456  0.0316  0.3510 -0.3194
 6023SOL    HW129705   3.701   2.775  12.530 -0.9413 -0.4405  0.4627
 6023SOL    HW229706   3.657   2.769  12.386  0.6277 -0.0133 -0.8914
 6024SOL     OW29707   2.520   0.881   8.828  0.4505  0.0169 -0.6301
 6024SOL    HW129708   2.591   0.820   8.811  0.6620 -0.3562  1.6591
 6024SOL    HW229709   2.489   0.846   8.911 -0.4230 -1.1762 -1.4670
 6025SOL     OW29710   4.448   0.139  17.720  0.1803 -0.5807 -0.1576
 6025SOL    HW129711   4.391   0.140  17.643 -2.0388  0.3198  1.5120
 6025SOL    HW229712   4.486   0.051  17.710 -1.6582 -1.1272 -2.2429
 6026SOL     OW29713   3.151   3.414   6.267  0.2469 -0.2301 -0.4646
 6026SOL    HW129714   3.129   3.324   6.244  0.9179 -0.6758  0.6369
 6026SOL    HW229715   3.176   3.408   6.359  0.4977  1.1282 -0.4470
 6027SOL     OW29716   0.341   0.494   0.981  0.4269 -1.0826 -0.1260
 6027SOL    HW129717   0.353   0.423   1.045 -1.2309  0.1854  1.5649
 6027SOL    HW229718   0.385   0.453   0.906  0.5357 -0.4185 -0.4211
 6028SOL     OW29719   1.511   4.328   7.304  0.1879 -0.7852 -0.0003
 6028SOL    HW129720   1.477   4.373   7.381 -0.3858 -0.7178 -0.2951
 6028SOL    HW229721   1.599   4.299   7.330 -0.3160 -1.6379  0.7254
 6029SOL     OW29722   3.324   4.688  15.398 -0.8353  0.3371 -0.1019
 6029SOL    HW129723   3.274   4.612  15.369  0.2466  0.1112 -1.3766
 6029SOL    HW229724   3.262   4.734  15.454 -0.1245 -1.9038  2.5381
 6030SOL     OW29725   4.528   2.757   6.446 -0.0344 -0.0971 -0.5725
 6030SOL    HW129726   4.462   2.812   6.488 -0.1598 -2.0762  1.7990
 6030SOL    HW229727   4.599   2.817   6.427  1.0767 -1.5304 -0.9855
 6031SOL     OW29728   0.393   1.418   7.997 -0.1471  0.2143 -0.4962
 6031SOL    HW129729   0.375   1.387   8.086 -2.2156 -0.0001 -0.9888
 6031SOL    HW229730   0.369   1.338   7.950 -1.3297  0.1403  0.2356
 6032SOL     OW29731   0.044   0.349  11.739  0.5593  0.6469  0.4587
 6032SOL    HW129732   0.090   0.337  11.822 -1.4315  3.2667  1.9413
 6032SOL    HW229733   0.049   0.444  11.730  0.4793  0.6004 -0.0722
 6033SOL     OW29734   0.326   0.118   3.142  0.4731  0.3400 -0.0841
 6033SOL    HW129735   0.261   0.096   3.076  1.9215  1.1043 -1.7836
 6033SOL    HW229736   0.303   0.208   3.164 -0.9518 -0.3273  1.1054
 6034SOL     OW29737   1.438   1.586  15.333 -0.4033 -0.0374  0.1000
 6034SOL    HW129738   1.424   1.510  15.389  0.6888 -0.9409 -0.8606
 6034SOL    HW229739   1.506   1.564  15.270  0.0608 -0.7977  0.8683
 6035SOL     OW29740   1.440   3.107  13.847  0.4956  0.4218  0.1640
 6035SOL    HW129741   1.350   3.079  13.861 -0.3925  2.3402 -1.7317
 6035SOL    HW229742   1.421   3.194  13.811 -0.1698  0.1483 -0.1343
 6036SOL     OW29743   1.920   1.803   8.085  0.5153  0.0884  0.2547
 6036SOL    HW129744   1.992   1.745   8.059  0.7786  0.9283 -0.8853
 6036SOL    HW229745   1.853   1.736   8.096  1.3084 -0.2480  3.1388
 6037SOL     OW29746   1.089   3.502   7.835 -0.0677 -0.5808 -0.3294
 6037SOL    HW129747   1.148   3.519   7.762  1.4898 -1.7889  0.6517
 6037SOL    HW229748   1.158   3.503   7.901 -0.5143 -1.2711  0.1494
 6038SOL     OW29749   0.341   3.900  12.882 -0.1230 -0.6935  0.0763
 6038SOL    HW129750   0.398   3.955  12.934  2.7333 -2.1922 -1.4766
 6038SOL    HW229751   0.327   3.831  12.947  0.6683 -0.5983  0.3458
 6039SOL     OW29752   2.019   4.092   2.026 -0.5342  0.4590  0.1706
 6039SOL    HW129753   2.106   4.128   2.007 -0.0265 -0.4753  0.7473
 6039SOL    HW229754   1.976   4.122   1.946 -0.2533  1.7183  0.4872
 6040SOL     OW29755   0.048   4.502   7.299  0.6372 -0.5775  0.3479
 6040SOL    HW129756   0.061   4.539   7.211 -1.0048  0.7369  0.6571
 6040SOL    HW229757   0.014   4.579   7.346 -0.6039  0.3146 -2.0414
 6041SOL     OW29758   2.788   0.579  15.178  0.0832 -0.0194  0.1866
 6041SOL    HW129759   2.735   0.653  15.205 -2.7888 -1.8023 -0.5394
 6041SOL    HW229760   2.774   0.595  15.084 -1.1886  2.1710  0.7511
 6042SOL     OW29761   1.190   1.539   5.505  0.1730 -0.0987  0.1917
 6042SOL    HW129762   1.196   1.486   5.425 -0.1123  0.0399  0.0785
 6042SOL    HW229763   1.133   1.488   5.563 -0.3746 -0.3309 -0.5522
 6043SOL     OW29764   4.210   2.497   6.474  0.0743 -0.0200  0.0664
 6043SOL    HW129765   4.228   2.586   6.503  2.8065 -0.2524 -0.8654
 6043SOL    HW229766   4.227   2.509   6.380 -0.9509  0.7380 -0.0173
 6044SOL     OW29767   3.979   1.703   6.746  0.2468 -0.5202  0.0571
 6044SOL    HW129768   3.971   1.771   6.680 -1.8911  0.2509  1.1275
 6044SOL    HW229769   4.013   1.632   6.691  1.7819 -1.1677  1.8177
 6045SOL     OW29770   2.471   2.258  11.973  0.4807  0.7330 -0.1426
 6045SOL    HW129771   2.542   2.291  12.028  0.7255  0.5072 -0.3271
 6045SOL    HW229772   2.406   2.229  12.038 -0.7955  2.1881 -0.7668
 6046SOL     OW29773   1.695   1.607   2.165 -0.0445  0.1669  1.3136
 6046SOL    HW129774   1.619   1.624   2.221 -0.6948 -0.2743  0.5585
 6046SOL    HW229775   1.691   1.680   2.104  2.7416 -0.1792  0.7414
 6047SOL     OW29776   2.730   1.978   6.443 -0.1722 -0.1019  0.3436
 6047SOL    HW129777   2.813   1.982   6.490 -0.2910 -0.5093  0.5932
 6047SOL    HW229778   2.675   2.049   6.476 -1.6497 -0.8799 -0.4511
 6048SOL     OW29779   3.423   0.371   4.170  0.3137  0.4178  0.1652
 6048SOL    HW129780   3.444   0.319   4.092  2.3138  1.7018 -0.1587
 6048SOL    HW229781   3.339   0.409   4.145  2.4439  3.1105 -3.0382
 6049SOL     OW29782   4.374   2.467   4.618 -0.3161  0.3071 -0.7098
 6049SOL    HW129783   4.436   2.537   4.638  0.7606 -0.8897  0.1183
 6049SOL    HW229784   4.418   2.392   4.659  2.1566  0.8047 -2.4268
 6050SOL     OW29785   1.094   0.304   0.347  0.3440  0.9916  0.3344
 6050SOL    HW129786   1.187   0.328   0.342  0.2034  1.3031 -0.8962
 6050SOL    HW229787   1.073   0.311   0.440  1.0653  0.1129  0.5752
 6051SOL     OW29788   0.999   3.772   8.724 -0.9471  0.4056  0.0584
 6051SOL    HW129789   0.981   3.681   8.747  0.9864  0.2353  0.9093
 6051SOL    HW229790   1.087   3.754   8.690 -2.0040 -1.1091 -1.8824
 6052SOL     OW29791   3.316   0.298   7.308 -0.1386  0.1167 -0.5377
 6052SOL    HW129792   3.296   0.277   7.400 -2.9446 -1.7026 -1.5476
 6052SOL    HW229793   3.293   0.390   7.295 -0.0655  0.3151  0.7327
 6053SOL     OW29794   1.429   3.678  11.878 -0.4091  0.0423 -0.0885
 6053SOL    HW129795   1.362   3.691  11.811 -1.3029 -0.3301  0.7224
 6053SOL    HW229796   1.496   3.643  11.820 -0.5818  0.3691 -0.4837
 6054SOL     OW29797   1.082   1.896   6.661 -0.0290 -0.1977  0.3579
 6054SOL    HW129798   1.017   1.903   6.731 -1.2875 -1.4632 -0.6734
 6054SOL    HW229799   1.161   1.896   6.714 -2.4307  0.2843  3.9596
 6055SOL     OW29800   2.582   0.201   5.258  0.2707  0.3210  0.0722
 6055SOL    HW129801   2.493   0.170   5.275  1.3015 -1.4184  2.3323
 6055SOL    HW229802   2.588   0.200   5.163 -1.9429 -0.9045 -0.0531
 6056SOL     OW29803   2.711   3.616   1.788 -0.1715  0.3458 -0.7747
 6056SOL    HW129804   2.741   3.534   1.826  2.2423  1.6342  0.1007
 6056SOL    HW229805   2.791   3.660   1.815 -0.6365  1.7722 -1.6789
 6057SOL     OW29806   3.941   0.184   1.761 -0.0636  0.1232  0.2128
 6057SOL    HW129807   4.008   0.116   1.770 -0.6118 -0.3253  0.8942
 6057SOL    HW229808   3.997   0.260   1.777  0.7905 -0.6567  0.9266
 6058SOL     OW29809   3.050   1.604   6.777 -0.1751  0.5915 -0.4902
 6058SOL    HW129810   2.958   1.597   6.803 -0.8586 -2.5803 -3.8420
 6058SOL    HW229811   3.054   1.520   6.731 -1.5453  0.8795 -1.1336
 6059SOL     OW29812   1.785   4.098   6.851 -1.0353 -0.0983 -0.5730
 6059SOL    HW129813   1.816   4.008   6.865  0.0229  0.2742 -0.5533
 6059SOL    HW229814   1.750   4.091   6.762 -1.6090  2.9514 -0.5925
 6060SOL     OW29815   3.431   1.694  14.820  0.5259 -0.0387  0.1377
 6060SOL    HW129816   3.510   1.663  14.776  0.4761 -3.1137  2.2339
 6060SOL    HW229817   3.439   1.783  14.787 -2.2803  0.1009 -0.1631
 6061SOL     OW29818   4.677   4.716  10.105 -0.4214  0.2048 -0.3123
 6061SOL    HW129819   4.680   0.030  10.024 -0.1010  0.8625  0.0962
 6061SOL    HW229820   4.657   4.634  10.060  0.0780  0.4117 -0.9058
 6062SOL     OW29821   1.311   0.622   2.985 -0.4953  0.1511  0.1253
 6062SOL    HW129822   1.311   0.621   2.889  2.7741  0.9281  0.1147
 6062SOL    HW229823   1.399   0.587   3.002 -0.6488  0.0645  0.7295
 6063SOL     OW29824   2.960   4.149   0.129  0.1377  0.0767 -0.0874
 6063SOL    HW129825   2.992   4.206   0.199  0.1301  0.3356 -0.2959
 6063SOL    HW229826   3.037   4.125   0.076  0.6789  2.2539 -0.2811
 6064SOL     OW29827   3.022   1.505   1.969 -0.0498  0.1940 -0.1050
 6064SOL    HW129828   3.017   1.518   2.064  2.7405  1.6597 -0.1420
 6064SOL    HW229829   2.938   1.541   1.941  0.2433  1.6653  0.8506
 6065SOL     OW29830   4.566   2.465  16.916  0.1094 -0.9323  0.0803
 6065SOL    HW129831   4.545   2.558  16.921 -0.3042 -1.0200 -0.0689
 6065SOL    HW229832   4.643   2.469  16.974 -1.8796 -2.0509  2.8113
 6066SOL     OW29833   3.059   3.781  11.588 -0.3295 -0.2503 -0.2340
 6066SOL    HW129834   3.086   3.747  11.673 -0.6296 -1.3479 -0.5800
 6066SOL    HW229835   2.985   3.827  11.628  0.1846 -0.0943  0.5399
 6067SOL     OW29836   4.565   1.443  11.057 -0.3058 -0.1181  0.1512
 6067SOL    HW129837   4.474   1.449  11.030 -0.3398 -0.3155  0.2174
 6067SOL    HW229838   4.559   1.419  11.150 -2.1923 -0.6842 -0.1159
 6068SOL     OW29839   1.884   4.415   2.192  0.4174 -0.4640  0.1850
 6068SOL    HW129840   1.967   4.426   2.147  0.1376  0.4155 -0.1233
 6068SOL    HW229841   1.822   4.444   2.125 -0.2654  0.5637  1.2532
 6069SOL     OW29842   1.638   2.256   7.585 -0.3558 -0.2048  0.0812
 6069SOL    HW129843   1.550   2.224   7.602 -0.3940 -0.7361 -1.0637
 6069SOL    HW229844   1.629   2.279   7.492  1.4471  1.0761  0.2120
 6070SOL     OW29845   2.272   0.806   7.348 -0.2944  0.0802  0.4088
 6070SOL    HW129846   2.280   0.869   7.420 -1.6535 -0.0798  0.7060
 6070SOL    HW229847   2.358   0.799   7.306 -0.5510  0.3121 -0.1504
 6071SOL     OW29848   1.218   0.650   3.266 -0.3943  0.0738 -0.3100
 6071SOL    HW129849   1.128   0.681   3.256 -0.8472 -1.2455 -0.2688
 6071SOL    HW229850   1.246   0.656   3.175 -1.2534  0.2446 -0.5602
 6072SOL     OW29851   3.679   3.447   8.540 -0.1235  0.1345  0.8765
 6072SOL    HW129852   3.701   3.401   8.621 -1.6058 -1.3993  0.3954
 6072SOL    HW229853   3.686   3.539   8.567 -1.4581  0.8865 -1.3151
 6073SOL     OW29854   3.445   1.173  15.325 -0.0626  0.3779  0.4284
 6073SOL    HW129855   3.357   1.143  15.303  0.0495  1.3348 -1.3099
 6073SOL    HW229856   3.491   1.146  15.246 -1.6606 -0.8306 -0.0657
 6074SOL     OW29857   2.555   2.655   5.949  0.1692 -0.6507 -0.2148
 6074SOL    HW129858   2.532   2.574   5.903 -1.4114 -0.1107 -0.3706
 6074SOL    HW229859   2.602   2.611   6.019 -1.0941 -2.0032 -0.1978
 6075SOL     OW29860   2.941   1.526   7.730 -0.6486 -0.5532  0.0957
 6075SOL    HW129861   2.966   1.553   7.818 -2.4456 -2.6380  1.2388
 6075SOL    HW229862   2.995   1.582   7.674 -0.1289  1.3190  2.4826
 6076SOL     OW29863   4.696   0.612  16.068  0.1512 -0.5054 -0.2518
 6076SOL    HW129864   4.724   0.678  16.004 -1.4656  1.1936  0.7653
 6076SOL    HW229865   4.645   0.548  16.019  1.3905  0.2861 -2.5746
 6077SOL     OW29866   2.411   2.519   9.235  0.2363 -0.0992  0.1937
 6077SOL    HW129867   2.333   2.472   9.204  0.2769  0.8064 -1.2730
 6077SOL    HW229868   2.422   2.594   9.177  0.0068 -0.7043 -0.6324
 6078SOL     OW29869   0.092   2.698  17.591  0.0640  0.4561 -0.0606
 6078SOL    HW129870   0.170   2.643  17.593  1.3246  2.3014  0.7932
 6078SOL    HW229871   0.057   2.684  17.679  0.6686 -1.2549 -0.1021
 6079SOL     OW29872   2.773   0.940  14.252 -0.2055  0.4689 -0.0171
 6079SOL    HW129873   2.861   0.926  14.218 -0.2771  2.8066 -1.1127
 6079SOL    HW229874   2.730   0.857  14.232  1.4448  0.2078 -2.4781
 6080SOL     OW29875   3.183   4.310   5.600 -0.2692 -0.0851  0.2660
 6080SOL    HW129876   3.095   4.277   5.583  0.7541 -2.0946 -1.1446
 6080SOL    HW229877   3.239   4.257   5.544  0.5534  2.7471 -1.5863
 6081SOL     OW29878   1.406   0.306   6.057  0.0571 -0.0974 -0.1293
 6081SOL    HW129879   1.467   0.320   6.130  0.8581 -0.1900 -0.7808
 6081SOL    HW229880   1.400   0.397   6.026  0.9446  0.3424  0.9826
 6082SOL     OW29881   2.357   3.006  17.079  0.0209 -0.2676  0.9601
 6082SOL    HW129882   2.389   2.916  17.076 -1.1136 -0.6529  0.1861
 6082SOL    HW229883   2.428   3.056  17.039  0.0290 -1.1561 -0.1444
 6083SOL     OW29884   1.846   0.651  11.906  0.1353 -0.2202  0.8025
 6083SOL    HW129885   1.805   0.649  11.820  2.0601 -0.7967 -0.0843
 6083SOL    HW229886   1.868   0.745  11.908  2.3498 -0.7552  2.0917
 6084SOL     OW29887   3.046   2.918  13.668  0.5441  0.5061  0.4664
 6084SOL    HW129888   2.966   2.934  13.618  0.7911 -2.3097 -0.8388
 6084SOL    HW229889   3.032   2.827  13.693  2.0639  0.1674  0.1187
 6085SOL     OW29890   1.127   1.966   3.111 -0.5000 -0.1558 -0.3312
 6085SOL    HW129891   1.137   2.019   3.190  0.8332  0.4812 -0.9186
 6085SOL    HW229892   1.049   1.912   3.117  0.7842 -2.1980 -1.8089
 6086SOL     OW29893   3.393   2.579   1.089 -0.1686 -0.2614  0.0287
 6086SOL    HW129894   3.308   2.581   1.134  0.5874 -0.0878  1.4472
 6086SOL    HW229895   3.420   2.671   1.094 -2.3391  0.2846  1.8676
 6087SOL     OW29896   1.160   0.067   8.439 -0.2656  0.1614  0.4362
 6087SOL    HW129897   1.134   0.155   8.466 -3.0012 -1.0057  1.5344
 6087SOL    HW229898   1.155   0.023   8.524  1.6402 -0.0252  0.4655
 6088SOL     OW29899   2.325   1.046   5.986  0.0662  0.9195  0.7493
 6088SOL    HW129900   2.396   1.096   6.024 -0.2782  1.2964  0.8995
 6088SOL    HW229901   2.364   0.959   5.983  0.6430  1.1619  1.2643
 6089SOL     OW29902   4.022   4.612   4.284 -0.5498  0.8837  0.2563
 6089SOL    HW129903   4.113   4.643   4.279 -0.5879  0.5146 -3.0970
 6089SOL    HW229904   3.984   4.691   4.322  0.7243  2.0138 -0.8057
 6090SOL     OW29905   2.909   1.089   8.820  0.0987  0.1365 -0.5912
 6090SOL    HW129906   2.923   1.164   8.877 -0.2494 -0.5378  0.3846
 6090SOL    HW229907   2.848   1.129   8.757  0.7311 -0.3887 -1.5329
 6091SOL     OW29908   4.383   0.156   8.409 -0.6684  0.0952 -0.6932
 6091SOL    HW129909   4.364   0.173   8.501 -0.1262  1.1986 -0.7849
 6091SOL    HW229910   4.300   0.159   8.362 -1.0609  0.5572  0.0204
 6092SOL     OW29911   1.685   1.344   5.827  0.2510 -0.6954  0.3754
 6092SOL    HW129912   1.746   1.410   5.796 -1.0053  0.2444 -0.0839
 6092SOL    HW229913   1.643   1.324   5.743  0.2006 -1.4101  0.5695
 6093SOL     OW29914   4.516   2.408  16.365 -0.6637  0.3161  0.0353
 6093SOL    HW129915   4.611   2.421  16.375 -0.4176  0.3214 -2.4306
 6093SOL    HW229916   4.487   2.432  16.453  1.7917 -0.2130  1.0064
 6094SOL     OW29917   4.167   3.596   9.544 -0.1814  0.0023 -0.7637
 6094SOL    HW129918   4.136   3.508   9.524 -0.5721 -0.0079 -0.0985
 6094SOL    HW229919   4.101   3.637   9.600 -0.0008 -2.5373  1.3315
 6095SOL     OW29920   0.361   3.133   9.288  0.1417 -0.8040 -0.1081
 6095SOL    HW129921   0.443   3.128   9.240 -0.6698  0.7402 -1.6449
 6095SOL    HW229922   0.389   3.158   9.376 -0.4710 -1.8411  0.3842
 6096SOL     OW29923   2.880   3.717  15.878 -0.4450  0.1009  0.2641
 6096SOL    HW129924   2.894   3.732  15.971 -0.3849  0.9284  0.1188
 6096SOL    HW229925   2.961   3.667  15.861  0.2672  1.9026 -1.7233
 6097SOL     OW29926   1.404   2.743   6.410  0.4435 -0.2133 -0.7307
 6097SOL    HW129927   1.455   2.823   6.420 -0.5294  0.2232  0.7061
 6097SOL    HW229928   1.368   2.764   6.323 -0.6340  0.1714 -0.1937
 6098SOL     OW29929   4.498   2.194  13.239 -0.1829  0.3129  0.0094
 6098SOL    HW129930   4.491   2.275  13.189 -0.5729  0.9678  1.1275
 6098SOL    HW229931   4.528   2.226  13.324 -1.7060  3.0878 -0.4929
 6099SOL     OW29932   2.896   3.109   2.134 -0.3005  0.7310  0.3360
 6099SOL    HW129933   2.859   3.054   2.203 -0.5410 -1.3042 -1.4002
 6099SOL    HW229934   2.884   3.196   2.171 -2.7111  0.6787 -0.2867
 6100SOL     OW29935   2.364   2.782   2.087 -0.1263  0.2524  0.1676
 6100SOL    HW129936   2.334   2.699   2.050  1.0421 -0.4534  0.8352
 6100SOL    HW229937   2.354   2.849   2.019 -0.9196  0.5646  0.5859
 6101SOL     OW29938   4.017   0.459   3.203  0.2162 -0.6723  0.0353
 6101SOL    HW129939   4.077   0.516   3.251  1.3406 -2.1869  0.4346
 6101SOL    HW229940   4.007   0.381   3.258  3.5799 -1.5002 -0.5128
 6102SOL     OW29941   0.745   2.173   1.754 -0.0200 -0.3600 -0.3304
 6102SOL    HW129942   0.748   2.187   1.659 -0.4369 -1.1021 -0.4447
 6102SOL    HW229943   0.722   2.264   1.775  0.2718 -0.4323  0.3042
 6103SOL     OW29944   4.338   0.750   7.955 -0.8426  0.8755 -0.8041
 6103SOL    HW129945   4.250   0.720   7.933 -0.7733  0.7594 -0.9260
 6103SOL    HW229946   4.368   0.784   7.870 -1.0304  0.8218 -0.8925
 6104SOL     OW29947   1.990   2.701   5.091  0.1659  0.1758  0.3534
 6104SOL    HW129948   1.930   2.741   5.153 -1.5504 -3.0004  0.7236
 6104SOL    HW229949   2.040   2.635   5.137  0.2525 -0.8791 -1.2377
 6105SOL     OW29950   3.272   1.728   7.272 -0.0677  0.2789 -0.1156
 6105SOL    HW129951   3.264   1.788   7.198 -1.1138  0.0851 -0.1693
 6105SOL    HW229952   3.312   1.785   7.337  0.8844  0.3691 -0.7841
 6106SOL     OW29953   2.708   3.463   4.398  0.5391  0.9117  0.0386
 6106SOL    HW129954   2.740   3.541   4.353  1.2050 -0.6095 -2.1032
 6106SOL    HW229955   2.629   3.489   4.446  0.8028  1.3175  0.2597
 6107SOL     OW29956   0.134   2.286   0.095  0.3788 -0.1965  0.1856
 6107SOL    HW129957   0.050   2.320   0.122 -0.6233 -1.5379 -1.2220
 6107SOL    HW229958   0.104   2.197   0.075 -0.1727  0.3571 -1.4531
 6108SOL     OW29959   3.490   4.533   4.661 -0.2045  0.3468 -0.3136
 6108SOL    HW129960   3.458   4.506   4.747 -1.3783 -2.8871 -1.7756
 6108SOL    HW229961   3.571   4.482   4.674 -1.0282 -0.4077  1.8467
 6109SOL     OW29962   3.625   4.691   7.810  0.2884  0.5602 -0.1164
 6109SOL    HW129963   3.572   0.011   7.867  0.2472 -2.1360  2.4870
 6109SOL    HW229964   3.558   4.632   7.778  1.1156  0.4179 -1.5698
 6110SOL     OW29965   1.683   2.499   2.880  0.4926  0.0178  0.3446
 6110SOL    HW129966   1.725   2.562   2.822 -2.7066  0.5804 -1.3004
 6110SOL    HW229967   1.614   2.465   2.823 -0.6345  1.8447  0.6437
 6111SOL     OW29968   2.853   4.473   5.137 -0.2267 -0.1896  0.3915
 6111SOL    HW129969   2.793   4.402   5.159 -0.8321  0.1979 -0.0464
 6111SOL    HW229970   2.899   4.480   5.221 -0.0832  4.1790 -0.0670
 6112SOL     OW29971   3.556   4.186   3.814 -0.0372  0.3425 -0.0760
 6112SOL    HW129972   3.504   4.194   3.734 -3.3471  0.2965  2.0854
 6112SOL    HW229973   3.645   4.186   3.778  0.2660 -0.6965  0.6866
 6113SOL     OW29974   4.559   1.556   5.035  0.1250  0.2895 -0.7733
 6113SOL    HW129975   4.645   1.522   5.060 -0.6901 -0.5588  0.8490
 6113SOL    HW229976   4.573   1.648   5.057  2.1841 -0.6499  1.7599
 6114SOL     OW29977   1.740   3.872   9.911  0.0102 -0.6138 -0.3004
 6114SOL    HW129978   1.729   3.951   9.858 -0.5544 -1.3624 -1.3009
 6114SOL    HW229979   1.817   3.893   9.964  0.0273  1.1799 -1.0524
 6115SOL     OW29980   4.455   0.362  17.343  0.0117  0.2963 -0.5795
 6115SOL    HW129981   4.512   0.349  17.418  0.3899  0.7867 -0.7832
 6115SOL    HW229982   4.372   0.370  17.389  0.8469  2.8070  0.4971
 6116SOL     OW29983   3.355   3.135  14.111 -0.2729  0.3801 -0.1872
 6116SOL    HW129984   3.426   3.191  14.080  0.3483 -0.3166  0.0035
 6116SOL    HW229985   3.304   3.142  14.029 -0.0863 -4.6666 -0.7022
 6117SOL     OW29986   1.174   3.637   4.267  0.3747  0.3742 -0.6676
 6117SOL    HW129987   1.260   3.624   4.306  0.2960  0.5515 -0.4281
 6117SOL    HW229988   1.149   3.554   4.227  2.8734 -1.0677  0.7672
 6118SOL     OW29989   3.160   0.393   1.018 -0.2826 -0.6861 -0.8565
 6118SOL    HW129990   3.097   0.452   1.059 -1.1185 -0.9718 -1.7277
 6118SOL    HW229991   3.245   0.434   1.035  0.0957 -1.2402 -1.3771
 6119SOL     OW29992   3.907   3.919  11.236  0.7399  0.1927 -0.3270
 6119SOL    HW129993   3.834   3.891  11.181  1.9980 -3.0916 -0.3243
 6119SOL    HW229994   3.939   3.829  11.246 -0.4489 -0.3148 -1.0630
 6120SOL     OW29995   3.045   3.655  10.315  0.3336  0.1306  0.3593
 6120SOL    HW129996   3.050   3.719  10.244 -2.3123 -0.7982 -0.6980
 6120SOL    HW229997   3.127   3.661  10.364  0.1724 -0.8872  0.7489
 6121SOL     OW29998   1.096   4.078   0.710  0.0992 -0.5175  0.0710
 6121SOL    HW129999   1.159   4.149   0.724  1.0422 -0.8091 -2.7028
 6121SOL    HW230000   1.146   4.001   0.735  0.3648  0.0783  1.3784
 6122SOL     OW30001   4.654   1.292   6.515 -0.0199  0.1810 -0.2333
 6122SOL    HW130002   4.583   1.232   6.538  1.6115 -1.2366  1.0821
 6122SOL    HW230003   4.729   1.233   6.513 -0.1478 -0.0269  0.8678
 6123SOL     OW30004   3.922   4.235   7.584 -0.4868 -0.0885  0.7048
 6123SOL    HW130005   3.922   4.158   7.640  0.8014 -0.4316  0.2266
 6123SOL    HW230006   3.866   4.301   7.625 -1.2717 -0.1559 -0.2507
 6124SOL     OW30007   2.257   1.462   0.370  0.0410  0.0910 -0.4794
 6124SOL    HW130008   2.261   1.369   0.348  0.4806 -0.3350  1.4033
 6124SOL    HW230009   2.348   1.489   0.354  0.9066 -3.3099 -1.4137
 6125SOL     OW30010   1.606   4.542   6.803  0.6300  0.2573 -0.2104
 6125SOL    HW130011   1.603   4.502   6.890 -0.9427  0.9302  0.0492
 6125SOL    HW230012   1.687   4.593   6.813  1.0875 -0.7322  1.0660
 6126SOL     OW30013   0.953   2.542   2.330 -0.4076 -0.3001 -0.4869
 6126SOL    HW130014   0.968   2.475   2.397  0.3770  0.6103  0.2411
 6126SOL    HW230015   0.862   2.527   2.303 -0.7394  1.8340 -0.5667
 6127SOL     OW30016   4.024   4.287   9.353  0.1369 -0.2307 -0.1775
 6127SOL    HW130017   3.965   4.350   9.396 -1.1992 -0.4874 -1.6554
 6127SOL    HW230018   4.047   4.336   9.274  0.6231  1.4926  1.0294
 6128SOL     OW30019   0.905   1.171  13.753 -0.6445  0.1966 -0.1734
 6128SOL    HW130020   0.876   1.135  13.837 -2.1392  1.2909 -0.2217
 6128SOL    HW230021   0.869   1.107  13.691  1.2328  1.7077 -2.8381
 6129SOL     OW30022   1.557   1.409   5.563  0.4573 -0.3214  0.2312
 6129SOL    HW130023   1.573   1.486   5.509 -0.3385  1.2813  2.2473
 6129SOL    HW230024   1.494   1.356   5.513  3.7023 -0.8998 -3.2013
 6130SOL     OW30025   3.495   0.050   6.674 -0.4407 -0.4172  0.2868
 6130SOL    HW130026   3.443   4.705   6.670 -1.7718  0.4995 -0.9885
 6130SOL    HW230027   3.577   0.025   6.632 -0.3105 -0.6916  0.7067
 6131SOL     OW30028   0.209   3.815   5.092  0.1048 -0.0576  0.8006
 6131SOL    HW130029   0.231   3.876   5.162 -1.6214 -1.0805  2.2453
 6131SOL    HW230030   0.152   3.864   5.033  2.4183  1.1610 -0.4106
 6132SOL     OW30031   1.021   2.014   1.586  0.3980 -0.5386 -0.7298
 6132SOL    HW130032   0.988   1.939   1.637  1.1718 -1.7579 -2.0190
 6132SOL    HW230033   1.091   1.982   1.528  1.7395  1.0098  0.0494
 6133SOL     OW30034   0.463   3.412   7.825 -0.4527  0.0184  0.0103
 6133SOL    HW130035   0.399   3.412   7.896 -1.3982 -0.0493 -0.8359
 6133SOL    HW230036   0.433   3.495   7.787 -0.1398 -0.7914 -2.0277
 6134SOL     OW30037   2.925   2.462  13.057 -0.3050  0.2384  0.2523
 6134SOL    HW130038   2.902   2.441  12.967  0.1049  1.7265 -0.2024
 6134SOL    HW230039   2.866   2.531  13.087 -1.6759 -0.1328 -1.6378
 6135SOL     OW30040   3.311   1.260   6.896  0.0417  0.4626 -0.2349
 6135SOL    HW130041   3.284   1.349   6.875  0.8772  0.4475 -1.3726
 6135SOL    HW230042   3.336   1.226   6.810 -2.0911  1.6437 -1.3153
 6136SOL     OW30043   0.092   1.875   7.744 -0.2322  0.7067 -0.2954
 6136SOL    HW130044   0.178   1.875   7.701 -0.9898 -1.6280 -1.8225
 6136SOL    HW230045   0.083   1.965   7.775 -1.0419  0.9027 -1.1096
 6137SOL     OW30046   0.424   4.262   2.030  0.1685 -0.0838  0.6460
 6137SOL    HW130047   0.489   4.333   2.027 -0.4929  0.5202  0.5231
 6137SOL    HW230048   0.481   4.185   2.031  2.3970  1.5707  0.4141
 6138SOL     OW30049   1.183   1.838   6.417 -0.4070  0.1143 -0.3186
 6138SOL    HW130050   1.243   1.912   6.412 -0.9538  0.5110 -1.0139
 6138SOL    HW230051   1.150   1.868   6.502 -2.1324  1.1586 -1.3384
 6139SOL     OW30052   1.102   2.977   3.863 -0.0654  1.0836 -0.0789
 6139SOL    HW130053   1.114   3.039   3.791  0.9560 -1.9513 -2.4943
 6139SOL    HW230054   1.179   2.993   3.918 -0.0171 -1.2767  0.5187
 6140SOL     OW30055   1.042   0.856  10.669  0.1058 -0.1877 -0.0988
 6140SOL    HW130056   1.126   0.828  10.631  0.1979  0.3003 -0.2430
 6140SOL    HW230057   0.983   0.780  10.667  1.7698 -1.4367 -1.4739
 6141SOL     OW30058   3.389   0.051   2.109  0.1503  0.3544 -0.0130
 6141SOL    HW130059   3.297   0.042   2.135  0.6990 -1.3445  1.3505
 6141SOL    HW230060   3.420   0.113   2.176  0.5984  1.6287 -1.3869
 6142SOL     OW30061   3.775   1.803   6.911 -0.1640 -0.4677 -0.5286
 6142SOL    HW130062   3.809   1.764   6.830  0.0080 -0.4614 -0.4591
 6142SOL    HW230063   3.782   1.734   6.977  2.9111 -0.1358 -0.5488
 6143SOL     OW30064   1.565   3.266   8.337 -0.2339 -0.1126 -0.5408
 6143SOL    HW130065   1.651   3.257   8.295 -0.8220  1.0461 -1.9778
 6143SOL    HW230066   1.585   3.304   8.423  2.2761 -2.8442  0.0761
 6144SOL     OW30067   0.620   1.243   3.394 -0.2404 -0.3194 -0.1567
 6144SOL    HW130068   0.547   1.248   3.457 -1.2172 -2.1791 -1.1520
 6144SOL    HW230069   0.588   1.270   3.308 -0.1546  0.6143  0.0962
 6145SOL     OW30070   2.434   2.639   3.993  0.2702 -0.1629  0.0041
 6145SOL    HW130071   2.447   2.716   4.049 -1.2531  1.9944 -2.5644
 6145SOL    HW230072   2.367   2.597   4.047 -0.7457 -1.7466 -2.4747
 6146SOL     OW30073   1.400   3.277  15.860  0.6293 -0.2654 -0.2756
 6146SOL    HW130074   1.429   3.342  15.796 -1.1498 -0.2038 -1.0141
 6146SOL    HW230075   1.328   3.327  15.897 -0.2180 -2.0115  0.4254
 6147SOL     OW30076   1.377   3.028   7.692 -0.0792 -0.8081 -0.4325
 6147SOL    HW130077   1.388   3.113   7.649 -0.0510  0.3267  1.8092
 6147SOL    HW230078   1.344   3.047   7.780 -0.5861  1.0869 -1.0304
 6148SOL     OW30079   3.357   1.611   0.344  0.3363  0.2298 -0.5662
 6148SOL    HW130080   3.399   1.526   0.329 -2.3914 -1.3838  0.7708
 6148SOL    HW230081   3.423   1.669   0.382  0.3805  0.4774 -1.0294
 6149SOL     OW30082   1.019   1.456   7.989  0.6667  0.5223  0.8091
 6149SOL    HW130083   0.957   1.528   7.978 -0.0117 -0.2596 -0.4967
 6149SOL    HW230084   0.958   1.386   8.010  1.6697 -1.5531 -3.1194
 6150SOL     OW30085   2.653   2.731   6.862 -0.2613 -0.7132 -0.0932
 6150SOL    HW130086   2.731   2.686   6.893  0.4606 -0.5978 -1.7665
 6150SOL    HW230087   2.612   2.772   6.938  0.9475 -1.1103  0.7600
 6151SOL     OW30088   2.233   3.249  12.099  0.8181  0.4796 -0.3947
 6151SOL    HW130089   2.237   3.175  12.160  3.4501 -1.4339 -2.8807
 6151SOL    HW230090   2.280   3.213  12.024 -0.1719  1.5536 -1.5237
 6152SOL     OW30091   4.273   1.089   6.784  0.3098 -0.1102  0.0383
 6152SOL    HW130092   4.256   0.995   6.789  1.6427 -0.2902  1.0959
 6152SOL    HW230093   4.234   1.120   6.865  1.6889 -0.2402  0.7485
 6153SOL     OW30094   0.085   2.887   9.425  0.0262 -0.3579  0.2282
 6153SOL    HW130095   0.023   2.872   9.353  2.1696 -4.3715 -0.7698
 6153SOL    HW230096   0.165   2.856   9.383 -0.1776  1.5669 -1.6110
 6154SOL     OW30097   3.918   1.770   2.466 -0.3809  0.1798  0.5899
 6154SOL    HW130098   3.982   1.701   2.451 -1.2060 -0.9332  2.1305
 6154SOL    HW230099   3.964   1.851   2.445  0.8309 -0.6711 -0.0225
 6155SOL     OW30100   1.035   2.894   1.112  0.1620  0.1281  0.9608
 6155SOL    HW130101   0.967   2.939   1.163  1.0679  1.7285  0.7628
 6155SOL    HW230102   1.114   2.930   1.152  0.6161 -0.2188  0.3796
 6156SOL     OW30103   2.009   0.882   5.521 -0.0827  0.6165 -0.1350
 6156SOL    HW130104   2.065   0.875   5.599  0.7336  1.9699 -0.5869
 6156SOL    HW230105   1.926   0.867   5.564  0.1479 -0.4636 -0.0784
 6157SOL     OW30106   2.169   1.493   2.110  0.4837 -0.5002 -0.0612
 6157SOL    HW130107   2.157   1.403   2.081 -1.0765 -0.4089  0.2842
 6157SOL    HW230108   2.079   1.508   2.140  0.7400  2.7728 -0.9127
 6158SOL     OW30109   3.349   0.776   8.725 -0.0868  0.4555 -0.5546
 6158SOL    HW130110   3.408   0.839   8.684 -1.4723  1.1538 -1.4725
 6158SOL    HW230111   3.372   0.799   8.815  1.3342 -1.0830 -0.5248
 6159SOL     OW30112   2.021   3.102   8.911  0.3249 -0.4635  0.1329
 6159SOL    HW130113   2.041   3.191   8.880 -1.5917  0.0366  0.3396
 6159SOL    HW230114   2.106   3.058   8.913  0.7833  0.3370 -0.9346
 6160SOL     OW30115   0.304   4.026   8.237  0.2507 -0.5239 -0.3070
 6160SOL    HW130116   0.248   3.993   8.308  0.1875  0.6018  0.1659
 6160SOL    HW230117   0.345   4.099   8.284 -1.0808  0.4664 -0.6792
 6161SOL     OW30118   3.676   1.754   6.302 -0.0025 -0.0571  0.4012
 6161SOL    HW130119   3.704   1.778   6.391  1.3317 -1.0215  0.2341
 6161SOL    HW230120   3.717   1.830   6.259  0.5704 -0.0095  1.0223
 6162SOL     OW30121   1.318   0.998   5.883  0.2496  0.0703  0.2260
 6162SOL    HW130122   1.395   0.993   5.940 -0.1209  0.7643  0.7843
 6162SOL    HW230123   1.275   0.913   5.891 -1.3529  0.6814 -1.8552
 6163SOL     OW30124   0.807   3.043   9.055  0.0401  0.0325 -0.1077
 6163SOL    HW130125   0.799   3.106   8.984 -1.1096  0.5645  0.4962
 6163SOL    HW230126   0.749   3.082   9.120  0.8827  1.4708 -0.2124
 6164SOL     OW30127   2.371   4.035   1.026  0.1563  0.2813  0.0244
 6164SOL    HW130128   2.454   4.027   0.978  1.1798 -0.1591  1.8693
 6164SOL    HW230129   2.314   4.091   0.974 -1.0598 -1.6671 -0.7691
 6165SOL     OW30130   2.493   3.388   2.459  0.9356  0.4082  0.1978
 6165SOL    HW130131   2.421   3.432   2.505  2.2131  1.6092  1.0587
 6165SOL    HW230132   2.546   3.457   2.419 -0.1113  2.0091  1.5840
 6166SOL     OW30133   2.967   3.896  16.276 -0.3805  0.0297  0.1235
 6166SOL    HW130134   2.975   3.984  16.313 -0.0263  0.8257 -1.8536
 6166SOL    HW230135   2.880   3.869  16.304  0.2268 -0.3731  1.5906
 6167SOL     OW30136   1.968   0.951   0.778  0.0524  0.8156 -0.1331
 6167SOL    HW130137   1.939   1.003   0.853  1.8138 -0.9327  1.7927
 6167SOL    HW230138   1.880   0.915   0.766  0.7308 -1.5882  2.0295
 6168SOL     OW30139   0.887   1.271   2.277  0.4902 -0.5868 -0.0481
 6168SOL    HW130140   0.816   1.307   2.331 -1.5218 -1.5671 -2.0166
 6168SOL    HW230141   0.940   1.226   2.343 -0.2914 -0.8632  0.3893
 6169SOL     OW30142   3.816   1.411   5.700 -0.4156 -0.3820  0.2379
 6169SOL    HW130143   3.866   1.493   5.706 -2.0478  0.6032  0.4652
 6169SOL    HW230144   3.795   1.383   5.789  2.2177  2.5162  1.7932
 6170SOL     OW30145   1.633   1.344   1.831 -0.5856  0.5702 -0.3856
 6170SOL    HW130146   1.677   1.403   1.770 -0.8701 -1.8807 -2.9128
 6170SOL    HW230147   1.554   1.394   1.853 -0.8842  0.2456 -0.7342
 6171SOL     OW30148   1.328   3.225   8.620 -0.0306 -0.4493  0.2001
 6171SOL    HW130149   1.235   3.213   8.641  0.1256  0.1265  1.2133
 6171SOL    HW230150   1.370   3.154   8.667 -0.7272 -0.0603  1.4145
 6172SOL     OW30151   3.177   2.314   6.650 -0.1373  0.1725 -0.0557
 6172SOL    HW130152   3.265   2.335   6.681  0.5964  1.8737 -3.3180
 6172SOL    HW230153   3.158   2.242   6.710 -0.3703 -0.2527 -0.6357
 6173SOL     OW30154   2.038   3.138   5.866 -0.2973  0.7496  0.5437
 6173SOL    HW130155   2.046   3.205   5.934 -5.3086 -0.1347  1.9761
 6173SOL    HW230156   2.105   3.074   5.893  0.3156  0.6527 -1.2229
 6174SOL     OW30157   0.486   0.332   0.793 -0.5947 -0.3116 -0.2004
 6174SOL    HW130158   0.525   0.400   0.737 -0.7914 -0.1293 -0.1176
 6174SOL    HW230159   0.502   0.245   0.757 -0.6689  0.8614 -3.1179
 6175SOL     OW30160   4.729   0.200   3.817 -0.5254 -0.2342  0.4254
 6175SOL    HW130161   4.685   0.195   3.901  0.0910 -0.8776  0.7076
 6175SOL    HW230162   4.684   0.278   3.784 -2.3838 -1.1836  0.7378
 6176SOL     OW30163   0.532   2.883   7.040 -0.2839  0.7265 -0.7127
 6176SOL    HW130164   0.464   2.822   7.012 -1.8815  0.6265  3.3558
 6176SOL    HW230165   0.606   2.846   6.993  0.2468  1.0812 -0.1654
 6177SOL     OW30166   1.741   3.607   7.211  0.2030  0.0995  0.5701
 6177SOL    HW130167   1.658   3.629   7.168  1.1303  3.0314  0.2713
 6177SOL    HW230168   1.710   3.566   7.292  0.3630 -0.6172  0.2702
 6178SOL     OW30169   0.503   2.996   7.287 -0.6289  0.2992 -0.2035
 6178SOL    HW130170   0.551   2.964   7.210 -2.5489  0.5898 -1.5185
 6178SOL    HW230171   0.577   3.042   7.327 -0.1767  2.5208 -3.5925
 6179SOL     OW30172   3.970   3.482   3.195 -0.0225 -0.1220  0.1697
 6179SOL    HW130173   4.009   3.434   3.122 -1.8001  0.8736 -1.4269
 6179SOL    HW230174   3.880   3.489   3.164  0.4051 -1.1548 -1.3176
 6180SOL     OW30175   2.305   0.528   3.693 -0.0354 -0.3519  0.6554
 6180SOL    HW130176   2.367   0.596   3.665 -0.3685 -0.5079 -0.4806
 6180SOL    HW230177   2.316   0.460   3.626  0.0415 -2.4237  2.7727
 6181SOL     OW30178   4.374   2.858  11.063 -0.1732 -0.1259 -0.1081
 6181SOL    HW130179   4.328   2.868  10.980  0.1499  0.3993 -0.2255
 6181SOL    HW230180   4.335   2.931  11.112 -1.5847 -2.9087  2.9383
 6182SOL     OW30181   4.694   0.784   6.943  0.0063  0.1512 -0.0166
 6182SOL    HW130182   0.021   0.781   7.015 -1.4470 -1.5156  1.1925
 6182SOL    HW230183   0.008   0.752   6.868  0.8039 -0.3590  0.7273
 6183SOL     OW30184   4.701   0.730   2.449 -0.1788  0.3848  0.0804
 6183SOL    HW130185   4.685   0.769   2.535  0.0394  0.8437 -0.0877
 6183SOL    HW230186   0.058   0.710   2.453  0.3503  3.0487  1.1263
 6184SOL     OW30187   1.762   4.629  14.466  0.3275  0.1844  0.3750
 6184SOL    HW130188   1.813   4.548  14.472  1.1502  0.6811  0.1383
 6184SOL    HW230189   1.751   4.638  14.371  0.6033  3.1971  0.6107
 6185SOL     OW30190   0.044   1.570   3.155 -0.8705  0.3671  0.2094
 6185SOL    HW130191   0.038   1.541   3.246  0.9877  0.6985  0.4324
 6185SOL    HW230192   0.003   1.504   3.099 -0.5002  0.2211  0.1146
 6186SOL     OW30193   4.527   3.849   5.373 -0.0605 -0.5627 -0.0291
 6186SOL    HW130194   4.527   3.839   5.468 -2.6488 -0.7276 -0.0376
 6186SOL    HW230195   4.589   3.782   5.345  1.6796  0.8082  0.5743
 6187SOL     OW30196   0.119   3.229   2.837  0.7677  0.3402  0.0661
 6187SOL    HW130197   0.164   3.235   2.753  0.0834  0.0442 -0.3285
 6187SOL    HW230198   0.032   3.197   2.811  1.1610  0.3438 -1.2244
 6188SOL     OW30199   1.572   2.141   3.242  0.0690 -0.8631  0.0935
 6188SOL    HW130200   1.529   2.082   3.181 -0.6937  1.3214 -1.4898
 6188SOL    HW230201   1.618   2.198   3.181 -1.3655  1.5306  1.2237
 6189SOL     OW30202   0.297   3.603   4.928  1.0682 -0.3087  0.5377
 6189SOL    HW130203   0.205   3.580   4.916  1.1682 -0.5063  0.1499
 6189SOL    HW230204   0.292   3.682   4.981  0.3896 -0.8566  1.2958
 6190SOL     OW30205   1.843   1.477   8.292 -0.1217  0.1092  0.2758
 6190SOL    HW130206   1.766   1.486   8.348 -0.0618  0.2498  0.3360
 6190SOL    HW230207   1.826   1.527   8.212 -2.0234 -1.6547 -0.4376
 6191SOL     OW30208   3.601   0.125   0.782 -0.4417 -0.1784  0.0249
 6191SOL    HW130209   3.524   0.075   0.758 -0.1472 -0.5218 -0.2029
 6191SOL    HW230210   3.561   0.211   0.794  1.3239  0.6280  0.1653
 6192SOL     OW30211   2.325   3.409   7.141  0.5021  0.3359  1.3353
 6192SOL    HW130212   2.259   3.410   7.210 -0.3698 -2.6317  0.5343
 6192SOL    HW230213   2.336   3.504   7.129  0.1997  0.2234  0.1168
 6193SOL     OW30214   4.705   0.471   0.999  0.1577  0.1663 -0.3041
 6193SOL    HW130215   4.700   0.446   1.091  2.0078 -1.4215 -0.6459
 6193SOL    HW230216   0.028   0.406   0.962 -0.9531 -0.1134 -1.5647
 6194SOL     OW30217   3.944   3.699   5.273 -0.0437 -0.0955  0.2385
 6194SOL    HW130218   3.875   3.640   5.242 -1.3637  1.0162  1.0161
 6194SOL    HW230219   3.988   3.725   5.193 -2.5735  0.1217 -1.0911
 6195SOL     OW30220   1.784   3.067   7.486 -0.0676 -0.2202  0.0371
 6195SOL    HW130221   1.857   3.056   7.547 -0.7212  2.2937  1.2930
 6195SOL    HW230222   1.720   3.007   7.525  1.1876 -2.3746 -1.2264
 6196SOL     OW30223   0.063   1.764  16.654  0.6903 -0.4963 -0.5479
 6196SOL    HW130224   0.078   1.673  16.629 -0.1190 -0.6021 -0.6493
 6196SOL    HW230225   0.016   1.796  16.578  0.9364  2.6875  0.6100
 6197SOL     OW30226   2.808   1.134   6.024  0.5433 -0.1030  1.0518
 6197SOL    HW130227   2.815   1.043   6.052  1.7895 -0.6276 -0.9509
 6197SOL    HW230228   2.713   1.135   6.025  0.5508  0.6987  2.3894
 6198SOL     OW30229   3.834   1.245   1.249  0.5183  0.1583 -1.0568
 6198SOL    HW130230   3.762   1.288   1.296  2.0714  1.2047  0.3405
 6198SOL    HW230231   3.871   1.198   1.324  0.0277  1.2098 -0.1639
 6199SOL     OW30232   3.634   0.914  13.826 -0.4713  0.3097  0.1006
 6199SOL    HW130233   3.630   0.936  13.733 -0.6149  0.5380  0.1623
 6199SOL    HW230234   3.695   0.980  13.858  2.1089 -1.3582 -1.3763
 6200SOL     OW30235   1.302   4.372   7.857 -0.0115  1.0349  0.0103
 6200SOL    HW130236   1.332   4.312   7.790  3.0123  3.6646 -0.9966
 6200SOL    HW230237   1.254   4.309   7.911 -0.1582  1.2411  0.1241
 6201SOL     OW30238   1.349   2.721   2.398  0.0002  0.0549 -0.2071
 6201SOL    HW130239   1.264   2.712   2.439  1.1784  0.4693  2.3472
 6201SOL    HW230240   1.408   2.703   2.471 -0.3807 -0.2155  0.0327
 6202SOL     OW30241   1.709   0.147  13.091  0.3101  0.5292  0.0149
 6202SOL    HW130242   1.766   0.077  13.123 -1.2885 -0.6614  0.3023
 6202SOL    HW230243   1.733   0.148  12.999  0.8620  0.9541  0.1665
 6203SOL     OW30244   4.212   3.713   4.916  0.3857  0.4927 -0.0029
 6203SOL    HW130245   4.224   3.803   4.888 -0.6357  0.3608 -0.8692
 6203SOL    HW230246   4.264   3.716   4.996 -1.0056 -0.5991  0.9578
 6204SOL     OW30247   4.621   1.448   8.573 -0.5020 -0.7811 -0.2016
 6204SOL    HW130248   4.703   1.400   8.577 -0.4541 -0.9146 -2.7236
 6204SOL    HW230249   4.562   1.375   8.555 -0.1904 -1.4750  1.5765
 6205SOL     OW30250   2.071   2.808   7.000  0.7306  0.7682  0.4787
 6205SOL    HW130251   2.160   2.799   7.035  0.8594 -2.7079 -0.7330
 6205SOL    HW230252   2.067   2.728   6.947  1.3594  0.2632  1.1865
 6206SOL     OW30253   2.934   0.062  16.228  0.3597  0.6655  0.0731
 6206SOL    HW130254   2.957   4.731  16.292  1.3135  0.4585 -0.4824
 6206SOL    HW230255   3.014   0.113  16.218  0.3812  0.4055 -1.0706
 6207SOL     OW30256   2.113   2.020   0.485  0.5689  0.1143  0.2393
 6207SOL    HW130257   2.107   1.971   0.403 -0.0558 -1.7044  1.3688
 6207SOL    HW230258   2.208   2.022   0.492  0.6262 -0.0648 -0.5384
 6208SOL     OW30259   1.742   3.009   4.685  0.0245  0.1787  0.0242
 6208SOL    HW130260   1.675   3.076   4.670  1.5143  1.8500  0.8741
 6208SOL    HW230261   1.683   2.938   4.711  2.5006 -0.6929  3.1975
 6209SOL     OW30262   1.946   4.352   3.825 -0.1174 -0.3490 -0.1991
 6209SOL    HW130263   1.931   4.322   3.735 -1.0013  0.6521 -0.3983
 6209SOL    HW230264   2.014   4.293   3.856  1.0742  0.3790 -1.4190
 6210SOL     OW30265   3.313   4.510   1.005  0.5885 -0.3521 -0.2317
 6210SOL    HW130266   3.275   4.487   1.090 -1.1438 -0.4107 -1.0258
 6210SOL    HW230267   3.243   4.562   0.965 -1.0898 -1.3074  1.4791
 6211SOL     OW30268   1.520   3.456  14.525 -0.3684 -0.2402  0.3494
 6211SOL    HW130269   1.449   3.517  14.504 -1.0692 -0.8876  0.8167
 6211SOL    HW230270   1.470   3.375  14.537  0.0645 -0.3231  1.5324
 6212SOL     OW30271   0.260   0.523  14.446 -0.6918 -0.1748 -0.2191
 6212SOL    HW130272   0.287   0.500  14.536 -0.2812  0.8575 -0.0739
 6212SOL    HW230273   0.348   0.526  14.408  0.0152 -2.4811  1.1749
 6213SOL     OW30274   4.123   0.433   5.358  0.6730  0.0373 -0.6516
 6213SOL    HW130275   4.160   0.513   5.394  1.9258 -1.0340  0.4438
 6213SOL    HW230276   4.089   0.379   5.429 -2.5102 -0.8128 -2.8425
 6214SOL     OW30277   0.968   1.353   9.663  0.0157  0.5155  0.2088
 6214SOL    HW130278   0.925   1.319   9.741 -1.3212 -1.6662 -1.4879
 6214SOL    HW230279   1.030   1.285   9.638  1.1034  0.8001  2.1591
 6215SOL     OW30280   1.488   1.048  12.567 -0.0543  0.1436 -0.7196
 6215SOL    HW130281   1.521   1.062  12.655  0.2152  1.4665 -1.0228
 6215SOL    HW230282   1.393   1.055  12.578 -0.1456 -1.5461 -0.4739
 6216SOL     OW30283   4.266   1.064  14.865  0.4315 -0.2114  0.3908
 6216SOL    HW130284   4.335   1.076  14.800 -2.1990 -0.2798 -2.4016
 6216SOL    HW230285   4.272   1.155  14.893  1.0611  0.4383 -1.8635
 6217SOL     OW30286   0.064   4.052  12.526 -0.0898 -0.0015  0.1072
 6217SOL    HW130287   0.085   4.106  12.602 -1.2394 -0.7098  0.9287
 6217SOL    HW230288   0.092   3.967  12.558  0.4742  0.6611  1.3639
 6218SOL     OW30289   3.807   3.071  10.872  0.7756  0.1320  0.1407
 6218SOL    HW130290   3.830   3.147  10.926 -1.0065  0.6128  0.2331
 6218SOL    HW230291   3.722   3.054  10.912  1.9777 -0.9465  2.2574
 6219SOL     OW30292   2.740   2.999   1.397 -0.3167 -0.4558 -0.1405
 6219SOL    HW130293   2.663   3.034   1.353 -0.4014 -1.4488 -0.8011
 6219SOL    HW230294   2.775   2.938   1.332 -0.4176  1.0060 -1.5549
 6220SOL     OW30295   3.065   3.972   4.295 -0.1266 -0.3695 -0.2530
 6220SOL    HW130296   3.078   4.056   4.250 -0.6714 -0.1706 -0.0418
 6220SOL    HW230297   3.055   4.003   4.385  0.8427 -1.0797  0.0997
 6221SOL     OW30298   4.089   3.707   4.510  0.5282  0.0300 -0.3441
 6221SOL    HW130299   4.074   3.801   4.507  1.4964  0.1608 -1.2973
 6221SOL    HW230300   4.027   3.684   4.441 -0.5541 -2.5843  1.5235
 6222SOL     OW30301   1.436   2.421   2.779 -0.2038 -0.2274 -0.3381
 6222SOL    HW130302   1.373   2.492   2.766  1.0430  0.7365 -1.1452
 6222SOL    HW230303   1.442   2.386   2.691  1.1466  0.5399 -0.5537
 6223SOL     OW30304   1.932   4.222   8.116  0.2462  0.5341 -0.0724
 6223SOL    HW130305   1.924   4.184   8.029  2.0713 -0.9327  0.3918
 6223SOL    HW230306   1.842   4.254   8.123 -0.2693 -0.7631 -0.7129
 6224SOL     OW30307   2.789   1.577   4.299  0.8354 -0.4048 -0.2941
 6224SOL    HW130308   2.740   1.509   4.252 -2.6420 -0.0062  2.7148
 6224SOL    HW230309   2.808   1.642   4.231  0.7659  2.3276  2.2749
 6225SOL     OW30310   0.609   1.520  13.484  0.1505 -0.2004 -0.0230
 6225SOL    HW130311   0.536   1.578  13.508  1.2750  0.2920  2.2094
 6225SOL    HW230312   0.577   1.504  13.395  1.2646  1.6916 -0.7582
 6226SOL     OW30313   3.348   0.120   7.784  0.3090  1.2799 -0.6786
 6226SOL    HW130314   3.410   0.118   7.857 -0.6203 -1.1909  0.0320
 6226SOL    HW230315   3.321   0.212   7.772 -2.2003  0.8327  1.3167
 6227SOL     OW30316   2.987   4.075   7.184  0.2031  0.0584  0.3342
 6227SOL    HW130317   3.014   4.006   7.123 -0.7646  1.7122 -1.9798
 6227SOL    HW230318   3.026   4.153   7.145 -1.0636 -0.6962 -2.4215
 6228SOL     OW30319   2.756   3.263   7.889 -0.4622  0.4039  0.0008
 6228SOL    HW130320   2.762   3.257   7.794 -2.7341  1.3332 -0.2101
 6228SOL    HW230321   2.671   3.223   7.909 -1.1213  1.7306 -0.0930
 6229SOL     OW30322   4.425   1.523   2.833 -0.0144  0.4184  0.0119
 6229SOL    HW130323   4.432   1.460   2.761  0.4481 -0.4685  0.8466
 6229SOL    HW230324   4.382   1.472   2.901 -1.1573  0.2304 -0.8433
 6230SOL     OW30325   3.719   1.824  12.097 -0.3696  0.1031  0.4595
 6230SOL    HW130326   3.681   1.878  12.166 -2.1558 -1.1969  0.4704
 6230SOL    HW230327   3.667   1.746  12.111 -0.4798  0.4051  1.7082
 6231SOL     OW30328   0.016   0.282   9.757 -0.6170  0.1986 -0.2688
 6231SOL    HW130329   0.001   0.377   9.751 -1.9825  0.1428  2.5213
 6231SOL    HW230330   0.071   0.280   9.835 -1.4746 -1.1495  0.2735
 6232SOL     OW30331   1.935   1.050  12.493  0.2860  0.0434 -0.3712
 6232SOL    HW130332   2.012   1.002  12.462  0.8160  1.5887 -1.4060
 6232SOL    HW230333   1.871   0.978  12.497 -0.4653  0.6884 -0.6771
 6233SOL     OW30334   1.418   1.309   3.060  0.0994 -0.3895 -0.2039
 6233SOL    HW130335   1.404   1.214   3.065  0.5008 -0.5016 -1.1997
 6233SOL    HW230336   1.421   1.323   3.155  1.1854  0.7253 -0.4112
 6234SOL     OW30337   1.029   2.134   9.552  0.0665  0.5276 -0.2191
 6234SOL    HW130338   1.001   2.128   9.461 -1.9200  1.0165  0.3459
 6234SOL    HW230339   1.096   2.066   9.548  1.3962  1.8719 -0.3213
 6235SOL     OW30340   3.181   2.127   5.562 -0.2073  0.0954  0.0993
 6235SOL    HW130341   3.162   2.071   5.487  0.3855  0.4870 -0.3407
 6235SOL    HW230342   3.170   2.068   5.637  0.1838 -1.7432 -1.2815
 6236SOL     OW30343   0.598   3.798   4.956 -0.2724  0.1815  0.1065
 6236SOL    HW130344   0.540   3.809   4.881 -0.8958  0.3728  0.6162
 6236SOL    HW230345   0.547   3.843   5.023 -0.5250  1.8418 -1.2092
 6237SOL     OW30346   4.209   4.084   0.576 -0.1904 -0.3354 -0.0236
 6237SOL    HW130347   4.192   4.178   0.569 -2.7872 -0.7493  0.4018
 6237SOL    HW230348   4.274   4.075   0.645 -0.5456  2.6495  0.7265
 6238SOL     OW30349   0.697   2.575   9.194 -0.6394  0.7486  0.1905
 6238SOL    HW130350   0.758   2.644   9.219  1.5669 -1.4602  0.9551
 6238SOL    HW230351   0.625   2.622   9.153 -0.0517 -0.5885 -2.3463
 6239SOL     OW30352   2.063   0.937   7.559 -0.0648  0.3049  0.0701
 6239SOL    HW130353   2.082   0.892   7.641  0.2857  0.0035 -0.1793
 6239SOL    HW230354   2.151   0.969   7.539 -0.2336  0.3967 -0.5324
 6240SOL     OW30355   2.053   2.442   7.260  0.0361 -0.0099 -0.2609
 6240SOL    HW130356   2.066   2.402   7.347  1.5572  0.4874 -0.2703
 6240SOL    HW230357   1.976   2.390   7.236  0.8327 -1.0028 -0.6767
 6241SOL     OW30358   1.129   3.970   5.737  0.0705 -0.0103  0.2978
 6241SOL    HW130359   1.043   3.933   5.755  0.4496 -0.2869  1.5090
 6241SOL    HW230360   1.111   4.029   5.663  1.5795  1.4690  1.0994
 6242SOL     OW30361   0.542   3.802  13.876  0.3608  0.2566 -0.0187
 6242SOL    HW130362   0.523   3.874  13.938 -1.5150  1.0775 -1.5342
 6242SOL    HW230363   0.597   3.750  13.934  0.9994  0.8691 -0.0683
 6243SOL     OW30364   0.866   4.392   6.173 -0.1041 -0.2143  0.5150
 6243SOL    HW130365   0.851   4.368   6.082  0.4452  1.2061  0.0464
 6243SOL    HW230366   0.890   4.310   6.217  1.6940  0.4493  0.7687
 6244SOL     OW30367   2.255   0.223  17.594  0.0530 -0.0877  0.0963
 6244SOL    HW130368   2.321   0.276  17.548 -0.9086 -0.4437 -1.6723
 6244SOL    HW230369   2.237   0.148  17.538  0.6760 -0.1723  0.0085
 6245SOL     OW30370   4.458   0.405  16.005 -0.1684  0.2510 -0.4342
 6245SOL    HW130371   4.454   0.428  15.912 -0.8046  0.0797 -0.4496
 6245SOL    HW230372   4.397   0.332  16.012  1.6140 -1.3492 -1.5776
 6246SOL     OW30373   1.843   2.605   3.975  0.3177  0.2207 -0.2087
 6246SOL    HW130374   1.840   2.518   4.015 -0.0098  0.3517  0.0585
 6246SOL    HW230375   1.929   2.643   3.993  0.1368  0.1984  0.7551
 6247SOL     OW30376   3.381   2.146   8.304 -0.3992 -0.5823 -1.1095
 6247SOL    HW130377   3.422   2.228   8.330  0.6853 -1.9671  1.4867
 6247SOL    HW230378   3.432   2.088   8.360  2.1462  1.1785 -1.6141
 6248SOL     OW30379   3.829   4.238   3.694 -0.1695 -0.1164  0.3532
 6248SOL    HW130380   3.882   4.159   3.691  1.3686  0.8577  1.7269
 6248SOL    HW230381   3.885   4.308   3.660  0.2112 -1.0839 -0.9861
 6249SOL     OW30382   2.334   1.772  13.183 -0.0210 -0.1298 -0.0965
 6249SOL    HW130383   2.353   1.717  13.259  3.1903 -0.5287 -1.2117
 6249SOL    HW230384   2.238   1.764  13.187  0.1983 -1.2851  3.0219
 6250SOL     OW30385   3.572   2.825  10.685 -0.4056  0.0586 -0.2190
 6250SOL    HW130386   3.562   2.892  10.754  0.2687 -1.3967  1.2982
 6250SOL    HW230387   3.662   2.842  10.656 -1.2837  0.5233 -2.6757
 6251SOL     OW30388   1.793   2.159   5.544  0.3434  0.0390  0.0642
 6251SOL    HW130389   1.814   2.201   5.460  1.4704 -0.7447 -0.0392
 6251SOL    HW230390   1.871   2.181   5.594 -0.9724  0.7915  1.7762
 6252SOL     OW30391   3.526   3.578   5.004  0.2040  0.1425 -0.0904
 6252SOL    HW130392   3.564   3.573   5.092  0.9972  0.5760 -0.4059
 6252SOL    HW230393   3.593   3.552   4.941 -0.7737 -1.3569 -0.5225
 6253SOL     OW30394   1.502   1.317   7.569  0.2670 -0.4627  0.3860
 6253SOL    HW130395   1.485   1.228   7.601 -0.0486 -1.4342 -2.5055
 6253SOL    HW230396   1.432   1.333   7.506 -0.1039  1.0099  1.1697
 6254SOL     OW30397   1.974   4.038   4.968  0.5445  0.0166  0.2794
 6254SOL    HW130398   1.952   4.124   5.002  0.5516  0.2447 -0.2845
 6254SOL    HW230399   1.889   4.015   4.931 -0.1120 -0.2506  1.9777
 6255SOL     OW30400   3.129   2.891   0.401 -0.6820  0.1125  0.2779
 6255SOL    HW130401   3.170   2.815   0.360 -0.9127 -0.2650  0.7631
 6255SOL    HW230402   3.148   2.867   0.491  0.5075 -0.6359 -0.1801
 6256SOL     OW30403   1.571   0.938  16.245 -0.5289 -0.3937 -0.1054
 6256SOL    HW130404   1.552   1.020  16.199  0.6079  0.4668  0.9456
 6256SOL    HW230405   1.574   0.968  16.336 -1.7342  2.2408 -0.9240
 6257SOL     OW30406   0.517   0.100   4.294 -0.0926 -0.2639  0.3537
 6257SOL    HW130407   0.531   0.009   4.321 -0.2387 -0.3501  0.1330
 6257SOL    HW230408   0.587   0.103   4.229  0.8806  1.8087  1.4615
 6258SOL     OW30409   2.380   3.945   7.742 -0.0999 -0.1971  0.1440
 6258SOL    HW130410   2.408   3.859   7.711  1.5882 -0.3980  2.2443
 6258SOL    HW230411   2.454   3.999   7.716  1.4935 -1.4598  2.1203
 6259SOL     OW30412   2.360   4.608   9.066  0.2427  0.1838 -0.1776
 6259SOL    HW130413   2.433   4.665   9.040  2.2379 -2.0390  0.5460
 6259SOL    HW230414   2.394   4.602   9.155  2.7774 -1.8120 -1.2831
 6260SOL     OW30415   1.217   2.242   2.724  0.7266  0.0370  0.2006
 6260SOL    HW130416   1.285   2.268   2.662 -0.3848  0.8725 -0.6761
 6260SOL    HW230417   1.274   2.182   2.772  0.5778  0.1520  0.5249
 6261SOL     OW30418   0.396   1.710   4.975 -0.3485 -0.3311  0.0767
 6261SOL    HW130419   0.395   1.679   4.884  0.5329  0.2422 -0.1279
 6261SOL    HW230420   0.314   1.758   4.978  0.0179  0.2056  1.5736
 6262SOL     OW30421   3.017   0.757   6.262  0.0249  0.0046 -0.6522
 6262SOL    HW130422   3.002   0.726   6.351  1.6093  3.4801  0.8165
 6262SOL    HW230423   3.096   0.708   6.241 -0.2025 -0.7464  0.2215
 6263SOL     OW30424   2.020   0.677   3.718  0.0428 -0.1667 -0.3316
 6263SOL    HW130425   2.069   0.603   3.682  0.9291 -0.1718  0.8984
 6263SOL    HW230426   2.093   0.724   3.758  1.0698 -0.5027 -1.8487
 6264SOL     OW30427   0.343   4.552   9.771 -0.3962  0.2516  0.0387
 6264SOL    HW130428   0.249   4.551   9.789 -0.2757  0.0192  0.6650
 6264SOL    HW230429   0.353   4.621   9.706  0.0361 -1.5117 -1.7566
 6265SOL     OW30430   4.480   2.705   8.881  0.5851 -0.6174 -0.2093
 6265SOL    HW130431   4.415   2.646   8.920  1.1455 -0.0059  1.6483
 6265SOL    HW230432   4.566   2.673   8.906  0.1432 -1.2892  0.4565
 6266SOL     OW30433   3.931   1.336   5.184 -0.9289  0.1776 -0.1059
 6266SOL    HW130434   3.838   1.323   5.201 -1.1586  2.3969  0.4080
 6266SOL    HW230435   3.923   1.403   5.116  0.3052  1.4413  0.9908
 6267SOL     OW30436   1.178   4.702   9.414 -0.5670 -0.0305  0.2716
 6267SOL    HW130437   1.264   0.008   9.409 -0.0066 -1.1819  0.4082
 6267SOL    HW230438   1.111   0.035   9.419 -0.7191 -0.0070 -2.4339
 6268SOL     OW30439   2.282   0.736   4.349 -0.1874 -0.2381 -0.0458
 6268SOL    HW130440   2.201   0.747   4.300 -0.1676 -0.0780 -0.0436
 6268SOL    HW230441   2.325   0.820   4.335  0.6181 -0.0499  3.5791
 6269SOL     OW30442   3.799   2.329   4.961 -0.0385  0.4591  0.2525
 6269SOL    HW130443   3.708   2.339   4.934 -0.2242 -0.0549  0.7090
 6269SOL    HW230444   3.839   2.383   4.892 -3.1136  0.7761 -1.2997
 6270SOL     OW30445   2.384   0.877  13.695  0.0107 -0.0920 -0.3195
 6270SOL    HW130446   2.361   0.967  13.673 -0.1915 -0.4839 -1.7575
 6270SOL    HW230447   2.297   0.838  13.703  0.4126 -0.4838  2.0147
 6271SOL     OW30448   3.540   2.995  10.917  0.6061  0.2824  0.4250
 6271SOL    HW130449   3.456   3.039  10.916 -0.0436 -0.9582 -0.2593
 6271SOL    HW230450   3.541   2.943  10.997  1.2741 -0.7632 -0.2515
 6272SOL     OW30451   0.596   1.885  15.391 -0.0195  0.4222 -0.1966
 6272SOL    HW130452   0.536   1.898  15.318 -0.6663 -0.1429  0.2400
 6272SOL    HW230453   0.549   1.832  15.455 -0.2233  2.1607  1.0717
 6273SOL     OW30454   1.487   0.660   6.918 -0.4862 -0.1687 -0.2654
 6273SOL    HW130455   1.521   0.712   6.991  1.6061 -0.7807 -0.8167
 6273SOL    HW230456   1.391   0.660   6.916 -0.4837 -0.8085 -0.2890
 6274SOL     OW30457   0.568   4.432   9.670 -0.1740  0.6929 -0.2963
 6274SOL    HW130458   0.507   4.495   9.708  0.4056 -0.1662  2.1085
 6274SOL    HW230459   0.539   4.354   9.717 -0.9711  1.5724  0.6773
 6275SOL     OW30460   1.609   2.516  15.285  0.3584 -0.2376  0.0505
 6275SOL    HW130461   1.610   2.509  15.190 -0.4901 -0.7039  0.0752
 6275SOL    HW230462   1.698   2.483  15.298  0.4366 -0.3795 -0.8871
 6276SOL     OW30463   1.220   0.512   9.999 -0.0720 -0.1080 -0.4090
 6276SOL    HW130464   1.278   0.438   9.976  0.7715  0.5805 -0.5098
 6276SOL    HW230465   1.232   0.533  10.091 -0.6896  0.1977 -0.4017
 6277SOL     OW30466   2.174   3.921  16.241  0.5168  0.3036  0.2952
 6277SOL    HW130467   2.256   3.877  16.262 -0.1246  0.0568  2.2556
 6277SOL    HW230468   2.152   3.929  16.333  0.9513  0.5788  0.3763
 6278SOL     OW30469   2.354   1.268   3.270 -0.4200 -0.4439  0.2289
 6278SOL    HW130470   2.279   1.242   3.216 -0.7925  0.8104  0.1310
 6278SOL    HW230471   2.390   1.342   3.222 -0.0810 -0.6169  0.2174
 6279SOL     OW30472   2.551   1.318   3.089  0.1105 -0.3573  0.0596
 6279SOL    HW130473   2.646   1.322   3.092  0.0870  0.5107 -0.1773
 6279SOL    HW230474   2.537   1.228   3.060  0.8977 -0.5220  0.2035
 6280SOL     OW30475   3.251   4.207   4.263 -0.6057 -0.2825  0.3359
 6280SOL    HW130476   3.316   4.222   4.194 -0.4822 -2.7052 -0.0864
 6280SOL    HW230477   3.289   4.245   4.342  0.0690  1.0843 -0.6537
 6281SOL     OW30478   3.446   1.585  11.954  0.0624 -0.3219  0.8446
 6281SOL    HW130479   3.498   1.565  11.877 -2.6213 -0.5872 -0.9105
 6281SOL    HW230480   3.378   1.519  11.940  0.6680 -0.2176 -2.6545
 6282SOL     OW30481   3.038   2.265   6.413  0.1439 -0.1394 -0.5004
 6282SOL    HW130482   3.094   2.267   6.490  0.4143 -0.8432 -0.6766
 6282SOL    HW230483   3.080   2.336   6.364 -1.6810 -0.8463 -3.0968
 6283SOL     OW30484   2.605   0.724   7.598  0.0643 -0.4426  0.0443
 6283SOL    HW130485   2.514   0.702   7.617 -0.7751  2.9412 -0.1399
 6283SOL    HW230486   2.607   0.819   7.597 -1.4714 -0.4053  1.6297
 6284SOL     OW30487   2.532   1.915  16.734 -0.0881  0.5668 -0.1750
 6284SOL    HW130488   2.509   1.822  16.734 -1.9052  1.0268  1.3749
 6284SOL    HW230489   2.457   1.959  16.773  0.5507  1.5623 -0.0847
 6285SOL     OW30490   0.573   1.316   7.198  0.0697 -0.5218  0.0673
 6285SOL    HW130491   0.633   1.242   7.211  1.8236  0.6266 -1.5524
 6285SOL    HW230492   0.498   1.275   7.155 -1.3655  3.6405 -1.3652
 6286SOL     OW30493   0.330   2.454  12.756 -0.1845 -0.3291 -0.5315
 6286SOL    HW130494   0.403   2.392  12.749  0.0677  0.0010 -0.8498
 6286SOL    HW230495   0.301   2.451  12.665 -0.0163 -1.7380 -0.5478
 6287SOL     OW30496   0.100   3.192  12.530 -0.0842 -0.0287  0.0524
 6287SOL    HW130497   0.137   3.173  12.616 -0.7680 -3.1694 -0.3731
 6287SOL    HW230498   0.005   3.201  12.541  0.3364  1.7744  2.2184
 6288SOL     OW30499   1.062   2.218   7.754 -0.3288 -0.5883 -0.4639
 6288SOL    HW130500   0.993   2.167   7.796  0.6620 -2.0304 -0.5716
 6288SOL    HW230501   1.142   2.183   7.793 -1.5837 -1.6097  1.1906
 6289SOL     OW30502   1.960   3.590  14.653  0.3894  0.2234  0.3325
 6289SOL    HW130503   1.956   3.661  14.589  1.9125  0.2481  0.2701
 6289SOL    HW230504   1.866   3.577  14.665  0.7713 -0.5584  2.4542
 6290SOL     OW30505   3.056   0.396  15.188  0.3743  0.6544 -0.8436
 6290SOL    HW130506   2.979   0.450  15.207 -0.6564 -1.4542  0.8206
 6290SOL    HW230507   3.028   0.307  15.209  1.3679  0.0753 -1.9475
 6291SOL     OW30508   4.435   4.613   8.537  0.0292  0.2585 -0.2640
 6291SOL    HW130509   4.355   4.599   8.487 -0.8229  0.2262  1.1265
 6291SOL    HW230510   4.496   4.648   8.472 -1.4397  0.2428 -1.6336
 6292SOL     OW30511   1.054   1.814  10.819  0.6584 -0.5371  0.0918
 6292SOL    HW130512   1.117   1.776  10.758 -0.9370  1.4175 -2.7948
 6292SOL    HW230513   1.077   1.905  10.803  2.1912 -0.6879  1.4217
 6293SOL     OW30514   3.951   4.673   1.507 -0.3933  0.6551 -0.7878
 6293SOL    HW130515   3.983   0.021   1.473  0.7866  1.1805  1.6488
 6293SOL    HW230516   3.986   4.669   1.596  0.0779 -1.2098 -1.0491
 6294SOL     OW30517   0.092   2.019   4.873  0.6642 -0.0217 -0.0138
 6294SOL    HW130518   0.131   2.021   4.961 -0.7458 -1.7994  0.6537
 6294SOL    HW230519   0.017   2.078   4.879  2.1300  1.9239 -1.0471
 6295SOL     OW30520   3.964   1.253   4.435 -0.5244 -0.2436  0.0236
 6295SOL    HW130521   3.986   1.286   4.522 -0.6240 -0.6550  0.2058
 6295SOL    HW230522   4.046   1.247   4.386 -0.2416 -2.9982  0.8449
 6296SOL     OW30523   3.453   4.087   2.747 -0.2001  0.4818 -0.3695
 6296SOL    HW130524   3.409   4.058   2.668 -1.1772 -3.1001  1.4861
 6296SOL    HW230525   3.405   4.050   2.821  1.3936  1.9261  1.4009
 6297SOL     OW30526   4.221   0.942  13.872  1.0606  0.0848  0.0379
 6297SOL    HW130527   4.234   0.947  13.778 -0.6767 -0.7376 -0.2599
 6297SOL    HW230528   4.160   0.868  13.879  1.4721 -0.2530 -0.0138
 6298SOL     OW30529   4.190   1.207  12.051 -0.5190  0.1349  0.1514
 6298SOL    HW130530   4.199   1.297  12.081  1.4203 -0.1605  0.4102
 6298SOL    HW230531   4.100   1.189  12.078 -0.0271  0.8886  2.2068
 6299SOL     OW30532   2.000   4.300  10.070 -0.2512  0.2027 -0.3672
 6299SOL    HW130533   2.020   4.331   9.982  2.5419 -1.5658 -0.3697
 6299SOL    HW230534   2.070   4.348  10.114 -2.5379  1.6708  1.6309
 6300SOL     OW30535   2.522   2.620  12.336 -0.5551 -0.1426 -0.1693
 6300SOL    HW130536   2.601   2.572  12.309  0.4641  1.4783 -0.0327
 6300SOL    HW230537   2.469   2.541  12.323 -0.3098 -0.4877  0.9479
 6301SOL     OW30538   0.194   4.232  10.473 -0.3020 -0.2301  0.3433
 6301SOL    HW130539   0.154   4.261  10.555 -1.2601  0.8196 -0.5034
 6301SOL    HW230540   0.200   4.310  10.418  1.2976 -0.9061 -0.4540
 6302SOL     OW30541   0.366   3.534   8.641  0.5762 -0.3705  0.0820
 6302SOL    HW130542   0.380   3.624   8.669 -2.4856  1.4391 -4.0461
 6302SOL    HW230543   0.419   3.492   8.708  1.1410  0.2204  0.0060
 6303SOL     OW30544   3.898   4.406   2.690  0.3858 -0.2931  0.0916
 6303SOL    HW130545   3.836   4.359   2.746 -1.4241 -1.4700 -2.9083
 6303SOL    HW230546   3.922   4.346   2.620  0.6255  0.7752 -0.7551
 6304SOL     OW30547   2.397   3.014   8.258 -0.9758 -0.0850  0.1633
 6304SOL    HW130548   2.466   2.958   8.294  0.0524  1.3742  0.4450
 6304SOL    HW230549   2.395   2.990   8.166 -0.3170 -0.0305  0.1319
 6305SOL     OW30550   1.802   0.333   2.156  0.3753  0.0428  0.8856
 6305SOL    HW130551   1.881   0.357   2.205 -0.5878  0.6628  2.1348
 6305SOL    HW230552   1.840   0.331   2.067  2.3575 -2.8522  1.8034
 6306SOL     OW30553   3.069   3.982   7.975 -0.0403  0.8231  0.6441
 6306SOL    HW130554   3.054   4.067   8.017 -0.3111  1.5987 -1.0424
 6306SOL    HW230555   2.982   3.945   7.983  0.2049  0.3320  1.0605
 6307SOL     OW30556   1.734   0.048   0.196 -0.0041  0.0315 -0.1713
 6307SOL    HW130557   1.703   4.720   0.261  0.2744 -0.1463 -0.2117
 6307SOL    HW230558   1.671   0.023   0.128 -1.9863  0.4836  1.4824
 6308SOL     OW30559   3.261   2.654   3.624  0.2573 -0.2522 -0.3129
 6308SOL    HW130560   3.217   2.731   3.659  0.6779 -0.2035  0.1058
 6308SOL    HW230561   3.209   2.580   3.656 -0.1113  0.4238  0.6552
 6309SOL     OW30562   3.824   1.131  12.847  0.1058  0.1575 -0.1766
 6309SOL    HW130563   3.861   1.046  12.822  1.6288  0.5684  0.7290
 6309SOL    HW230564   3.729   1.118  12.848  0.3307 -1.4176  0.5073
 6310SOL     OW30565   1.882   3.146   8.411  0.8749 -0.7612  0.1032
 6310SOL    HW130566   1.971   3.112   8.410  1.1787  0.0915 -0.9685
 6310SOL    HW230567   1.867   3.150   8.506 -1.0061 -3.7120 -0.0424
 6311SOL     OW30568   3.427   0.157   4.006  0.9686 -0.5486 -0.0785
 6311SOL    HW130569   3.383   0.101   3.942 -2.6459  0.5037  1.4903
 6311SOL    HW230570   3.427   0.103   4.084  1.1887 -1.1899 -0.5221
 6312SOL     OW30571   2.704   1.721   7.479 -0.1107 -0.2588  0.0168
 6312SOL    HW130572   2.760   1.649   7.508  0.7517  0.0714 -0.8076
 6312SOL    HW230573   2.766   1.779   7.434 -0.6104  0.9325  0.8683
 6313SOL     OW30574   2.916   1.218  14.258  0.0591 -0.6135  0.9548
 6313SOL    HW130575   2.971   1.202  14.335  0.7267 -0.1124  0.5741
 6313SOL    HW230576   2.949   1.151  14.199  2.2275  0.4089  1.0077
 6314SOL     OW30577   1.788   0.382   1.382 -0.1447 -0.0493  0.2094
 6314SOL    HW130578   1.851   0.321   1.419  0.9158  0.2667 -1.0955
 6314SOL    HW230579   1.846   0.428   1.322 -0.2511  0.4680  0.5017
 6315SOL     OW30580   3.892   1.955   7.566 -0.4954 -0.1538  0.4174
 6315SOL    HW130581   3.814   1.982   7.615  1.0007  1.6491  1.8125
 6315SOL    HW230582   3.945   1.917   7.636  1.4436 -0.6814 -1.3360
 6316SOL     OW30583   0.683   0.280   2.997  0.2311 -0.2557  0.1480
 6316SOL    HW130584   0.724   0.343   3.056 -1.5145 -0.1026  1.1792
 6316SOL    HW230585   0.726   0.202   3.031  0.6304  0.4672  1.2920
 6317SOL     OW30586   4.629   1.479   7.160 -0.5661  0.3654  0.5875
 6317SOL    HW130587   4.645   1.525   7.242 -0.0550  0.7232  0.2918
 6317SOL    HW230588   4.549   1.431   7.182 -1.1869  0.2889 -1.8136
 6318SOL     OW30589   3.370   4.298   7.526 -0.1186 -0.3631  0.4797
 6318SOL    HW130590   3.395   4.349   7.449  0.4866  1.6294  1.9874
 6318SOL    HW230591   3.276   4.280   7.515  0.3398 -1.9811 -0.7727
 6319SOL     OW30592   1.414   0.970   6.862 -0.8617  0.2911  0.1667
 6319SOL    HW130593   1.354   1.007   6.799 -0.5173 -0.1577 -0.4284
 6319SOL    HW230594   1.411   0.878   6.834 -0.0880  0.8813 -1.8062
 6320SOL     OW30595   1.534   0.059   0.546 -0.1515 -0.4614  0.2158
 6320SOL    HW130596   1.565   0.140   0.506 -0.7289 -0.8042 -0.9006
 6320SOL    HW230597   1.486   0.021   0.473 -0.2066 -0.6454  0.3457
 6321SOL     OW30598   0.928   2.654  12.246  0.9823 -0.6660 -0.1516
 6321SOL    HW130599   0.996   2.590  12.225 -0.5161 -2.5292  0.6724
 6321SOL    HW230600   0.891   2.683  12.163 -0.0460 -1.8386 -0.1050
 6322SOL     OW30601   3.557   2.038  10.812  0.3481 -0.4506 -0.4630
 6322SOL    HW130602   3.562   2.132  10.793 -0.8249 -0.2458  0.2143
 6322SOL    HW230603   3.469   2.019  10.843  0.9546 -0.0055  1.5574
 6323SOL     OW30604   3.242   0.066  15.157 -0.1154  0.4751  0.0919
 6323SOL    HW130605   3.336   0.079  15.148  0.4022 -2.6765  1.2256
 6323SOL    HW230606   3.226   0.045  15.065 -1.3475  1.2454  0.1193
 6324SOL     OW30607   3.089   0.946  12.038 -0.1691 -0.4980 -0.0133
 6324SOL    HW130608   3.037   0.907  12.109 -0.8236 -0.6443 -0.5706
 6324SOL    HW230609   3.066   0.891  11.963 -2.0370  0.0859  0.1169
 6325SOL     OW30610   2.446   1.333  16.242 -0.4479  0.0727  0.0798
 6325SOL    HW130611   2.503   1.270  16.197 -0.2762 -2.1651  3.4479
 6325SOL    HW230612   2.440   1.394  16.168 -0.1448  0.4060  0.3339
 6326SOL     OW30613   3.652   2.908   5.679 -0.1322  0.3439  0.1228
 6326SOL    HW130614   3.603   2.912   5.761 -0.1416 -2.0148  0.2297
 6326SOL    HW230615   3.640   2.817   5.651  3.0771  0.1365 -0.5029
 6327SOL     OW30616   3.038   2.750   7.935 -0.7436 -0.3458  0.2005
 6327SOL    HW130617   2.988   2.748   8.016 -0.8520 -2.7545  0.0666
 6327SOL    HW230618   3.046   2.844   7.916 -1.0051 -1.0600 -3.4367
 6328SOL     OW30619   0.979   0.883   5.874 -0.5443 -0.6550 -0.1703
 6328SOL    HW130620   1.051   0.825   5.848 -0.0080  0.2313 -0.6947
 6328SOL    HW230621   0.949   0.923   5.792 -0.3674 -2.2055 -0.9887
 6329SOL     OW30622   3.612   0.105  13.819 -0.0548  0.3215  0.1081
 6329SOL    HW130623   3.562   0.111  13.900 -2.5483  0.9615 -1.4706
 6329SOL    HW230624   3.684   0.169  13.818  0.6605 -0.4844 -0.5099
 6330SOL     OW30625   4.015   2.164   7.440 -0.2741 -0.2235 -0.3807
 6330SOL    HW130626   4.090   2.104   7.444  0.5621  0.7182 -1.8454
 6330SOL    HW230627   3.943   2.114   7.479 -0.5133 -1.0869 -1.9241
 6331SOL     OW30628   3.080   2.073   9.122  0.5095  0.5937  0.9293
 6331SOL    HW130629   3.087   2.157   9.077  1.0015  0.0903  0.0842
 6331SOL    HW230630   3.007   2.088   9.181 -0.6091  2.2040 -0.8978
 6332SOL     OW30631   0.591   4.267   6.729 -0.4342  0.4182  0.3448
 6332SOL    HW130632   0.667   4.241   6.678 -1.9246  0.4644 -1.9193
 6332SOL    HW230633   0.559   4.336   6.670 -3.3524 -0.0062  1.4542
 6333SOL     OW30634   0.395   1.218   3.593 -0.5345 -0.0701  0.2639
 6333SOL    HW130635   0.352   1.235   3.676  1.4694 -0.3488  1.3575
 6333SOL    HW230636   0.410   1.125   3.605  0.5117 -0.0393 -0.7058
 6334SOL     OW30637   2.627   1.450   5.277 -0.2221 -0.3650  0.3142
 6334SOL    HW130638   2.546   1.433   5.325 -0.3554 -3.5173 -1.0214
 6334SOL    HW230639   2.625   1.546   5.278 -0.0302 -0.3538 -1.1370
 6335SOL     OW30640   2.709   2.192  17.298  0.2487  0.0748 -0.2776
 6335SOL    HW130641   2.761   2.269  17.276 -0.1903  0.0896 -1.2616
 6335SOL    HW230642   2.766   2.115  17.300 -2.2489 -1.7049  1.7412
 6336SOL     OW30643   4.054   0.341   2.163  0.3607  0.0664  0.0257
 6336SOL    HW130644   4.017   0.346   2.251  0.9312  0.8237  0.2229
 6336SOL    HW230645   4.095   0.255   2.173 -1.3376 -0.8394 -0.7074
 6337SOL     OW30646   1.805   0.267   4.260  0.0984  0.6401  0.7734
 6337SOL    HW130647   1.827   0.234   4.173  1.1204 -1.0090  1.6701
 6337SOL    HW230648   1.822   0.361   4.254 -1.2121  0.7612 -0.9690
 6338SOL     OW30649   0.500   4.578   5.074  0.4224 -0.3511  0.0357
 6338SOL    HW130650   0.543   4.651   5.119  1.6409 -1.6122  0.9149
 6338SOL    HW230651   0.576   4.521   5.070  0.3956 -0.2977 -1.1156
 6339SOL     OW30652   0.080   1.134   6.092  0.4371 -0.3417 -0.2179
 6339SOL    HW130653   4.736   1.114   6.044 -0.1029 -1.1499  0.9981
 6339SOL    HW230654   0.036   1.174   6.167 -0.7695 -0.8522 -0.6623
 6340SOL     OW30655   1.850   0.978   5.980  0.3856 -0.2743 -0.3269
 6340SOL    HW130656   1.801   1.014   6.055 -2.3635 -1.6580 -1.4524
 6340SOL    HW230657   1.915   1.048   5.972  0.7040 -0.7613 -1.8889
 6341SOL     OW30658   3.861   0.802   2.472 -0.2888 -0.3211  0.2594
 6341SOL    HW130659   3.925   0.873   2.465  0.9380 -1.5214 -0.4897
 6341SOL    HW230660   3.871   0.751   2.391 -0.5627 -1.9428  1.2592
 6342SOL     OW30661   3.492   2.303   6.261 -0.2549  0.3518  0.3423
 6342SOL    HW130662   3.418   2.281   6.318  0.5668 -0.8209  0.9473
 6342SOL    HW230663   3.468   2.261   6.179 -0.2747  0.3441  0.3518
 6343SOL     OW30664   1.812   0.661  12.735 -0.3232  0.0471  0.5230
 6343SOL    HW130665   1.729   0.702  12.760 -0.8737 -2.0259  2.0895
 6343SOL    HW230666   1.837   0.600  12.805  2.2206 -0.1249 -0.5469
 6344SOL     OW30667   0.707   2.639   7.380  0.1366 -0.7248 -0.3128
 6344SOL    HW130668   0.756   2.559   7.360  0.6752 -0.2985 -0.6659
 6344SOL    HW230669   0.729   2.651   7.472 -3.9483  0.2904  0.5347
 6345SOL     OW30670   0.323   2.040   5.118 -0.1130 -0.6344  0.1558
 6345SOL    HW130671   0.290   1.951   5.128  0.9636 -1.0510  0.0135
 6345SOL    HW230672   0.340   2.062   5.210 -0.4305  1.7294 -0.3484
 6346SOL     OW30673   2.837   3.913   1.080  0.4054 -0.0918 -0.7380
 6346SOL    HW130674   2.846   3.855   1.004  0.7449 -0.3097 -0.5310
 6346SOL    HW230675   2.798   3.987   1.034  1.0894  0.9160  0.3251
 6347SOL     OW30676   2.884   1.524   9.614  0.3573 -0.4270  0.3449
 6347SOL    HW130677   2.830   1.468   9.559 -0.2809  0.6873 -0.1564
 6347SOL    HW230678   2.820   1.583   9.651 -2.8922 -3.2147 -0.8645
 6348SOL     OW30679   3.972   0.917   8.309 -0.3252 -0.4517  0.2078
 6348SOL    HW130680   3.984   1.011   8.322 -2.5986 -0.3798  1.8426
 6348SOL    HW230681   4.043   0.890   8.250 -0.2362  1.9588 -0.7816
 6349SOL     OW30682   1.052   0.174   6.661  0.2006 -0.5862 -0.0522
 6349SOL    HW130683   0.974   0.224   6.687  0.2195 -0.3899 -0.3767
 6349SOL    HW230684   1.044   0.094   6.714 -0.3184 -0.5277 -0.0391
 6350SOL     OW30685   2.714   4.697   5.637  0.0257  0.0055 -0.1872
 6350SOL    HW130686   2.727   0.017   5.560 -0.1097  3.2015  2.1186
 6350SOL    HW230687   2.627   4.723   5.665 -0.2216 -0.9806 -0.0327
 6351SOL     OW30688   0.831   0.899   6.171 -0.0530  0.7680 -0.8399
 6351SOL    HW130689   0.885   0.965   6.127 -0.5468  0.0258 -2.5757
 6351SOL    HW230690   0.844   0.825   6.112  1.8307  0.3853  0.0580
 6352SOL     OW30691   0.095   4.448   8.155 -0.2621  0.3878 -0.3571
 6352SOL    HW130692   0.047   4.417   8.232  1.9494 -1.1629  0.3945
 6352SOL    HW230693   0.145   4.370   8.131  1.8849  2.1897 -1.6627
 6353SOL     OW30694   3.850   0.372  12.142 -0.6688  0.4544  0.0715
 6353SOL    HW130695   3.857   0.464  12.168 -0.2611 -0.4901  3.2652
 6353SOL    HW230696   3.898   0.324  12.209 -0.8490  2.3384  1.5519
 6354SOL     OW30697   1.710   0.323   6.526 -0.1054  0.0932  0.0666
 6354SOL    HW130698   1.772   0.268   6.573 -0.6732  0.7468  1.5642
 6354SOL    HW230699   1.689   0.390   6.591  0.1724  3.7234 -3.5914
 6355SOL     OW30700   1.792   3.542   6.030 -0.0825 -0.0505 -0.7725
 6355SOL    HW130701   1.761   3.472   5.972  2.3573 -2.0608  0.2996
 6355SOL    HW230702   1.731   3.608   5.998 -0.7016  0.1167  0.7191
 6356SOL     OW30703   1.155   0.860  11.607 -0.2359  0.7511  0.7322
 6356SOL    HW130704   1.239   0.906  11.603 -0.9106  1.9036 -0.2485
 6356SOL    HW230705   1.093   0.923  11.571 -0.7157 -0.6159 -0.8411
 6357SOL     OW30706   1.967   2.233  16.645  0.4890  0.0243 -0.9266
 6357SOL    HW130707   2.062   2.232  16.632  0.8803  2.7647  1.6988
 6357SOL    HW230708   1.962   2.268  16.734  1.7123 -0.9044 -0.4963
 6358SOL     OW30709   2.285   1.570  12.759  0.5705 -0.4260  0.4123
 6358SOL    HW130710   2.232   1.594  12.835  1.1226  1.0481  0.3235
 6358SOL    HW230711   2.366   1.612  12.787 -0.0383  1.0735 -0.0743
 6359SOL     OW30712   1.302   0.705   8.034  0.0816  0.1430  0.2304
 6359SOL    HW130713   1.371   0.736   8.092 -0.4245  0.3629  0.7079
 6359SOL    HW230714   1.340   0.618   8.019 -0.0629  0.0963  0.1411
 6360SOL     OW30715   2.106   4.617   0.745  0.2001 -0.8085  0.0651
 6360SOL    HW130716   2.050   4.683   0.785 -0.0070 -2.3250  2.2367
 6360SOL    HW230717   2.152   4.671   0.681  0.2430 -0.7601  0.1370
 6361SOL     OW30718   3.973   4.114  12.270  0.4464 -0.0921  0.2207
 6361SOL    HW130719   4.011   4.200  12.290 -0.7879  0.3171  0.7783
 6361SOL    HW230720   3.905   4.116  12.338 -0.1147 -0.3885 -0.3366
 6362SOL     OW30721   3.718   3.257   3.034 -0.3027  0.3457  0.3445
 6362SOL    HW130722   3.718   3.223   2.944  0.1551 -0.1564  0.5283
 6362SOL    HW230723   3.728   3.175   3.082 -1.0686  1.4839  2.4349
 6363SOL     OW30724   1.139   1.769   8.712  0.1867 -0.3076 -0.3376
 6363SOL    HW130725   1.064   1.823   8.690  0.5987  0.2899 -0.2672
 6363SOL    HW230726   1.106   1.681   8.691 -1.9240  0.0055  1.7055
 6364SOL     OW30727   2.302   4.506   0.904  0.0312 -0.4172 -0.0773
 6364SOL    HW130728   2.309   4.568   0.977  0.3909  0.0220 -0.4849
 6364SOL    HW230729   2.228   4.544   0.856 -0.1751 -0.2588  0.3566
 6365SOL     OW30730   2.908   4.011   0.433  0.1857 -0.1356  0.3151
 6365SOL    HW130731   2.942   3.934   0.386  1.5245  1.4014 -1.2357
 6365SOL    HW230732   2.993   4.049   0.451  0.2711 -0.4691  0.6225
 6366SOL     OW30733   1.752   2.084  10.308 -0.1537 -0.4238  0.6235
 6366SOL    HW130734   1.809   2.128  10.246 -0.4793 -0.2123  0.4737
 6366SOL    HW230735   1.740   1.997  10.270  0.3348  0.6544 -1.9714
 6367SOL     OW30736   4.462   2.185   3.621  0.0125 -0.2289 -0.2361
 6367SOL    HW130737   4.525   2.116   3.599  0.4136 -0.4405  1.5544
 6367SOL    HW230738   4.382   2.132   3.614  0.6617 -1.2716  0.2519
 6368SOL     OW30739   0.186   2.089   8.396 -0.5352 -0.7370  0.1788
 6368SOL    HW130740   0.243   2.119   8.467  2.2204  2.0586 -3.2138
 6368SOL    HW230741   0.243   2.110   8.322  2.2086 -1.3881  2.0662
 6369SOL     OW30742   4.665   1.822   5.407 -0.1720  0.0158  0.1987
 6369SOL    HW130743   4.619   1.906   5.400 -0.3440  0.0766  2.1582
 6369SOL    HW230744   4.600   1.761   5.442 -1.2713  2.1475  1.8051
 6370SOL     OW30745   3.528   1.506   1.866 -0.0951  0.0726  0.0870
 6370SOL    HW130746   3.468   1.555   1.921 -0.6601 -1.3047  0.6715
 6370SOL    HW230747   3.608   1.558   1.878 -1.0385  1.4264  0.4287
 6371SOL     OW30748   2.537   4.621  16.540 -0.4238 -0.0613 -0.2959
 6371SOL    HW130749   2.589   4.678  16.482 -0.8300  1.7267  1.0744
 6371SOL    HW230750   2.553   4.655  16.628  0.7834  0.1794 -0.6080
 6372SOL     OW30751   0.677   2.091   6.149  0.0365  1.1701 -0.1909
 6372SOL    HW130752   0.586   2.116   6.136 -0.1475  0.0129 -1.0995
 6372SOL    HW230753   0.712   2.173   6.184  0.7883 -0.0931  2.0498
 6373SOL     OW30754   0.396   3.426  15.646 -0.1098 -0.9605  0.1571
 6373SOL    HW130755   0.428   3.432  15.556  0.1984  0.6199  0.3791
 6373SOL    HW230756   0.463   3.384  15.699  0.7848 -0.0335 -0.2529
 6374SOL     OW30757   2.021   4.401  16.787 -0.0920 -0.1557  0.1911
 6374SOL    HW130758   1.942   4.363  16.747  1.6506 -2.2697 -1.2194
 6374SOL    HW230759   2.089   4.353  16.739 -0.6375 -1.3155  0.5779
 6375SOL     OW30760   1.287   4.084   7.813 -0.1302  0.7039  0.2010
 6375SOL    HW130761   1.212   4.127   7.853 -0.7197  0.2445 -0.4146
 6375SOL    HW230762   1.321   4.049   7.895  0.1435 -3.5811 -1.7391
 6376SOL     OW30763   0.615   2.106  15.807 -0.0798  0.4179  0.2550
 6376SOL    HW130764   0.701   2.147  15.804 -0.0450  0.2047 -1.3309
 6376SOL    HW230765   0.645   2.018  15.829  2.2311  1.3353  0.7812
 6377SOL     OW30766   3.664   3.352  10.589  0.1085  0.7261  0.2811
 6377SOL    HW130767   3.713   3.401  10.523 -0.9681  1.3494 -0.0623
 6377SOL    HW230768   3.722   3.342  10.664  0.7978  1.1703 -0.1947
 6378SOL     OW30769   2.218   4.182   1.894  0.1392  0.1361 -0.0679
 6378SOL    HW130770   2.255   4.097   1.869  0.9589  0.7495 -0.9144
 6378SOL    HW230771   2.262   4.241   1.834 -0.3098  0.2934 -0.2412
 6379SOL     OW30772   0.201   2.528   1.979  0.0166  0.4038 -0.0643
 6379SOL    HW130773   0.150   2.488   2.050 -1.8199 -1.5521 -2.4887
 6379SOL    HW230774   0.267   2.576   2.030  1.2118  0.4041 -1.6305
 6380SOL     OW30775   4.691   0.450   1.961  0.0404 -0.4278  0.2017
 6380SOL    HW130776   0.044   0.422   1.982  0.0417 -0.7272 -0.2001
 6380SOL    HW230777   4.644   0.369   1.982 -4.7983  1.9564 -1.2549
 6381SOL     OW30778   3.832   0.304  13.836  0.2781  0.0018 -0.2844
 6381SOL    HW130779   3.811   0.397  13.842 -1.3884 -0.3548 -0.5457
 6381SOL    HW230780   3.867   0.289  13.924 -1.1859 -0.9835  0.1393
 6382SOL     OW30781   1.249   3.790  12.499 -0.2346 -0.0328 -0.1122
 6382SOL    HW130782   1.345   3.784  12.506 -0.2931  0.2240  0.7730
 6382SOL    HW230783   1.233   3.870  12.450  1.4421 -0.4710 -1.3966
 6383SOL     OW30784   4.507   2.754   8.334 -0.1918 -0.6117 -0.7695
 6383SOL    HW130785   4.575   2.773   8.269 -0.5249  1.2537 -0.5505
 6383SOL    HW230786   4.429   2.754   8.279 -0.9366 -0.3445  0.2912
 6384SOL     OW30787   3.450   4.587   7.079 -0.4302  0.5191  0.1874
 6384SOL    HW130788   3.377   4.590   7.141  0.0670  1.3571  0.7287
 6384SOL    HW230789   3.465   4.680   7.067 -1.8697  0.7648  0.2481
 6385SOL     OW30790   0.467   2.332   3.292  0.2286  0.2279 -0.2262
 6385SOL    HW130791   0.441   2.425   3.295  3.1372  1.0620 -0.6403
 6385SOL    HW230792   0.402   2.306   3.358 -2.2792  1.8371 -2.0779
 6386SOL     OW30793   2.878   0.007   0.994 -0.4323  0.0747  0.9497
 6386SOL    HW130794   2.953   0.012   0.934 -0.4218 -0.2500  0.9396
 6386SOL    HW230795   2.914   0.052   1.071  1.8832 -0.4178  0.1666
 6387SOL     OW30796   0.390   2.684   3.276 -0.1049  0.0478 -0.1437
 6387SOL    HW130797   0.435   2.755   3.323 -0.8157 -0.2286  0.9402
 6387SOL    HW230798   0.390   2.721   3.187  1.9570  0.0254 -0.1497
 6388SOL     OW30799   2.635   1.733  16.431  0.0460  0.0804 -0.2596
 6388SOL    HW130800   2.669   1.749  16.519 -0.9891 -1.2817  0.3938
 6388SOL    HW230801   2.679   1.651  16.406 -0.2796 -0.0693 -0.3499
 6389SOL     OW30802   1.400   3.685   7.492 -0.5399  0.3036  0.1655
 6389SOL    HW130803   1.395   3.706   7.585 -0.1536  1.9358 -0.1938
 6389SOL    HW230804   1.489   3.650   7.488 -0.1196  1.4802 -0.5741
 6390SOL     OW30805   0.247   0.938   0.081 -0.5053 -0.4678  0.4184
 6390SOL    HW130806   0.329   0.985   0.068 -0.4977  0.2000  2.8824
 6390SOL    HW230807   0.230   0.968   0.171 -1.3152  1.4710 -0.3654
 6391SOL     OW30808   1.156   2.574   9.372  0.0980  0.2765 -0.4809
 6391SOL    HW130809   1.087   2.613   9.426  0.7761  0.0556  0.5383
 6391SOL    HW230810   1.133   2.482   9.361 -0.3779  0.2883  0.4128
 6392SOL     OW30811   3.405   1.422  17.219  0.0664 -0.5009 -0.3887
 6392SOL    HW130812   3.355   1.390  17.144  0.2250  2.6955 -1.8618
 6392SOL    HW230813   3.389   1.346  17.275 -1.0118  1.5425  2.0378
 6393SOL     OW30814   3.773   3.876   7.941 -0.3996  0.5690 -0.6177
 6393SOL    HW130815   3.788   3.782   7.935  0.1395  0.5186  1.5845
 6393SOL    HW230816   3.680   3.884   7.918 -1.3344  1.7033  3.5352
 6394SOL     OW30817   1.212   2.509   5.037  0.1550  0.1154  0.4926
 6394SOL    HW130818   1.293   2.555   5.016 -0.1148  0.2691 -0.1902
 6394SOL    HW230819   1.175   2.569   5.102  1.8694  0.7841  0.8501
 6395SOL     OW30820   2.373   1.561  13.646  0.3153 -0.1462  0.2489
 6395SOL    HW130821   2.378   1.586  13.738 -1.7875 -4.2667  1.4319
 6395SOL    HW230822   2.389   1.467  13.653 -0.3188 -0.4153 -1.8265
 6396SOL     OW30823   4.543   2.520   8.506 -0.2321  0.1830 -0.1695
 6396SOL    HW130824   4.452   2.536   8.480 -0.4496 -4.1605 -2.1976
 6396SOL    HW230825   4.578   2.585   8.445 -0.7635  1.2076  0.6364
 6397SOL     OW30826   4.338   4.441   7.219  0.0526 -0.5442  0.0000
 6397SOL    HW130827   4.401   4.429   7.289  1.8757 -1.5080 -1.8087
 6397SOL    HW230828   4.374   4.372   7.163  1.4396  0.7162 -0.6467
 6398SOL     OW30829   0.252   2.107   5.392 -0.0172 -0.0841  0.0599
 6398SOL    HW130830   0.221   2.122   5.481 -1.5779 -1.4647 -0.2516
 6398SOL    HW230831   0.204   2.027   5.370  1.3389 -2.1716  4.6879
 6399SOL     OW30832   3.899   4.591   5.451  0.0521  0.1436  0.4548
 6399SOL    HW130833   3.988   4.587   5.485  0.3853  2.2920 -0.1587
 6399SOL    HW230834   3.863   4.502   5.451  3.7629 -1.3471  1.4878
 6400SOL     OW30835   1.256   4.673  11.377 -0.1312 -0.1372 -0.5873
 6400SOL    HW130836   1.173   4.720  11.390  1.2685  2.0023  0.5533
 6400SOL    HW230837   1.216   4.603  11.326  0.1624 -1.8915  1.5789
 6401SOL     OW30838   0.544   0.474  12.343  0.6441 -0.1098 -0.0018
 6401SOL    HW130839   0.483   0.534  12.301 -0.1997 -1.1165 -0.2027
 6401SOL    HW230840   0.483   0.444  12.411  0.0313  1.9119  0.3432
 6402SOL     OW30841   2.647   0.569   2.459 -0.2849  0.9740  0.0814
 6402SOL    HW130842   2.611   0.622   2.387 -1.2604  1.9714  1.3057
 6402SOL    HW230843   2.741   0.583   2.442 -0.5497  4.4500  1.3914
 6403SOL     OW30844   3.911   1.797  13.130 -0.6609  0.5444  0.2637
 6403SOL    HW130845   3.939   1.888  13.144  0.9061  0.7258 -4.0444
 6403SOL    HW230846   3.919   1.769  13.221  0.2839  0.0693  0.0323
 6404SOL     OW30847   1.337   2.133  10.836  0.1244  0.0274 -0.4606
 6404SOL    HW130848   1.255   2.120  10.789  0.2140 -0.0037 -0.6084
 6404SOL    HW230849   1.383   2.056  10.802 -3.0137 -1.6312 -0.9515
 6405SOL     OW30850   4.075   0.614   8.208  0.1358 -0.1705 -0.0783
 6405SOL    HW130851   4.084   0.565   8.127  1.2484  2.5284 -1.5600
 6405SOL    HW230852   3.983   0.639   8.199  0.4356  1.1426  0.6216
 6406SOL     OW30853   3.579   2.736   5.389 -0.3052  0.4610 -0.3794
 6406SOL    HW130854   3.563   2.748   5.482 -0.6944 -1.0673 -0.2409
 6406SOL    HW230855   3.663   2.781   5.381 -0.8209  1.3355 -0.8474
 6407SOL     OW30856   1.004   0.635  11.632  0.1488  0.6236  0.4314
 6407SOL    HW130857   1.028   0.717  11.588 -1.2675  0.7706 -0.0567
 6407SOL    HW230858   1.089   0.591  11.631 -0.1321  0.1034 -2.2775
 6408SOL     OW30859   1.398   1.076  17.193 -0.0713 -0.4225 -0.1849
 6408SOL    HW130860   1.413   1.168  17.218 -4.3294 -0.2224  1.5600
 6408SOL    HW230861   1.490   1.048  17.201 -0.2754 -1.2346 -0.6531
 6409SOL     OW30862   2.769   2.213   0.289 -0.0670  0.1648  0.2985
 6409SOL    HW130863   2.701   2.166   0.239 -0.5227 -1.5146  2.4994
 6409SOL    HW230864   2.763   2.189   0.381  0.1617  0.3848  0.3700
 6410SOL     OW30865   1.391   0.008   1.513  0.4162  0.4163  0.2033
 6410SOL    HW130866   1.414   0.098   1.535  0.9644  0.4828 -0.6501
 6410SOL    HW230867   1.476   4.700   1.513  0.0612 -0.2720  1.3238
 6411SOL     OW30868   3.394   0.601  14.313  0.7875  0.3191  0.3424
 6411SOL    HW130869   3.372   0.510  14.292 -2.3720  1.1311  0.2857
 6411SOL    HW230870   3.314   0.642  14.343  0.6009  0.2415 -0.0521
 6412SOL     OW30871   0.957   2.705   3.918 -0.1089 -0.0410  0.6340
 6412SOL    HW130872   0.920   2.774   3.974  0.6601  0.0662  0.9958
 6412SOL    HW230873   0.932   2.713   3.826 -0.6042  2.0258  0.9300
 6413SOL     OW30874   4.021   3.223   1.472 -0.0828 -0.5206 -0.1031
 6413SOL    HW130875   4.008   3.148   1.529 -0.8160  0.4459  1.0084
 6413SOL    HW230876   3.934   3.225   1.432  1.0447 -0.7949 -2.5417
 6414SOL     OW30877   1.953   3.627   2.361  0.7345 -0.1740  0.1135
 6414SOL    HW130878   1.889   3.678   2.409 -0.6056 -2.4384  0.7282
 6414SOL    HW230879   1.923   3.662   2.277 -3.0283  0.0098  1.5521
 6415SOL     OW30880   1.602   1.234   7.189  0.3259 -0.3540  0.2093
 6415SOL    HW130881   1.594   1.173   7.263 -0.2981  0.4992  0.8493
 6415SOL    HW230882   1.513   1.226   7.154  0.5474  1.3635 -0.7224
 6416SOL     OW30883   2.674   1.213   8.135  0.1226  0.4370 -0.0167
 6416SOL    HW130884   2.645   1.235   8.224  0.6834  1.4899 -0.0834
 6416SOL    HW230885   2.594   1.228   8.085  0.8564 -2.4135 -2.0320
 6417SOL     OW30886   1.052   0.901  17.704 -0.0342  0.1999  0.2565
 6417SOL    HW130887   1.128   0.958  17.694 -0.6648  0.5443 -2.7185
 6417SOL    HW230888   1.079   0.813  17.680  1.1420  1.0121 -1.4227
 6418SOL     OW30889   0.416   2.425   8.443  0.0733 -0.2900 -0.2060
 6418SOL    HW130890   0.510   2.444   8.443  0.3325 -1.5755 -0.1782
 6418SOL    HW230891   0.410   2.351   8.504 -0.3206  0.4935  0.7171
 6419SOL     OW30892   4.618   4.728   8.373 -0.1030 -0.3835  0.0128
 6419SOL    HW130893   4.583   0.081   8.362  0.7531 -0.1006 -0.4596
 6419SOL    HW230894   4.598   4.692   8.287  0.1086 -1.5605  0.4592
 6420SOL     OW30895   3.088   3.656  15.502 -0.7368  0.8597 -0.4125
 6420SOL    HW130896   3.087   3.662  15.406 -0.0062 -1.1561 -0.5423
 6420SOL    HW230897   2.994   3.661  15.520 -0.9258  1.0300 -1.4208
 6421SOL     OW30898   1.991   4.289  16.016 -0.3316 -0.0173  0.0664
 6421SOL    HW130899   2.074   4.324  16.046 -2.3143  1.6408  3.5678
 6421SOL    HW230900   1.939   4.368  15.998  1.4805  1.5546  1.7345
 6422SOL     OW30901   0.495   1.365   6.055  0.0622  0.0543 -0.0706
 6422SOL    HW130902   0.491   1.323   5.969 -3.3073 -1.0193  0.6194
 6422SOL    HW230903   0.441   1.442   6.042  0.3101  0.2259 -0.0869
 6423SOL     OW30904   3.931   2.282   3.715 -0.0897 -0.2429 -0.8559
 6423SOL    HW130905   3.967   2.307   3.800 -0.2604 -3.6048  0.1855
 6423SOL    HW230906   3.931   2.368   3.673  1.7557  0.6430  0.9391
 6424SOL     OW30907   3.444   3.842  11.683 -0.0720  0.3460  0.4535
 6424SOL    HW130908   3.419   3.895  11.759 -1.1055  0.9928 -0.3348
 6424SOL    HW230909   3.528   3.871  11.646 -1.0677 -0.7037 -2.6288
 6425SOL     OW30910   0.265   3.375   8.012 -0.2237 -0.0273  0.3697
 6425SOL    HW130911   0.298   3.413   8.094  0.4639  0.2170 -0.0219
 6425SOL    HW230912   0.289   3.284   8.031  2.8899  0.7589  0.2422
 6426SOL     OW30913   3.083   0.248   3.785 -0.4091 -0.3005 -0.0396
 6426SOL    HW130914   3.005   0.302   3.775  0.1515  1.2567  3.8948
 6426SOL    HW230915   3.065   0.212   3.872  0.1830  3.6758  1.7379
 6427SOL     OW30916   3.382   2.745   8.004  0.1361  0.9260  0.3472
 6427SOL    HW130917   3.452   2.806   8.028 -0.0266  0.6838  1.4411
 6427SOL    HW230918   3.304   2.790   8.036  0.6350  0.1192  2.7502
 6428SOL     OW30919   0.690   3.082   9.929 -0.2146 -0.3025  0.4468
 6428SOL    HW130920   0.696   3.055  10.021 -2.4571 -0.4445  0.5323
 6428SOL    HW230921   0.685   3.177   9.938 -0.6789 -0.2211 -0.7484
 6429SOL     OW30922   3.236   0.147   2.540 -0.6301 -0.0610 -0.1207
 6429SOL    HW130923   3.289   0.071   2.563 -1.3913 -0.4608  0.3267
 6429SOL    HW230924   3.176   0.159   2.613  1.0972 -1.8411  1.6005
 6430SOL     OW30925   0.362   1.583   2.181  0.0508 -0.0552  0.6672
 6430SOL    HW130926   0.399   1.495   2.174  1.3002  0.5993 -1.0741
 6430SOL    HW230927   0.425   1.611   2.247  1.8551  0.8142 -1.4084
 6431SOL     OW30928   4.643   4.571   5.543  0.8576 -0.0057 -0.3819
 6431SOL    HW130929   4.672   4.653   5.503 -2.0570  1.5609  0.7631
 6431SOL    HW230930   4.692   4.515   5.483 -1.0302 -0.4166 -1.5162
 6432SOL     OW30931   4.127   3.382   3.392  0.0198 -0.2041  0.1901
 6432SOL    HW130932   4.054   3.439   3.366  1.6709  2.1638  0.7882
 6432SOL    HW230933   4.192   3.451   3.389 -1.0659  0.8085 -0.0973
 6433SOL     OW30934   4.280   3.100   0.917 -0.3147 -0.7291  0.0816
 6433SOL    HW130935   4.200   3.081   0.867 -1.3877  1.6121  0.9320
 6433SOL    HW230936   4.345   3.046   0.871 -0.0235 -0.4556  0.1773
 6434SOL     OW30937   3.797   1.297  13.884 -0.0382  0.1876 -1.3868
 6434SOL    HW130938   3.846   1.215  13.872  0.5898  0.5080 -0.9959
 6434SOL    HW230939   3.858   1.348  13.831 -0.7926  2.3777 -0.1458
 6435SOL     OW30940   4.104   0.648  17.374  0.0322  0.4675  0.1451
 6435SOL    HW130941   4.122   0.571  17.429  2.3456  1.0181  0.1583
 6435SOL    HW230942   4.075   0.612  17.291  0.6604  0.5689 -0.1168
 6436SOL     OW30943   2.425   4.127   0.261  0.3650 -0.4307  0.3981
 6436SOL    HW130944   2.436   4.184   0.336  2.2975 -0.1550 -0.0989
 6436SOL    HW230945   2.487   4.056   0.276  0.6381 -0.1453  0.6049
 6437SOL     OW30946   0.792   1.832   4.669 -0.0735 -0.5235  0.3256
 6437SOL    HW130947   0.840   1.892   4.612 -0.8689  0.2820  0.4935
 6437SOL    HW230948   0.706   1.869   4.691 -0.0480 -0.4503  0.3031
 6438SOL     OW30949   0.807   0.530   2.626 -0.0795 -0.4155  0.1397
 6438SOL    HW130950   0.782   0.440   2.647  1.7093 -0.9813 -0.2269
 6438SOL    HW230951   0.763   0.574   2.699  1.6547  1.8058 -0.1596
 6439SOL     OW30952   0.582   2.321  13.968  0.2735 -0.2402 -0.5333
 6439SOL    HW130953   0.607   2.306  14.059  0.1117  2.0752 -0.1095
 6439SOL    HW230954   0.593   2.233  13.930  0.2134  0.6288 -2.5398
 6440SOL     OW30955   2.323   2.879  10.834 -0.3984 -0.0835  0.0590
 6440SOL    HW130956   2.281   2.928  10.763  0.6779 -0.7699 -1.0575
 6440SOL    HW230957   2.247   2.850  10.884  0.2490 -2.3726 -0.2795
 6441SOL     OW30958   3.627   0.309   4.381 -0.7099 -0.5862  0.2705
 6441SOL    HW130959   3.544   0.318   4.333 -1.6649 -3.2006  1.3839
 6441SOL    HW230960   3.643   0.401   4.403  1.0443 -0.8060 -0.1495
 6442SOL     OW30961   2.444   4.271   7.891 -0.0977 -0.4332 -0.3513
 6442SOL    HW130962   2.507   4.269   7.820  0.6842 -1.4952  0.3853
 6442SOL    HW230963   2.410   4.361   7.886  0.6996 -0.0729  0.9838
 6443SOL     OW30964   3.583   1.994   3.729 -0.2717 -0.8457  0.3028
 6443SOL    HW130965   3.647   2.015   3.661 -1.6353 -0.9004 -0.9983
 6443SOL    HW230966   3.513   2.056   3.708  1.6967  1.7711  1.5909
 6444SOL     OW30967   2.011   0.246   5.095 -0.5386  0.1186  0.0768
 6444SOL    HW130968   2.034   0.154   5.087  3.6863  1.1448  0.7067
 6444SOL    HW230969   1.928   0.234   5.141 -0.0434 -0.4433  0.8024
 6445SOL     OW30970   4.642   4.048   2.048  0.3674  0.3648  0.3173
 6445SOL    HW130971   4.725   4.072   2.089  0.1745  0.9251  0.3847
 6445SOL    HW230972   4.660   3.964   2.006 -1.4161 -0.2200  0.6912
 6446SOL     OW30973   4.613   2.226   6.547 -0.3696 -0.3489 -0.6876
 6446SOL    HW130974   4.538   2.188   6.500 -0.3308 -1.2492 -0.0107
 6446SOL    HW230975   4.596   2.318   6.567 -1.1132 -0.5268 -0.4878
 6447SOL     OW30976   2.120   4.004   3.362  0.1973  0.5855 -0.5861
 6447SOL    HW130977   2.102   4.071   3.296  0.1567  1.0225 -0.1401
 6447SOL    HW230978   2.120   4.060   3.441  0.1184 -0.4868  0.1751
 6448SOL     OW30979   2.414   1.554   3.074  0.4908 -0.2741  0.3400
 6448SOL    HW130980   2.468   1.475   3.072  1.2793  0.3062 -1.3837
 6448SOL    HW230981   2.425   1.584   2.984 -0.5192 -0.8223  0.0368
 6449SOL     OW30982   0.728   0.282   5.760  0.7137 -0.3706  0.1441
 6449SOL    HW130983   0.753   0.295   5.668  1.3382 -1.5760  0.1504
 6449SOL    HW230984   0.633   0.294   5.752  0.8329  0.5662  0.0362
 6450SOL     OW30985   3.708   3.327  14.616  0.6698  0.4388 -0.1010
 6450SOL    HW130986   3.639   3.296  14.557  1.3184  1.5631 -1.4295
 6450SOL    HW230987   3.695   3.280  14.699 -0.2850  0.2462 -0.3583
 6451SOL     OW30988   3.368   4.019   6.449 -0.2243  0.0973  0.0477
 6451SOL    HW130989   3.276   4.020   6.474  0.3553 -0.4709  2.1922
 6451SOL    HW230990   3.362   4.097   6.394  0.0409  0.5577  0.6769
 6452SOL     OW30991   2.920   2.356   7.936  0.1180  0.2822 -0.1152
 6452SOL    HW130992   2.965   2.367   8.019  0.0756 -3.3477  0.3586
 6452SOL    HW230993   2.908   2.262   7.923  1.7249 -0.0268  0.6691
 6453SOL     OW30994   3.544   3.970  12.105  0.3654 -0.4468  0.4697
 6453SOL    HW130995   3.635   3.942  12.122  0.1439 -1.0881  0.6106
 6453SOL    HW230996   3.535   4.047  12.161 -1.1827  0.1309 -0.5924
 6454SOL     OW30997   3.208   0.588   2.929  0.0645 -0.2489  0.0054
 6454SOL    HW130998   3.289   0.636   2.948 -0.0329  0.4134 -1.1923
 6454SOL    HW230999   3.229   0.533   2.853  0.9529 -0.3378  0.3178
 6455SOL     OW31000   3.742   0.162   3.317 -0.5477  0.0111 -0.1015
 6455SOL    HW131001   3.648   0.174   3.303 -0.6540  1.5004  1.8097
 6455SOL    HW231002   3.758   0.225   3.388  0.7976  0.9900 -1.2909
 6456SOL     OW31003   4.463   2.169   0.647  0.3265  0.0833  0.1156
 6456SOL    HW131004   4.376   2.146   0.680  1.2195 -3.0063  0.2642
 6456SOL    HW231005   4.468   2.122   0.564  0.3207  0.0741  0.1204
 6457SOL     OW31006   2.385   2.821   6.089 -0.4136  0.2327  0.4170
 6457SOL    HW131007   2.439   2.756   6.044 -0.7365  1.0035 -1.0911
 6457SOL    HW231008   2.447   2.863   6.148 -0.3073  0.0200  0.4568
 6458SOL     OW31009   2.681   2.882   4.488 -0.0187 -0.0127  0.1383
 6458SOL    HW131010   2.596   2.916   4.461 -1.3216 -0.9277  3.0792
 6458SOL    HW231011   2.725   2.897   4.404 -0.5197  4.0730  0.6095
 6459SOL     OW31012   0.716   4.408   5.047  0.1998 -0.0907 -0.4222
 6459SOL    HW131013   0.798   4.413   5.097  0.0357  0.8370 -0.2397
 6459SOL    HW231014   0.697   4.316   5.031  0.0604 -0.1448  0.0493
 6460SOL     OW31015   0.192   1.036  13.161 -0.4377  0.0961  0.3032
 6460SOL    HW131016   0.177   0.943  13.178 -1.1500  0.1530  0.0259
 6460SOL    HW231017   0.271   1.025  13.108 -0.0431 -0.6481  1.0493
 6461SOL     OW31018   0.920   2.651   8.799  0.0646 -0.2216  0.4476
 6461SOL    HW131019   1.000   2.641   8.747 -0.6294  1.2124 -0.8985
 6461SOL    HW231020   0.966   2.681   8.878 -1.7013  1.8073  0.7170
 6462SOL     OW31021   1.973   1.582   6.377 -0.3825 -0.5871  0.0052
 6462SOL    HW131022   1.976   1.527   6.299 -0.5090  0.2649 -0.6017
 6462SOL    HW231023   1.885   1.556   6.405 -0.7874 -1.7253 -2.2933
 6463SOL     OW31024   1.757   4.203   5.896  0.5044 -0.0870  0.9396
 6463SOL    HW131025   1.692   4.203   5.966 -0.8294 -1.2901 -0.3117
 6463SOL    HW231026   1.704   4.238   5.825  0.4415 -0.2623  0.9010
 6464SOL     OW31027   3.920   2.442  10.061  0.1010  0.0694 -0.4857
 6464SOL    HW131028   4.003   2.420  10.103  0.2376  2.7480  0.6205
 6464SOL    HW231029   3.916   2.537  10.071  2.2390  0.1271 -0.2143
 6465SOL     OW31030   2.554   1.180   6.089  0.7232 -0.4703  0.1757
 6465SOL    HW131031   2.582   1.262   6.048 -2.0567  0.3264 -0.0742
 6465SOL    HW231032   2.546   1.204   6.181  0.4114 -1.0455  0.2998
 6466SOL     OW31033   1.771   2.392   2.278 -0.5585 -0.2719  0.7212
 6466SOL    HW131034   1.859   2.357   2.291 -1.4642 -2.1452  1.7760
 6466SOL    HW231035   1.750   2.406   2.371 -1.0371 -0.9456  0.7120
 6467SOL     OW31036   2.290   1.935   2.307 -0.0551  0.4352  0.2787
 6467SOL    HW131037   2.304   1.846   2.275  1.1101  0.5464  0.4768
 6467SOL    HW231038   2.323   1.937   2.397 -0.5415  2.7837  0.4072
 6468SOL     OW31039   1.718   0.527   6.072  0.0838 -0.3165 -0.4647
 6468SOL    HW131040   1.675   0.501   5.990 -2.1815 -1.7168  1.1502
 6468SOL    HW231041   1.781   0.591   6.040  0.3590 -0.1649  0.3825
 6469SOL     OW31042   4.060   3.516   3.853 -0.3130 -0.0077  0.1354
 6469SOL    HW131043   4.037   3.575   3.925  1.1938  3.0861 -1.9401
 6469SOL    HW231044   3.988   3.529   3.792 -0.3872 -1.0350  0.0081
 6470SOL     OW31045   1.262   0.053   9.859  0.6485 -0.3064 -0.0786
 6470SOL    HW131046   1.202   0.025   9.928  0.5971  4.8727  1.9788
 6470SOL    HW231047   1.218   0.025   9.778  1.2083 -0.4939 -0.3194
 6471SOL     OW31048   0.791   1.097  13.511 -0.0939  0.2215 -0.5270
 6471SOL    HW131049   0.713   1.153  13.518 -1.7918 -2.0170 -1.6132
 6471SOL    HW231050   0.841   1.158  13.457  2.5255 -2.0750 -0.6700
 6472SOL     OW31051   3.429   1.370   2.654  0.3686  0.8678 -0.3407
 6472SOL    HW131052   3.368   1.372   2.581 -1.2411 -2.2481  0.9140
 6472SOL    HW231053   3.520   1.355   2.629  0.4282 -0.5605  0.6900
 6473SOL     OW31054   1.930   2.283   9.326 -0.2350  0.2298 -0.1303
 6473SOL    HW131055   1.907   2.288   9.234 -0.7801 -4.0204 -0.2040
 6473SOL    HW231056   2.020   2.314   9.339 -1.0168  1.3215  2.7454
 6474SOL     OW31057   1.471   3.085   3.051  0.3892 -0.4757 -0.0229
 6474SOL    HW131058   1.425   3.133   2.982  0.8895  2.0570  1.3857
 6474SOL    HW231059   1.480   2.997   3.016 -2.3007 -0.9214  0.4268
 6475SOL     OW31060   4.063   1.172   6.644  0.1792  0.1508  0.1879
 6475SOL    HW131061   4.140   1.148   6.696  0.6023 -1.7491 -1.3207
 6475SOL    HW231062   3.994   1.163   6.710 -0.0057  0.3820  0.0260
 6476SOL     OW31063   0.166   2.891   2.390 -0.6484 -0.6338  0.2643
 6476SOL    HW131064   0.138   2.899   2.482 -0.4644 -1.1006  0.3598
 6476SOL    HW231065   0.235   2.957   2.390 -0.1806 -1.1329 -0.3726
 6477SOL     OW31066   2.552   0.135   8.039 -0.4622 -0.6962  0.3214
 6477SOL    HW131067   2.620   0.199   8.020  0.6398 -0.9275  3.3982
 6477SOL    HW231068   2.546   0.080   7.961 -2.3817 -0.4259  0.2651
 6478SOL     OW31069   2.490   4.637   8.298 -0.0472 -1.0022 -0.1942
 6478SOL    HW131070   2.441   4.644   8.379  0.6172 -0.6195  0.1757
 6478SOL    HW231071   2.438   4.698   8.246 -1.8167 -1.5765  0.9254
 6479SOL     OW31072   1.441   4.238  13.652  0.4132  0.1521 -0.6625
 6479SOL    HW131073   1.470   4.147  13.647  0.2570 -0.0394  1.7200
 6479SOL    HW231074   1.368   4.224  13.712  0.7572 -1.3365 -0.6030
 6480SOL     OW31075   2.286   2.372   3.437 -0.9153  0.0716 -0.3692
 6480SOL    HW131076   2.251   2.414   3.516 -1.5436 -3.0518  1.0039
 6480SOL    HW231077   2.208   2.322   3.412 -1.2004  0.1118  0.4337
 6481SOL     OW31078   4.236   1.058  10.373  0.2833 -0.0200 -0.3464
 6481SOL    HW131079   4.297   1.013  10.431  2.0555  1.6425 -0.9198
 6481SOL    HW231080   4.164   1.069  10.435 -0.1475 -0.9656 -0.6713
 6482SOL     OW31081   1.520   2.972   7.057 -0.1277 -0.2027 -0.4574
 6482SOL    HW131082   1.559   3.051   7.019 -2.2250  0.9755 -0.1370
 6482SOL    HW231083   1.442   2.968   7.003 -0.7778 -0.8115  0.5172
 6483SOL     OW31084   0.526   2.407   5.157  0.0407  0.4170  0.0153
 6483SOL    HW131085   0.585   2.434   5.228  0.4821  1.8464 -0.8955
 6483SOL    HW231086   0.579   2.431   5.081 -1.9081  1.5780 -0.9825
 6484SOL     OW31087   1.257   1.912   5.306 -0.0717  0.4374 -0.0113
 6484SOL    HW131088   1.303   1.828   5.304  0.2019  0.5867 -0.0860
 6484SOL    HW231089   1.321   1.959   5.252  0.0198  1.8320  1.3136
 6485SOL     OW31090   1.507   0.470   5.367 -0.1224  0.1059  0.0907
 6485SOL    HW131091   1.523   0.392   5.315 -5.5957 -0.3198 -0.9565
 6485SOL    HW231092   1.477   0.431   5.449  2.2731 -0.2708  0.7742
 6486SOL     OW31093   2.930   4.485  11.712 -0.3035  0.6784  0.1351
 6486SOL    HW131094   2.943   4.517  11.623 -0.0669  1.3643  0.4152
 6486SOL    HW231095   2.940   4.569  11.756  1.8152 -0.1893  1.3163
 6487SOL     OW31096   0.133   3.425  15.605 -0.5658 -0.1633  0.2813
 6487SOL    HW131097   0.222   3.440  15.637 -0.6998 -1.0597  1.0774
 6487SOL    HW231098   0.130   3.508  15.557 -2.5019  0.2825  1.1569
 6488SOL     OW31099   4.254   2.428   3.464 -0.0394 -0.0364 -0.2338
 6488SOL    HW131100   4.256   2.333   3.467  0.7019 -0.0336 -0.5956
 6488SOL    HW231101   4.326   2.458   3.520 -0.7668  1.0074  0.1434
 6489SOL     OW31102   1.674   3.618  15.768 -0.1755  0.4277 -0.7897
 6489SOL    HW131103   1.732   3.631  15.843 -2.5181 -0.6237  1.1737
 6489SOL    HW231104   1.723   3.681  15.714  1.4535  0.0988  0.3118
 6490SOL     OW31105   4.299   4.317   2.421 -0.1133  0.0571 -0.1666
 6490SOL    HW131106   4.355   4.363   2.359  1.2996 -1.2405  0.1314
 6490SOL    HW231107   4.353   4.247   2.457  0.9744  0.2128 -1.5016
 6491SOL     OW31108   4.299   3.658   2.861  0.1963  0.8101  0.1461
 6491SOL    HW131109   4.222   3.617   2.821 -0.9070  0.4572  2.6571
 6491SOL    HW231110   4.307   3.732   2.800 -0.4361  0.8792  0.1540
 6492SOL     OW31111   0.424   2.844   3.038 -0.0637  0.1779 -0.5716
 6492SOL    HW131112   0.394   2.765   2.992 -2.0345 -0.0095  1.0551
 6492SOL    HW231113   0.361   2.914   3.022 -0.8311 -0.0204  1.6550
 6493SOL     OW31114   2.043   0.310   0.761 -0.0314  0.0307  0.2437
 6493SOL    HW131115   2.083   0.332   0.845 -1.7799 -0.1721  1.1214
 6493SOL    HW231116   2.009   0.224   0.784  2.3975 -0.7289  1.0046
 6494SOL     OW31117   0.716   3.925  17.468  0.9772  0.0153 -0.1256
 6494SOL    HW131118   0.739   3.883  17.551 -0.4625  0.7676  0.6588
 6494SOL    HW231119   0.721   4.017  17.495  1.4399  0.6371 -2.3303
 6495SOL     OW31120   0.350   1.260   8.250  0.7015  0.2501 -0.1344
 6495SOL    HW131121   0.255   1.251   8.244  0.4965  1.7023  0.8613
 6495SOL    HW231122   0.375   1.171   8.274  2.9390  0.3827 -1.8959
 6496SOL     OW31123   4.485   1.659   5.548  0.3437  0.1602  0.1917
 6496SOL    HW131124   4.560   1.602   5.566 -1.0621 -1.4065  1.1397
 6496SOL    HW231125   4.419   1.595   5.520 -2.5933  3.1729  0.2900
 6497SOL     OW31126   3.795   1.542   0.322 -0.2230 -0.5763  0.7305
 6497SOL    HW131127   3.866   1.606   0.312  0.3342 -1.2451  0.4003
 6497SOL    HW231128   3.839   1.473   0.372 -0.3844 -0.1232  1.4934
 6498SOL     OW31129   3.291   1.601   2.742 -0.1328  0.2700  0.4797
 6498SOL    HW131130   3.321   1.675   2.690  0.9114  0.4718  1.3577
 6498SOL    HW231131   3.366   1.545   2.722 -0.0964  0.4477  0.1126
 6499SOL     OW31132   2.559   3.432   8.907 -0.1361 -0.0090  0.4538
 6499SOL    HW131133   2.633   3.451   8.964  2.4924 -2.9982 -2.0539
 6499SOL    HW231134   2.600   3.357   8.865  0.9960  1.9065 -1.8326
 6500SOL     OW31135   1.385   0.621  10.847  0.5389  0.1715 -0.1788
 6500SOL    HW131136   1.409   0.675  10.923 -1.9577 -0.0586  0.7631
 6500SOL    HW231137   1.385   0.531  10.881  1.4120  0.2815  0.1098
 6501SOL     OW31138   1.890   0.255   3.138  0.1002 -0.0181  0.2030
 6501SOL    HW131139   1.833   0.332   3.140 -1.5825 -1.2366 -0.6477
 6501SOL    HW231140   1.944   0.284   3.065  1.7838 -0.9109  1.0986
 6502SOL     OW31141   1.520   3.488  17.515  0.1264  0.6412  0.4161
 6502SOL    HW131142   1.608   3.524  17.501  1.3239 -2.4205 -0.0071
 6502SOL    HW231143   1.523   3.447  17.602  1.6192  0.2111  0.1682
 6503SOL     OW31144   4.588   4.220  11.906  0.0156 -0.2797  0.1405
 6503SOL    HW131145   4.617   4.206  11.996  0.5604 -0.7605 -0.1058
 6503SOL    HW231146   4.505   4.175  11.918 -0.5359  1.4455  2.7854
 6504SOL     OW31147   1.957   2.760   9.521 -0.0739 -0.4776  0.2433
 6504SOL    HW131148   1.901   2.813   9.463 -0.0427 -0.4323  0.2543
 6504SOL    HW231149   1.898   2.715   9.581 -2.0774  1.4522 -0.2669
 6505SOL     OW31150   0.368   0.564   8.167  1.0450 -0.4114 -0.1930
 6505SOL    HW131151   0.316   0.509   8.226 -1.8399  0.8500 -1.5203
 6505SOL    HW231152   0.305   0.618   8.120  2.0381  2.4300  1.7551
 6506SOL     OW31153   3.546   4.252   1.179  0.1495  0.5552 -0.1957
 6506SOL    HW131154   3.484   4.195   1.133  0.4563 -0.7856  1.0553
 6506SOL    HW231155   3.594   4.279   1.101 -1.7887  0.3127 -1.4672
 6507SOL     OW31156   3.128   1.288  13.164  0.9843 -0.5003  0.3869
 6507SOL    HW131157   3.194   1.219  13.156  3.0974  1.3066  2.1788
 6507SOL    HW231158   3.046   1.241  13.148  0.2364  1.0898 -0.4515
 6508SOL     OW31159   1.205   4.622   4.105  0.6025 -0.2016  0.3466
 6508SOL    HW131160   1.208   4.697   4.164 -2.8945  1.1485 -1.1576
 6508SOL    HW231161   1.261   4.656   4.036  1.1419  0.5329  1.1471
 6509SOL     OW31162   2.016   0.973   2.823 -0.2660  0.6147  0.1974
 6509SOL    HW131163   2.046   1.029   2.751 -1.0177 -1.0109 -1.3581
 6509SOL    HW231164   1.963   0.908   2.778  0.3537 -0.4431  0.9895
 6510SOL     OW31165   2.865   2.650  12.112 -0.0807 -0.5039 -0.0394
 6510SOL    HW131166   2.895   2.646  12.021  0.5925 -1.8491  0.2378
 6510SOL    HW231167   2.911   2.729  12.139  0.6954  0.0906 -3.0980
 6511SOL     OW31168   1.560   2.557   2.109 -0.0654 -1.1405 -0.3240
 6511SOL    HW131169   1.618   2.519   2.175 -0.0798  1.9726  1.4537
 6511SOL    HW231170   1.581   2.497   2.037  3.2518 -0.0563 -0.2096
 6512SOL     OW31171   3.393   0.931   2.684  0.1384  0.3257  0.4420
 6512SOL    HW131172   3.480   0.891   2.681  0.1729  0.3588  0.8860
 6512SOL    HW231173   3.357   0.880   2.612 -0.2497 -0.8075  1.4266
 6513SOL     OW31174   0.100   4.204   3.564 -0.0686 -0.3136  0.4128
 6513SOL    HW131175   0.024   4.233   3.614  1.6431  3.3360  0.9645
 6513SOL    HW231176   0.064   4.192   3.477  0.6129  1.2723 -0.1065
 6514SOL     OW31177   3.229   2.869   3.174  0.2298 -0.4945  0.4269
 6514SOL    HW131178   3.163   2.939   3.172  1.9766  1.1926  1.5379
 6514SOL    HW231179   3.195   2.805   3.236 -0.0005 -0.0814  0.7344
 6515SOL     OW31180   0.909   4.062   9.146 -0.3808 -0.5147 -0.2355
 6515SOL    HW131181   0.966   4.005   9.094  2.0215 -0.9364  2.8567
 6515SOL    HW231182   0.963   4.065   9.225 -0.1139 -2.2926 -0.3382
 6516SOL     OW31183   0.640   0.670   2.812  0.2804 -0.2728 -0.4063
 6516SOL    HW131184   0.701   0.695   2.881 -1.5234  1.4209  0.5760
 6516SOL    HW231185   0.554   0.679   2.854  0.0059 -0.6013 -0.8865
 6517SOL     OW31186   2.326   1.128   8.250  0.3397 -0.1422  0.6879
 6517SOL    HW131187   2.265   1.099   8.182  1.9910 -2.5324  0.2042
 6517SOL    HW231188   2.276   1.195   8.295 -1.1408  0.3333 -1.7029
 6518SOL     OW31189   4.368   2.535   2.573  0.6414  0.4595 -0.2032
 6518SOL    HW131190   4.392   2.446   2.547  0.8952  0.3360  0.4456
 6518SOL    HW231191   4.280   2.538   2.535 -0.1813 -3.9151  1.3613
 6519SOL     OW31192   1.772   2.319   8.493  0.1655  0.0163  0.2231
 6519SOL    HW131193   1.712   2.393   8.501  2.0167  1.5568 -0.1381
 6519SOL    HW231194   1.748   2.283   8.408 -0.2577 -1.5509  1.0122
 6520SOL     OW31195   0.997   4.492   4.753  0.6310 -0.5567  0.1217
 6520SOL    HW131196   0.971   4.400   4.759  0.7583 -0.6538 -0.7682
 6520SOL    HW231197   1.059   4.495   4.825  0.0917  0.6646  0.5339
 6521SOL     OW31198   2.204   4.312   6.866  0.1640  0.1337 -0.5303
 6521SOL    HW131199   2.258   4.295   6.944  0.0988 -0.3522 -0.5932
 6521SOL    HW231200   2.258   4.276   6.796  1.7399 -0.9078  1.2023
 6522SOL     OW31201   0.971   3.328   9.128 -0.4021 -0.0153  0.4919
 6522SOL    HW131202   0.890   3.277   9.126  0.0454 -0.7371  0.5550
 6522SOL    HW231203   1.017   3.288   9.202  0.5515 -1.2795 -0.7641
 6523SOL     OW31204   0.410   2.536  17.353 -0.6020 -0.3394 -0.4179
 6523SOL    HW131205   0.446   2.533  17.442 -0.3291  0.6950 -0.4991
 6523SOL    HW231206   0.491   2.524  17.304  0.3257 -0.2618  1.1227
 6524SOL     OW31207   1.678   3.628   2.309  0.2330 -0.4573  0.1756
 6524SOL    HW131208   1.608   3.568   2.333 -1.1552  0.8610 -0.6068
 6524SOL    HW231209   1.642   3.704   2.355 -2.3468 -0.9160 -1.1212
 6525SOL     OW31210   2.332   4.228   1.340 -0.0207 -0.1047  0.3850
 6525SOL    HW131211   2.376   4.202   1.421 -0.9803 -1.5296  0.4374
 6525SOL    HW231212   2.407   4.266   1.294  0.1308  0.7398  1.3122
 6526SOL     OW31213   2.655   0.192   0.831 -0.3312 -0.3395  0.4350
 6526SOL    HW131214   2.736   0.202   0.880 -1.2100  0.3148  1.7567
 6526SOL    HW231215   2.700   0.178   0.748  0.3031 -0.6560  0.8302
 6527SOL     OW31216   4.222   2.893   0.672  0.8425 -0.6464  0.0354
 6527SOL    HW131217   4.201   2.803   0.699 -0.2852 -0.2853  0.3709
 6527SOL    HW231218   4.312   2.907   0.700  0.7654 -1.8072  0.8559
 6528SOL     OW31219   4.726   2.317   2.522 -0.1049  0.2226  0.6692
 6528SOL    HW131220   4.685   2.245   2.569  0.9655 -1.7848 -1.4839
 6528SOL    HW231221   4.669   2.317   2.445 -0.0205 -2.3126  0.5913
 6529SOL     OW31222   2.408   4.218   6.124 -0.4021 -0.5181  0.2018
 6529SOL    HW131223   2.480   4.155   6.129  0.9323  0.9449 -0.2773
 6529SOL    HW231224   2.460   4.299   6.127 -0.6616 -0.3573  0.3144
 6530SOL     OW31225   3.357   2.388   2.291  0.1026 -0.1114  0.0954
 6530SOL    HW131226   3.372   2.409   2.199  0.4941  0.1929  0.2304
 6530SOL    HW231227   3.376   2.477   2.320  0.2552 -0.3900  0.8342
 6531SOL     OW31228   3.657   2.708   2.877 -0.7215 -0.2229  0.1158
 6531SOL    HW131229   3.625   2.684   2.964 -1.9337  3.7024  0.7589
 6531SOL    HW231230   3.643   2.628   2.826 -0.4261  0.1063 -0.4767
 6532SOL     OW31231   2.338   0.675   3.301  0.1727  0.4952  0.4415
 6532SOL    HW131232   2.245   0.681   3.324 -0.1715  0.6547 -0.9616
 6532SOL    HW231233   2.384   0.728   3.366 -0.9421  0.1555  1.4923
 6533SOL     OW31234   1.352   2.618   7.369  0.0484  0.7596  0.4125
 6533SOL    HW131235   1.281   2.644   7.310  0.9267  1.8543 -0.1683
 6533SOL    HW231236   1.403   2.698   7.378  1.4857 -0.0916 -0.1241
 6534SOL     OW31237   3.256   4.155   3.650 -0.1621  0.1355  0.8564
 6534SOL    HW131238   3.167   4.164   3.617  0.2357 -1.3867 -0.6729
 6534SOL    HW231239   3.240   4.089   3.718 -0.8093 -4.3723 -3.6796
 6535SOL     OW31240   0.425   1.636   6.942  0.1851  0.0275 -0.4709
 6535SOL    HW131241   0.431   1.732   6.942  1.2920 -0.0423 -0.7010
 6535SOL    HW231242   0.378   1.605   7.019 -0.8727  0.4169 -0.9531
 6536SOL     OW31243   0.390   4.210   8.423  0.0688 -0.0445 -0.7210
 6536SOL    HW131244   0.409   4.286   8.477 -0.6522 -0.3965  0.0300
 6536SOL    HW231245   0.459   4.152   8.456 -0.6044 -0.1930  0.4279
 6537SOL     OW31246   0.754   2.264  15.104  0.4945  0.3161 -0.5185
 6537SOL    HW131247   0.767   2.331  15.171  1.1822  1.7520 -2.0783
 6537SOL    HW231248   0.773   2.187  15.158  2.6597  2.7658  2.2062
 6538SOL     OW31249   1.998   3.883  10.692 -0.0650  0.3515  0.4824
 6538SOL    HW131250   1.929   3.861  10.630  0.7715  0.2044 -0.4092
 6538SOL    HW231251   1.953   3.933  10.760  1.0047  0.3747  1.1803
 6539SOL     OW31252   0.988   4.290  16.664 -0.1227  0.0659  0.0097
 6539SOL    HW131253   0.893   4.304  16.664 -0.4297 -1.9510 -1.4760
 6539SOL    HW231254   1.011   4.383  16.663  0.4382 -0.1314 -3.5053
 6540SOL     OW31255   2.082   3.257   5.464  0.2167 -0.2305 -0.1279
 6540SOL    HW131256   2.158   3.313   5.482  1.5529 -1.8851 -0.5445
 6540SOL    HW231257   2.105   3.165   5.481 -2.5229 -0.6601  1.1811
 6541SOL     OW31258   2.883   2.151   2.272 -0.3282 -0.7003  0.5753
 6541SOL    HW131259   2.953   2.095   2.238  0.3806  1.0305 -0.8289
 6541SOL    HW231260   2.938   2.212   2.320 -1.0277 -2.1721  3.2206
 6542SOL     OW31261   1.382   4.309  12.345  0.8571  0.1760  0.3665
 6542SOL    HW131262   1.412   4.224  12.311  1.4420  0.4776  0.1184
 6542SOL    HW231263   1.429   4.319  12.428 -1.0809 -0.4894  1.5474
 6543SOL     OW31264   4.166   3.066   1.233 -0.3242 -0.3441 -0.4952
 6543SOL    HW131265   4.247   3.016   1.226 -0.5501 -1.0577  1.7858
 6543SOL    HW231266   4.154   3.084   1.327  2.8474 -0.1009 -0.1104
 6544SOL     OW31267   3.103   4.263   7.519 -0.6641 -0.0997  0.5837
 6544SOL    HW131268   3.027   4.215   7.552 -0.6413 -0.7151 -0.2535
 6544SOL    HW231269   3.070   4.315   7.446 -0.1659  0.4203  0.7338
 6545SOL     OW31270   3.565   2.702  12.972  0.1044 -0.1190  0.3965
 6545SOL    HW131271   3.528   2.617  12.947  1.3127 -1.4751  3.2929
 6545SOL    HW231272   3.484   2.748  12.995 -0.7028 -2.0178  1.3388
 6546SOL     OW31273   4.663   2.021   1.734  0.0779 -0.3296 -0.2445
 6546SOL    HW131274   4.666   1.971   1.652 -1.9110 -0.8262  0.0048
 6546SOL    HW231275   4.697   1.963   1.803  0.3876  1.9918  1.5380
 6547SOL     OW31276   2.211   2.551   2.918  0.2347 -0.1505  0.1834
 6547SOL    HW131277   2.203   2.463   2.881  1.2419  0.6775 -1.9822
 6547SOL    HW231278   2.272   2.597   2.861 -0.3694  2.8505  1.9360
 6548SOL     OW31279   0.854   3.192   2.155  0.2443  0.0580 -0.3700
 6548SOL    HW131280   0.855   3.161   2.246  2.6550  0.1845 -0.3645
 6548SOL    HW231281   0.845   3.112   2.105  2.0514 -1.5101  1.8054
 6549SOL     OW31282   0.961   0.537   8.306 -0.0020  0.4818 -0.1229
 6549SOL    HW131283   0.901   0.562   8.376  0.2132 -2.3610  1.0965
 6549SOL    HW231284   0.900   0.532   8.233  1.4936  2.3155 -1.4928
 6550SOL     OW31285   1.398   0.944   2.745  0.7466  0.3171  0.6516
 6550SOL    HW131286   1.456   0.896   2.804 -1.4470 -1.7674  1.0663
 6550SOL    HW231287   1.385   1.018   2.805 -0.7443  1.5977 -1.2513
 6551SOL     OW31288   4.173   1.047   4.149  0.0166  0.3817 -0.3715
 6551SOL    HW131289   4.210   1.106   4.214 -0.2988  0.6123 -0.3998
 6551SOL    HW231290   4.167   0.962   4.193  1.5224  1.7833  2.5474
 6552SOL     OW31291   0.065   3.925   4.885  0.3803  0.3310 -0.0102
 6552SOL    HW131292   0.024   4.009   4.863  1.0927  1.2795  2.2565
 6552SOL    HW231293   0.116   3.904   4.806  0.1252  1.9610 -0.6041
 6553SOL     OW31294   2.740   1.380   3.373  0.2835  0.1398  0.3108
 6553SOL    HW131295   2.762   1.331   3.293  1.3296 -1.1385  1.3838
 6553SOL    HW231296   2.800   1.453   3.358  1.3239 -0.9320 -0.7823
 6554SOL     OW31297   3.407   1.716   6.291 -0.1413 -0.2884  0.8248
 6554SOL    HW131298   3.408   1.689   6.199  0.8220  0.7990  0.5223
 6554SOL    HW231299   3.500   1.737   6.285 -0.2353 -0.0257  0.2922
 6555SOL     OW31300   4.236   2.302   6.656  0.5033 -0.0989 -0.1231
 6555SOL    HW131301   4.241   2.373   6.592  1.8124 -1.2319 -1.2853
 6555SOL    HW231302   4.254   2.353   6.735 -1.5792  0.2539  0.1246
 6556SOL     OW31303   0.214   2.504  13.830 -0.3718 -0.4243 -0.2268
 6556SOL    HW131304   0.278   2.532  13.765 -1.7429 -0.9318 -1.7835
 6556SOL    HW231305   0.165   2.582  13.855  1.7355  1.5530 -2.3477
 6557SOL     OW31306   0.765   0.257   5.475  0.4407  0.3054  0.1421
 6557SOL    HW131307   0.818   0.287   5.401  2.0772 -1.1367  0.7289
 6557SOL    HW231308   0.808   0.173   5.494 -0.0112 -0.0258 -0.2871
 6558SOL     OW31309   0.467   0.426   5.653 -0.8382  0.3885 -0.0606
 6558SOL    HW131310   0.426   0.510   5.635  1.0779  1.5327  0.9433
 6558SOL    HW231311   0.473   0.438   5.748  0.3905 -0.7559  0.0062
 6559SOL     OW31312   1.641   1.915  15.247  0.4919 -0.0148  0.0661
 6559SOL    HW131313   1.575   1.918  15.317 -0.6290  0.1241 -0.9939
 6559SOL    HW231314   1.592   1.872  15.177  0.4684 -1.5928  1.0629
 6560SOL     OW31315   1.497   0.606   1.989  0.3462 -0.2690  0.3451
 6560SOL    HW131316   1.403   0.604   1.974  0.2526  1.0604  0.7458
 6560SOL    HW231317   1.518   0.582   1.899 -1.2156  1.2776 -0.4348
 6561SOL     OW31318   0.864   1.543   5.284 -0.4495 -0.5032  0.0691
 6561SOL    HW131319   0.843   1.611   5.348  1.6212  0.5955 -0.4313
 6561SOL    HW231320   0.882   1.592   5.204 -0.4776 -0.8456 -0.1484
 6562SOL     OW31321   4.196   2.526   9.890  0.5527 -0.1691  0.5650
 6562SOL    HW131322   4.161   2.437   9.881  1.7883 -0.7732  1.7009
 6562SOL    HW231323   4.225   2.530   9.982 -2.0050 -2.3572  1.4561
 6563SOL     OW31324   4.497   2.570  16.597 -0.3900  0.0228 -0.1101
 6563SOL    HW131325   4.416   2.604  16.634 -0.3353 -0.5200  0.5030
 6563SOL    HW231326   4.558   2.640  16.621 -2.0126  1.7023 -0.8092
 6564SOL     OW31327   2.064   2.200   5.355 -0.1880 -0.5123  0.2485
 6564SOL    HW131328   2.091   2.116   5.315  1.2740 -1.0425  2.3655
 6564SOL    HW231329   2.137   2.228   5.410 -1.2762 -0.0041  1.4231
 6565SOL     OW31330   2.759   0.226   2.288 -0.1042 -0.1866  0.3358
 6565SOL    HW131331   2.684   0.243   2.231 -0.2563 -0.2942  0.5037
 6565SOL    HW231332   2.730   0.235   2.379  1.4303  2.3722  0.5682
 6566SOL     OW31333   3.157   4.080   0.440 -0.5831  0.0226  0.0839
 6566SOL    HW131334   3.217   4.026   0.493 -0.7446  1.2924  1.5548
 6566SOL    HW231335   3.215   4.096   0.366 -1.1600 -2.6084 -0.9264
 6567SOL     OW31336   0.293   3.685   9.128 -0.3895 -0.3309  0.6372
 6567SOL    HW131337   0.255   3.673   9.215 -1.0521 -2.8610  0.0130
 6567SOL    HW231338   0.208   3.696   9.085 -0.4486 -1.0706  0.5596
 6568SOL     OW31339   3.339   2.133  12.149 -0.0160  0.3690 -0.4172
 6568SOL    HW131340   3.289   2.214  12.158 -1.7980 -0.5745 -1.9567
 6568SOL    HW231341   3.297   2.107  12.067  2.5601  3.4639 -2.7472
 6569SOL     OW31342   3.958   0.361   4.299 -0.2066  0.3794  0.6442
 6569SOL    HW131343   3.892   0.413   4.253  2.2236  1.5159 -1.6176
 6569SOL    HW231344   3.907   0.281   4.306 -1.6495  1.3066  0.7496
 6570SOL     OW31345   1.556   2.283   1.586 -0.4467  0.5476 -0.2239
 6570SOL    HW131346   1.601   2.212   1.542 -1.3339  0.4777 -1.0249
 6570SOL    HW231347   1.636   2.326   1.617  0.1942  1.4556 -3.1425
 6571SOL     OW31348   2.336   2.701   8.464  0.5397 -0.1755  0.1806
 6571SOL    HW131349   2.340   2.610   8.494  0.9423  0.0472  0.8161
 6571SOL    HW231350   2.399   2.741   8.524 -0.4513  2.2805 -0.4553
 6572SOL     OW31351   0.694   3.214  14.902 -0.6514  0.2377 -0.8205
 6572SOL    HW131352   0.640   3.293  14.901 -0.0679  0.6674  0.6979
 6572SOL    HW231353   0.769   3.255  14.859  0.0183  0.0921  0.1868
 6573SOL     OW31354   2.028   0.798  12.931 -0.3436  0.4544  0.9421
 6573SOL    HW131355   1.974   0.863  12.886 -0.2486  0.5210  0.9246
 6573SOL    HW231356   1.963   0.728  12.935  0.7185 -0.7759 -3.4032
 6574SOL     OW31357   0.246   4.638   9.043 -0.3533 -0.6563 -0.0454
 6574SOL    HW131358   0.209   4.703   9.103  1.2206  0.8475 -0.6915
 6574SOL    HW231359   0.334   4.634   9.080  0.2516  1.1604 -1.2941
 6575SOL     OW31360   3.339   2.653   2.670  0.3506 -0.5720 -0.2121
 6575SOL    HW131361   3.312   2.647   2.762  0.9191 -1.2522 -0.0882
 6575SOL    HW231362   3.430   2.624   2.682 -0.0387 -2.0114 -0.7677
 6576SOL     OW31363   0.128   2.593   1.729  0.8178 -0.2872  0.0225
 6576SOL    HW131364   0.159   2.567   1.815  0.4342  2.5238  1.0233
 6576SOL    HW231365   0.040   2.556   1.725  0.4818  0.5600 -0.5133
 6577SOL     OW31366   2.534   3.460  14.502 -0.8834  0.7492  0.1554
 6577SOL    HW131367   2.498   3.399  14.437 -1.0513 -1.0052  1.8971
 6577SOL    HW231368   2.626   3.433  14.500 -0.7523  1.0915  1.5964
 6578SOL     OW31369   1.340   1.697  11.207 -0.0054 -0.1640  0.1812
 6578SOL    HW131370   1.418   1.725  11.159 -0.5661  1.0657 -0.0133
 6578SOL    HW231371   1.351   1.757  11.281 -2.0313  1.2338 -0.6281
 6579SOL     OW31372   0.130   0.995   5.618 -0.0478  0.1018  0.3360
 6579SOL    HW131373   0.158   0.923   5.561  2.0922 -0.5981  2.2719
 6579SOL    HW231374   0.181   0.989   5.698 -1.3534 -2.5053  0.9378
 6580SOL     OW31375   4.612   0.510   4.256 -0.1219  0.7087 -0.6432
 6580SOL    HW131376   4.563   0.582   4.295  1.0295  0.2774  1.5870
 6580SOL    HW231377   4.675   0.549   4.195  0.6850 -1.1790 -1.0352
 6581SOL     OW31378   4.614   3.781   2.868 -0.0014  0.3297 -0.1712
 6581SOL    HW131379   4.580   3.710   2.813 -1.1757 -0.6351  1.8185
 6581SOL    HW231380   4.583   3.747   2.952 -1.6206  0.5567 -0.6814
 6582SOL     OW31381   4.731   1.287   5.148 -0.3343 -1.4377 -0.3607
 6582SOL    HW131382   4.685   1.221   5.096 -1.3206  0.7466 -2.2464
 6582SOL    HW231383   0.070   1.231   5.170  1.0116  1.5189  2.5465
 6583SOL     OW31384   2.842   3.670  17.575 -0.2240  0.2515 -0.1096
 6583SOL    HW131385   2.792   3.751  17.575 -2.9497 -1.4317  0.0230
 6583SOL    HW231386   2.787   3.616  17.518 -1.4777  2.5034 -0.9970
 6584SOL     OW31387   2.053   1.526   4.432 -0.3979 -0.3233  0.4154
 6584SOL    HW131388   2.002   1.575   4.368 -1.9868 -0.9272  1.2454
 6584SOL    HW231389   2.013   1.552   4.515 -1.2678 -0.7444  0.1217
 6585SOL     OW31390   2.687   0.758   8.233  0.2196  0.0899  0.0188
 6585SOL    HW131391   2.641   0.776   8.150 -1.8993  5.6555  2.3817
 6585SOL    HW231392   2.749   0.831   8.230  2.8355 -2.1771 -1.5675
 6586SOL     OW31393   2.476   2.368   7.491 -0.4297  0.1398 -0.2144
 6586SOL    HW131394   2.422   2.418   7.429 -0.1701  0.4178 -0.2189
 6586SOL    HW231395   2.434   2.282   7.495  0.1731 -0.1716 -0.6327
 6587SOL     OW31396   4.268   1.266   8.595 -0.2988  0.2572  0.0052
 6587SOL    HW131397   4.279   1.230   8.507 -0.6591  0.1931 -0.0127
 6587SOL    HW231398   4.322   1.198   8.635  0.5600 -0.8707 -3.0209
 6588SOL     OW31399   3.395   2.928   8.368 -0.2380  0.4399 -0.0655
 6588SOL    HW131400   3.385   2.911   8.461 -1.0775  2.0546  0.1326
 6588SOL    HW231401   3.450   3.005   8.380  1.6900 -1.0030  0.3246
 6589SOL     OW31402   1.819   0.249   4.511 -0.0204  0.3834  0.4879
 6589SOL    HW131403   1.913   0.261   4.518  0.0338  0.9601 -1.4015
 6589SOL    HW231404   1.818   0.260   4.416  0.2617 -0.1108  0.4255
 6590SOL     OW31405   3.937   4.730   8.332  0.4090 -0.2922 -0.0058
 6590SOL    HW131406   3.991   4.689   8.400 -0.1948 -0.4173  0.3991
 6590SOL    HW231407   3.900   0.061   8.389  0.4528 -1.1468  1.0306
 6591SOL     OW31408   1.145   2.277  15.747  0.7547  0.5812  0.5145
 6591SOL    HW131409   1.176   2.307  15.833  1.1663 -1.7810  1.1991
 6591SOL    HW231410   1.060   2.239  15.770 -0.1169  0.8553 -2.2896
 6592SOL     OW31411   4.077   3.415   6.554 -0.0493  0.5783 -0.2841
 6592SOL    HW131412   4.061   3.488   6.494 -1.1543  2.0338  1.8064
 6592SOL    HW231413   4.034   3.452   6.631 -0.2594 -0.6747  0.2052
 6593SOL     OW31414   3.507   3.270   2.475 -0.3420 -0.0929 -0.3367
 6593SOL    HW131415   3.435   3.227   2.521  0.1023  0.1968  0.6250
 6593SOL    HW231416   3.478   3.361   2.470 -0.6136 -0.2406 -1.4159
 6594SOL     OW31417   3.052   1.232   5.071  0.1667 -0.4541  0.0412
 6594SOL    HW131418   3.133   1.275   5.046  0.2749 -0.5286  0.2629
 6594SOL    HW231419   3.083   1.150   5.109  0.7514  0.2839  1.1397
 6595SOL     OW31420   4.482   4.363  11.707  0.0007  0.0817 -0.7743
 6595SOL    HW131421   4.518   4.331  11.790  0.3405  3.0536  0.2325
 6595SOL    HW231422   4.561   4.344  11.657 -0.3494  0.3642 -1.4403
 6596SOL     OW31423   4.354   3.777   5.144  0.2928 -0.3405  0.0737
 6596SOL    HW131424   4.378   3.795   5.235  0.5256 -0.2101 -0.0150
 6596SOL    HW231425   4.438   3.741   5.117  1.8364  1.1703  2.8386
 6597SOL     OW31426   2.395   0.599   0.406  0.1150 -0.0445 -0.5337
 6597SOL    HW131427   2.369   0.514   0.372 -1.7780 -0.0880  0.9990
 6597SOL    HW231428   2.388   0.646   0.323  1.9258  0.3665 -0.4395
 6598SOL     OW31429   3.558   2.361   1.097  0.1624 -0.0177  0.0226
 6598SOL    HW131430   3.644   2.364   1.137 -0.5413 -1.5873  1.6601
 6598SOL    HW231431   3.509   2.437   1.126  1.8599  2.0033 -2.3745
 6599SOL     OW31432   3.515   1.451  12.389 -0.4809  0.4748 -0.2006
 6599SOL    HW131433   3.468   1.371  12.363  1.4533 -1.0100  0.8593
 6599SOL    HW231434   3.599   1.410  12.410 -1.0926 -0.8585 -0.3651
 6600SOL     OW31435   1.964   0.069   0.858  0.3244 -0.2576 -0.0278
 6600SOL    HW131436   1.877   0.032   0.845  0.0075  0.7927 -0.9622
 6600SOL    HW231437   1.966   0.086   0.952  0.1945 -1.0082  0.1030
 6601SOL     OW31438   0.087   1.188   8.849  0.2103 -0.3585  0.3222
 6601SOL    HW131439   0.144   1.133   8.904 -0.1558 -0.9061  0.1506
 6601SOL    HW231440   0.057   1.250   8.915  1.9914 -0.0049  0.8165
 6602SOL     OW31441   3.771   3.137  17.129 -0.0478 -0.0050 -0.1082
 6602SOL    HW131442   3.724   3.111  17.208 -0.5881 -0.4132 -0.5616
 6602SOL    HW231443   3.846   3.186  17.164  1.2444 -1.1430 -1.2818
 6603SOL     OW31444   4.253   1.848   4.897 -0.4211  0.1347  0.3015
 6603SOL    HW131445   4.166   1.874   4.867 -0.5113  1.5067  1.7719
 6603SOL    HW231446   4.238   1.804   4.981 -0.0256  1.7431  1.2153
 6604SOL     OW31447   2.747   3.899   4.453  0.1158  0.7682 -0.7847
 6604SOL    HW131448   2.785   3.841   4.520 -1.0088  1.8174  0.7674
 6604SOL    HW231449   2.780   3.983   4.485  1.7299 -0.2145  0.1620
 6605SOL     OW31450   2.263   4.564   1.874  0.9892  0.3886  0.3854
 6605SOL    HW131451   2.355   4.582   1.857  0.5288  0.4593 -2.0589
 6605SOL    HW231452   2.246   4.495   1.810  2.4373  1.8268 -1.5368
 6606SOL     OW31453   0.172   3.797   1.076 -0.6514  0.7210  0.3666
 6606SOL    HW131454   0.264   3.773   1.066 -0.8769 -0.8012  1.8606
 6606SOL    HW231455   0.160   3.824   0.985 -1.7822  0.9448  0.5890
 6607SOL     OW31456   3.384   2.634   4.017  0.2092  0.4980 -0.5553
 6607SOL    HW131457   3.303   2.587   4.036 -0.7639  1.5336 -2.2115
 6607SOL    HW231458   3.350   2.717   3.986 -1.0820  0.8153  1.7078
 6608SOL     OW31459   3.360   0.303   0.867  0.2739 -0.6068  0.4102
 6608SOL    HW131460   3.284   0.323   0.921  0.7240 -2.4303  1.7178
 6608SOL    HW231461   3.393   0.236   0.926 -1.2207 -1.0514  0.7362
 6609SOL     OW31462   0.829   1.383   6.703  0.0472  0.2574 -0.0413
 6609SOL    HW131463   0.818   1.462   6.651  1.5686  0.5105  0.0162
 6609SOL    HW231464   0.778   1.388   6.783 -1.0555  1.0917 -0.7953
 6610SOL     OW31465   3.545   3.838   5.693 -0.3002 -0.1586  0.1837
 6610SOL    HW131466   3.480   3.824   5.762  0.6763 -3.2520  0.4580
 6610SOL    HW231467   3.568   3.751   5.661 -0.8049 -0.0323 -0.5166
 6611SOL     OW31468   1.629   0.655   1.062 -0.4148  0.3664 -0.1176
 6611SOL    HW131469   1.630   0.740   1.018  1.0760  0.4682  0.1150
 6611SOL    HW231470   1.537   0.643   1.085 -0.6758  1.6686 -0.4823
 6612SOL     OW31471   4.079   2.129   6.455 -0.0030  0.0226  0.1009
 6612SOL    HW131472   4.155   2.162   6.503  0.6971  0.0826 -1.0554
 6612SOL    HW231473   4.118   2.096   6.374 -1.0093  1.8461 -1.1427
 6613SOL     OW31474   1.276   4.205  17.506  0.4015 -0.5920  0.4460
 6613SOL    HW131475   1.249   4.244  17.423  1.8560  1.6269  1.0079
 6613SOL    HW231476   1.266   4.278  17.568  2.6606 -0.7858  1.0323
 6614SOL     OW31477   3.723   3.820   9.780  0.3742  0.1096  0.1678
 6614SOL    HW131478   3.708   3.864   9.863  0.1074  0.7815 -0.2367
 6614SOL    HW231479   3.640   3.777   9.760  0.4145  1.3749 -2.7507
 6615SOL     OW31480   4.470   3.474   5.625  0.0307 -0.3198 -0.2818
 6615SOL    HW131481   4.565   3.478   5.616 -0.3033  0.9541 -3.2561
 6615SOL    HW231482   4.460   3.511   5.713  0.2642 -1.3525  0.1719
 6616SOL     OW31483   4.278   0.264   1.277  0.2750  0.0842 -0.4423
 6616SOL    HW131484   4.370   0.242   1.291  0.4167  0.8011 -0.2041
 6616SOL    HW231485   4.287   0.347   1.230 -1.4947  1.2082  1.2070
 6617SOL     OW31486   1.066   1.896  12.150 -0.0079 -0.2940  0.2963
 6617SOL    HW131487   1.042   1.806  12.127 -1.5973  0.3294 -0.5100
 6617SOL    HW231488   1.050   1.947  12.070 -0.9230 -0.2665  0.5013
 6618SOL     OW31489   0.539   3.723   9.356  0.2440  0.6796  0.6913
 6618SOL    HW131490   0.475   3.750   9.291  1.2394  0.8867 -0.2143
 6618SOL    HW231491   0.607   3.788   9.337  0.8624 -0.8866 -2.4675
 6619SOL     OW31492   0.555   0.364  10.558 -0.0560  0.0889 -0.3200
 6619SOL    HW131493   0.489   0.428  10.530  2.0443  2.0299 -0.8781
 6619SOL    HW231494   0.562   0.306  10.483  1.1825 -0.2350  0.0437
 6620SOL     OW31495   4.296   2.905   8.843 -0.2783  0.1645  0.3094
 6620SOL    HW131496   4.364   2.847   8.809  0.9093  0.7971  1.5919
 6620SOL    HW231497   4.240   2.834   8.873  0.5147 -0.2947  0.7242
 6621SOL     OW31498   3.699   4.275   6.711  0.0447  0.6599  0.0771
 6621SOL    HW131499   3.669   4.320   6.790  0.3548  1.6628 -0.3732
 6621SOL    HW231500   3.665   4.192   6.744 -2.5629  0.8894 -2.0799
 6622SOL     OW31501   2.149   3.419  11.060 -0.0156 -0.1985  0.2138
 6622SOL    HW131502   2.159   3.507  11.023 -0.7322 -0.0179  0.4480
 6622SOL    HW231503   2.054   3.422  11.069  0.2279  3.3056  1.7510
 6623SOL     OW31504   1.649   3.709   3.675  0.4079  0.3864  0.4934
 6623SOL    HW131505   1.684   3.754   3.598  0.2092  0.4939  0.4674
 6623SOL    HW231506   1.556   3.726   3.667 -0.1166 -1.1429  3.3397
 6624SOL     OW31507   1.814   0.392   0.604  0.0100  0.4010  0.2660
 6624SOL    HW131508   1.909   0.393   0.611  0.0343  0.5272 -0.0966
 6624SOL    HW231509   1.791   0.436   0.686 -1.5150  1.4955 -0.7468
 6625SOL     OW31510   4.235   3.749   2.468 -0.2115 -0.1701  0.4764
 6625SOL    HW131511   4.249   3.795   2.385  1.3611 -0.1072  0.7796
 6625SOL    HW231512   4.211   3.821   2.526  0.2281 -1.6892  2.5333
 6626SOL     OW31513   1.094   2.771   3.470 -0.3925  0.1715  0.0642
 6626SOL    HW131514   1.019   2.814   3.510  1.2670  0.0248  3.3450
 6626SOL    HW231515   1.058   2.687   3.442  2.6587 -0.1178 -2.8981
 6627SOL     OW31516   1.199   4.295   0.008  0.4432  1.0494 -0.8143
 6627SOL    HW131517   1.226   4.365   0.068  1.5446  1.3048 -1.6011
 6627SOL    HW231518   1.159   4.231   0.067 -2.1047  2.1001 -1.3974
 6628SOL     OW31519   2.101   1.925   4.024 -0.4885 -0.3602 -0.1487
 6628SOL    HW131520   2.078   2.017   4.016 -0.7605 -0.7748 -4.3672
 6628SOL    HW231521   2.038   1.901   4.092  0.6886 -1.7402  0.4507
 6629SOL     OW31522   1.490   2.132   3.503 -0.2575 -0.4740  0.2729
 6629SOL    HW131523   1.499   2.128   3.408  1.5197  1.6514  0.3473
 6629SOL    HW231524   1.396   2.116   3.508 -0.4209  0.5632  0.3404
 6630SOL     OW31525   4.498   3.266   2.108 -0.1606 -0.6409 -0.7103
 6630SOL    HW131526   4.479   3.190   2.052 -2.6934 -0.8225  0.3562
 6630SOL    HW231527   4.546   3.314   2.041 -0.1974  0.1222 -0.1878
 6631SOL     OW31528   3.978   0.146   2.393  0.0666  0.0186 -0.5390
 6631SOL    HW131529   3.947   0.056   2.395  1.8702 -0.6350 -2.1902
 6631SOL    HW231530   4.057   0.135   2.340  0.2976 -0.7573 -0.0373
 6632SOL     OW31531   0.257   2.430  13.022  0.3843 -0.7667 -0.2041
 6632SOL    HW131532   0.277   2.432  12.928 -1.1523 -2.6365 -0.5666
 6632SOL    HW231533   0.162   2.424  13.023  0.3118  0.1775 -1.0651
 6633SOL     OW31534   3.967   1.583   3.497 -0.3028 -0.0732 -0.1945
 6633SOL    HW131535   4.031   1.607   3.430  1.1925 -1.8976  0.5978
 6633SOL    HW231536   4.007   1.619   3.576 -0.7197 -1.2234  0.5370
 6634SOL     OW31537   2.846   1.678   4.033 -0.3226  0.8026 -0.1095
 6634SOL    HW131538   2.873   1.635   3.952 -0.8511 -0.0873  0.1801
 6634SOL    HW231539   2.761   1.715   4.011 -0.2869  0.8384 -0.1844
 6635SOL     OW31540   1.699   2.149  10.752 -0.3829 -0.1269  0.3791
 6635SOL    HW131541   1.793   2.136  10.733 -0.1692  0.6074  0.9477
 6635SOL    HW231542   1.680   2.204  10.676  1.6172 -0.3860 -0.3251
 6636SOL     OW31543   1.164   1.987   1.009 -0.0095 -0.3819  0.2851
 6636SOL    HW131544   1.081   1.947   1.033 -0.1456 -0.3860 -0.1949
 6636SOL    HW231545   1.146   2.078   1.030 -1.3376 -0.5034 -0.3117
 6637SOL     OW31546   3.000   3.215  10.224  0.4969  0.2002  0.1087
 6637SOL    HW131547   2.938   3.153  10.261 -1.9824  1.9332 -1.1276
 6637SOL    HW231548   3.087   3.196  10.259 -0.1000 -3.7571 -0.6201
 6638SOL     OW31549   3.081   0.784   3.904 -0.3237 -0.3319  0.3283
 6638SOL    HW131550   3.035   0.731   3.969 -1.5922  0.7164  0.3038
 6638SOL    HW231551   3.086   0.727   3.828 -1.9733 -1.8787  1.3805
 6639SOL     OW31552   4.285   1.613   7.604  0.4823 -0.2789 -0.1036
 6639SOL    HW131553   4.304   1.551   7.674  0.9054  0.8596  0.7830
 6639SOL    HW231554   4.376   1.640   7.596  0.2886  0.1543 -0.8592
 6640SOL     OW31555   0.682   1.858   7.847  0.2753  0.5429  0.0083
 6640SOL    HW131556   0.598   1.812   7.845  0.5204  0.1415 -1.0288
 6640SOL    HW231557   0.726   1.813   7.920  2.5146  1.7978 -0.5733
 6641SOL     OW31558   0.059   4.524   9.782 -0.2311  0.0929 -0.3152
 6641SOL    HW131559   0.044   4.472   9.703  1.6096 -1.8951  0.6561
 6641SOL    HW231560   4.726   4.490   9.840  0.7491  0.2508  0.9250
 6642SOL     OW31561   1.254   0.607  14.942 -0.0423  0.2435 -0.1849
 6642SOL    HW131562   1.319   0.538  14.955 -0.8017 -0.3588  0.3810
 6642SOL    HW231563   1.275   0.629  14.851  0.2986  0.3275 -0.0860
 6643SOL     OW31564   0.940   2.792   2.964 -0.0796  0.4603  0.1404
 6643SOL    HW131565   0.894   2.709   2.979  0.4734 -0.1259 -1.4505
 6643SOL    HW231566   0.881   2.854   3.008 -0.7291  0.5782 -0.8909
 6644SOL     OW31567   4.223   4.075  12.120  0.0589 -0.1391 -0.2319
 6644SOL    HW131568   4.161   4.068  12.193  0.9804  0.1314  0.5707
 6644SOL    HW231569   4.290   4.137  12.149 -0.3499 -0.3511  1.1805
 6645SOL     OW31570   1.180   1.104   7.288  0.6759 -0.8442  0.1470
 6645SOL    HW131571   1.229   1.115   7.206  0.3148  0.4399  0.1101
 6645SOL    HW231572   1.237   1.041   7.333  1.9367  0.2191  0.0456
 6646SOL     OW31573   0.369   2.733  12.919  0.2957 -0.1596 -1.0175
 6646SOL    HW131574   0.277   2.758  12.910  0.5663  0.7971 -1.1287
 6646SOL    HW231575   0.378   2.660  12.858 -1.2792 -1.5601  0.4404
 6647SOL     OW31576   4.011   0.075   3.226 -0.4884  0.2184 -0.1002
 6647SOL    HW131577   3.925   0.092   3.264 -0.2995 -0.1831  0.5077
 6647SOL    HW231578   4.022   4.722   3.261 -0.4983  0.9605  1.7540
 6648SOL     OW31579   3.253   0.376   8.620 -0.1085  0.3177  0.6069
 6648SOL    HW131580   3.229   0.464   8.649 -0.8573  0.3850 -0.2102
 6648SOL    HW231581   3.165   0.352   8.593 -0.1557 -0.6058  1.5880
 6649SOL     OW31582   0.547   2.684   4.214 -0.0108  0.0212  0.4005
 6649SOL    HW131583   0.494   2.619   4.260  1.7186 -2.3774 -0.9965
 6649SOL    HW231584   0.495   2.762   4.233  0.4115  0.6143 -0.8376
 6650SOL     OW31585   2.187   1.659   8.032  0.1327 -0.0850  0.1461
 6650SOL    HW131586   2.184   1.571   8.069  0.3377  0.0295  0.4389
 6650SOL    HW231587   2.241   1.645   7.955  1.1577  0.9572  0.6825
 6651SOL     OW31588   0.308   0.252   5.227 -0.3563 -0.9742 -0.7498
 6651SOL    HW131589   0.269   0.318   5.284  1.4607  0.0194 -0.6751
 6651SOL    HW231590   0.387   0.233   5.277 -2.2920 -1.8199  1.9863
 6652SOL     OW31591   2.248   3.005  17.342 -0.2027 -0.2336  0.1500
 6652SOL    HW131592   2.282   3.024  17.254 -0.3501 -0.5607  0.0210
 6652SOL    HW231593   2.159   3.032  17.320 -0.0451  0.1943  0.0282
 6653SOL     OW31594   2.915   2.170  16.719 -0.3042 -0.5316 -1.0543
 6653SOL    HW131595   2.926   2.077  16.702  0.0725 -0.6493 -0.2098
 6653SOL    HW231596   2.995   2.200  16.675 -0.7963  0.1520 -1.4878
 6654SOL     OW31597   3.190   4.432  13.536  0.0124 -0.1316  0.1794
 6654SOL    HW131598   3.096   4.430  13.554  0.3978  1.7090  2.3485
 6654SOL    HW231599   3.206   4.524  13.555 -0.9594 -0.3994  2.2420
 6655SOL     OW31600   4.642   1.474   6.858 -0.4667 -0.0441  0.1221
 6655SOL    HW131601   4.652   1.487   6.952 -3.2787 -0.1625  0.4283
 6655SOL    HW231602   4.624   1.380   6.855 -0.1685 -0.0835 -0.4873
 6656SOL     OW31603   4.120   3.594  10.494 -0.2360 -0.4505 -0.1996
 6656SOL    HW131604   4.156   3.560  10.576 -1.1524 -0.8033  0.0651
 6656SOL    HW231605   4.167   3.677  10.487  1.6446 -1.7727 -2.9756
 6657SOL     OW31606   4.031   4.714   7.687  0.2222 -0.0159 -0.2899
 6657SOL    HW131607   3.969   4.682   7.752  1.6534  0.2408  1.2046
 6657SOL    HW231608   4.084   4.636   7.676  0.8176  0.3776 -0.2192
 6658SOL     OW31609   1.758   2.368  11.048 -0.1220  0.1088 -0.5822
 6658SOL    HW131610   1.668   2.347  11.076 -0.9433  1.5255 -2.1624
 6658SOL    HW231611   1.759   2.334  10.958 -0.5498 -0.0361 -0.5349
 6659SOL     OW31612   4.194   1.065   3.257  0.2514 -0.1207 -0.0738
 6659SOL    HW131613   4.146   1.142   3.286  2.2621  0.4750  1.6828
 6659SOL    HW231614   4.261   1.057   3.325  0.7745  0.6650 -0.5020
 6660SOL     OW31615   2.141   0.331   2.999  0.2436 -0.6981 -0.2770
 6660SOL    HW131616   2.214   0.382   2.964 -0.7343  0.9886  0.1444
 6660SOL    HW231617   2.164   0.330   3.092 -1.0640 -1.6687  0.0420
 6661SOL     OW31618   0.161   1.944   9.149 -0.8657 -0.3242 -0.2394
 6661SOL    HW131619   0.255   1.926   9.157 -0.7957  0.1434  0.0000
 6661SOL    HW231620   0.154   2.032   9.112  0.6428  1.0148  2.7146
 6662SOL     OW31621   1.929   1.832  10.833  0.1651 -0.1789 -0.1165
 6662SOL    HW131622   1.958   1.845  10.743  2.0911 -0.9801  0.3914
 6662SOL    HW231623   1.976   1.908  10.866  2.6996 -0.7214 -2.4899
 6663SOL     OW31624   4.635   1.298   9.073  0.4397  0.3343 -0.7767
 6663SOL    HW131625   4.719   1.291   9.119 -0.6325 -1.1135  0.8991
 6663SOL    HW231626   4.603   1.378   9.116  2.5849  1.2093 -0.7733
 6664SOL     OW31627   3.027   3.952   8.506 -0.9677 -0.0540 -0.1891
 6664SOL    HW131628   3.053   3.942   8.598 -1.0352 -1.7996 -0.3707
 6664SOL    HW231629   3.017   4.047   8.503  1.4258  0.2199 -0.1758
 6665SOL     OW31630   3.835   3.043   6.121 -0.1320  0.8525  0.1595
 6665SOL    HW131631   3.750   3.002   6.132  0.5287 -0.7730 -0.7256
 6665SOL    HW231632   3.847   3.024   6.028 -2.8237  1.1741 -0.2553
 6666SOL     OW31633   1.099   0.818   2.922  0.5191  0.1443 -0.1833
 6666SOL    HW131634   1.144   0.884   2.975  0.1919  0.2030  0.0242
 6666SOL    HW231635   1.164   0.750   2.939  1.0054  0.8363  0.7605
 6667SOL     OW31636   0.326   0.649   7.700 -0.0178  0.1925 -0.1605
 6667SOL    HW131637   0.347   0.582   7.765  0.0176  1.0102  0.6731
 6667SOL    HW231638   0.357   0.609   7.619  0.5667  1.0374 -0.3539
 6668SOL     OW31639   3.956   2.906   4.889 -0.2641  0.0698  0.6465
 6668SOL    HW131640   3.967   2.867   4.803  2.4558 -0.1551  1.1094
 6668SOL    HW231641   3.924   2.842   4.954  2.9572 -1.1655  0.9877
 6669SOL     OW31642   3.133   3.869   5.110  0.2499  0.1810  0.3439
 6669SOL    HW131643   3.064   3.834   5.167  0.1543  1.1532  0.8190
 6669SOL    HW231644   3.180   3.920   5.176  0.4005  2.3803 -1.4556
 6670SOL     OW31645   0.158   2.943   5.794 -0.0401  0.2352 -0.3615
 6670SOL    HW131646   0.208   2.869   5.758  0.4548  1.0058 -1.2706
 6670SOL    HW231647   0.232   2.988   5.834  0.8573 -0.7733 -0.8736
 6671SOL     OW31648   2.241   2.726   5.870 -0.4127 -0.1266  0.0873
 6671SOL    HW131649   2.281   2.781   5.937 -3.3482  1.6357  0.4354
 6671SOL    HW231650   2.310   2.729   5.803  1.1917 -0.9127  1.7340
 6672SOL     OW31651   3.749   1.665   2.700 -0.2125  0.1105 -0.0243
 6672SOL    HW131652   3.669   1.714   2.720  0.1346  0.6870 -0.0496
 6672SOL    HW231653   3.781   1.734   2.641 -1.0271  0.7751  0.3131
 6673SOL     OW31654   2.347   3.499   1.864 -0.6571  0.1540 -0.3419
 6673SOL    HW131655   2.273   3.444   1.892 -0.4811  1.3737  2.5004
 6673SOL    HW231656   2.399   3.502   1.944  0.7859 -0.6675 -1.2335
 6674SOL     OW31657   0.831   4.119   6.233 -0.2079 -0.4108 -0.2036
 6674SOL    HW131658   0.772   4.086   6.165  0.9481 -0.8927 -0.9870
 6674SOL    HW231659   0.910   4.068   6.215  0.3316  0.1420  0.6328
 6675SOL     OW31660   4.475   4.533  12.797 -0.2343  0.2899  0.1730
 6675SOL    HW131661   4.479   4.438  12.810  0.2791 -0.0406 -2.4500
 6675SOL    HW231662   4.569   4.548  12.799 -0.0130 -1.2645  1.7283
 6676SOL     OW31663   4.401   0.263   6.862 -0.4227 -0.1563 -0.1666
 6676SOL    HW131664   4.357   0.280   6.945  0.3799  0.4737  0.1239
 6676SOL    HW231665   4.332   0.205   6.827 -0.0828 -1.9906  2.2393
 6677SOL     OW31666   3.156   0.281   5.473  0.1532  0.2308  0.0600
 6677SOL    HW131667   3.243   0.321   5.469  0.5036 -0.2716  2.7567
 6677SOL    HW231668   3.174   0.190   5.450  1.9521  0.5447  0.2186
 6678SOL     OW31669   3.704   1.592   3.420 -0.6167 -0.1811  0.6507
 6678SOL    HW131670   3.796   1.574   3.437 -0.7332 -0.6928  0.7190
 6678SOL    HW231671   3.707   1.688   3.418 -2.0904 -0.1469 -0.2687
 6679SOL     OW31672   0.631   2.212   8.267  0.0598  0.3094  0.3208
 6679SOL    HW131673   0.686   2.248   8.337  0.2242 -2.3479  1.5620
 6679SOL    HW231674   0.583   2.153   8.326 -0.1812 -1.7574 -1.9305
 6680SOL     OW31675   0.035   4.306   1.642 -0.5094 -0.2753  0.0509
 6680SOL    HW131676   0.106   4.268   1.694  0.6875 -0.6746 -1.8865
 6680SOL    HW231677   0.061   4.398   1.633  2.3725 -1.3203 -1.8627
 6681SOL     OW31678   3.222   0.786  13.955  0.2937 -0.4743 -0.1247
 6681SOL    HW131679   3.266   0.859  13.912 -0.3847 -0.2117 -0.3824
 6681SOL    HW231680   3.295   0.749  14.005  1.7801  0.2584 -1.7424
 6682SOL     OW31681   1.559   0.559   8.230  0.0488  0.1135  0.6656
 6682SOL    HW131682   1.551   0.555   8.325  1.2786 -0.4520  0.7519
 6682SOL    HW231683   1.553   0.468   8.200 -0.7144 -0.2483  1.9211
 6683SOL     OW31684   3.957   4.154  13.692 -0.3859 -0.9195  0.3092
 6683SOL    HW131685   4.006   4.163  13.774  1.2937  2.3729 -1.0407
 6683SOL    HW231686   3.907   4.235  13.693  0.8401 -0.1544  0.2054
 6684SOL     OW31687   0.857   3.850  14.604  0.2240  0.0178  0.5982
 6684SOL    HW131688   0.807   3.779  14.643 -1.5925  1.2017  0.3933
 6684SOL    HW231689   0.897   3.894  14.679 -2.2211  3.7226 -0.2876
 6685SOL     OW31690   1.747   1.770   2.518 -0.2770  0.2541 -0.0273
 6685SOL    HW131691   1.670   1.715   2.534 -1.8531  2.2971 -0.6607
 6685SOL    HW231692   1.805   1.748   2.591  1.7235  2.0591 -1.0848
 6686SOL     OW31693   0.464   0.215  12.835 -0.3385  0.3916  0.4455
 6686SOL    HW131694   0.390   0.276  12.831 -0.7745 -0.1455  0.3101
 6686SOL    HW231695   0.526   0.242  12.766  0.0891 -1.1401  0.2324
 6687SOL     OW31696   3.277   4.601   8.646  0.0863  0.5990 -0.4964
 6687SOL    HW131697   3.222   4.546   8.590  0.0868 -0.0513  0.1498
 6687SOL    HW231698   3.362   4.608   8.602  0.6694 -1.3812  0.3005
 6688SOL     OW31699   0.045   2.312   3.804  0.9615  0.3016  0.8994
 6688SOL    HW131700   0.097   2.382   3.844 -0.4395  1.3022  0.9605
 6688SOL    HW231701   4.710   2.302   3.867 -0.6978  4.5827 -0.2881
 6689SOL     OW31702   0.158   1.360   1.781 -0.4115  0.5260 -0.3724
 6689SOL    HW131703   0.164   1.325   1.692  1.5046  0.8977 -0.4000
 6689SOL    HW231704   0.232   1.421   1.784  0.7021 -0.8802  0.9778
 6690SOL     OW31705   4.561   3.257   3.187  0.0465 -0.6861  0.1260
 6690SOL    HW131706   4.645   3.250   3.141  0.1463  0.1645  0.1802
 6690SOL    HW231707   4.515   3.316   3.127 -0.3782 -1.3267 -0.1859
 6691SOL     OW31708   2.378   3.701  10.477  0.3399  0.1543 -0.7760
 6691SOL    HW131709   2.383   3.688  10.571  0.6056 -1.3280 -0.9945
 6691SOL    HW231710   2.309   3.768  10.476 -2.9022 -3.1774 -1.2798
 6692SOL     OW31711   3.831   2.263  15.335 -0.7071  0.2947 -0.4656
 6692SOL    HW131712   3.869   2.306  15.411  1.9021 -0.5086 -1.3360
 6692SOL    HW231713   3.885   2.281  15.258  2.4356 -1.2038  1.3721
 6693SOL     OW31714   0.491   3.973   5.708  0.0018 -0.0249  0.0885
 6693SOL    HW131715   0.421   3.988   5.772  0.5397 -2.1139  1.1769
 6693SOL    HW231716   0.515   3.882   5.725  0.6685 -0.4413 -3.1515
 6694SOL     OW31717   4.696   1.083  14.393  0.4758 -0.0516  0.1090
 6694SOL    HW131718   4.677   1.122  14.479 -2.0466 -0.6590 -0.1505
 6694SOL    HW231719   0.038   1.131  14.366 -0.2164  1.0699  0.0909
 6695SOL     OW31720   1.984   0.432  10.102 -0.4783 -0.6368 -0.2810
 6695SOL    HW131721   1.956   0.395  10.186 -1.2806  2.2188  0.7113
 6695SOL    HW231722   2.051   0.496  10.125  0.7570 -1.4374 -1.6824
 6696SOL     OW31723   2.619   0.740  13.703 -0.3641  0.5381 -0.1373
 6696SOL    HW131724   2.539   0.786  13.677 -0.8498 -0.1871  0.0641
 6696SOL    HW231725   2.671   0.812  13.739  0.7887 -1.6109  2.5197
 6697SOL     OW31726   2.311   0.096   3.729  0.3822  0.4914  0.5292
 6697SOL    HW131727   2.330   0.162   3.795 -0.3149  0.7559  0.4701
 6697SOL    HW231728   2.383   0.098   3.666  0.0959  0.1728  0.1884
 6698SOL     OW31729   0.531   3.898   4.668 -0.0550 -0.4273  0.0188
 6698SOL    HW131730   0.597   3.934   4.608  0.8332 -0.5543  0.9030
 6698SOL    HW231731   0.552   3.805   4.665  1.2218 -0.1637  0.4204
 6699SOL     OW31732   0.991   0.482  15.870 -0.3758  0.5378 -0.3777
 6699SOL    HW131733   1.083   0.485  15.844 -0.6457  1.8104 -1.2438
 6699SOL    HW231734   0.973   0.390  15.884 -0.1986  0.2804 -1.8451
 6700SOL     OW31735   1.413   4.063  10.410 -0.4397  0.0998  0.3888
 6700SOL    HW131736   1.413   4.148  10.454  0.5358  0.2340  0.1336
 6700SOL    HW231737   1.460   4.089  10.330  0.4789 -1.5157  0.3954
 6701SOL     OW31738   0.658   0.499   5.257 -0.3257 -0.0073 -0.4910
 6701SOL    HW131739   0.563   0.505   5.245 -0.2173  2.7962  0.0117
 6701SOL    HW231740   0.676   0.435   5.326  0.7314  0.2407 -0.5289
 6702SOL     OW31741   2.614   3.488   6.827 -0.0715  0.0504  0.0853
 6702SOL    HW131742   2.641   3.434   6.752  0.4464 -0.1770  0.4374
 6702SOL    HW231743   2.629   3.436   6.905 -0.1741 -0.4825 -0.2544
 6703SOL     OW31744   3.548   0.689  14.737  0.4264 -0.0609  0.7819
 6703SOL    HW131745   3.463   0.645  14.729  1.2347 -1.7000  1.3050
 6703SOL    HW231746   3.607   0.636  14.684  0.2862 -0.2226  0.7854
 6704SOL     OW31747   2.481   2.267   4.792  0.2063  0.2172 -0.0248
 6704SOL    HW131748   2.526   2.183   4.780 -0.9783 -0.3006 -0.9229
 6704SOL    HW231749   2.530   2.293   4.869 -1.1493  2.1514  0.1668
 6705SOL     OW31750   2.465   2.249   2.599 -0.0764  0.5501 -1.1181
 6705SOL    HW131751   2.465   2.154   2.594 -0.0245  0.4732  0.1942
 6705SOL    HW231752   2.523   2.274   2.671 -2.0884  0.1014  0.6843
 6706SOL     OW31753   2.298   3.127   9.311 -0.5631 -0.5576  0.0921
 6706SOL    HW131754   2.329   3.213   9.340 -0.7197  0.1530 -1.8998
 6706SOL    HW231755   2.259   3.145   9.226  1.9974 -1.6830 -1.3048
 6707SOL     OW31756   0.239   3.402   5.271  0.6291  0.6191  0.1296
 6707SOL    HW131757   0.233   3.319   5.317  2.6481  0.7234  0.5956
 6707SOL    HW231758   0.326   3.428   5.302  0.8215  0.9011 -0.6455
 6708SOL     OW31759   2.231   2.728   7.684  0.3247  0.6113 -0.1863
 6708SOL    HW131760   2.190   2.652   7.644 -1.7185  1.2556  0.7324
 6708SOL    HW231761   2.252   2.773   7.602  4.4531 -0.8478  0.0568
 6709SOL     OW31762   3.898   0.185  14.893 -0.1398  0.5060 -0.1402
 6709SOL    HW131763   3.835   0.218  14.957  1.4066  1.4521  0.8949
 6709SOL    HW231764   3.952   0.264  14.892  1.4460 -0.6232 -2.2220
 6710SOL     OW31765   3.814   2.986  10.621  0.2289 -0.0511  0.3138
 6710SOL    HW131766   3.800   3.006  10.713  0.8435 -0.9812  0.6025
 6710SOL    HW231767   3.908   2.979  10.605  0.0168 -1.7740 -0.1672
 6711SOL     OW31768   3.232   3.374  11.993 -0.0908  0.4640 -0.0622
 6711SOL    HW131769   3.154   3.389  11.939  0.7880  1.6377 -0.9935
 6711SOL    HW231770   3.177   3.339  12.063 -1.6785  0.4761 -1.3046
 6712SOL     OW31771   1.869   3.825   3.856 -0.2262 -0.5599  0.1660
 6712SOL    HW131772   1.796   3.783   3.811 -0.2588  0.6707 -0.9564
 6712SOL    HW231773   1.939   3.818   3.791  1.4583  0.1559  1.9160
 6713SOL     OW31774   2.282   1.264  10.404 -0.0720 -0.6322  0.0015
 6713SOL    HW131775   2.266   1.173  10.428 -2.1664 -0.1211  0.5529
 6713SOL    HW231776   2.198   1.301  10.374  1.6082  2.0219 -1.4201
 6714SOL     OW31777   1.443   4.028  12.305  0.0193  0.0841  0.5007
 6714SOL    HW131778   1.517   4.010  12.363  1.5131  1.5047 -0.9683
 6714SOL    HW231779   1.417   3.939  12.279  1.6104 -0.5641  1.1501
 6715SOL     OW31780   3.336   2.198  16.994 -0.0687  0.4390  0.1050
 6715SOL    HW131781   3.241   2.202  17.001  0.0560 -0.7179  2.4390
 6715SOL    HW231782   3.361   2.186  17.086  1.3210  1.5001 -0.1272
 6716SOL     OW31783   4.433   3.917   3.413 -0.5839 -0.2876 -0.0582
 6716SOL    HW131784   4.364   3.857   3.441  0.2143 -1.5774 -0.9173
 6716SOL    HW231785   4.425   3.992   3.473 -0.5713 -0.9260  0.7433
 6717SOL     OW31786   4.301   2.832  10.416 -0.0602 -0.5606  0.1371
 6717SOL    HW131787   4.290   2.868  10.328 -3.5775  0.4771  0.9930
 6717SOL    HW231788   4.284   2.738  10.408 -2.1259 -0.2208  0.5046
 6718SOL     OW31789   1.762   2.834   3.265 -0.3838 -0.1313 -0.6451
 6718SOL    HW131790   1.682   2.883   3.285 -0.7472 -1.1569  0.4367
 6718SOL    HW231791   1.742   2.753   3.217  1.8797 -2.1338  1.8158
 6719SOL     OW31792   0.112   0.975  16.377  0.0219 -0.5264  0.1592
 6719SOL    HW131793   0.192   1.025  16.366 -0.1882  0.0565  1.1844
 6719SOL    HW231794   0.077   0.977  16.288  2.4313  0.0745 -0.7599
 6720SOL     OW31795   2.189   3.433  11.920  0.1327  0.5414 -0.0845
 6720SOL    HW131796   2.125   3.402  11.855 -0.3437 -1.5354  1.3964
 6720SOL    HW231797   2.174   3.384  12.000  2.2833  0.6441  0.3610
 6721SOL     OW31798   1.910   0.797   2.631  0.1302  0.2437 -0.2880
 6721SOL    HW131799   1.893   0.736   2.559  0.2403 -0.0940 -0.0273
 6721SOL    HW231800   1.827   0.843   2.640  1.1371  1.9455  0.3717
 6722SOL     OW31801   2.935   4.461   6.854  0.1338  0.2871 -0.1116
 6722SOL    HW131802   2.844   4.439   6.835 -0.0237  0.2941  0.6282
 6722SOL    HW231803   2.969   4.478   6.766 -0.8691 -2.3751 -1.0338
 6723SOL     OW31804   0.160   1.120   9.813 -0.0653 -0.4298  0.2088
 6723SOL    HW131805   0.095   1.187   9.833 -1.0533 -0.6145 -2.3259
 6723SOL    HW231806   0.203   1.163   9.739  2.1915 -1.5353  0.8498
 6724SOL     OW31807   3.228   3.455   7.167 -0.5186  0.7439 -0.4524
 6724SOL    HW131808   3.193   3.366   7.174  1.6125  0.0093  0.8098
 6724SOL    HW231809   3.303   3.448   7.107 -0.1780  0.9574 -0.0456
 6725SOL     OW31810   2.859   2.603   7.005  0.2691 -0.1697  0.3711
 6725SOL    HW131811   2.917   2.544   6.957  0.8311 -0.1359  1.0141
 6725SOL    HW231812   2.847   2.552   7.085  0.7676 -0.8852 -0.0091
 6726SOL     OW31813   2.605   2.336   9.324 -0.6941 -0.2418  0.0216
 6726SOL    HW131814   2.525   2.378   9.293 -0.5003 -0.3587 -0.6310
 6726SOL    HW231815   2.678   2.383   9.283  0.5555  0.8170  3.4774
 6727SOL     OW31816   0.292   2.556   7.672  0.7440 -0.8680  0.3552
 6727SOL    HW131817   0.215   2.552   7.615  0.6077  0.9063  0.4218
 6727SOL    HW231818   0.336   2.639   7.653  1.3259 -1.3646 -0.4791
 6728SOL     OW31819   1.436   0.106  15.184  0.4887 -0.0016  0.3102
 6728SOL    HW131820   1.477   0.082  15.101 -0.9855  0.4394 -0.5442
 6728SOL    HW231821   1.395   0.187  15.153  0.0882  0.1055  1.1356
 6729SOL     OW31822   3.198   4.282   0.037  0.5183 -0.4228  0.3126
 6729SOL    HW131823   3.281   4.242   0.066 -0.5675 -1.3731  2.0721
 6729SOL    HW231824   3.191   4.352   0.103  0.8484 -1.7093  1.7079
 6730SOL     OW31825   2.818   2.461   3.595  0.3968 -0.0900 -0.2481
 6730SOL    HW131826   2.738   2.502   3.562 -0.6552 -0.2054  2.0937
 6730SOL    HW231827   2.859   2.410   3.526  0.6466 -0.4496  0.1647
 6731SOL     OW31828   3.765   1.938  17.584 -0.1594 -0.4135  0.5350
 6731SOL    HW131829   3.699   1.988  17.631 -1.0918 -1.1529  0.0005
 6731SOL    HW231830   3.716   1.859  17.561 -0.1338  0.1078 -1.2890
 6732SOL     OW31831   2.784   1.915   2.529 -0.6338 -0.1690  0.0517
 6732SOL    HW131832   2.759   1.936   2.619 -1.2439 -0.2110 -0.1063
 6732SOL    HW231833   2.856   1.975   2.510  0.2961 -1.0420  0.8411
 6733SOL     OW31834   2.538   1.602   6.274 -0.1404  0.1224  0.3861
 6733SOL    HW131835   2.608   1.537   6.266 -1.2945 -0.8150 -2.2861
 6733SOL    HW231836   2.595   1.677   6.263 -1.1903  0.7554 -0.7828
 6734SOL     OW31837   0.618   1.857   4.099 -0.1149  0.0277  0.3363
 6734SOL    HW131838   0.570   1.835   4.019  0.7028  0.1560 -0.1833
 6734SOL    HW231839   0.672   1.930   4.068 -1.6932  0.5966 -1.1143
 6735SOL     OW31840   0.512   1.348   3.156 -0.4809 -0.1963  0.3702
 6735SOL    HW131841   0.422   1.376   3.139 -0.8742 -1.1744  0.8331
 6735SOL    HW231842   0.545   1.343   3.066  0.7107  0.0297  0.7937
 6736SOL     OW31843   1.739   1.568   3.116 -0.1003 -0.0305 -0.0594
 6736SOL    HW131844   1.720   1.479   3.085 -1.8505  0.0099  0.9337
 6736SOL    HW231845   1.714   1.568   3.208 -2.0209 -2.1203 -0.5761
 6737SOL     OW31846   2.361   3.050   0.342 -0.1004 -0.0076  0.0265
 6737SOL    HW131847   2.323   3.071   0.257  0.3720  2.4127  0.4263
 6737SOL    HW231848   2.295   2.997   0.386 -0.4197  0.2407 -0.1555
 6738SOL     OW31849   1.689   2.136   2.779  0.1805 -0.2481  0.1749
 6738SOL    HW131850   1.732   2.200   2.723  1.4547 -2.4856 -1.3721
 6738SOL    HW231851   1.732   2.055   2.752  0.2175 -0.1911  0.0649
 6739SOL     OW31852   1.498   4.392   1.173 -0.0104 -0.1052 -0.4084
 6739SOL    HW131853   1.552   4.454   1.222 -1.4125  1.1315 -0.4126
 6739SOL    HW231854   1.421   4.438   1.140  1.0919  0.7795 -1.7325
 6740SOL     OW31855   1.954   2.044   8.919 -0.3731 -0.2511  0.0260
 6740SOL    HW131856   1.973   2.063   8.827 -1.2024 -3.8437 -0.8778
 6740SOL    HW231857   1.992   1.957   8.910  1.4792  0.3693  1.8086
 6741SOL     OW31858   0.893   0.071   6.117  0.3581 -0.2441 -0.0523
 6741SOL    HW131859   0.913   0.076   6.211 -0.7879  2.3632  0.0535
 6741SOL    HW231860   0.809   0.025   6.114 -0.8179  2.0195 -1.6282
 6742SOL     OW31861   2.619   0.812   2.237  0.1800  0.4440 -0.2762
 6742SOL    HW131862   2.593   0.881   2.176 -2.0418 -0.8995 -0.8000
 6742SOL    HW231863   2.682   0.760   2.188  1.3508 -1.3630  3.1598
 6743SOL     OW31864   3.603   2.865   5.063  0.4403 -0.2780  0.4509
 6743SOL    HW131865   3.652   2.804   5.119  0.6837 -0.8730 -0.4235
 6743SOL    HW231866   3.664   2.907   5.003 -0.6358 -0.8714 -1.0398
 6744SOL     OW31867   2.752   4.604   9.181 -0.2377 -0.2645 -0.6085
 6744SOL    HW131868   2.695   4.531   9.207 -0.8657  1.1108  1.8214
 6744SOL    HW231869   2.802   4.567   9.108  2.2357  1.0507  0.4138
 6745SOL     OW31870   4.458   1.193   4.540  0.0310  0.2268 -0.5202
 6745SOL    HW131871   4.458   1.118   4.600 -0.6808 -1.0583 -2.1236
 6745SOL    HW231872   4.477   1.264   4.601  0.9122  1.9477 -2.8497
 6746SOL     OW31873   2.816   0.458  16.288 -0.2651  0.4364 -0.4316
 6746SOL    HW131874   2.794   0.438  16.197  0.7143 -0.3018 -0.5110
 6746SOL    HW231875   2.909   0.472  16.269 -0.2140 -0.2348 -0.6778
 6747SOL     OW31876   1.787   2.860   8.175 -0.0463 -0.1218  0.2790
 6747SOL    HW131877   1.843   2.861   8.097 -2.0637 -0.6974 -1.1763
 6747SOL    HW231878   1.778   2.765   8.184  2.1999 -0.4331 -0.8734
 6748SOL     OW31879   2.718   1.327   4.695  0.0467  0.3379 -0.1634
 6748SOL    HW131880   2.717   1.387   4.769 -1.8421  1.3021 -0.9842
 6748SOL    HW231881   2.668   1.257   4.736  1.4374 -0.1452  0.7269
 6749SOL     OW31882   1.366   3.960   5.398 -0.5792  0.4403 -0.3785
 6749SOL    HW131883   1.359   3.884   5.456  0.4563  0.7553  0.1506
 6749SOL    HW231884   1.313   3.922   5.328  1.5597  0.0866 -1.7821
 6750SOL     OW31885   2.952   0.180   8.208 -0.4700 -0.2484 -0.3185
 6750SOL    HW131886   2.966   0.116   8.278  1.2337 -0.2401 -0.6547
 6750SOL    HW231887   2.857   0.182   8.207 -0.4946 -0.9481  0.4060
 6751SOL     OW31888   1.340   2.116   4.860  0.4774  0.5805  0.0988
 6751SOL    HW131889   1.277   2.049   4.887 -0.4412  1.1169 -0.7315
 6751SOL    HW231890   1.377   2.146   4.943 -0.5407  0.6236  0.5400
 6752SOL     OW31891   2.188   3.002   6.083  0.0347  0.1412 -0.7378
 6752SOL    HW131892   2.266   2.947   6.093  0.2142  0.8367  1.5046
 6752SOL    HW231893   2.222   3.091   6.090  0.8542 -0.2657  0.4141
 6753SOL     OW31894   2.756   3.491   8.415 -0.5233  0.5181  0.0620
 6753SOL    HW131895   2.797   3.549   8.350 -0.5006  1.7879  1.2023
 6753SOL    HW231896   2.696   3.455   8.350  0.1187  0.5489 -0.5427
 6754SOL     OW31897   0.037   2.509   2.698  0.4156 -0.3282  0.1691
 6754SOL    HW131898   0.106   2.557   2.653 -0.6923  0.8512 -0.2908
 6754SOL    HW231899   0.018   2.435   2.640  0.8695  0.4065 -0.9065
 6755SOL     OW31900   0.170   4.353   5.954  0.0461 -0.4147 -0.1666
 6755SOL    HW131901   0.138   4.346   5.864  0.8604  0.0559 -0.4950
 6755SOL    HW231902   0.114   4.288   5.997 -0.1338 -0.5030 -0.5297
 6756SOL     OW31903   3.844   4.120   8.579  0.3624 -0.1143  0.2644
 6756SOL    HW131904   3.897   4.103   8.657  1.5077  3.8208  0.3371
 6756SOL    HW231905   3.839   4.216   8.575 -0.9061 -0.1870  0.0833
 6757SOL     OW31906   1.012   1.451   3.789 -0.7666 -0.7110  0.0814
 6757SOL    HW131907   1.023   1.434   3.696  0.6609 -2.8357  0.6260
 6757SOL    HW231908   0.992   1.364   3.823 -1.6913 -1.8334 -3.3429
 6758SOL     OW31909   0.486   4.197   9.177  0.1837 -0.0262  0.1404
 6758SOL    HW131910   0.455   4.108   9.163  1.5762 -0.3460 -0.9534
 6758SOL    HW231911   0.439   4.243   9.107  2.4452  1.6262 -0.2981
 6759SOL     OW31912   0.170   3.994   7.425  0.0717 -0.3997 -0.1591
 6759SOL    HW131913   0.164   4.088   7.406  0.1238 -0.1244  1.1602
 6759SOL    HW231914   0.082   3.964   7.445  0.5326 -0.4474  1.8147
 6760SOL     OW31915   1.443   4.267   4.820 -0.4620  0.4728  0.1669
 6760SOL    HW131916   1.349   4.248   4.820 -0.3698  0.0080 -0.4089
 6760SOL    HW231917   1.453   4.272   4.725  1.0215 -0.0921  0.2828
 6761SOL     OW31918   1.584   2.561   6.475 -0.1079 -0.7590 -0.1150
 6761SOL    HW131919   1.499   2.604   6.462  1.9537  2.9506 -1.2763
 6761SOL    HW231920   1.631   2.572   6.393  2.7834  0.6290  1.7005
 6762SOL     OW31921   1.597   3.880   7.194 -0.2883  0.4059  0.5358
 6762SOL    HW131922   1.534   3.824   7.150  2.8461 -1.9296 -0.9594
 6762SOL    HW231923   1.578   3.956   7.138  0.0131 -0.0853 -0.2347
 6763SOL     OW31924   4.157   1.305   5.009  0.1462 -0.3385 -0.7540
 6763SOL    HW131925   4.086   1.326   5.070  0.3685  0.9036 -0.9179
 6763SOL    HW231926   4.121   1.232   4.960 -0.1508 -0.7742  0.1075
 6764SOL     OW31927   4.539   3.913   3.857  0.0455  0.3732 -0.3142
 6764SOL    HW131928   4.525   3.998   3.900  0.2584  0.0118  0.4822
 6764SOL    HW231929   4.506   3.858   3.928  0.9135  0.3374  0.0557
 6765SOL     OW31930   1.912   2.090   6.430  0.4065  0.0212 -0.2851
 6765SOL    HW131931   1.897   2.117   6.340  1.0457 -0.0734 -0.4197
 6765SOL    HW231932   1.854   2.144   6.484 -0.7702 -0.9340 -0.5770
 6766SOL     OW31933   2.390   3.671   7.160 -0.4961  0.4494 -0.6056
 6766SOL    HW131934   2.415   3.690   7.070 -1.3360  0.9317 -0.7238
 6766SOL    HW231935   2.463   3.715   7.204  1.4973 -1.9580 -1.4791
 6767SOL     OW31936   3.037   1.643  12.792 -0.2095 -0.0101  0.0298
 6767SOL    HW131937   3.041   1.621  12.885 -1.6624 -1.9433 -0.3772
 6767SOL    HW231938   3.104   1.586  12.756  0.8264  0.4280  1.2878
 6768SOL     OW31939   1.655   1.023   9.362 -0.6335 -0.5041 -0.1634
 6768SOL    HW131940   1.582   1.019   9.423 -1.0890  0.1009 -0.6666
 6768SOL    HW231941   1.717   1.072   9.415  0.2964 -0.0996 -1.6070
 6769SOL     OW31942   2.811   1.583   4.577  0.1231  0.1900 -0.3208
 6769SOL    HW131943   2.797   1.589   4.482  1.0566  0.8101 -0.4170
 6769SOL    HW231944   2.813   1.488   4.590 -0.0465  0.2872  0.4329
 6770SOL     OW31945   2.718   0.543   5.022  0.3170 -0.1743 -0.1671
 6770SOL    HW131946   2.639   0.504   5.058  0.6810  0.4920  1.3514
 6770SOL    HW231947   2.679   0.617   4.975  0.5358 -0.6294 -1.0526
 6771SOL     OW31948   0.426   0.026  14.238  0.3915 -0.0419 -0.6872
 6771SOL    HW131949   0.389   0.077  14.166  0.0684  0.0273 -0.4749
 6771SOL    HW231950   0.349   4.720  14.279  2.9757 -2.1607  2.0452
 6772SOL     OW31951   3.014   3.861   5.568  0.4499  0.7382 -0.3736
 6772SOL    HW131952   2.986   3.770   5.558  1.5851  0.4204 -0.6509
 6772SOL    HW231953   3.076   3.881   5.498  1.7793  1.3904  0.9908
 6773SOL     OW31954   3.467   2.881  15.690  0.2116 -0.0684 -0.2997
 6773SOL    HW131955   3.479   2.966  15.733 -0.8684  1.2365 -2.5880
 6773SOL    HW231956   3.559   2.855  15.690  0.9559  2.5676  0.1309
 6774SOL     OW31957   0.906   4.038   4.958  0.5125  0.2187  0.3017
 6774SOL    HW131958   0.944   4.099   5.021  1.4352 -0.4530  0.3823
 6774SOL    HW231959   0.949   3.958   4.986 -1.5308 -1.0003 -0.0104
 6775SOL     OW31960   4.713   4.509  14.823 -0.3268  1.0585 -0.4420
 6775SOL    HW131961   4.623   4.538  14.843 -1.3232 -1.3912 -1.4107
 6775SOL    HW231962   4.713   4.431  14.879  0.1370  1.6570  0.3909
 6776SOL     OW31963   0.776   1.002   4.843 -0.1865 -0.0850  0.0162
 6776SOL    HW131964   0.774   0.913   4.807  1.9837  0.3044 -1.1305
 6776SOL    HW231965   0.685   1.025   4.860 -0.1501  2.6543 -3.5953
 6777SOL     OW31966   0.356   1.201   5.450 -0.0262  0.1238  0.1341
 6777SOL    HW131967   0.452   1.207   5.453 -0.1832  2.6631  0.6177
 6777SOL    HW231968   0.339   1.124   5.504 -1.2653  0.2257 -0.1085
 6778SOL     OW31969   1.860   2.970   9.363  0.0375 -0.3151 -0.3568
 6778SOL    HW131970   1.767   2.966   9.340 -0.3704  1.8346  0.9951
 6778SOL    HW231971   1.884   3.050   9.317  2.6884  0.6902  2.7911
 6779SOL     OW31972   4.558   1.560   9.162 -0.2128  0.0419 -0.5089
 6779SOL    HW131973   4.565   1.578   9.255 -1.6453 -1.2393 -0.1466
 6779SOL    HW231974   4.576   1.649   9.132 -0.7672 -1.4765 -5.4843
 6780SOL     OW31975   0.976   3.655  11.484  0.5961 -0.0531  0.3962
 6780SOL    HW131976   1.017   3.739  11.501 -0.2779  0.5417 -0.4365
 6780SOL    HW231977   0.998   3.632  11.393 -0.0805 -0.5223  0.3484
 6781SOL     OW31978   0.260   2.608   6.492  0.6436  0.2438 -0.5981
 6781SOL    HW131979   0.237   2.609   6.399 -0.3071  0.4972 -0.3701
 6781SOL    HW231980   0.352   2.584   6.488  0.3122 -0.9511 -1.2157
 6782SOL     OW31981   1.074   3.523  10.933  0.4996  0.4581 -0.2700
 6782SOL    HW131982   1.028   3.454  10.982 -0.3261  2.0863  1.2593
 6782SOL    HW231983   1.015   3.596  10.949  1.6395  1.5433 -1.0323
 6783SOL     OW31984   2.578   0.880  14.861 -0.5460 -0.8886 -0.0607
 6783SOL    HW131985   2.499   0.908  14.907 -0.6739  0.4410 -1.0644
 6783SOL    HW231986   2.520   0.864  14.787  0.5038  2.0278 -1.5397
 6784SOL     OW31987   3.380   3.555   2.720  0.3520  0.7140  0.1525
 6784SOL    HW131988   3.330   3.510   2.652 -1.8972  1.1344  1.5352
 6784SOL    HW231989   3.467   3.562   2.680  1.2672 -0.1577  1.9634
 6785SOL     OW31990   4.094   3.964  12.985 -0.5172  0.0770 -0.2794
 6785SOL    HW131991   4.115   4.039  12.929  1.8281  1.5556  2.5680
 6785SOL    HW231992   4.143   3.981  13.066 -2.1401 -0.0719  0.7348
 6786SOL     OW31993   0.130   1.138   4.862 -0.5571 -0.4730 -0.3230
 6786SOL    HW131994   0.152   1.201   4.931 -2.2013 -0.3033  0.0340
 6786SOL    HW231995   0.154   1.195   4.788 -0.2320  0.7429  0.7182
 6787SOL     OW31996   2.034   4.367   0.754 -0.0390 -0.6651  0.4220
 6787SOL    HW131997   1.944   4.374   0.786  1.1709  1.5710  3.4072
 6787SOL    HW231998   2.044   4.459   0.729  0.7490 -1.0958 -0.8347
 6788SOL     OW31999   2.238   2.939   6.420  0.1398 -0.1165 -0.6382
 6788SOL    HW132000   2.235   3.034   6.409  0.4109  0.2270  2.2114
 6788SOL    HW232001   2.226   2.949   6.515  1.6195 -0.3097 -0.4306
 6789SOL     OW32002   3.643   4.039  10.840 -0.2037  0.3930 -0.0551
 6789SOL    HW132003   3.584   4.061  10.912 -0.5463 -2.1628  0.4686
 6789SOL    HW232004   3.636   3.943  10.841  0.7676  0.3312  0.4554
 6790SOL     OW32005   1.692   0.996   3.069 -0.5261 -0.4837  0.3670
 6790SOL    HW132006   1.732   0.987   2.982  1.6396 -2.4152  1.5806
 6790SOL    HW232007   1.735   0.924   3.115  1.5870 -1.8730 -3.7220
 6791SOL     OW32008   0.450   1.762   8.886 -0.3527  0.3247 -0.4280
 6791SOL    HW132009   0.355   1.760   8.873 -0.6889 -0.7800  2.4192
 6791SOL    HW232010   0.452   1.851   8.922  0.1523  0.1572 -0.0564
 6792SOL     OW32011   2.537   1.387   1.247  0.2718 -0.4030  0.5038
 6792SOL    HW132012   2.444   1.406   1.261  0.6478  0.6683  1.6339
 6792SOL    HW232013   2.554   1.453   1.180 -3.1188 -1.2252 -1.1336
 6793SOL     OW32014   1.432   0.532   5.861  0.0493 -0.1478  0.2617
 6793SOL    HW132015   1.379   0.596   5.908  1.6575  0.3974  1.3079
 6793SOL    HW232016   1.512   0.577   5.834  0.1506  0.2424  1.2407
 6794SOL     OW32017   0.059   0.536  11.448  0.1310  0.1440  0.0699
 6794SOL    HW132018   4.709   0.503  11.473 -1.3067  1.2222 -3.5408
 6794SOL    HW232019   0.093   0.549  11.537  0.7026  0.7608 -0.2317
 6795SOL     OW32020   0.560   4.066  12.634 -0.5623  0.4903  0.1896
 6795SOL    HW132021   0.576   4.031  12.722  1.1839 -0.2634 -0.4312
 6795SOL    HW232022   0.633   4.127  12.623 -1.7057  1.4189 -2.1475
 6796SOL     OW32023   4.118   1.810  16.895  0.4584 -0.6845 -0.5977
 6796SOL    HW132024   4.188   1.811  16.960 -1.1950 -2.8752  1.2517
 6796SOL    HW232025   4.116   1.897  16.855  2.3983 -0.6206 -0.5767
 6797SOL     OW32026   2.428   1.297   2.193  0.6734 -0.3167 -0.0115
 6797SOL    HW132027   2.515   1.338   2.195  0.1583  0.8050 -0.6264
 6797SOL    HW232028   2.390   1.319   2.108  0.0797  0.4662  0.4581
 6798SOL     OW32029   1.176   2.899   7.510  0.4207 -0.3675  0.4952
 6798SOL    HW132030   1.245   2.923   7.572 -0.9217 -2.4356  2.7745
 6798SOL    HW232031   1.101   2.886   7.568  0.5110  0.9267  0.9118
 6799SOL     OW32032   4.092   4.156  16.084  0.6050  0.0232 -0.4368
 6799SOL    HW132033   4.142   4.102  16.145 -2.3085 -0.5358  1.4781
 6799SOL    HW232034   4.054   4.226  16.137  1.6163  1.0106 -1.0347
 6800SOL     OW32035   1.970   2.305   3.101 -0.1359 -0.3167 -0.5759
 6800SOL    HW132036   1.875   2.290   3.096 -0.2454  0.2075 -0.0709
 6800SOL    HW232037   1.983   2.287   3.008  2.5312  0.0122 -0.2544
 6801SOL     OW32038   1.066   2.604   5.257 -0.0334 -0.2197 -0.1342
 6801SOL    HW132039   0.988   2.652   5.230 -1.1555 -1.5517  0.7260
 6801SOL    HW232040   1.052   2.585   5.350 -1.0986  1.1963 -0.0062
 6802SOL     OW32041   1.179   2.228   5.066  0.0938  0.2272  0.6698
 6802SOL    HW132042   1.197   2.319   5.043 -0.4359  0.2692  0.4140
 6802SOL    HW232043   1.148   2.235   5.157  0.7672 -1.5406  1.0392
 6803SOL     OW32044   0.177   0.814   6.012  0.3581  0.4212 -0.2828
 6803SOL    HW132045   0.095   0.840   5.969 -0.3106  1.2992  1.5467
 6803SOL    HW232046   0.148   0.833   6.101  0.9350  1.1472 -0.2519
 6804SOL     OW32047   3.812   4.286  17.194 -0.2056 -0.0883  0.5965
 6804SOL    HW132048   3.743   4.329  17.144  0.7963 -0.4881 -1.1344
 6804SOL    HW232049   3.764   4.263  17.274 -0.5236  0.5312  0.5804
 6805SOL     OW32050   3.437   1.801   5.317  0.2015  0.4685  0.1585
 6805SOL    HW132051   3.367   1.798   5.252 -0.2312  0.2914  0.6303
 6805SOL    HW232052   3.434   1.709   5.344  0.1123  0.2104 -0.7290
 6806SOL     OW32053   3.208   2.321  11.632 -0.1026 -0.0529  0.3356
 6806SOL    HW132054   3.247   2.287  11.551  1.0884  3.7798 -0.7257
 6806SOL    HW232055   3.215   2.416  11.619  1.2485 -0.1539  0.3113
 6807SOL     OW32056   1.276   2.413   5.440 -0.0347  0.1456 -0.3600
 6807SOL    HW132057   1.337   2.345   5.411  0.1640  0.4697 -0.6895
 6807SOL    HW232058   1.314   2.438   5.525  0.1030  0.0537 -0.3950
 6808SOL     OW32059   1.694   3.819   3.426  0.0838  0.0896 -0.2737
 6808SOL    HW132060   1.600   3.803   3.425  0.0672  0.1403  0.7152
 6808SOL    HW232061   1.691   3.915   3.426  0.7238  0.0968  2.3362
 6809SOL     OW32062   2.452   4.734   5.679 -0.5967 -0.1998  0.2122
 6809SOL    HW132063   2.398   0.077   5.671 -0.0087  0.0649 -1.0376
 6809SOL    HW232064   2.426   4.705   5.767 -0.7451  0.9844  0.5627
 6810SOL     OW32065   1.293   3.576   1.180  0.7316  0.0748 -0.2711
 6810SOL    HW132066   1.221   3.639   1.188  0.8802  0.2138 -0.0531
 6810SOL    HW232067   1.273   3.525   1.101 -2.2956 -0.9616  1.1467
 6811SOL     OW32068   3.660   2.286   9.382 -0.3518 -0.3151  0.2352
 6811SOL    HW132069   3.747   2.286   9.342 -1.3638 -2.5400 -1.9602
 6811SOL    HW232070   3.662   2.358   9.445 -0.6150 -0.6010  0.5695
 6812SOL     OW32071   0.176   1.478   5.428  0.7229  0.2202  0.2393
 6812SOL    HW132072   0.250   1.420   5.445  0.8315  0.4364  0.5021
 6812SOL    HW232073   0.176   1.544   5.498  1.6650 -0.4912  0.9194
 6813SOL     OW32074   0.139   4.411   3.258 -0.7545 -0.0345  0.0070
 6813SOL    HW132075   0.087   4.471   3.311 -0.8480 -0.0122 -0.1115
 6813SOL    HW232076   0.098   4.419   3.173 -0.0690 -0.1781 -0.3389
 6814SOL     OW32077   2.799   2.371   6.022  0.1519  0.2455 -0.0487
 6814SOL    HW132078   2.726   2.318   5.988 -0.4246  1.8486 -1.2741
 6814SOL    HW232079   2.751   2.430   6.081  0.6038 -0.3522  0.9250
 6815SOL     OW32080   4.373   2.736   7.655  0.9193 -0.0765  0.0426
 6815SOL    HW132081   4.463   2.727   7.686  0.8780  1.7916  0.6883
 6815SOL    HW232082   4.396   2.726   7.563  0.7511 -0.3316  0.0274
 6816SOL     OW32083   1.564   1.837   8.494 -0.5485  0.0394  0.1505
 6816SOL    HW132084   1.536   1.909   8.549  0.9941 -0.0164  0.9909
 6816SOL    HW232085   1.578   1.876   8.408 -1.0915 -0.9801 -0.4057
 6817SOL     OW32086   0.422   1.152   2.668  0.1569  0.2858  0.2091
 6817SOL    HW132087   0.457   1.083   2.724 -0.0737 -0.7761 -0.9464
 6817SOL    HW232088   0.332   1.120   2.666 -0.2824  1.4570  1.1946
 6818SOL     OW32089   3.291   1.417  11.527 -0.0965 -0.3047 -0.6154
 6818SOL    HW132090   3.236   1.393  11.453 -2.3663 -0.1978  1.0451
 6818SOL    HW232091   3.339   1.485  11.480  0.4471  0.5558  1.1819
 6819SOL     OW32092   3.574   0.237  10.682 -0.3980 -0.1189  0.2526
 6819SOL    HW132093   3.574   0.295  10.606  2.3823 -0.2863  0.1379
 6819SOL    HW232094   3.627   0.166  10.645 -2.7536 -1.6871 -0.1314
 6820SOL     OW32095   3.702   4.310   5.182 -0.1774 -0.2522  0.2247
 6820SOL    HW132096   3.640   4.246   5.217 -1.1272  0.4430 -0.1722
 6820SOL    HW232097   3.779   4.306   5.238 -1.0790 -1.5507  1.3862
 6821SOL     OW32098   2.389   0.924   2.814 -0.3022 -0.1767  0.4358
 6821SOL    HW132099   2.354   0.921   2.725 -0.6981 -2.1423  0.6628
 6821SOL    HW232100   2.356   0.851   2.866 -1.7207  0.3159  0.2144
 6822SOL     OW32101   1.649   4.337   9.770 -0.1408 -0.1323 -0.2606
 6822SOL    HW132102   1.692   4.393   9.705 -0.3764 -0.9409 -1.1093
 6822SOL    HW232103   1.610   4.402   9.829 -0.2704 -0.3625 -0.0949
 6823SOL     OW32104   3.754   1.025   6.571  0.5656 -0.2033 -0.2269
 6823SOL    HW132105   3.721   1.085   6.504  2.1011 -0.8085 -1.5224
 6823SOL    HW232106   3.758   1.082   6.648 -0.1091 -0.4381 -0.0186
 6824SOL     OW32107   0.616   0.983   6.764  0.2609 -0.4346  0.2745
 6824SOL    HW132108   0.665   1.048   6.815 -0.3812 -1.9013  2.6860
 6824SOL    HW232109   0.531   0.989   6.807 -0.0316  0.7704 -0.4704
 6825SOL     OW32110   2.255   1.437   8.186 -0.0807  0.1878  0.0973
 6825SOL    HW132111   2.324   1.479   8.238  0.9655 -0.7153 -0.5783
 6825SOL    HW232112   2.207   1.391   8.255  1.0866  0.3557  1.0381
 6826SOL     OW32113   2.022   4.027   4.037 -0.4600 -0.3278  0.0164
 6826SOL    HW132114   1.951   3.974   4.001 -1.9450 -0.1559  2.6893
 6826SOL    HW232115   2.038   3.974   4.115  0.1637  0.3028  0.3153
 6827SOL     OW32116   1.642   0.893   7.120  0.8741  0.1528 -0.3266
 6827SOL    HW132117   1.696   0.880   7.042  0.8677 -3.2762  0.2507
 6827SOL    HW232118   1.690   0.964   7.163 -2.1571  1.0854  1.4707
 6828SOL     OW32119   0.815   3.789  17.686 -0.2548 -0.5060 -0.3247
 6828SOL    HW132120   0.906   3.809  17.664 -0.5003  0.1294 -0.7679
 6828SOL    HW232121   0.822   3.707  17.735 -0.8034  0.4897  1.4138
 6829SOL     OW32122   2.334   0.240   5.697 -0.2074  0.0336 -0.7172
 6829SOL    HW132123   2.338   0.285   5.782 -2.1024  2.0568 -1.7042
 6829SOL    HW232124   2.382   0.296   5.636 -0.0143 -2.2253 -2.6275
 6830SOL     OW32125   4.151   4.649   2.535 -0.0356 -0.3781  0.4248
 6830SOL    HW132126   4.213   4.715   2.567 -0.9145  0.5214  0.2836
 6830SOL    HW232127   4.112   4.609   2.612  0.7250  2.1564  2.1382
 6831SOL     OW32128   1.841   2.578   5.361  0.3241 -0.0444  0.5602
 6831SOL    HW132129   1.775   2.620   5.305  1.3260  1.6526  0.6564
 6831SOL    HW232130   1.800   2.491   5.362  0.7488 -0.2509  0.2560
 6832SOL     OW32131   4.184   2.627   3.315 -0.5685  0.2428 -0.4445
 6832SOL    HW132132   4.209   2.543   3.353 -1.8090  0.4339  0.8246
 6832SOL    HW232133   4.153   2.663   3.398  1.2964  2.0294 -0.5292
 6833SOL     OW32134   4.355   3.893   6.404  0.1743 -0.1516 -0.2968
 6833SOL    HW132135   4.285   3.958   6.409 -2.1754 -2.8232  1.6298
 6833SOL    HW232136   4.314   3.810   6.378 -1.1257  0.4322 -0.1368
 6834SOL     OW32137   2.180   0.765  12.114  0.1603 -0.1155  0.2056
 6834SOL    HW132138   2.214   0.681  12.082 -1.2324  0.5281 -2.9426
 6834SOL    HW232139   2.118   0.723  12.173 -0.3769  0.8509  0.3294
 6835SOL     OW32140   1.143   3.380   2.801  0.5532  0.2114  0.2614
 6835SOL    HW132141   1.186   3.465   2.814  1.3136 -0.1650  0.2180
 6835SOL    HW232142   1.065   3.381   2.857  0.6552 -2.3572  0.4255
 6836SOL     OW32143   0.826   3.589  12.722  0.0193  0.3209 -0.2026
 6836SOL    HW132144   0.906   3.610  12.673 -0.4736 -1.6262 -1.8364
 6836SOL    HW232145   0.787   3.675  12.736 -1.1251  0.7052 -5.7230
 6837SOL     OW32146   2.026   0.787  11.670  0.2491 -0.7765 -0.1809
 6837SOL    HW132147   2.062   0.826  11.749 -1.9249  0.3807  0.2648
 6837SOL    HW232148   1.957   0.727  11.698 -1.3909  1.4270  0.5399
 6838SOL     OW32149   4.378   3.204   6.310 -0.5326 -0.1961  0.4630
 6838SOL    HW132150   4.388   3.188   6.217  4.2413  0.6014  0.8623
 6838SOL    HW232151   4.468   3.200   6.341 -0.5646 -1.4735  0.3848
 6839SOL     OW32152   2.688   4.280  15.548 -0.4772  0.7396  0.0803
 6839SOL    HW132153   2.678   4.368  15.512 -0.0847  1.8450  2.7135
 6839SOL    HW232154   2.764   4.294  15.604  0.5188 -0.0830 -1.0742
 6840SOL     OW32155   0.746   0.292  14.517 -0.4458  0.2869  0.3190
 6840SOL    HW132156   0.798   0.369  14.542  0.3720 -0.4192  0.7868
 6840SOL    HW232157   0.666   0.309  14.567 -0.7271  0.4052 -0.1699
 6841SOL     OW32158   2.412   2.724   1.663  0.1644  0.2466 -0.6320
 6841SOL    HW132159   2.457   2.749   1.744 -1.4371  1.6011 -0.1746
 6841SOL    HW232160   2.489   2.700   1.611 -0.0909  1.1238 -1.3946
 6842SOL     OW32161   4.594   3.657   8.534  0.1661  0.1465 -0.1338
 6842SOL    HW132162   4.594   3.568   8.497 -1.6306 -0.4844  1.3880
 6842SOL    HW232163   4.605   3.635   8.627  0.3585  1.7259  0.2023
 6843SOL     OW32164   4.007   4.644  13.532  0.2134 -0.5999 -0.5032
 6843SOL    HW132165   3.975   4.592  13.605  2.0657  0.3488  0.9812
 6843SOL    HW232166   3.990   4.735  13.558  2.0757 -0.4804  0.3604
 6844SOL     OW32167   0.300   4.418   4.264 -0.0628  0.3495 -0.2243
 6844SOL    HW132168   0.337   4.410   4.176 -0.7504  1.3979 -0.6174
 6844SOL    HW232169   0.258   4.504   4.260  0.8474  0.7789 -0.5347
 6845SOL     OW32170   3.272   4.233   8.715  0.0739 -0.2999 -0.1499
 6845SOL    HW132171   3.281   4.320   8.755 -0.8645  0.2444 -1.1380
 6845SOL    HW232172   3.344   4.240   8.653 -2.5684  0.4721 -3.1300
 6846SOL     OW32173   2.727   1.505   4.892  0.1351 -0.2210  0.4087
 6846SOL    HW132174   2.660   1.556   4.936 -0.0423  0.5469 -0.7615
 6846SOL    HW232175   2.806   1.559   4.905  1.1598 -2.0700  1.9232
 6847SOL     OW32176   4.308   1.008  13.221 -0.4410  0.1090 -0.1619
 6847SOL    HW132177   4.325   1.093  13.179  2.0334 -0.1295  0.3643
 6847SOL    HW232178   4.353   0.947  13.162  0.7579  1.0765 -0.2551
 6848SOL     OW32179   1.221   3.894  15.167 -0.1071  0.5577  0.4235
 6848SOL    HW132180   1.188   3.857  15.249 -1.1915 -0.7057 -0.5942
 6848SOL    HW232181   1.310   3.860  15.167 -0.7302 -1.0740 -0.1232
 6849SOL     OW32182   2.303   1.281   2.437 -0.1384 -0.3332  0.2333
 6849SOL    HW132183   2.387   1.253   2.472 -1.0701 -0.5973  2.2527
 6849SOL    HW232184   2.337   1.277   2.347  0.1816 -0.3815  0.3561
 6850SOL     OW32185   0.528   3.615   1.732 -0.3251  0.6881  0.3526
 6850SOL    HW132186   0.547   3.569   1.814  2.9798  2.7517  0.7890
 6850SOL    HW232187   0.444   3.656   1.753 -1.5639 -2.2598  1.0311
 6851SOL     OW32188   3.713   2.801  15.684  0.3662 -0.2418 -0.0001
 6851SOL    HW132189   3.789   2.817  15.739  1.3668  0.1659 -1.5127
 6851SOL    HW232190   3.758   2.762  15.609  2.9748  1.1788  0.8358
 6852SOL     OW32191   2.196   4.482   2.360  0.4850  0.1680  0.5181
 6852SOL    HW132192   2.266   4.530   2.405 -0.6416  1.6518  0.6772
 6852SOL    HW232193   2.120   4.485   2.418 -1.2209  0.3521 -1.7438
 6853SOL     OW32194   2.963   2.977   2.485 -0.0665  0.2569  0.1295
 6853SOL    HW132195   3.026   2.947   2.551 -0.9679 -0.5805  0.6063
 6853SOL    HW232196   2.900   3.011   2.548 -1.3247  1.3269 -1.7298
 6854SOL     OW32197   3.563   2.558  17.394  0.3057  0.2895 -0.1658
 6854SOL    HW132198   3.575   2.494  17.464  0.5470 -0.0801 -0.5405
 6854SOL    HW232199   3.646   2.551  17.347  0.3550 -3.0145  0.3897
 6855SOL     OW32200   1.247   3.236   2.260  0.0357  0.6639 -0.2601
 6855SOL    HW132201   1.283   3.221   2.173 -3.1164 -2.1608 -1.0808
 6855SOL    HW232202   1.160   3.273   2.244  0.2174  0.7368 -1.0400
 6856SOL     OW32203   1.163   0.912   5.505 -0.0768  0.5220  0.5060
 6856SOL    HW132204   1.168   0.818   5.519 -0.7750  0.4043 -0.0130
 6856SOL    HW232205   1.196   0.923   5.416 -0.8929 -0.6464  0.0617
 6857SOL     OW32206   0.663   4.715   0.967 -0.4253  0.4259  0.0949
 6857SOL    HW132207   0.710   4.631   0.974 -0.3298  0.4315 -0.4179
 6857SOL    HW232208   0.736   0.042   0.968 -0.6712  0.6737  1.3908
 6858SOL     OW32209   2.884   0.544  15.469 -0.1099 -0.2277 -0.2439
 6858SOL    HW132210   2.915   0.581  15.387  0.8092  1.7902  1.0120
 6858SOL    HW232211   2.793   0.576  15.469  0.1392  0.4826 -1.3958
 6859SOL     OW32212   2.448   4.388   4.069  0.0116 -0.1092  0.3401
 6859SOL    HW132213   2.526   4.424   4.026  1.8595 -1.8166  2.2666
 6859SOL    HW232214   2.473   4.295   4.074  1.3936  0.4120  3.2119
 6860SOL     OW32215   3.274   3.815   8.056 -0.3056 -0.3878 -0.2145
 6860SOL    HW132216   3.232   3.798   8.141  0.9197  0.2129  0.5133
 6860SOL    HW232217   3.210   3.869   8.010  2.2962  1.5536 -1.5351
 6861SOL     OW32218   3.603   4.003   4.849  0.4106 -0.4665 -0.4390
 6861SOL    HW132219   3.578   4.027   4.939  0.9819  3.0015 -1.2217
 6861SOL    HW232220   3.543   3.929   4.831 -0.6246 -0.1058  1.4501
 6862SOL     OW32221   1.865   1.818   9.170  0.6548  0.1120 -0.2094
 6862SOL    HW132222   1.919   1.881   9.217  1.6177  0.2467 -1.5098
 6862SOL    HW232223   1.785   1.820   9.224  0.8838  1.9507  0.0427
 6863SOL     OW32224   3.234   0.829   5.644  0.3589 -0.5413  0.3942
 6863SOL    HW132225   3.258   0.876   5.564 -0.5780  0.9048  0.9653
 6863SOL    HW232226   3.318   0.790   5.668  0.4516 -1.1557 -0.9068
 6864SOL     OW32227   1.650   0.556   7.874 -0.1479  0.1451 -0.2012
 6864SOL    HW132228   1.699   0.518   7.802  0.1394 -1.4448  0.8200
 6864SOL    HW232229   1.562   0.520   7.859 -1.1340  2.2010  0.6108
 6865SOL     OW32230   4.300   1.438  10.993  0.0215 -0.1432  0.2022
 6865SOL    HW132231   4.249   1.470  11.067  0.4494 -3.1569  1.7795
 6865SOL    HW232232   4.233   1.384  10.951 -0.8943  0.7516  0.4862
 6866SOL     OW32233   1.521   4.115  12.058 -0.4593 -0.1553  0.0287
 6866SOL    HW132234   1.427   4.101  12.049 -0.5137 -0.3619  0.9929
 6866SOL    HW232235   1.543   4.110  12.151 -1.7426 -0.5798  0.3173
 6867SOL     OW32236   2.146   0.669   4.850 -0.1514  0.5625 -0.4067
 6867SOL    HW132237   2.194   0.688   4.931 -0.9066  0.4009  0.0760
 6867SOL    HW232238   2.220   0.672   4.790 -0.2665  1.5157 -0.5112
 6868SOL     OW32239   1.237   2.854   8.480  0.4274  0.2611  0.3583
 6868SOL    HW132240   1.318   2.890   8.516 -0.1028  3.0011 -1.1228
 6868SOL    HW232241   1.173   2.897   8.536 -1.0659  0.5606 -1.5664
 6869SOL     OW32242   3.244   0.353   7.745  0.1453 -0.0220  0.4101
 6869SOL    HW132243   3.256   0.415   7.673  0.8485  0.2443  0.7627
 6869SOL    HW232244   3.157   0.382   7.771 -0.1966 -0.1588 -0.5825
 6870SOL     OW32245   4.644   2.352   4.094  0.0724 -0.2557 -0.4356
 6870SOL    HW132246   4.554   2.347   4.061 -0.3120 -1.3297  0.7909
 6870SOL    HW232247   4.656   2.279   4.154 -1.7373 -2.1587 -2.3537
 6871SOL     OW32248   2.626   1.860   4.406 -0.0758 -0.4792 -0.0549
 6871SOL    HW132249   2.587   1.805   4.338 -2.0442  0.0662  0.6264
 6871SOL    HW232250   2.571   1.861   4.484 -0.4945  0.0519 -0.3489
 6872SOL     OW32251   3.513   2.635   4.933 -0.4209  0.4206 -0.1475
 6872SOL    HW132252   3.446   2.616   4.998 -0.3558 -0.5018 -0.3360
 6872SOL    HW232253   3.552   2.710   4.977  0.1260  0.2065 -0.2604
 6873SOL     OW32254   0.369   1.235   7.011  0.0146  0.0911 -0.4485
 6873SOL    HW132255   0.279   1.260   7.034 -0.4775 -0.5927 -1.6635
 6873SOL    HW232256   0.350   1.225   6.918  1.6492 -0.3992 -0.7357
 6874SOL     OW32257   0.203   0.841   4.259 -0.3944  0.3547  0.7482
 6874SOL    HW132258   0.145   0.786   4.312 -0.1626 -0.3845  0.2336
 6874SOL    HW232259   0.150   0.869   4.185 -1.3370 -0.1355  1.2331
 6875SOL     OW32260   4.563   3.419   8.406 -0.2485  0.1211 -0.2189
 6875SOL    HW132261   4.621   3.403   8.332  1.3404  1.8044  0.6576
 6875SOL    HW232262   4.531   3.330   8.423 -0.6271  0.1604 -0.7681
 6876SOL     OW32263   4.686   2.204   8.487  0.0387  0.3639  0.0544
 6876SOL    HW132264   0.027   2.155   8.455 -2.3725 -3.1579 -0.3371
 6876SOL    HW232265   4.717   2.294   8.476  1.7664 -0.2791 -0.3205
 6877SOL     OW32266   1.723   0.532   4.200  0.1428 -0.0057 -0.0312
 6877SOL    HW132267   1.809   0.574   4.197  0.2935 -0.4063 -1.5298
 6877SOL    HW232268   1.675   0.603   4.243  0.1209  0.6699 -1.1687
 6878SOL     OW32269   1.143   1.578   4.102  0.2014  0.0388  0.1197
 6878SOL    HW132270   1.136   1.484   4.119  2.9796 -0.1194  0.3094
 6878SOL    HW232271   1.126   1.581   4.008  0.4336  1.7192  0.1383
 6879SOL     OW32272   4.345   0.472   2.989 -0.1713 -0.6692 -0.6351
 6879SOL    HW132273   4.402   0.431   3.054 -1.4653 -1.4977 -0.0279
 6879SOL    HW232274   4.261   0.428   3.006  0.3858 -0.6626  2.1999
 6880SOL     OW32275   3.003   2.097  16.054  0.6696 -0.5449 -0.1939
 6880SOL    HW132276   3.070   2.148  16.009  0.7212 -0.1266  0.3501
 6880SOL    HW232277   3.019   2.006  16.029 -0.3067 -0.5335 -0.8265
 6881SOL     OW32278   0.351   0.226   2.792 -0.1851  0.6938 -0.7175
 6881SOL    HW132279   0.330   0.294   2.727 -0.1694  0.0766 -1.3674
 6881SOL    HW232280   0.345   0.151   2.733  0.2359  1.1046 -1.2943
 6882SOL     OW32281   2.070   3.119   2.744  0.2841 -0.4758  0.0044
 6882SOL    HW132282   2.122   3.199   2.760 -1.9766  0.9695  0.0935
 6882SOL    HW232283   1.981   3.147   2.724  0.4491 -0.4068 -0.6487
 6883SOL     OW32284   0.515   4.640  17.414  0.0632 -0.2617 -0.2034
 6883SOL    HW132285   0.488   4.721  17.457 -0.1347 -0.6347  0.3783
 6883SOL    HW232286   0.507   4.655  17.320 -0.6683 -0.0325 -0.0968
 6884SOL     OW32287   2.480   4.051  12.839  0.7788 -0.6433 -0.3351
 6884SOL    HW132288   2.478   4.146  12.845 -2.9623 -0.6264 -1.8974
 6884SOL    HW232289   2.575   4.043  12.845  0.7940 -1.1140 -1.2368
 6885SOL     OW32290   0.004   2.019  10.378 -0.0528 -0.3474  0.9402
 6885SOL    HW132291   0.077   1.989  10.324  0.6741  2.4515  0.3406
 6885SOL    HW232292   4.674   1.956  10.348 -1.6655  0.2563  3.2279
 6886SOL     OW32293   2.750   4.325  11.826  0.5144  0.2699 -0.4021
 6886SOL    HW132294   2.663   4.353  11.797 -0.3279 -1.0526  0.8520
 6886SOL    HW232295   2.796   4.395  11.781  0.8490 -0.0850 -0.6091
 6887SOL     OW32296   3.411   2.668  11.303 -0.6590  0.8400  0.1220
 6887SOL    HW132297   3.322   2.664  11.269 -0.7736  1.1020  0.3792
 6887SOL    HW232298   3.458   2.611  11.243 -1.6759  0.5349 -0.3744
 6888SOL     OW32299   2.966   2.598   8.712  0.4894  0.2042 -0.9778
 6888SOL    HW132300   2.900   2.665   8.730 -0.9713 -1.3322 -0.5946
 6888SOL    HW232301   2.938   2.561   8.628 -0.2063 -0.3707 -0.4920
 6889SOL     OW32302   2.579   4.274   0.073 -0.5432  0.0106  0.6615
 6889SOL    HW132303   2.515   4.213   0.108 -0.9915  0.5884  0.8485
 6889SOL    HW232304   2.616   4.317   0.150  2.6568 -2.2339  0.3648
 6890SOL     OW32305   2.287   3.594   5.676  0.3916 -0.0735  0.5084
 6890SOL    HW132306   2.254   3.684   5.681 -0.1272 -0.2528  0.2136
 6890SOL    HW232307   2.381   3.611   5.689  0.5363 -1.8177  1.6156
 6891SOL     OW32308   1.369   2.838  16.783  0.4346  0.0565  0.9511
 6891SOL    HW132309   1.308   2.905  16.814 -2.4649 -1.4101 -1.6139
 6891SOL    HW232310   1.345   2.816  16.693 -1.3945  1.7029  1.0473
 6892SOL     OW32311   4.135   3.122   2.507  0.3390  0.3076 -0.6585
 6892SOL    HW132312   4.076   3.101   2.580  0.0592  1.0348 -0.6741
 6892SOL    HW232313   4.074   3.171   2.451  0.5924 -1.4894 -2.5057
 6893SOL     OW32314   1.417   0.805   1.665 -0.1578 -0.0558  0.3594
 6893SOL    HW132315   1.429   0.722   1.711 -0.7819  0.2511  1.0898
 6893SOL    HW232316   1.449   0.790   1.577  0.5030 -1.3717  0.8316
 6894SOL     OW32317   0.211   2.747  16.004 -0.5576 -0.6251 -0.1472
 6894SOL    HW132318   0.294   2.703  15.989  0.5789  0.8632  1.7686
 6894SOL    HW232319   0.236   2.830  15.962 -0.8648 -0.7938 -0.6632
 6895SOL     OW32320   2.943   3.283  17.063  0.3280 -0.5920  0.3562
 6895SOL    HW132321   3.019   3.310  17.012  0.1724 -3.3643 -1.3387
 6895SOL    HW232322   2.945   3.347  17.135 -0.9090 -0.2178  0.0725
 6896SOL     OW32323   2.395   2.714   6.482 -0.5413 -0.4805  0.0311
 6896SOL    HW132324   2.320   2.755   6.440 -0.6634 -1.2120 -0.4526
 6896SOL    HW232325   2.400   2.639   6.423  1.0541  1.1581 -1.9358
 6897SOL     OW32326   0.740   3.570   5.938 -0.1557  0.3959  0.0310
 6897SOL    HW132327   0.759   3.645   5.994  1.2226  1.1844 -1.4778
 6897SOL    HW232328   0.739   3.489   5.989  1.0901  0.4647  0.1743
 6898SOL     OW32329   0.362   2.756   4.966  0.1629  0.0112 -0.4287
 6898SOL    HW132330   0.361   2.704   4.885  0.9268 -0.0553 -0.3942
 6898SOL    HW232331   0.401   2.836   4.932 -1.5156  0.7225 -0.6971
 6899SOL     OW32332   0.495   0.124   3.657 -0.0536 -0.2015  0.7345
 6899SOL    HW132333   0.437   0.178   3.711  0.2653  0.0722  0.8085
 6899SOL    HW232334   0.538   0.056   3.708  1.0357  0.7279  1.0581
 6900SOL     OW32335   0.496   0.274  14.923  0.5547  0.2005  0.2481
 6900SOL    HW132336   0.443   0.197  14.943  0.9471 -0.6163 -1.8034
 6900SOL    HW232337   0.523   0.313  15.006 -1.7433 -0.4504  1.2844
 6901SOL     OW32338   1.149   1.946  14.556 -0.5383  0.4230 -0.3679
 6901SOL    HW132339   1.147   1.948  14.461 -1.2878 -0.1718 -0.3661
 6901SOL    HW232340   1.090   2.018  14.579  1.3485  2.0276 -0.4932
 6902SOL     OW32341   1.351   0.725   4.481 -0.4176 -0.0301 -0.1203
 6902SOL    HW132342   1.288   0.747   4.550  0.4184 -1.5062  1.1262
 6902SOL    HW232343   1.428   0.769   4.517  0.4956 -1.4588 -0.3076
 6903SOL     OW32344   3.847   0.210  16.006 -0.1897 -0.1983  0.5407
 6903SOL    HW132345   3.884   0.207  15.918  0.0535 -3.1323  0.7369
 6903SOL    HW232346   3.787   0.281  15.983 -0.3183 -0.2145  0.8205
 6904SOL     OW32347   1.945   0.901   0.162  0.1597  0.4093  0.3999
 6904SOL    HW132348   1.997   0.821   0.158  0.9938  0.9031  1.4736
 6904SOL    HW232349   2.009   0.960   0.201 -0.3495  0.9325  0.4367
 6905SOL     OW32350   1.613   3.886   4.439 -0.0523  0.0863  0.2435
 6905SOL    HW132351   1.587   3.857   4.526  0.4491  0.9449  0.6812
 6905SOL    HW232352   1.586   3.815   4.381 -1.1819 -0.4027  1.3701
 6906SOL     OW32353   2.078   0.665   0.178  0.1042 -0.1414 -1.1075
 6906SOL    HW132354   2.058   0.598   0.243  0.3169  0.7402 -0.1188
 6906SOL    HW232355   2.173   0.661   0.190  0.0427 -0.3671 -0.6762
 6907SOL     OW32356   2.555   0.495   2.701 -0.4891  0.2824  0.1086
 6907SOL    HW132357   2.639   0.465   2.734 -0.8306  0.2233  0.9130
 6907SOL    HW232358   2.592   0.535   2.622 -0.3582  1.1861  0.6253
 6908SOL     OW32359   3.828   3.558   3.725  0.5831  0.3083 -1.3208
 6908SOL    HW132360   3.747   3.586   3.769  1.9585  0.1460  1.3363
 6908SOL    HW232361   3.813   3.603   3.642  0.5140  1.4012 -0.7123
 6909SOL     OW32362   2.504   2.765   3.564  0.1613 -0.3411 -0.4643
 6909SOL    HW132363   2.503   2.812   3.648  0.5660 -2.2533  0.6108
 6909SOL    HW232364   2.413   2.779   3.537  0.5093  2.2186 -0.3471
 6910SOL     OW32365   1.339   0.854  17.463 -0.2229 -0.2869  0.7472
 6910SOL    HW132366   1.260   0.907  17.455  0.3231  0.8006  2.6061
 6910SOL    HW232367   1.404   0.923  17.474  0.5704 -1.2274  1.9634
 6911SOL     OW32368   0.509   3.850   6.053  0.0079  0.0421 -0.4879
 6911SOL    HW132369   0.494   3.795   5.976 -0.7640 -0.8456  0.3003
 6911SOL    HW232370   0.598   3.819   6.069 -0.5010 -1.0329  0.1977
 6912SOL     OW32371   1.717   0.607   0.318  0.7192  0.0630 -0.6217
 6912SOL    HW132372   1.690   0.595   0.409  1.3504  0.5927 -0.3634
 6912SOL    HW232373   1.760   0.525   0.294 -1.8191 -0.6603 -2.7104
 6913SOL     OW32374   4.069   4.584  12.635 -0.1041 -0.3106  0.3491
 6913SOL    HW132375   4.113   4.515  12.586 -0.2798 -2.1205  2.7805
 6913SOL    HW232376   4.045   4.535  12.713  2.4314 -2.6291 -0.3286
 6914SOL     OW32377   3.249   2.595  15.012  0.0083 -0.1364  0.4886
 6914SOL    HW132378   3.210   2.559  14.932 -0.1338  0.2388  0.3925
 6914SOL    HW232379   3.343   2.583  14.995 -0.3192 -2.0692  0.0192
 6915SOL     OW32380   2.287   4.071   9.879 -0.3975  0.0302  0.2705
 6915SOL    HW132381   2.341   3.992   9.875 -1.8537 -0.9646  0.2430
 6915SOL    HW232382   2.289   4.081   9.974  1.9544  0.4839  0.1758
 6916SOL     OW32383   0.252   1.935  14.084  0.4859 -0.1496 -0.3015
 6916SOL    HW132384   0.221   1.929  13.994  2.2953 -1.3253 -0.8565
 6916SOL    HW232385   0.233   2.027  14.101  2.5794 -0.1749  2.2060
 6917SOL     OW32386   1.062   1.357   3.503  0.0649  0.8849 -0.2659
 6917SOL    HW132387   1.049   1.284   3.563 -1.5781 -1.0451 -2.9581
 6917SOL    HW232388   1.123   1.320   3.439  0.6022  0.2302  0.6240
 6918SOL     OW32389   0.030   3.137  14.809  0.2240 -0.0011  0.0079
 6918SOL    HW132390   0.012   3.101  14.722 -1.9275 -0.6468  0.7170
 6918SOL    HW232391   4.692   3.106  14.862  0.4818  0.8298  0.8586
 6919SOL     OW32392   4.304   2.147   5.579  0.0495 -0.0491 -0.0991
 6919SOL    HW132393   4.296   2.052   5.569 -0.8955 -0.1350  1.3495
 6919SOL    HW232394   4.231   2.173   5.523  0.2500 -0.9799 -0.7776
 6920SOL     OW32395   2.157   0.756   7.741 -0.5340 -0.3351 -0.4562
 6920SOL    HW132396   2.225   0.690   7.743 -1.8656 -1.7037 -0.2323
 6920SOL    HW232397   2.149   0.789   7.831  0.5925 -0.0093 -0.4803
 6921SOL     OW32398   0.710   3.346   2.469  0.5797  0.5147  0.0499
 6921SOL    HW132399   0.720   3.441   2.463  0.3069  0.4897 -0.7299
 6921SOL    HW232400   0.789   3.338   2.522  0.8233  2.4408 -0.0456
 6922SOL     OW32401   2.798   2.202   9.538 -0.4475  0.4631 -0.2791
 6922SOL    HW132402   2.711   2.183   9.573  0.4787  0.3135  1.9358
 6922SOL    HW232403   2.790   2.296   9.525  0.1852  0.2792 -1.9525
 6923SOL     OW32404   3.504   2.412   5.274  0.1913  0.0790 -0.0510
 6923SOL    HW132405   3.417   2.425   5.311  0.2487 -2.3648  0.9803
 6923SOL    HW232406   3.526   2.499   5.243 -1.2659  0.6967  0.6587
 6924SOL     OW32407   1.594   3.063   3.299  0.5826  0.8081  0.2607
 6924SOL    HW132408   1.572   3.049   3.207  2.5220  2.1476 -0.3863
 6924SOL    HW232409   1.512   3.108   3.320 -0.4321 -0.8696 -0.0698
 6925SOL     OW32410   4.187   4.186   3.347 -0.9392  0.2196 -0.2515
 6925SOL    HW132411   4.257   4.149   3.293  0.0706 -0.8732  1.8044
 6925SOL    HW232412   4.195   4.274   3.311 -1.0922  0.7211  0.9435
 6926SOL     OW32413   0.916   0.962   6.759  0.8084 -0.3047 -0.6751
 6926SOL    HW132414   0.825   0.943   6.737  1.1344 -0.3679 -1.9508
 6926SOL    HW232415   0.929   1.024   6.688 -0.6624 -1.5725 -2.0441
 6927SOL     OW32416   2.763   0.931   0.421  0.2254 -0.5530 -0.1272
 6927SOL    HW132417   2.844   0.961   0.462 -0.6976  1.6642  0.0509
 6927SOL    HW232418   2.706   0.910   0.495  2.2442 -2.9083  0.7646
 6928SOL     OW32419   1.902   1.494   5.742  0.0929  0.1123  0.0446
 6928SOL    HW132420   1.921   1.579   5.784  0.6652  1.2971 -2.5954
 6928SOL    HW232421   1.889   1.518   5.650  0.0977 -1.3709 -0.3354
 6929SOL     OW32422   3.053   1.672   2.487 -0.1628 -0.5194  0.4658
 6929SOL    HW132423   3.040   1.578   2.499  0.0784 -0.4734  1.1008
 6929SOL    HW232424   3.132   1.700   2.533 -0.9321  0.8512  0.9354
 6930SOL     OW32425   3.512   3.476  15.688  0.0511 -0.2126 -0.4876
 6930SOL    HW132426   3.563   3.487  15.607  0.4890  1.9144  0.0905
 6930SOL    HW232427   3.487   3.384  15.678  0.4650 -0.4328  0.5676
 6931SOL     OW32428   4.182   0.154  13.154  0.4692  0.5459 -0.3475
 6931SOL    HW132429   4.220   0.077  13.112  2.1963  1.0946  0.2157
 6931SOL    HW232430   4.093   0.120  13.141  0.0185  1.0116  1.4837
 6932SOL     OW32431   1.603   0.172   7.391  0.2000  0.0282  0.8463
 6932SOL    HW132432   1.620   0.242   7.454 -0.9924  1.5565 -0.5021
 6932SOL    HW232433   1.621   0.212   7.306 -1.4657  3.9699  2.3629
 6933SOL     OW32434   1.526   4.385   0.804  0.2532  0.6685  0.6141
 6933SOL    HW132435   1.604   4.407   0.754 -0.3335  0.3077 -0.4595
 6933SOL    HW232436   1.474   4.460   0.774  2.0238  1.4006 -0.6460
 6934SOL     OW32437   0.913   3.921   5.438  0.4685  0.5683  0.3215
 6934SOL    HW132438   0.866   3.904   5.520  1.1955  0.1540  0.6501
 6934SOL    HW232439   0.969   3.843   5.434 -0.0326  0.2389 -0.2120
 6935SOL     OW32440   0.127   0.035   2.910  0.1270 -0.0568 -0.1797
 6935SOL    HW132441   0.201   0.070   2.859 -0.5173  2.3850  0.5924
 6935SOL    HW232442   0.061   0.033   2.841 -0.7490 -1.6129  0.7032
 6936SOL     OW32443   0.781   0.560   8.810 -0.2808  0.5328  0.1707
 6936SOL    HW132444   0.736   0.644   8.818 -1.3306  0.0026 -0.0881
 6936SOL    HW232445   0.698   0.511   8.804  0.7460 -1.3458  1.0749
 6937SOL     OW32446   4.323   0.577  11.348 -0.0362 -0.4937  0.1513
 6937SOL    HW132447   4.285   0.539  11.427  0.0899  0.3714  0.6277
 6937SOL    HW232448   4.372   0.646  11.393  1.4663 -1.5675  0.1729
 6938SOL     OW32449   1.172   3.450   6.597 -0.2656  0.4398 -0.0278
 6938SOL    HW132450   1.096   3.491   6.639  0.6842  2.4529 -0.2968
 6938SOL    HW232451   1.161   3.485   6.509 -0.5307 -1.0308 -0.5754
 6939SOL     OW32452   3.172   0.402  14.540  0.1964  0.1407 -0.0095
 6939SOL    HW132453   3.082   0.411  14.511 -0.2647 -0.0304  1.3856
 6939SOL    HW232454   3.184   0.316  14.500 -1.3371 -1.3793  2.8204
 6940SOL     OW32455   3.729   2.804  11.796 -0.3350 -0.9370 -0.3315
 6940SOL    HW132456   3.640   2.840  11.785 -0.1047 -0.8131 -1.7580
 6940SOL    HW232457   3.712   2.719  11.838 -0.2893 -0.3404  0.8949
 6941SOL     OW32458   0.911   2.811  10.680  0.3430  0.0139 -0.6437
 6941SOL    HW132459   0.953   2.752  10.618  0.6219  1.1790 -1.5578
 6941SOL    HW232460   0.866   2.753  10.742  0.1259  0.3668 -0.4651
 6942SOL     OW32461   0.940   1.172   7.846  0.4074 -0.4769  0.2066
 6942SOL    HW132462   0.941   1.147   7.938 -0.5954  1.9337  0.8567
 6942SOL    HW232463   0.959   1.266   7.851 -1.6825  0.0778 -2.1938
 6943SOL     OW32464   4.634   3.853   7.783  0.3243  0.1023 -0.2032
 6943SOL    HW132465   4.585   3.876   7.862  0.0079  0.3531 -0.4751
 6943SOL    HW232466   4.644   3.758   7.786  1.4935  0.2720  1.2563
 6944SOL     OW32467   0.061   0.122   5.198 -0.1184  0.1651 -0.0841
 6944SOL    HW132468   0.031   0.106   5.288 -0.1848 -1.0001 -0.3171
 6944SOL    HW232469   0.141   0.174   5.206  1.5825 -2.3636 -0.6953
 6945SOL     OW32470   1.853   2.420  14.832  0.3523  0.3121  0.6781
 6945SOL    HW132471   1.906   2.439  14.910 -0.2057  2.5029  0.5234
 6945SOL    HW232472   1.913   2.367  14.779 -1.1369  0.8123 -1.4767
 6946SOL     OW32473   1.184   1.226  10.620  0.0109 -0.0932  0.5728
 6946SOL    HW132474   1.199   1.255  10.710  1.1808  0.2128  0.2780
 6946SOL    HW232475   1.091   1.212  10.641 -0.4049  1.1174 -0.4844
 6947SOL     OW32476   3.226   2.230   4.205 -0.0185  0.0314  0.1354
 6947SOL    HW132477   3.234   2.143   4.168 -2.7923  0.3588 -1.2487
 6947SOL    HW232478   3.320   2.245   4.194  0.2742  0.4802  3.4177
 6948SOL     OW32479   0.802   1.658  13.847 -0.6310  0.2676 -0.2492
 6948SOL    HW132480   0.707   1.653  13.835 -0.2799 -1.7872 -2.2700
 6948SOL    HW232481   0.840   1.596  13.785 -1.7319 -0.0819 -0.5731
 6949SOL     OW32482   0.655   2.670   2.794  0.3285  0.9783  0.4958
 6949SOL    HW132483   0.630   2.682   2.886  3.7682  3.3965  1.0975
 6949SOL    HW232484   0.584   2.721   2.755  0.2805 -0.1075 -0.8259
 6950SOL     OW32485   2.026   3.714   3.657 -0.4019  0.1232  0.4441
 6950SOL    HW132486   2.108   3.760   3.673  0.7407 -0.6166 -3.4282
 6950SOL    HW232487   2.029   3.698   3.563  2.1997 -0.5875  0.6447
 6951SOL     OW32488   4.379   3.489   6.190 -0.1362 -0.3916  0.1725
 6951SOL    HW132489   4.292   3.464   6.160  0.0094 -1.8105  0.9461
 6951SOL    HW232490   4.392   3.422   6.257  0.3510 -0.9988 -0.5295
 6952SOL     OW32491   4.008   4.322  16.265 -0.7116 -0.7390  0.2783
 6952SOL    HW132492   3.999   4.280  16.351 -0.1613 -0.9833  0.2188
 6952SOL    HW232493   3.972   4.409  16.282 -0.4962 -0.5468 -0.2759
 6953SOL     OW32494   4.098   4.323   7.969  0.0849 -0.0328 -0.3147
 6953SOL    HW132495   4.019   4.281   8.004  0.4868 -2.9832 -2.9688
 6953SOL    HW232496   4.063   4.408   7.941  1.4174  0.8964  0.8115
 6954SOL     OW32497   4.379   4.521   1.583  1.4358 -0.3492  0.0076
 6954SOL    HW132498   4.460   4.537   1.535  1.2650 -3.9277 -1.4574
 6954SOL    HW232499   4.410   4.498   1.671  0.3914  3.0160  1.2674
 6955SOL     OW32500   2.739   4.185  14.567  0.3177  0.3573  0.0207
 6955SOL    HW132501   2.789   4.206  14.488 -1.6978 -0.1615 -1.3897
 6955SOL    HW232502   2.697   4.107  14.532 -2.2059  2.3422 -1.4042
 6956SOL     OW32503   3.060   1.315   7.100 -0.1313  0.2596  0.2221
 6956SOL    HW132504   3.133   1.375   7.111 -0.9531  1.2607  0.1981
 6956SOL    HW232505   3.071   1.290   7.008 -4.0401  1.0707 -0.4693
 6957SOL     OW32506   2.833   4.336  16.123 -0.0419 -0.4704 -0.3647
 6957SOL    HW132507   2.764   4.345  16.057  0.9466  0.7761 -1.2312
 6957SOL    HW232508   2.897   4.276  16.085  0.2346 -1.6070  1.9141
 6958SOL     OW32509   2.977   4.217   2.861  0.4132 -0.2057  0.2848
 6958SOL    HW132510   2.974   4.189   2.953  1.6765  0.5383  0.5458
 6958SOL    HW232511   3.034   4.152   2.819 -0.7052  0.6826 -2.6073
 6959SOL     OW32512   0.645   3.300   8.592 -0.2089  0.2420  0.3216
 6959SOL    HW132513   0.573   3.261   8.543 -0.3307  0.4242  0.3531
 6959SOL    HW232514   0.648   3.383   8.544  0.3819 -0.2532 -0.4867
 6960SOL     OW32515   2.842   4.484   6.267 -0.0098  0.3889 -0.8433
 6960SOL    HW132516   2.919   4.457   6.318  0.4481  2.8568 -0.2085
 6960SOL    HW232517   2.846   4.578   6.284 -1.0933  0.1813  0.6082
 6961SOL     OW32518   0.307   1.853   7.580  0.1252 -0.5134  0.4011
 6961SOL    HW132519   0.314   1.846   7.484 -2.6579  1.2179  0.0656
 6961SOL    HW232520   0.367   1.922   7.608 -0.3763 -0.0927  0.4356
 6962SOL     OW32521   0.528   2.379  15.384  0.1007 -0.0886 -0.1271
 6962SOL    HW132522   0.522   2.425  15.300 -1.1004  2.2541  1.2287
 6962SOL    HW232523   0.612   2.337  15.371  0.8651  0.8756  1.7434
 6963SOL     OW32524   1.315   0.106   4.913  0.4249 -0.0094  0.1848
 6963SOL    HW132525   1.306   0.201   4.912 -0.4348 -0.0925 -0.0327
 6963SOL    HW232526   1.402   0.115   4.874 -1.5629 -0.3336 -4.2713
 6964SOL     OW32527   0.736   2.237   4.783 -0.1668  0.0981 -0.3747
 6964SOL    HW132528   0.831   2.245   4.777 -0.3863  2.6432 -0.5433
 6964SOL    HW232529   0.718   2.177   4.711 -0.8712 -2.5310  1.9867
 6965SOL     OW32530   2.451   4.126   4.137  0.7166 -0.1873  0.0326
 6965SOL    HW132531   2.363   4.131   4.172  0.5464  1.6384 -0.6279
 6965SOL    HW232532   2.449   4.043   4.090 -2.1651 -0.2738  0.3197
 6966SOL     OW32533   3.143   3.163   1.718 -0.4804  0.4702  0.1354
 6966SOL    HW132534   3.138   3.173   1.813 -2.2526  1.4481 -0.0488
 6966SOL    HW232535   3.049   3.174   1.699 -0.6644  0.2631  0.9266
 6967SOL     OW32536   1.380   2.203   7.672  0.0613  0.5567 -0.3956
 6967SOL    HW132537   1.351   2.294   7.680 -0.6736  0.2234  0.7724
 6967SOL    HW232538   1.346   2.155   7.747  1.6387 -0.3732 -0.2808
 6968SOL     OW32539   3.325   1.822  12.929  0.6774  0.1414  0.0081
 6968SOL    HW132540   3.331   1.801  13.022 -0.3131  0.3833  0.1285
 6968SOL    HW232541   3.316   1.736  12.890 -0.9287  0.2516  0.1292
 6969SOL     OW32542   0.489   2.046   1.900  0.1752  0.4717 -0.5709
 6969SOL    HW132543   0.564   2.104   1.897  0.9648 -0.4974  0.3871
 6969SOL    HW232544   0.415   2.106   1.890  1.0503  1.8172  1.0589
 6970SOL     OW32545   1.268   0.709   8.916  0.1695  0.7381 -0.0089
 6970SOL    HW132546   1.318   0.699   8.997 -2.9409  0.7394  1.9137
 6970SOL    HW232547   1.326   0.708   8.840 -0.1893  0.3038 -0.2759
 6971SOL     OW32548   1.774   4.019   3.053 -0.1951  0.2239 -0.4847
 6971SOL    HW132549   1.784   3.938   3.102 -1.9343 -0.6024 -1.5041
 6971SOL    HW232550   1.759   4.079   3.127 -0.2205 -2.3272  1.5880
 6972SOL     OW32551   2.758   1.074   2.773  0.2071  0.2232 -0.0834
 6972SOL    HW132552   2.709   1.012   2.829  0.2450  0.5154  0.2717
 6972SOL    HW232553   2.814   1.092   2.849  1.1611  0.8307 -0.9431
 6973SOL     OW32554   4.640   3.529   7.017 -0.4873  0.3716 -0.4688
 6973SOL    HW132555   4.644   3.498   7.107  0.3994 -2.0954 -1.3553
 6973SOL    HW232556   4.669   3.451   6.971 -1.5672  0.0174 -0.5442
 6974SOL     OW32557   2.722   3.932  16.961  0.2478 -0.9912  0.0406
 6974SOL    HW132558   2.758   4.015  16.929  1.7987 -0.7042  2.4956
 6974SOL    HW232559   2.775   3.869  16.912  1.5821  0.9519 -1.0441
 6975SOL     OW32560   0.662   1.621   9.642 -0.8722 -0.0835 -0.0886
 6975SOL    HW132561   0.734   1.559   9.651  0.1370  0.9845 -0.8119
 6975SOL    HW232562   0.600   1.601   9.712 -1.0438  1.8689  0.3303
 6976SOL     OW32563   2.372   2.393  12.272 -0.0798  0.4314 -0.3870
 6976SOL    HW132564   2.428   2.316  12.262 -0.7198  0.2087 -2.1165
 6976SOL    HW232565   2.306   2.369  12.336 -0.4299 -1.7554 -1.6063
 6977SOL     OW32566   0.150   0.739  11.977 -0.2890 -0.4736  0.5068
 6977SOL    HW132567   0.226   0.707  12.025 -1.3661 -1.1697  1.7617
 6977SOL    HW232568   0.084   0.678  12.010 -2.5937  1.7802  0.0623
 6978SOL     OW32569   4.004   0.272   0.809 -0.3703 -0.0889 -0.3526
 6978SOL    HW132570   3.965   0.186   0.825 -1.8618  0.4814 -0.9969
 6978SOL    HW232571   3.973   0.285   0.719 -2.1055  0.7972  0.3954
 6979SOL     OW32572   3.622   0.745   4.139  0.4502 -0.6010  0.3420
 6979SOL    HW132573   3.638   0.833   4.108 -1.4255 -0.9128 -1.5131
 6979SOL    HW232574   3.526   0.745   4.129  0.5285  3.2326 -0.3421
 6980SOL     OW32575   4.520   1.548   1.610 -0.4974  0.0383  0.4412
 6980SOL    HW132576   4.553   1.484   1.672 -0.8431 -0.0621  0.5235
 6980SOL    HW232577   4.431   1.564   1.643 -0.4155 -1.3490  1.3344
 6981SOL     OW32578   4.327   3.889   2.740  0.2849  0.2348 -0.0079
 6981SOL    HW132579   4.290   3.977   2.731 -2.9478 -0.9933  1.1039
 6981SOL    HW232580   4.413   3.896   2.698  1.1476 -0.0727  1.6835
 6982SOL     OW32581   3.212   4.402  11.531 -0.3868  0.0569  0.4881
 6982SOL    HW132582   3.271   4.439  11.466  0.2643  0.8168  1.5163
 6982SOL    HW232583   3.127   4.437  11.502  0.6691  1.7020 -0.5897
 6983SOL     OW32584   1.806   4.054  17.489 -0.0337 -0.1595  0.4894
 6983SOL    HW132585   1.714   4.048  17.517 -0.8193  2.6568 -1.5520
 6983SOL    HW232586   1.840   4.026  17.574  2.9872  1.2664 -0.2663
 6984SOL     OW32587   2.087   0.511   5.602 -0.2065 -0.6895  0.2249
 6984SOL    HW132588   2.071   0.531   5.694  1.4736 -1.1275  0.5975
 6984SOL    HW232589   2.103   0.597   5.563 -1.4541 -0.6343 -0.1941
 6985SOL     OW32590   4.362   1.450   1.888  0.1052 -0.0944  0.3545
 6985SOL    HW132591   4.361   1.494   1.973 -0.8464  0.7177 -0.0773
 6985SOL    HW232592   4.452   1.436   1.860 -0.6020 -4.4042  0.1447
 6986SOL     OW32593   2.613   3.040   2.066 -0.3235 -0.7604  0.2642
 6986SOL    HW132594   2.677   3.111   2.064  0.6968 -1.6203  1.7395
 6986SOL    HW232595   2.618   3.007   2.156 -0.8366  0.7439  0.8438
 6987SOL     OW32596   4.667   0.041   9.830 -0.0809  0.7219  0.3201
 6987SOL    HW132597   4.725   4.712   9.790 -0.9130 -0.9784  1.8437
 6987SOL    HW232598   4.700   0.119   9.785 -0.3806  0.6091 -0.0956
 6988SOL     OW32599   0.585   1.635   8.063  0.1558  0.0156 -0.8271
 6988SOL    HW132600   0.528   1.667   8.133  1.3013 -2.6660  1.3585
 6988SOL    HW232601   0.531   1.563   8.031 -0.3933 -0.0984  0.3713
 6989SOL     OW32602   0.586   2.586   3.953  0.7712 -0.1606 -0.5990
 6989SOL    HW132603   0.547   2.597   4.040  0.8385 -1.0905 -0.4551
 6989SOL    HW232604   0.525   2.523   3.914 -0.4009  1.7571 -1.9024
 6990SOL     OW32605   0.075   0.528  12.141 -0.0865  0.3530  0.3503
 6990SOL    HW132606   0.090   0.577  12.222  0.3835 -0.6215  0.8610
 6990SOL    HW232607   0.036   0.453  12.186  0.3938  0.0777  0.3116
 6991SOL     OW32608   1.816   1.397   2.542 -0.0789 -0.3088 -0.2907
 6991SOL    HW132609   1.909   1.381   2.526 -0.4202  0.8927 -3.4976
 6991SOL    HW232610   1.818   1.491   2.525 -2.0161 -0.3735 -0.9036
 6992SOL     OW32611   1.232   1.129   5.638 -0.1542  0.1989 -0.0199
 6992SOL    HW132612   1.272   1.108   5.723 -0.6204 -0.2562  0.0890
 6992SOL    HW232613   1.199   1.044   5.608  1.6521 -1.0295  1.4641
 6993SOL     OW32614   4.285   0.223  17.150  0.7133  0.7731 -0.3289
 6993SOL    HW132615   4.364   0.228  17.203  0.1003  1.2656  0.5469
 6993SOL    HW232616   4.308   0.247  17.061  1.5940 -1.2061 -0.6303
 6994SOL     OW32617   2.373   4.082   7.159  0.4330 -0.1656  0.1794
 6994SOL    HW132618   2.360   4.075   7.064 -1.6711 -1.9207  0.5899
 6994SOL    HW232619   2.331   4.002   7.191 -3.4548  2.0050  0.5535
 6995SOL     OW32620   3.255   1.180   6.549  0.3435  0.1796 -0.5360
 6995SOL    HW132621   3.322   1.230   6.503  1.0345  0.7901  1.1345
 6995SOL    HW232622   3.224   1.128   6.475  0.1878  1.9371 -1.6965
 6996SOL     OW32623   3.438   4.700  17.296 -0.2117 -0.1045  0.1220
 6996SOL    HW132624   3.474   4.622  17.336 -0.1780 -0.5003 -0.6890
 6996SOL    HW232625   3.358   4.706  17.348 -0.7571 -0.6079 -0.6636
 6997SOL     OW32626   2.171   1.202  14.267  0.6006  0.0280  0.0877
 6997SOL    HW132627   2.232   1.218  14.195  1.6186 -0.6674  0.7818
 6997SOL    HW232628   2.233   1.178  14.337 -1.2206 -1.3869  1.2121
 6998SOL     OW32629   2.842   1.785   8.534 -0.5425 -0.5963 -0.4481
 6998SOL    HW132630   2.907   1.794   8.464 -0.4972 -0.7071 -0.4197
 6998SOL    HW232631   2.764   1.814   8.486  0.1553  0.5289 -0.8965
 6999SOL     OW32632   2.566   1.307   4.424 -0.2465 -0.1244 -0.2673
 6999SOL    HW132633   2.495   1.352   4.379  0.7959  0.4258 -1.3596
 6999SOL    HW232634   2.580   1.355   4.505  2.3332  0.5827 -1.1390
 7000SOL     OW32635   4.670   3.597   9.516  0.1543  0.0511 -0.5054
 7000SOL    HW132636   4.663   3.502   9.506  0.1473 -0.0962  0.8540
 7000SOL    HW232637   4.705   3.614   9.604  1.9315  1.1932 -1.4338
 7001SOL     OW32638   1.383   0.285   9.927  0.4500  0.4227 -0.0184
 7001SOL    HW132639   1.329   0.205   9.924  0.5398  0.3384  0.7908
 7001SOL    HW232640   1.463   0.255   9.884 -0.2664 -0.2223 -0.9271
 7002SOL     OW32641   3.668   1.040   5.610 -0.2921 -0.5208  1.0122
 7002SOL    HW132642   3.638   1.130   5.617  0.6982  0.1780 -3.9136
 7002SOL    HW232643   3.700   1.020   5.698  1.7729  1.1702  0.6323
 7003SOL     OW32644   3.379   3.838  15.162 -0.0173  0.0373  0.4223
 7003SOL    HW132645   3.398   3.815  15.071 -1.8434 -2.5394  0.6790
 7003SOL    HW232646   3.312   3.901  15.134 -0.7698 -1.3779 -0.9401
 7004SOL     OW32647   1.679   3.088   5.708 -0.0037 -0.1177  0.4300
 7004SOL    HW132648   1.756   3.037   5.683 -0.4912 -0.5258 -0.2246
 7004SOL    HW232649   1.611   3.058   5.648  0.2710 -1.5510  0.8269
 7005SOL     OW32650   3.061   1.564   1.281  0.2075  0.2113 -0.0494
 7005SOL    HW132651   3.020   1.646   1.310 -2.0836 -1.3755  1.2478
 7005SOL    HW232652   3.059   1.585   1.187  0.0736 -2.0673 -0.5492
 7006SOL     OW32653   0.273   3.067   3.032  0.0316 -0.5818 -0.1164
 7006SOL    HW132654   0.203   3.030   3.086  0.3906  1.1690  1.5445
 7006SOL    HW232655   0.225   3.113   2.962  2.1050 -1.4063 -2.0818
 7007SOL     OW32656   1.713   3.115   7.237  0.0547 -0.3811  0.2376
 7007SOL    HW132657   1.673   3.032   7.212 -1.0431 -0.2334  1.5008
 7007SOL    HW232658   1.739   3.098   7.328 -0.7456 -0.8669  0.3761
 7008SOL     OW32659   3.477   4.476  15.621 -0.1977  0.2936 -0.1731
 7008SOL    HW132660   3.510   4.493  15.709  1.7493  0.2749 -0.8825
 7008SOL    HW232661   3.528   4.535  15.566 -2.1993  0.9298 -1.3532
 7009SOL     OW32662   2.576   0.631   3.640 -0.1377 -0.4958  0.0512
 7009SOL    HW132663   2.663   0.606   3.669  0.3059  0.1706 -0.7067
 7009SOL    HW232664   2.579   0.721   3.609 -1.0563 -0.6032 -0.3516
 7010SOL     OW32665   2.200   0.940   3.249 -0.0239 -0.2278  0.2592
 7010SOL    HW132666   2.143   1.009   3.215 -0.1553 -0.6798 -0.4462
 7010SOL    HW232667   2.139   0.873   3.281  0.1440 -0.8019 -0.6158
 7011SOL     OW32668   0.675   2.451   4.940 -0.0734 -0.0998  0.2581
 7011SOL    HW132669   0.748   2.513   4.931 -0.8687  0.5280 -1.8382
 7011SOL    HW232670   0.718   2.378   4.894  0.9498  1.2414 -0.9104
 7012SOL     OW32671   0.118   1.076  14.044  0.3230  0.7617 -0.5840
 7012SOL    HW132672   0.047   1.130  14.010 -0.2860  0.5100  0.2871
 7012SOL    HW232673   0.156   1.131  14.113  1.7108 -1.1050  0.1375
 7013SOL     OW32674   2.667   3.276  12.010 -0.3171  0.0286  0.2139
 7013SOL    HW132675   2.713   3.256  12.091 -1.2469 -1.9224  0.2550
 7013SOL    HW232676   2.575   3.281  12.034 -0.0973 -1.2282  1.3299
 7014SOL     OW32677   3.171   2.708   3.357  0.1408 -0.7752  0.2828
 7014SOL    HW132678   3.095   2.719   3.414  1.9187 -0.9021  2.6951
 7014SOL    HW232679   3.234   2.665   3.414  2.4187 -2.4117 -3.5129
 7015SOL     OW32680   0.600   0.087   5.171  0.1326 -0.4552  0.0362
 7015SOL    HW132681   0.615   0.173   5.132 -2.5970 -0.4034 -0.8984
 7015SOL    HW232682   0.681   0.074   5.220  0.5273 -1.2609 -0.8220
 7016SOL     OW32683   0.483   2.527   5.768  0.1715  0.4792 -0.3851
 7016SOL    HW132684   0.551   2.472   5.806  0.2165 -0.6144 -2.0260
 7016SOL    HW232685   0.466   2.469   5.693  0.5184  0.7041 -0.6356
 7017SOL     OW32686   2.441   1.756   9.500 -0.6757 -0.1325 -0.4067
 7017SOL    HW132687   2.508   1.718   9.442 -1.8514  1.0824 -2.5679
 7017SOL    HW232688   2.432   1.686   9.564 -0.8680  0.4800  0.2308
 7018SOL     OW32689   0.728   2.254   2.157  0.1531  0.1067 -0.2237
 7018SOL    HW132690   0.690   2.286   2.075 -0.1920 -0.9094 -0.4585
 7018SOL    HW232691   0.817   2.238   2.124 -0.4164  1.9332 -2.6536
 7019SOL     OW32692   1.131   1.884   2.235 -0.2936 -0.1177  0.2626
 7019SOL    HW132693   1.133   1.933   2.317  0.5311 -2.7520  1.8182
 7019SOL    HW232694   1.135   1.795   2.271 -0.1198 -0.0167  0.4885
 7020SOL     OW32695   2.089   1.868   6.077  0.3148  0.1972  0.4933
 7020SOL    HW132696   2.093   1.795   6.139  0.3234  0.9012  1.3289
 7020SOL    HW232697   2.137   1.937   6.123  2.3688  0.5487 -2.2201
 7021SOL     OW32698   4.441   4.565   3.953 -0.3408 -0.3816  0.1358
 7021SOL    HW132699   4.441   4.548   3.859 -1.4908  2.1140 -0.3280
 7021SOL    HW232700   4.349   4.550   3.975 -0.7273  0.9357 -0.5662
 7022SOL     OW32701   3.028   0.625   5.430 -0.7017  0.3124  0.3797
 7022SOL    HW132702   3.094   0.688   5.400 -2.3563  1.2317 -1.3435
 7022SOL    HW232703   3.017   0.576   5.348 -3.3857  2.1515 -0.3663
 7023SOL     OW32704   0.865   2.354   3.925  0.1648  0.7178  0.5792
 7023SOL    HW132705   0.896   2.309   3.847 -0.9676 -0.5012  0.8296
 7023SOL    HW232706   0.943   2.353   3.981 -0.3071  1.8560  1.2660
 7024SOL     OW32707   1.481   3.062   1.626  0.0439  0.0339 -0.4409
 7024SOL    HW132708   1.425   2.987   1.605 -0.2567 -0.1321  0.9730
 7024SOL    HW232709   1.418   3.134   1.619 -1.3522 -0.9112  2.6032
 7025SOL     OW32710   1.320   4.591   1.074  0.3924 -0.4584 -0.0112
 7025SOL    HW132711   1.315   4.667   1.133 -1.0230  1.1108 -2.1290
 7025SOL    HW232712   1.319   4.631   0.987 -1.1297  0.4799  0.4247
 7026SOL     OW32713   1.627   2.424   3.861 -0.3395 -0.9808  0.5955
 7026SOL    HW132714   1.684   2.381   3.797  0.3985  3.2588 -1.5680
 7026SOL    HW232715   1.617   2.511   3.823  0.7671 -0.7452  0.8706
 7027SOL     OW32716   2.064   1.206  13.975  0.4037  0.1992 -0.0079
 7027SOL    HW132717   2.151   1.181  14.006 -0.2278  0.0811  1.6925
 7027SOL    HW232718   2.090   1.273  13.912  1.2358 -0.5121 -0.4265
 7028SOL     OW32719   3.745   3.836  11.521  0.2451  0.0519  0.0561
 7028SOL    HW132720   3.757   3.866  11.611  0.9264 -0.1665  0.0307
 7028SOL    HW232721   3.751   3.741  11.528 -0.4233  0.0292  0.3239
 7029SOL     OW32722   2.711   3.283   6.642  0.6511  0.0533 -0.3094
 7029SOL    HW132723   2.778   3.224   6.606  0.0548 -0.6399 -0.2806
 7029SOL    HW232724   2.629   3.242   6.615  2.1000 -2.1485 -1.4169
 7030SOL     OW32725   1.570   3.791  12.497  0.1956  0.0782 -0.0985
 7030SOL    HW132726   1.592   3.705  12.461  1.3100  0.4132 -0.2147
 7030SOL    HW232727   1.620   3.779  12.578 -0.7398 -0.9525  0.3190
 7031SOL     OW32728   2.266   3.883   3.985  0.3920  0.4821  0.1036
 7031SOL    HW132729   2.260   3.855   3.894  1.4744  0.0655  0.1606
 7031SOL    HW232730   2.183   3.929   3.995  1.4032  1.8706  2.0311
 7032SOL     OW32731   1.049   3.048  10.770 -0.8268  0.1871 -0.1203
 7032SOL    HW132732   1.016   2.964  10.741  0.2220  0.8055 -3.0942
 7032SOL    HW232733   0.991   3.103  10.717 -1.2704 -0.2383 -0.0731
 7033SOL     OW32734   1.650   2.528  13.166  0.1625 -0.7235  0.1935
 7033SOL    HW132735   1.601   2.465  13.113 -2.9375  0.1667  2.0111
 7033SOL    HW232736   1.738   2.520  13.130 -0.0600  1.2983 -0.8080
 7034SOL     OW32737   3.534   1.351   4.468 -0.1206 -0.2467 -0.0192
 7034SOL    HW132738   3.566   1.313   4.549 -2.0124  0.1669  0.9228
 7034SOL    HW232739   3.450   1.380   4.504  0.0964  0.1939  0.1346
 7035SOL     OW32740   1.206   4.198  16.511  0.0548  0.1570  0.6858
 7035SOL    HW132741   1.122   4.198  16.558  0.0347  2.6758  0.6043
 7035SOL    HW232742   1.262   4.148  16.571 -0.1790  0.6835  1.3510
 7036SOL     OW32743   2.615   1.732   5.262  0.9220  0.0798 -0.6124
 7036SOL    HW132744   2.649   1.818   5.238 -0.8165 -0.1790 -3.9806
 7036SOL    HW232745   2.543   1.764   5.317  1.5249  1.6132 -0.7313
 7037SOL     OW32746   2.717   4.031   8.282  0.1508 -0.6688  0.1375
 7037SOL    HW132747   2.632   4.032   8.325 -0.3026  1.7944 -0.7990
 7037SOL    HW232748   2.744   3.947   8.317 -1.1653 -0.6286  1.2440
 7038SOL     OW32749   2.309   2.201   8.991 -0.3703 -0.3802  0.0516
 7038SOL    HW132750   2.229   2.250   9.011 -0.7324 -1.1808  0.5757
 7038SOL    HW232751   2.296   2.127   9.051  1.5021  0.3172  1.2797
 7039SOL     OW32752   4.633   1.628   5.879  0.1136 -0.1746  0.2191
 7039SOL    HW132753   4.538   1.625   5.889  0.1797 -1.3440  0.4727
 7039SOL    HW232754   4.650   1.556   5.818 -0.2681  1.7038 -2.1292
 7040SOL     OW32755   0.466   4.466  16.585  0.1101  0.4474  0.4163
 7040SOL    HW132756   0.392   4.519  16.615 -0.6830  0.7546 -2.1135
 7040SOL    HW232757   0.458   4.395  16.650  0.1998  0.8225  0.8347
 7041SOL     OW32758   4.043   1.059   5.888  0.0215 -0.5140  0.0866
 7041SOL    HW132759   4.107   1.120   5.852 -0.2593  0.0970  0.6303
 7041SOL    HW232760   4.103   1.013   5.947 -1.0594 -1.1241  0.7229
 7042SOL     OW32761   2.980   3.889  17.330  0.0373  0.1850 -0.1762
 7042SOL    HW132762   2.965   3.977  17.364  0.3512  0.5513 -0.9709
 7042SOL    HW232763   2.974   3.848  17.416  3.3473  0.2899  0.0738
 7043SOL     OW32764   4.541   0.693   8.156  0.3083 -0.2318 -0.1940
 7043SOL    HW132765   4.477   0.712   8.087  0.2099 -2.5596 -0.7594
 7043SOL    HW232766   4.517   0.608   8.193 -0.0675  0.0113  0.1267
 7044SOL     OW32767   3.302   4.197  10.176 -0.5596  0.0635  0.6340
 7044SOL    HW132768   3.220   4.202  10.225 -1.0958  0.7136 -0.3373
 7044SOL    HW232769   3.361   4.241  10.237  1.3067  1.2709 -2.0141
 7045SOL     OW32770   1.047   2.373   2.936  0.2032  0.1965 -0.1201
 7045SOL    HW132771   1.135   2.336   2.931  0.0487  0.3271 -3.4080
 7045SOL    HW232772   1.004   2.333   2.860  3.8962  0.1744 -2.1545
 7046SOL     OW32773   0.219   1.638  14.770 -0.5609  0.0506  0.1413
 7046SOL    HW132774   0.277   1.663  14.698  1.1528  1.4121  2.0237
 7046SOL    HW232775   0.175   1.720  14.791 -0.6742 -0.2586  1.1200
 7047SOL     OW32776   1.553   1.824   6.838  0.3933 -0.1749  0.0736
 7047SOL    HW132777   1.587   1.838   6.750  1.0143 -0.8278  0.2097
 7047SOL    HW232778   1.624   1.858   6.892 -0.4667  0.4523  0.8000
 7048SOL     OW32779   1.562   1.747  10.953  0.5401 -0.1010  0.1789
 7048SOL    HW132780   1.646   1.740  10.997  0.9843 -0.4185 -0.7115
 7048SOL    HW232781   1.559   1.662  10.909 -2.6704 -1.2322  2.6431
 7049SOL     OW32782   1.913   4.724  16.173  0.6260  0.3832 -0.2960
 7049SOL    HW132783   1.843   0.004  16.236 -2.2553  0.2292 -3.4893
 7049SOL    HW232784   1.911   0.074  16.130 -1.5074  0.5605  0.1408
 7050SOL     OW32785   0.480   2.007  14.618 -0.3695  0.0660  0.5722
 7050SOL    HW132786   0.489   2.062  14.696 -1.3883 -0.8115  1.3068
 7050SOL    HW232787   0.490   2.071  14.547 -0.2038 -0.8540 -0.2319
 7051SOL     OW32788   1.808   2.386   2.584 -0.1589  0.4074  0.4586
 7051SOL    HW132789   1.873   2.457   2.584  0.0384  0.2329 -4.0599
 7051SOL    HW232790   1.868   2.321   2.547 -1.2757  0.5551 -1.6190
 7052SOL     OW32791   4.476   0.078   4.802 -0.2562  0.0552  0.1483
 7052SOL    HW132792   4.430   0.155   4.836  1.7417  0.9887  0.7609
 7052SOL    HW232793   4.421   0.006   4.832 -0.3525  1.3062  2.9697
 7053SOL     OW32794   0.740   1.346   0.052  0.4864  0.2951  0.2773
 7053SOL    HW132795   0.763   1.254   0.065  1.1447  0.6765  1.8136
 7053SOL    HW232796   0.645   1.350   0.063  0.7895  2.3268  2.1809
 7054SOL     OW32797   4.208   4.366   9.038  0.2885 -0.9650 -0.0502
 7054SOL    HW132798   4.284   4.421   9.018  0.3341 -0.3718  1.8057
 7054SOL    HW232799   4.253   4.283   9.049 -1.3830 -1.7571  0.8141
 7055SOL     OW32800   3.351   1.010   3.156  0.1452  0.2764  0.3986
 7055SOL    HW132801   3.261   0.989   3.181 -0.6033  1.9741 -0.9312
 7055SOL    HW232802   3.371   0.975   3.070  0.1294 -2.0587  1.3485
 7056SOL     OW32803   2.985   0.669   3.335 -0.0866  0.4187 -0.2907
 7056SOL    HW132804   3.027   0.586   3.358 -2.3568 -0.3670  1.0379
 7056SOL    HW232805   2.971   0.665   3.240  0.3000  1.0471 -0.3744
 7057SOL     OW32806   0.923   3.011   3.337  0.5454  0.4209  0.2823
 7057SOL    HW132807   0.938   2.977   3.425  1.7228 -1.9940 -0.8616
 7057SOL    HW232808   1.013   3.041   3.325  0.1686  1.3524 -0.1762
 7058SOL     OW32809   2.821   3.460  11.663  0.6777 -0.6005 -0.0318
 7058SOL    HW132810   2.773   3.377  11.670  1.8019 -1.2781 -0.3053
 7058SOL    HW232811   2.771   3.522  11.611  0.4091  0.1373  1.1172
 7059SOL     OW32812   0.398   3.539  16.545  0.3049  0.0228 -0.4094
 7059SOL    HW132813   0.493   3.552  16.548 -0.1121  3.4104 -2.1061
 7059SOL    HW232814   0.389   3.467  16.607  0.0799 -1.8231 -2.6258
 7060SOL     OW32815   2.523   1.195   9.131  0.0738  0.4640 -0.4551
 7060SOL    HW132816   2.615   1.204   9.106 -0.1635 -0.6518 -1.7322
 7060SOL    HW232817   2.480   1.223   9.051  0.9093  1.7179 -0.4613
 7061SOL     OW32818   4.423   4.399   8.837  0.6158  0.4535  0.3194
 7061SOL    HW132819   4.498   4.456   8.818  0.3021  0.7400 -0.0604
 7061SOL    HW232820   4.459   4.311   8.841  1.2634  0.8359  3.2942
 7062SOL     OW32821   1.257   0.220   4.529  0.1129  0.2769 -0.2651
 7062SOL    HW132822   1.323   0.286   4.508 -0.4224  0.6087 -0.9378
 7062SOL    HW232823   1.192   0.276   4.571 -1.5594 -0.8257 -1.3522
 7063SOL     OW32824   1.623   2.692   9.453  0.2160 -0.4948 -0.1947
 7063SOL    HW132825   1.576   2.746   9.516 -0.9595  0.4268 -1.8448
 7063SOL    HW232826   1.692   2.650   9.503 -1.7480 -0.6410  2.3958
 7064SOL     OW32827   0.547   1.575   9.047  0.3012  0.0792 -0.1694
 7064SOL    HW132828   0.510   1.631   8.979  2.7039 -1.7267 -2.9629
 7064SOL    HW232829   0.578   1.642   9.108  2.3069  0.1127 -1.2397
 7065SOL     OW32830   4.661   4.301   9.130  0.2836  0.1310 -0.5072
 7065SOL    HW132831   0.003   4.329   9.178  0.5929 -0.1434 -0.8483
 7065SOL    HW232832   4.697   4.220   9.094  0.7949  0.1827 -0.1094
 7066SOL     OW32833   1.541   1.708  13.024  0.3930  0.3233  0.1866
 7066SOL    HW132834   1.497   1.780  12.977 -1.6450 -1.8653 -1.2712
 7066SOL    HW232835   1.624   1.742  13.056 -0.0189  0.2616  1.3035
 7067SOL     OW32836   1.554   0.014  13.277 -0.2106  0.3912 -0.5578
 7067SOL    HW132837   1.471   0.062  13.270 -1.3237 -1.0464  2.9659
 7067SOL    HW232838   1.612   0.065  13.221 -0.7457  0.2121 -1.2852
 7068SOL     OW32839   3.240   0.757  10.935  0.6714  0.1250  0.0433
 7068SOL    HW132840   3.184   0.686  10.906  1.5700 -0.1087 -1.1277
 7068SOL    HW232841   3.284   0.782  10.854 -2.3619  0.9688 -1.3146
 7069SOL     OW32842   2.944   1.239   7.908 -0.1156  0.3496  0.4900
 7069SOL    HW132843   2.895   1.315   7.937 -1.7566 -0.6045  0.2061
 7069SOL    HW232844   2.991   1.282   7.836 -3.9157  1.7298 -1.2009
 7070SOL     OW32845   4.058   3.270  10.752 -0.3627  0.2215 -0.1845
 7070SOL    HW132846   4.042   3.268  10.658  1.8871  0.7792 -0.5600
 7070SOL    HW232847   3.978   3.300  10.796  0.3859  2.3760 -0.3083
 7071SOL     OW32848   2.223   1.570   5.714 -0.1037  0.0160 -0.1172
 7071SOL    HW132849   2.181   1.649   5.679 -1.4309 -1.1365 -1.1088
 7071SOL    HW232850   2.182   1.499   5.665  0.1817 -1.4201  1.7293
 7072SOL     OW32851   4.285   3.495   2.537  0.1543 -0.1392 -0.4462
 7072SOL    HW132852   4.272   3.444   2.457 -2.6265 -1.0476  0.5565
 7072SOL    HW232853   4.258   3.581   2.505  0.0006  0.3863  1.0986
 7073SOL     OW32854   0.284   0.171   9.214  0.1351 -0.0753  0.0296
 7073SOL    HW132855   0.299   0.212   9.300 -1.3488  0.2932  0.1048
 7073SOL    HW232856   0.357   0.110   9.207  0.8822  1.0427 -1.9292
 7074SOL     OW32857   4.387   4.188   5.563 -0.2731  0.5382  0.1836
 7074SOL    HW132858   4.471   4.147   5.588 -0.6982 -0.3663  0.1446
 7074SOL    HW232859   4.384   4.160   5.471 -1.3284 -1.4756  0.8268
 7075SOL     OW32860   4.070   2.587   7.226 -0.5903 -0.6191 -0.6454
 7075SOL    HW132861   4.072   2.670   7.273 -0.8056 -0.9128 -0.1165
 7075SOL    HW232862   4.121   2.607   7.147  1.2671 -1.6127  0.3063
 7076SOL     OW32863   3.422   0.890   7.985 -0.0951  0.7554  0.4892
 7076SOL    HW132864   3.516   0.906   7.983 -0.0880  0.7625  0.8329
 7076SOL    HW232865   3.405   0.957   8.052  3.2097  1.1551  0.9512
 7077SOL     OW32866   4.604   1.370   4.669  0.2961 -0.1022  0.5752
 7077SOL    HW132867   4.687   1.370   4.716 -0.0593  0.5828  1.2014
 7077SOL    HW232868   4.634   1.446   4.619 -2.6583  0.5301 -0.2664
 7078SOL     OW32869   4.353   4.677   9.000  0.1409 -0.1508  1.0192
 7078SOL    HW132870   4.379   4.721   8.919 -1.9847  1.6637  1.3342
 7078SOL    HW232871   4.442   4.658   9.030  1.4053  1.0212 -1.9384
 7079SOL     OW32872   3.306   0.529   6.071 -0.4128 -0.5987  0.0854
 7079SOL    HW132873   3.302   0.438   6.040  0.0213  0.0623 -1.8844
 7079SOL    HW232874   3.398   0.549   6.053 -0.2714 -2.5945 -1.4884
 7080SOL     OW32875   0.097   4.567   1.686 -0.2163 -0.6100  0.2694
 7080SOL    HW132876   0.182   4.592   1.723 -0.8651  2.1635 -0.1239
 7080SOL    HW232877   0.038   4.581   1.760  1.3050  3.0262  0.8257
 7081SOL     OW32878   2.471   1.863   5.470  0.4876  0.2230 -1.0074
 7081SOL    HW132879   2.533   1.915   5.522 -0.9953  0.1558  0.8247
 7081SOL    HW232880   2.389   1.887   5.513  1.7050  1.3250  0.7140
 7082SOL     OW32881   1.989   2.565   4.447 -0.1147 -0.4414  0.3914
 7082SOL    HW132882   1.972   2.646   4.494 -3.0369 -0.8228  0.0189
 7082SOL    HW232883   2.033   2.514   4.516  2.9792  2.1209  0.2994
 7083SOL     OW32884   0.554   3.869  14.782 -0.3891  0.1559 -0.1203
 7083SOL    HW132885   0.588   3.938  14.725  0.3591 -1.6244 -1.8058
 7083SOL    HW232886   0.632   3.816  14.796 -0.4352 -0.3442 -1.7840
 7084SOL     OW32887   4.383   2.101   8.978  0.2233 -0.1544 -0.3252
 7084SOL    HW132888   4.441   2.172   9.005 -0.0871 -0.2419  0.5582
 7084SOL    HW232889   4.298   2.138   9.002  1.8131  2.8511  0.6101
 7085SOL     OW32890   1.045   0.993   5.064  0.0540 -0.6350  0.2995
 7085SOL    HW132891   1.124   0.941   5.081  1.4645  0.7351 -2.1110
 7085SOL    HW232892   0.977   0.926   5.072 -0.1862  0.0306  3.7235
 7086SOL     OW32893   0.619   4.728   4.563 -0.1932 -0.3507 -0.1919
 7086SOL    HW132894   0.632   4.728   4.658  0.2298 -0.3189 -0.2484
 7086SOL    HW232895   0.665   0.073   4.540 -1.8010  1.1413  1.7731
 7087SOL     OW32896   1.521   1.943  10.790  0.1503  0.8283  0.0108
 7087SOL    HW132897   1.608   1.977  10.767  0.3103 -1.0656 -2.2273
 7087SOL    HW232898   1.536   1.883  10.863 -0.5863  0.1498 -0.3916
 7088SOL     OW32899   0.043   4.008   6.560 -0.0623 -0.2139 -0.3907
 7088SOL    HW132900   4.689   3.989   6.588 -0.1247  1.6581  0.6651
 7088SOL    HW232901   0.084   4.035   6.642 -1.5609 -0.2468  0.3778
 7089SOL     OW32902   4.169   3.227   3.177 -0.8739  0.5248 -0.1402
 7089SOL    HW132903   4.145   3.271   3.259  0.7657  3.7103 -1.3869
 7089SOL    HW232904   4.081   3.191   3.166 -1.2561  0.1981  3.9530
 7090SOL     OW32905   1.694   1.253   8.480 -0.3477 -0.1912 -0.8942
 7090SOL    HW132906   1.775   1.248   8.430 -0.1844 -0.9496 -0.5471
 7090SOL    HW232907   1.724   1.323   8.539  0.1405 -0.0705 -1.2900
 7091SOL     OW32908   3.613   2.865   6.107 -0.5493  0.6604  0.3857
 7091SOL    HW132909   3.587   2.902   6.192  0.2211  2.6562 -0.2448
 7091SOL    HW232910   3.660   2.783   6.123 -0.2921  0.8707  0.6989
 7092SOL     OW32911   1.650   0.780   2.878  0.0422 -0.1879  0.7249
 7092SOL    HW132912   1.638   0.692   2.843 -1.9028  0.1517  0.5196
 7092SOL    HW232913   1.616   0.756   2.964  2.4339 -0.5301  1.5834
 7093SOL     OW32914   3.221   1.821  16.216 -0.0013  0.1975 -0.1970
 7093SOL    HW132915   3.168   1.878  16.271  2.1751  3.0437 -1.0497
 7093SOL    HW232916   3.172   1.837  16.135 -2.9560 -0.3641  1.4961
 7094SOL     OW32917   3.297   0.053   5.452 -0.2123  0.0233  0.0488
 7094SOL    HW132918   3.265   0.004   5.529  1.5592  0.1242  0.8490
 7094SOL    HW232919   3.391   0.049   5.469 -0.5278  0.0098  1.8577
 7095SOL     OW32920   1.479   0.273   3.099  0.2766 -0.2525  0.5324
 7095SOL    HW132921   1.518   0.254   3.014 -1.1730 -2.0834  0.2773
 7095SOL    HW232922   1.505   0.363   3.119 -2.1759  0.7042 -0.6194
 7096SOL     OW32923   1.958   3.231  16.137 -0.1312 -0.0443  0.1900
 7096SOL    HW132924   1.925   3.298  16.197  0.8545  1.5336 -1.0142
 7096SOL    HW232925   1.886   3.171  16.154 -1.7203  1.6702 -0.4772
 7097SOL     OW32926   1.650   1.769  12.627 -0.0504 -0.2179 -0.8388
 7097SOL    HW132927   1.667   1.752  12.534 -1.4495 -2.0968 -0.7415
 7097SOL    HW232928   1.707   1.707  12.671 -0.5734 -2.3767 -3.2114
 7098SOL     OW32929   2.603   0.355   3.779  0.2151  0.5979  0.1550
 7098SOL    HW132930   2.529   0.341   3.839 -0.0005  1.9524  0.2266
 7098SOL    HW232931   2.570   0.429   3.728  2.5556  0.4641 -1.5046
 7099SOL     OW32932   2.171   4.549  14.018 -0.5210  0.9583  0.5382
 7099SOL    HW132933   2.142   4.545  14.109  2.2944 -2.6559  1.2693
 7099SOL    HW232934   2.162   4.459  13.989  0.0798  0.5809  1.5145
 7100SOL     OW32935   3.022   3.719   1.277 -0.2677 -0.3018 -0.5219
 7100SOL    HW132936   2.970   3.762   1.345  1.3538 -0.2296  0.6791
 7100SOL    HW232937   3.005   3.781   1.207  1.6969  1.3658  0.4513
 7101SOL     OW32938   3.328   0.851   1.216 -0.1572 -0.0307 -0.3330
 7101SOL    HW132939   3.327   0.947   1.219  1.4628 -0.1233  4.0087
 7101SOL    HW232940   3.418   0.829   1.241 -0.2019  2.2331  1.7932
 7102SOL     OW32941   3.565   2.024   8.448  0.5218 -0.0224  0.1665
 7102SOL    HW132942   3.534   1.994   8.533 -0.6378  1.0657  0.1369
 7102SOL    HW232943   3.639   1.966   8.435 -2.3769 -3.3247 -1.5991
 7103SOL     OW32944   1.871   1.223   7.108  0.4098 -0.0552 -0.0795
 7103SOL    HW132945   1.891   1.185   7.193 -1.7287 -1.0689 -0.0266
 7103SOL    HW232946   1.776   1.223   7.119  0.4246 -0.2973  0.0439
 7104SOL     OW32947   1.040   2.505   7.780 -0.1845  0.2214  0.4046
 7104SOL    HW132948   1.019   2.412   7.768 -2.2318  0.6783  0.3520
 7104SOL    HW232949   1.135   2.497   7.788  0.0659  2.1747 -0.6319
 7105SOL     OW32950   3.760   0.335   1.962 -0.5590  0.2809 -0.1967
 7105SOL    HW132951   3.743   0.329   2.056  1.0756  0.6342  0.1056
 7105SOL    HW232952   3.852   0.361   1.958  0.1084 -1.8679  1.0120
 7106SOL     OW32953   1.668   3.435   5.549  0.2618  0.1255  0.3332
 7106SOL    HW132954   1.727   3.371   5.508  0.0968 -0.9568  1.7720
 7106SOL    HW232955   1.722   3.511   5.529 -1.9477  1.2880 -1.1657
 7107SOL     OW32956   2.581   2.199   1.951 -0.3459 -0.0571  0.2797
 7107SOL    HW132957   2.590   2.171   2.042 -0.1824  1.1659  0.6316
 7107SOL    HW232958   2.526   2.277   1.962 -1.1213 -0.6734  0.7770
 7108SOL     OW32959   3.654   0.607   5.192  0.9352  0.1793 -0.2826
 7108SOL    HW132960   3.633   0.522   5.153  0.6220  0.3718 -0.5424
 7108SOL    HW232961   3.679   0.577   5.280 -0.0016 -0.0733 -0.0976
 7109SOL     OW32962   1.660   2.001   5.301 -0.0247 -0.1268 -0.4702
 7109SOL    HW132963   1.668   1.947   5.380 -2.8505 -0.4279 -0.3984
 7109SOL    HW232964   1.753   1.993   5.278 -0.4940 -0.6174 -2.2201
 7110SOL     OW32965   1.337   1.975  11.896  0.5579  0.0072 -0.0553
 7110SOL    HW132966   1.404   1.925  11.943 -0.9103 -0.1248  1.8881
 7110SOL    HW232967   1.332   2.044  11.963  1.4976  0.5043 -0.4901
 7111SOL     OW32968   0.381   0.033   6.843 -0.0460 -0.3396 -0.6252
 7111SOL    HW132969   0.336   0.057   6.762 -1.6026 -1.1048  0.0234
 7111SOL    HW232970   0.397   4.675   6.836  1.8638  0.1117 -2.2996
 7112SOL     OW32971   1.883   1.746   6.913 -0.0843 -0.2316  0.5210
 7112SOL    HW132972   1.953   1.762   6.851 -0.6623  0.9804  0.1861
 7112SOL    HW232973   1.846   1.663   6.884 -0.5041 -0.3123  1.2867
 7113SOL     OW32974   0.067   4.287   4.378 -0.1746  0.3674 -0.1511
 7113SOL    HW132975   0.132   4.344   4.337  0.0265 -2.3734 -3.5937
 7113SOL    HW232976   0.093   4.301   4.469 -1.1961  0.7831  0.0846
 7114SOL     OW32977   3.593   4.668   2.387  0.7483 -0.2329 -0.4047
 7114SOL    HW132978   3.594   4.643   2.479  1.2860  2.0024  0.1962
 7114SOL    HW232979   3.596   0.027   2.401 -0.4960 -0.5261  1.7065
 7115SOL     OW32980   2.451   2.442   3.062 -0.6114  0.4148 -0.7169
 7115SOL    HW132981   2.498   2.510   3.015  0.0772 -0.5162 -1.3735
 7115SOL    HW232982   2.413   2.493   3.133 -1.8081  1.0726 -1.8287
 7116SOL     OW32983   0.536   4.279   2.407  0.4492 -0.6577 -0.1650
 7116SOL    HW132984   0.629   4.259   2.395  0.7744  0.2430  0.8547
 7116SOL    HW232985   0.508   4.188   2.413  2.9747 -1.3300  1.5349
 7117SOL     OW32986   1.404   2.578   3.412 -0.3819  0.2259 -0.4266
 7117SOL    HW132987   1.356   2.645   3.363 -0.1496  0.7573  0.0792
 7117SOL    HW232988   1.458   2.639   3.463  0.8315  0.2271 -1.7060
 7118SOL     OW32989   2.904   0.681   1.795 -0.1242 -0.2620  0.3768
 7118SOL    HW132990   2.994   0.690   1.826 -0.3982  3.0081  0.1817
 7118SOL    HW232991   2.881   0.774   1.796  0.0617 -0.2151  0.2653
 7119SOL     OW32992   0.793   2.276  14.307 -0.0128  0.0723 -0.1095
 7119SOL    HW132993   0.815   2.240  14.221  0.8205 -1.4148  0.7235
 7119SOL    HW232994   0.698   2.287  14.306 -0.3954 -3.2664 -0.3100
 7120SOL     OW32995   2.223   1.916   7.650  0.5002 -0.0743  0.5090
 7120SOL    HW132996   2.157   1.849   7.631 -0.2485  1.5898 -2.6970
 7120SOL    HW232997   2.308   1.874   7.641 -0.2794 -1.1417 -1.8622
 7121SOL     OW32998   2.610   4.066  11.139 -0.3189  0.4110  0.7390
 7121SOL    HW132999   2.572   4.117  11.068  2.5239  0.4964 -0.6937
 7121SOL    HW233000   2.697   4.053  11.102  0.4448  1.8182  2.0377
 7122SOL     OW33001   0.073   0.135   7.945 -0.2331 -0.0636  0.2127
 7122SOL    HW133002   0.021   0.128   7.865 -0.2658 -0.6918  0.2866
 7122SOL    HW233003   0.113   0.222   7.937 -0.2216 -0.0287  0.6524
 7123SOL     OW33004   0.164   2.637   0.434  0.0248  0.0966  0.1477
 7123SOL    HW133005   0.108   2.580   0.383  2.9830 -0.9922 -1.8879
 7123SOL    HW233006   0.099   2.692   0.478 -0.1608 -1.6492  2.0523
 7124SOL     OW33007   1.406   0.450   4.503 -0.1413  0.4063 -0.1674
 7124SOL    HW133008   1.353   0.529   4.492  0.8528  1.0520 -0.3383
 7124SOL    HW233009   1.443   0.441   4.415  0.4843  1.7172 -0.0403
 7125SOL     OW33010   2.206   0.837   5.336 -0.3866 -0.0900 -0.1903
 7125SOL    HW133011   2.155   0.888   5.399  0.7315 -0.0308  0.6477
 7125SOL    HW233012   2.237   0.908   5.279  0.5318  0.6106  1.1826
 7126SOL     OW33013   4.650   1.900  15.936  0.5546  0.3637  0.1485
 7126SOL    HW133014   4.629   1.956  16.010 -2.2852 -0.1288 -0.2625
 7126SOL    HW233015   0.006   1.876  15.948 -0.1716 -2.5773 -0.1840
 7127SOL     OW33016   2.908   2.059   5.350  0.1860  0.4306  0.5425
 7127SOL    HW133017   2.926   2.139   5.301 -0.5839  0.4210  0.2325
 7127SOL    HW233018   2.992   2.015   5.341 -0.6007 -1.0340  0.2475
 7128SOL     OW33019   1.724   1.577   7.283 -0.0164  0.3852  0.7837
 7128SOL    HW133020   1.808   1.553   7.245 -0.0366 -2.4979  2.6051
 7128SOL    HW233021   1.740   1.548   7.372  1.0373 -2.3292 -0.2751
 7129SOL     OW33022   0.790   1.815   9.004  0.1840  0.4175 -0.0654
 7129SOL    HW133023   0.730   1.814   9.079 -1.6106 -2.4013 -1.5733
 7129SOL    HW233024   0.867   1.868   9.023 -0.3528  1.1080  0.1808
 7130SOL     OW33025   1.036   2.951  14.339 -0.0175 -0.8356 -0.2682
 7130SOL    HW133026   1.128   2.969  14.320 -0.3896 -0.0714 -1.3554
 7130SOL    HW233027   1.004   2.947  14.248 -0.7496 -0.3493 -0.0405
 7131SOL     OW33028   1.646   1.204   2.661  0.5536 -0.4911  0.2044
 7131SOL    HW133029   1.559   1.236   2.635  1.9029  2.2936 -0.8761
 7131SOL    HW233030   1.697   1.265   2.608  0.8087 -0.3123  0.6529
 7132SOL     OW33031   2.662   3.974   1.274  0.2460  0.3971  0.4050
 7132SOL    HW133032   2.734   3.957   1.213  0.5080 -1.4769  1.2248
 7132SOL    HW233033   2.694   3.922   1.348 -0.5953  1.9394  1.8297
 7133SOL     OW33034   0.408   3.343   5.768 -0.0765 -0.0962  0.1051
 7133SOL    HW133035   0.438   3.378   5.852 -0.1424 -0.6547  0.3595
 7133SOL    HW233036   0.495   3.313   5.743  0.4175 -0.2575  2.0173
 7134SOL     OW33037   0.043   2.523   7.519 -0.1377 -0.4601 -0.3168
 7134SOL    HW133038   0.066   2.483   7.435  0.2023 -1.6344  0.3359
 7134SOL    HW233039   0.002   2.448   7.562 -0.6274  0.6590  1.1692
 7135SOL     OW33040   0.103   2.355  11.449  0.1782  0.0398 -0.0064
 7135SOL    HW133041   0.039   2.425  11.436  1.8884  1.2915 -1.8008
 7135SOL    HW233042   0.189   2.388  11.423 -0.5523  1.3574 -0.7970
 7136SOL     OW33043   2.291   3.736   2.891 -0.4434 -0.3505  0.7991
 7136SOL    HW133044   2.309   3.737   2.985 -0.4296  2.7136  0.7559
 7136SOL    HW233045   2.340   3.807   2.850 -0.1733 -0.5739  0.7284
 7137SOL     OW33046   1.581   4.430  13.804  0.0171 -0.3944  0.3791
 7137SOL    HW133047   1.556   4.352  13.755  2.6861  0.0849 -1.7841
 7137SOL    HW233048   1.501   4.474  13.833 -0.2008  0.0668 -0.9291
 7138SOL     OW33049   2.019   2.375  16.351 -0.2517 -0.0118 -0.1705
 7138SOL    HW133050   1.992   2.421  16.431  0.7291 -1.3555  0.9321
 7138SOL    HW233051   1.977   2.289  16.349  0.3630 -0.3948  3.3607
 7139SOL     OW33052   1.060   1.336  15.582 -0.3910 -0.0230 -0.6826
 7139SOL    HW133053   1.025   1.351  15.495 -1.6263  2.2184  0.2183
 7139SOL    HW233054   1.055   1.240  15.591  3.6018 -0.1025  0.6786
 7140SOL     OW33055   1.541   2.218   7.306  0.1186 -0.1316 -0.0313
 7140SOL    HW133056   1.525   2.124   7.303  0.6590 -0.2185 -0.0615
 7140SOL    HW233057   1.456   2.257   7.330  0.0186  0.1424 -0.8332
 7141SOL     OW33058   2.080   4.090  10.300 -0.6154  0.8913  0.0173
 7141SOL    HW133059   2.025   4.168  10.311  1.6966  2.4774  0.2858
 7141SOL    HW233060   2.156   4.116  10.248 -0.6534  2.5795  0.8015
 7142SOL     OW33061   0.540   1.978   4.726 -0.5526 -0.9747 -0.2412
 7142SOL    HW133062   0.496   1.894   4.742 -0.5740 -1.3313 -2.0793
 7142SOL    HW233063   0.482   2.021   4.663  1.9896 -1.9849 -3.2755
 7143SOL     OW33064   1.616   2.504   5.065  0.1971  0.1116  0.3357
 7143SOL    HW133065   1.623   2.581   5.008  0.0629  0.0334  0.2108
 7143SOL    HW233066   1.633   2.538   5.152  2.6196 -0.4205  0.0656
 7144SOL     OW33067   0.683   1.074   2.167  0.4392  0.1660 -0.1134
 7144SOL    HW133068   0.705   1.129   2.242  0.7079  0.4546 -0.3977
 7144SOL    HW233069   0.753   1.011   2.183  0.0284  0.0938  1.3414
 7145SOL     OW33070   3.527   2.835  11.560 -0.4840 -0.1007  0.0158
 7145SOL    HW133071   3.566   2.760  11.515 -0.4844 -0.9890  1.5131
 7145SOL    HW233072   3.449   2.853  11.506 -0.4881 -0.4529 -0.0921
 7146SOL     OW33073   2.546   3.683   8.769 -0.4571 -0.0754  0.3675
 7146SOL    HW133074   2.550   3.673   8.865  1.8469  1.5608  0.4338
 7146SOL    HW233075   2.507   3.597   8.753  1.6329 -0.5823 -2.0661
 7147SOL     OW33076   3.239   2.504  13.038  0.1908 -0.5326 -0.4043
 7147SOL    HW133077   3.250   2.560  13.115  0.7998 -0.0163 -0.8583
 7147SOL    HW233078   3.144   2.511  13.026  0.3482  2.8177  0.2381
 7148SOL     OW33079   2.560   3.698   2.403 -0.1527  0.2000 -0.5004
 7148SOL    HW133080   2.546   3.681   2.497  0.1193  2.3782 -0.0522
 7148SOL    HW233081   2.628   3.643   2.365  1.5918  1.5326  0.6589
 7149SOL     OW33082   0.346   2.885   1.341  0.2659  0.7346  0.7396
 7149SOL    HW133083   0.349   2.932   1.258  0.2580  1.8100  1.3369
 7149SOL    HW233084   0.338   2.958   1.404 -1.0186  3.5944 -2.7248
 7150SOL     OW33085   2.878   3.552   7.992 -0.5414  0.3809 -0.0394
 7150SOL    HW133086   2.883   3.600   8.075 -3.9046  0.4780  0.1126
 7150SOL    HW233087   2.800   3.501   8.012  1.5625 -2.5576  0.6929
 7151SOL     OW33088   0.226   2.630   2.584 -0.1705 -0.7540  0.4104
 7151SOL    HW133089   0.293   2.588   2.530 -1.8013 -1.9346 -0.6697
 7151SOL    HW233090   0.277   2.617   2.664  0.4164  0.5341  0.2420
 7152SOL     OW33091   4.729   0.096  11.287 -0.2590 -0.4192  0.5090
 7152SOL    HW133092   0.088   0.102  11.274 -0.0754 -0.0332  2.1496
 7152SOL    HW233093   4.705   0.086  11.194 -0.6250  0.2455  0.5366
 7153SOL     OW33094   2.917   4.338  16.677 -0.2099  0.2109  0.4187
 7153SOL    HW133095   2.972   4.415  16.691  1.0987 -0.8756  1.3114
 7153SOL    HW233096   2.901   4.351  16.584 -0.4359 -3.5252 -0.0790
 7154SOL     OW33097   4.554   1.868   4.665 -0.0555 -0.1924 -0.0284
 7154SOL    HW133098   4.619   1.842   4.731  0.2775  1.0506  0.1538
 7154SOL    HW233099   4.606   1.905   4.594 -1.1970  1.7008  0.1095
 7155SOL     OW33100   1.722   2.671   5.590 -0.3458  0.0111  0.0706
 7155SOL    HW133101   1.778   2.655   5.514 -0.0318  0.9106  0.1086
 7155SOL    HW233102   1.779   2.656   5.665 -1.9280  1.0877  1.4980
 7156SOL     OW33103   1.299   2.985  10.019 -0.5400  0.0066 -0.2677
 7156SOL    HW133104   1.214   3.030  10.027 -0.5557 -0.1393  0.3538
 7156SOL    HW233105   1.360   3.058  10.025 -1.9952  1.1352  0.9344
 7157SOL     OW33106   3.881   3.396   8.990 -0.3472 -0.1154  0.0752
 7157SOL    HW133107   3.950   3.334   8.966  1.8666  0.7453  4.2112
 7157SOL    HW233108   3.907   3.476   8.944  0.7982 -1.2510 -1.2728
 7158SOL     OW33109   0.620   1.762   9.232  0.5129  0.4217 -1.0316
 7158SOL    HW133110   0.528   1.782   9.250  0.5756  0.5588 -0.8630
 7158SOL    HW233111   0.671   1.796   9.305  0.4797  0.2388 -0.9233
 7159SOL     OW33112   4.208   3.764   9.322  0.0465 -0.2102 -0.2598
 7159SOL    HW133113   4.251   3.842   9.357 -1.2113  0.0172  0.8053
 7159SOL    HW233114   4.205   3.710   9.401  0.5554  1.7073  1.0638
 7160SOL     OW33115   4.067   4.540   3.278 -0.4571  0.2447 -0.0980
 7160SOL    HW133116   4.162   4.530   3.278 -0.3544  1.2451 -0.3978
 7160SOL    HW233117   4.039   4.478   3.211  2.8680  0.5793 -1.8147
 7161SOL     OW33118   0.833   0.646   3.502 -0.0072  0.1479  0.5067
 7161SOL    HW133119   0.835   0.601   3.587  1.0397 -2.1759 -0.7320
 7161SOL    HW233120   0.801   0.575   3.447 -0.1939  0.5295  0.1232
 7162SOL     OW33121   3.795   3.918   7.520  0.6182 -0.2176  0.0598
 7162SOL    HW133122   3.724   3.982   7.520  0.8173  0.0016  1.0551
 7162SOL    HW233123   3.753   3.836   7.495  0.8133 -0.3019  0.0104
 7163SOL     OW33124   3.691   4.574   4.192 -0.4507  0.0503  0.2509
 7163SOL    HW133125   3.687   4.543   4.102  0.5073  0.0260  0.2215
 7163SOL    HW233126   3.759   4.519   4.228 -0.6152  0.4568  1.1783
 7164SOL     OW33127   4.316   0.420   4.448  0.0105 -0.1809  0.0725
 7164SOL    HW133128   4.323   0.514   4.434 -1.8387 -0.1079 -0.3786
 7164SOL    HW233129   4.372   0.408   4.525 -1.3877 -2.9835  0.6589
 7165SOL     OW33130   1.756   1.226   2.193  0.4262  0.5179 -0.4452
 7165SOL    HW133131   1.730   1.195   2.106 -1.6106 -0.9081  0.6596
 7165SOL    HW233132   1.789   1.145   2.233 -3.2023 -0.9755 -0.4893
 7166SOL     OW33133   2.145   0.931  12.397 -0.6156  0.5489  0.1556
 7166SOL    HW133134   2.152   0.924  12.302  1.1841 -0.3506  0.3628
 7166SOL    HW233135   2.178   0.845  12.422 -0.5152  0.1968 -1.2190
 7167SOL     OW33136   1.073   4.709   4.381 -0.3032  0.2623  0.0615
 7167SOL    HW133137   1.093   4.617   4.395 -1.7864  0.3767  2.9098
 7167SOL    HW233138   1.071   0.010   4.470  1.7230 -0.6759  0.4892
 7168SOL     OW33139   2.484   2.799   2.515  0.8428  0.1887  0.2909
 7168SOL    HW133140   2.510   2.783   2.425 -1.4525  3.5317 -0.9715
 7168SOL    HW233141   2.427   2.874   2.501 -0.8914 -1.3058 -0.5148
 7169SOL     OW33142   2.602   3.457   7.696  0.3019 -0.2565 -0.0594
 7169SOL    HW133143   2.559   3.415   7.771  0.8251  1.2176  1.0690
 7169SOL    HW233144   2.663   3.386   7.677  1.1985  0.2050  1.1360
 7170SOL     OW33145   3.347   1.361  12.671 -0.4770  0.0416 -0.4233
 7170SOL    HW133146   3.407   1.293  12.639  1.9173  2.2206 -0.5255
 7170SOL    HW233147   3.380   1.370  12.760 -1.4478 -2.8505  0.2274
 7171SOL     OW33148   1.411   4.257   7.598 -0.0224  0.4346 -0.5062
 7171SOL    HW133149   1.369   4.177   7.566 -1.5127  1.4139 -1.0103
 7171SOL    HW233150   1.500   4.224   7.614 -1.6721 -2.5195  2.6018
 7172SOL     OW33151   0.499   1.587   4.430  0.3635  0.4294  0.0384
 7172SOL    HW133152   0.562   1.601   4.360  2.1267 -3.6447  0.8116
 7172SOL    HW233153   0.448   1.514   4.394 -0.1015 -0.9404  3.5205
 7173SOL     OW33154   3.257   3.384   1.447  0.2173  0.3685  0.4160
 7173SOL    HW133155   3.248   3.478   1.432  0.5131  0.0822 -1.6132
 7173SOL    HW233156   3.166   3.356   1.434 -0.7551  3.5635  0.3786
 7174SOL     OW33157   1.701   4.542  12.758 -0.5884 -0.0837 -0.2887
 7174SOL    HW133158   1.776   4.596  12.731 -0.6567  0.1967  0.0887
 7174SOL    HW233159   1.747   4.458  12.748 -0.4208 -0.1641  1.0947
 7175SOL     OW33160   3.772   3.145   2.781  0.5414  0.3131  0.3093
 7175SOL    HW133161   3.862   3.112   2.784  0.2986 -0.2080  1.7551
 7175SOL    HW233162   3.763   3.129   2.687  0.2197  2.3197 -0.0054
 7176SOL     OW33163   0.378   0.455   4.498 -0.7644 -0.1482  0.2677
 7176SOL    HW133164   0.307   0.517   4.484 -0.2329  0.5860  0.8028
 7176SOL    HW233165   0.449   0.498   4.449  1.0141 -1.4365  1.6947
 7177SOL     OW33166   2.670   1.870  11.457  0.4986 -0.4785 -0.3924
 7177SOL    HW133167   2.670   1.826  11.372  1.0030  0.3730 -0.8321
 7177SOL    HW233168   2.598   1.828  11.504  0.4937 -2.6621 -2.3209
 7178SOL     OW33169   0.863   1.722  15.462 -0.1521  0.2320 -0.1330
 7178SOL    HW133170   0.896   1.641  15.501  2.7960 -0.1546 -3.5023
 7178SOL    HW233171   0.772   1.704  15.439 -0.0637 -1.1417  0.5909
 7179SOL     OW33172   2.853   1.967   8.730 -0.3731 -0.3538 -0.2041
 7179SOL    HW133173   2.876   1.902   8.664 -0.7669 -3.2985  2.5712
 7179SOL    HW233174   2.917   1.949   8.799 -1.1241  0.7750  0.7968
 7180SOL     OW33175   4.590   1.121   4.081  0.4625 -0.0010 -0.3748
 7180SOL    HW133176   4.589   1.216   4.090 -0.4654 -0.2049  1.8095
 7180SOL    HW233177   4.611   1.101   4.172  2.9349  2.5852 -0.3861
 7181SOL     OW33178   2.335   3.313  10.600 -0.0842  0.6618  0.2584
 7181SOL    HW133179   2.370   3.259  10.670 -2.0432  0.2736  0.9456
 7181SOL    HW233180   2.246   3.309  10.634 -0.2000 -0.4047 -0.1539
 7182SOL     OW33181   1.867   3.671   5.718 -0.2167 -0.1334  0.5803
 7182SOL    HW133182   1.898   3.731   5.650 -0.4805 -1.1375 -0.4345
 7182SOL    HW233183   1.925   3.596   5.705 -0.3307 -0.5820  2.7159
 7183SOL     OW33184   0.032   1.239   1.991 -0.2124 -0.1493 -0.0120
 7183SOL    HW133185   0.090   1.195   2.052  1.5269  1.6669 -0.3682
 7183SOL    HW233186   0.091   1.265   1.920 -0.4354 -1.5126 -0.7019
 7184SOL     OW33187   3.822   1.944   6.149 -0.6468 -0.1967 -0.3704
 7184SOL    HW133188   3.916   1.962   6.149 -0.6619 -0.1252  0.9820
 7184SOL    HW233189   3.788   2.027   6.182 -0.5622  0.4394 -1.8713
 7185SOL     OW33190   2.355   1.492  14.251 -0.1186  0.2781 -0.7959
 7185SOL    HW133191   2.393   1.480  14.164 -1.3397 -0.6220 -1.1985
 7185SOL    HW233192   2.278   1.549  14.246 -1.6719 -1.5949  2.0182
 7186SOL     OW33193   0.224   2.526   0.809  0.0606 -0.0881  0.3509
 7186SOL    HW133194   0.289   2.556   0.746  1.4557 -2.6582  0.5398
 7186SOL    HW233195   0.218   2.436   0.775  0.5787 -1.0450  2.8243
 7187SOL     OW33196   1.669   0.952   2.339  0.4457  0.4756  0.1140
 7187SOL    HW133197   1.760   0.969   2.314  0.7073  0.5992  1.1393
 7187SOL    HW233198   1.663   0.992   2.426 -1.5369  0.5580 -0.0502
 7188SOL     OW33199   2.478   2.195   3.846 -0.2901 -0.3236  0.3032
 7188SOL    HW133200   2.571   2.172   3.848 -0.4516 -0.9818  0.4464
 7188SOL    HW233201   2.436   2.147   3.774  2.5514  0.1535 -1.6979
 7189SOL     OW33202   3.922   0.460   3.805  0.0048  0.2369 -0.2717
 7189SOL    HW133203   3.980   0.384   3.798  2.0540  1.5940  2.2378
 7189SOL    HW233204   3.853   0.416   3.855  0.9545 -0.4278  0.4674
 7190SOL     OW33205   3.077   3.674  11.335 -0.1898 -0.2984 -0.6455
 7190SOL    HW133206   3.084   3.687  11.429 -1.3086  2.7284 -0.9913
 7190SOL    HW233207   2.983   3.667  11.317 -0.5375  0.6926  0.8040
 7191SOL     OW33208   3.779   1.025   5.844 -0.1884  0.0891 -0.0420
 7191SOL    HW133209   3.872   1.023   5.870 -0.4678  0.2648  0.9663
 7191SOL    HW233210   3.747   0.947   5.889 -2.4938  1.1064  0.0473
 7192SOL     OW33211   1.110   0.090  17.630 -0.1731  0.1599  0.2600
 7192SOL    HW133212   1.016   0.080  17.615 -0.6553 -0.2726  3.5252
 7192SOL    HW233213   1.129   0.138  17.550 -1.3068  1.6446  0.8952
 7193SOL     OW33214   1.113   4.206   8.001 -0.3072 -0.0510 -0.0324
 7193SOL    HW133215   1.044   4.258   8.043 -0.0203  1.9643 -2.0421
 7193SOL    HW233216   1.151   4.149   8.068  0.8463 -0.3561 -0.9568
 7194SOL     OW33217   3.154   3.994  14.920 -0.3855 -0.7563  0.4891
 7194SOL    HW133218   3.151   4.056  14.846 -1.5327  1.0965  2.0796
 7194SOL    HW233219   3.195   3.922  14.871 -0.0433 -0.5084  0.4167
 7195SOL     OW33220   2.832   2.485   5.620  0.1849 -0.6495 -0.6247
 7195SOL    HW133221   2.883   2.566   5.613  0.3998 -0.6768  0.6387
 7195SOL    HW233222   2.904   2.427   5.644  0.5573  0.6654  1.4855
 7196SOL     OW33223   3.329   0.116   4.455  0.2118 -0.3615  0.1641
 7196SOL    HW133224   3.370   0.082   4.376 -0.5558 -1.2063  0.1234
 7196SOL    HW233225   3.254   0.057   4.463  1.8522 -2.4012  0.4508
 7197SOL     OW33226   0.400   0.528   5.188 -0.0075  0.9171  0.4858
 7197SOL    HW133227   0.325   0.474   5.210  1.2437 -1.9412 -2.3423
 7197SOL    HW233228   0.394   0.530   5.092  0.8893  1.5472  0.4366
 7198SOL     OW33229   2.426   1.652   5.853 -0.3121  0.0765  0.3669
 7198SOL    HW133230   2.394   1.631   5.941  0.0327  2.9759  1.1694
 7198SOL    HW233231   2.354   1.626   5.794  0.6331  1.5751 -1.4183
 7199SOL     OW33232   0.138   1.915   1.914 -0.9709  0.3680  0.0255
 7199SOL    HW133233   0.173   1.873   1.992 -1.2204 -0.3176 -0.2309
 7199SOL    HW233234   0.176   2.003   1.910 -0.5646  0.2000  0.2297
 7200SOL     OW33235   1.706   4.597  15.663  0.7494  0.1870 -0.6474
 7200SOL    HW133236   1.799   4.576  15.655  0.5250 -0.7151 -0.8366
 7200SOL    HW233237   1.654   4.519  15.647 -1.8726  2.4407 -2.9518
 7201SOL     OW33238   0.754   4.040   8.916  0.6876  0.1885 -0.2638
 7201SOL    HW133239   0.799   4.049   9.001  1.8392 -1.6249 -0.6768
 7201SOL    HW233240   0.768   4.130   8.886  1.5466  0.9005  2.2485
 7202SOL     OW33241   2.790   1.176   4.980 -0.2666 -0.1912  0.1966
 7202SOL    HW133242   2.885   1.183   4.994 -0.5170 -0.1977  1.8256
 7202SOL    HW233243   2.772   1.266   4.952 -1.9707 -0.6885 -0.3217
 7203SOL     OW33244   3.661   1.185   8.035  0.0271  0.4464 -0.5756
 7203SOL    HW133245   3.659   1.168   7.941 -1.0263  0.1777 -0.4971
 7203SOL    HW233246   3.654   1.095   8.066 -1.2315 -0.3928 -3.3091
 7204SOL     OW33247   0.484   3.022   5.560 -0.0800  0.2827  0.3425
 7204SOL    HW133248   0.512   2.930   5.559  1.5589  0.8077 -2.2807
 7204SOL    HW233249   0.470   3.025   5.655 -0.8968 -0.9971  0.2729
 7205SOL     OW33250   0.366   0.475   7.906  0.5730  0.3219  0.2340
 7205SOL    HW133251   0.377   0.379   7.903  3.2719  0.6953 -1.6044
 7205SOL    HW233252   0.281   0.494   7.946 -1.2427 -1.2067 -2.8493
 7206SOL     OW33253   0.441   1.042   4.104 -0.0991  0.2369  0.3143
 7206SOL    HW133254   0.347   1.049   4.085  0.3190  1.5514 -1.2743
 7206SOL    HW233255   0.452   1.083   4.190 -1.1061  0.9502  0.1120
 7207SOL     OW33256   3.115   2.171   4.660 -0.0238  0.1226 -0.3772
 7207SOL    HW133257   3.020   2.162   4.654 -0.1765 -0.5167  3.0518
 7207SOL    HW233258   3.148   2.081   4.668  1.4730  0.6874 -0.2303
 7208SOL     OW33259   2.411   2.094   3.394  0.3024 -0.6907  0.1275
 7208SOL    HW133260   2.380   2.184   3.409  0.4377 -0.7628  0.8310
 7208SOL    HW233261   2.353   2.039   3.447  0.9421 -1.8380 -0.3828
 7209SOL     OW33262   2.431   1.587  14.523 -0.6543  0.3214 -0.3029
 7209SOL    HW133263   2.418   1.526  14.450  0.1007 -0.9464  0.6210
 7209SOL    HW233264   2.342   1.621  14.517 -0.6376  0.1263 -1.6955
 7210SOL     OW33265   4.387   3.431   3.016  0.3411  0.0837  0.0983
 7210SOL    HW133266   4.316   3.413   3.077 -1.4610  0.2644 -1.9491
 7210SOL    HW233267   4.337   3.466   2.942  0.9354 -2.7471 -1.6313
 7211SOL     OW33268   1.256   3.513   8.088  0.0129 -0.0641  0.6518
 7211SOL    HW133269   1.341   3.471   8.102  0.4288  1.0818  1.5336
 7211SOL    HW233270   1.289   3.602   8.084  0.0972 -0.1286  0.0129
 7212SOL     OW33271   2.515   1.966   6.900 -0.0851  1.2319  0.1734
 7212SOL    HW133272   2.488   2.057   6.894 -1.2533  0.8267 -0.6388
 7212SOL    HW233273   2.595   1.983   6.949  2.0781 -2.0293 -2.1936
 7213SOL     OW33274   1.293   2.823  11.497  0.4102 -0.4630  0.4924
 7213SOL    HW133275   1.291   2.846  11.404  0.1910  1.4331  0.9746
 7213SOL    HW233276   1.378   2.846  11.534  1.0658 -1.0297 -0.6446
 7214SOL     OW33277   0.340   0.669  15.835 -0.2639 -0.3918 -0.4626
 7214SOL    HW133278   0.316   0.621  15.755 -0.9313  1.5379 -1.4206
 7214SOL    HW233279   0.430   0.640  15.851 -0.4133  0.3316  1.6716
 7215SOL     OW33280   2.191   0.518  17.651 -0.1497  0.1785  0.2849
 7215SOL    HW133281   2.141   0.597  17.669  1.3046  1.0676  0.4150
 7215SOL    HW233282   2.274   0.553  17.618  1.0715 -2.9712 -0.0001
 7216SOL     OW33283   1.012   1.639   5.011 -0.8366 -0.0995 -0.0930
 7216SOL    HW133284   0.961   1.720   5.000 -0.1745  0.5471  1.5826
 7216SOL    HW233285   0.995   1.603   4.924 -1.8087  0.9927 -0.3533
 7217SOL     OW33286   3.441   3.241  11.889  0.5828  0.5077 -0.2182
 7217SOL    HW133287   3.364   3.257  11.944  0.9651  0.5599  0.3008
 7217SOL    HW233288   3.458   3.332  11.865 -0.3886  0.6542 -0.3623
 7218SOL     OW33289   2.576   3.644   0.353  0.5928  0.2340  0.0165
 7218SOL    HW133290   2.616   3.629   0.267 -0.4890  0.4798 -0.5224
 7218SOL    HW233291   2.637   3.638   0.427  0.2739  0.7443  0.3191
 7219SOL     OW33292   4.417   2.832   5.789 -0.2916 -0.0124  0.6560
 7219SOL    HW133293   4.509   2.811   5.771  0.0890  0.3031  2.2005
 7219SOL    HW233294   4.381   2.745   5.770  0.8008 -0.0290 -1.3771
 7220SOL     OW33295   2.783   2.197  16.963 -1.0815 -0.3859  0.2133
 7220SOL    HW133296   2.814   2.188  16.873 -1.0775  1.3809  0.0321
 7220SOL    HW233297   2.779   2.110  17.002  2.1524 -0.3149  0.6801
 7221SOL     OW33298   4.081   4.531   7.174  0.8198  0.2441 -0.1032
 7221SOL    HW133299   4.174   4.508   7.179  0.8521  0.0551 -1.4151
 7221SOL    HW233300   4.058   4.564   7.261 -0.9605 -0.4048 -0.3319
 7222SOL     OW33301   0.344   2.778   3.653  0.4769  0.4153 -0.0410
 7222SOL    HW133302   0.355   2.870   3.677  0.3638  0.5889 -0.6500
 7222SOL    HW233303   0.269   2.792   3.596 -0.2196  2.0314  1.2916
 7223SOL     OW33304   3.971   3.447   6.957 -0.0593  0.2699  0.5962
 7223SOL    HW133305   4.006   3.513   6.897  0.3905 -0.6148 -0.1317
 7223SOL    HW233306   3.921   3.499   7.020  0.7446 -1.6314  2.7987
 7224SOL     OW33307   1.477   1.349  17.303  0.1420  0.0470  0.6551
 7224SOL    HW133308   1.548   1.380  17.246  1.5559 -0.6976  2.0068
 7224SOL    HW233309   1.424   1.428  17.311 -0.4339 -0.3566  0.8169
 7225SOL     OW33310   3.948   4.349  15.115 -0.2729 -0.3319  0.1206
 7225SOL    HW133311   3.909   4.389  15.037 -0.8220  0.1848  0.6624
 7225SOL    HW233312   3.920   4.421  15.172  0.3733  0.3307 -0.3907
 7226SOL     OW33313   1.063   2.200   1.797  0.0696 -0.2946  0.1409
 7226SOL    HW133314   0.991   2.161   1.748  0.5264  0.3777 -1.0587
 7226SOL    HW233315   1.137   2.186   1.739  0.7929 -0.2549  1.0410
 7227SOL     OW33316   4.012   1.721   4.136  0.1170 -1.0052  0.0411
 7227SOL    HW133317   3.919   1.724   4.156  0.0044 -0.0955 -0.6181
 7227SOL    HW233318   4.017   1.675   4.053  2.8864 -1.5689  0.5103
 7228SOL     OW33319   2.680   0.142  14.729  0.2003  0.2038  0.5766
 7228SOL    HW133320   2.697   0.232  14.756  0.9374  0.9396 -2.3390
 7228SOL    HW233321   2.641   0.153  14.642 -1.1256  2.1770  1.4123
 7229SOL     OW33322   4.196   1.748  17.368  0.9909 -0.0771 -0.0379
 7229SOL    HW133323   4.131   1.810  17.334  0.2717  0.0951  1.6351
 7229SOL    HW233324   4.238   1.822  17.413 -0.6670  1.7618 -1.5071
 7230SOL     OW33325   4.067   2.311   7.918 -0.0341 -0.6228 -0.3174
 7230SOL    HW133326   4.123   2.317   7.840 -1.0662  1.8601 -0.8637
 7230SOL    HW233327   4.075   2.393   7.966 -1.7155 -2.1412  2.5239
 7231SOL     OW33328   0.827   1.735   2.295  0.3203 -0.1136 -0.5228
 7231SOL    HW133329   0.803   1.798   2.227  1.9151  0.0514 -0.9367
 7231SOL    HW233330   0.885   1.678   2.244  2.4514  0.0174  1.7737
 7232SOL     OW33331   4.393   2.697  10.140 -0.1358 -0.3445  0.3016
 7232SOL    HW133332   4.371   2.668  10.228 -0.4428  0.2002  0.4028
 7232SOL    HW233333   4.340   2.776  10.128 -1.9474 -1.3724  1.6976
 7233SOL     OW33334   2.798   2.467   4.522 -0.1947 -0.8981  0.7509
 7233SOL    HW133335   2.735   2.480   4.452 -0.6700 -1.9284  0.9857
 7233SOL    HW233336   2.785   2.548   4.571  0.1526  0.8211 -2.0334
 7234SOL     OW33337   3.240   0.017  16.730 -0.1462 -0.4167 -0.3979
 7234SOL    HW133338   3.220   4.713  16.814  1.8467 -0.9594 -0.1639
 7234SOL    HW233339   3.245   0.108  16.759  0.9088 -1.1086  1.6270
 7235SOL     OW33340   3.345   1.638  13.192  0.4712  0.2364 -0.8575
 7235SOL    HW133341   3.350   1.723  13.236  1.5909 -0.7478  0.9252
 7235SOL    HW233342   3.320   1.585  13.268  1.1104  0.0181 -0.8028
 7236SOL     OW33343   0.088   4.384  12.483 -0.0128 -0.1150 -0.5794
 7236SOL    HW133344   0.117   4.416  12.397  2.3574 -0.3358  0.1406
 7236SOL    HW233345   0.154   4.319  12.507 -1.0648 -1.2269 -0.7112
 7237SOL     OW33346   0.956   3.743   4.084 -0.1941  0.2265 -0.8860
 7237SOL    HW133347   0.915   3.829   4.094 -1.8986 -0.9342  1.9920
 7237SOL    HW233348   1.035   3.753   4.137 -0.9260 -0.2604  0.2755
 7238SOL     OW33349   2.802   1.956   5.596 -0.4495  0.2255 -0.3612
 7238SOL    HW133350   2.821   2.009   5.519  0.6697  0.3676  0.0134
 7238SOL    HW233351   2.723   2.000   5.628  0.2301  1.7163 -0.7131
 7239SOL     OW33352   1.865   2.607   3.698 -0.0478 -0.4023 -0.1589
 7239SOL    HW133353   1.869   2.595   3.793  1.5234 -1.8537 -0.3995
 7239SOL    HW233354   1.925   2.545   3.658  1.0639  0.3785  0.2916
 7240SOL     OW33355   4.606   1.952   3.562  0.2972  0.0076 -0.4710
 7240SOL    HW133356   4.680   1.934   3.505  1.0214  1.8232 -0.1063
 7240SOL    HW233357   4.545   1.890   3.521  0.2095 -0.2988  0.1148
 7241SOL     OW33358   0.982   3.324   5.785  0.2951 -0.4751  0.4351
 7241SOL    HW133359   0.936   3.255   5.739  0.8016 -0.6236  0.1534
 7241SOL    HW233360   1.012   3.286   5.868  1.5460 -1.0673 -0.2922
 7242SOL     OW33361   3.152   2.296  11.898  0.4794  0.4132 -0.2037
 7242SOL    HW133362   3.174   2.203  11.903 -3.9963 -0.5520  1.1180
 7242SOL    HW233363   3.174   2.308  11.805 -4.6392 -2.0648 -1.7147
 7243SOL     OW33364   0.115   4.321   5.690 -0.2034  0.7048  0.7646
 7243SOL    HW133365   0.163   4.363   5.618 -0.2194  0.6276  0.7091
 7243SOL    HW233366   0.126   4.230   5.665  1.6383  1.3064 -0.6984
 7244SOL     OW33367   1.708   0.409  13.066  0.0804  0.2122  1.3282
 7244SOL    HW133368   1.716   0.337  13.128  4.8927 -0.8626 -0.5639
 7244SOL    HW233369   1.618   0.392  13.038  0.2905 -0.1065  0.8513
 7245SOL     OW33370   3.825   3.984  12.079  0.0248  0.0876  0.3851
 7245SOL    HW133371   3.902   3.946  12.037 -0.5596  0.2708 -0.8346
 7245SOL    HW233372   3.865   4.047  12.139 -0.6721  0.7224  0.1662
 7246SOL     OW33373   0.565   4.733   3.989  0.1850  0.4057  0.3332
 7246SOL    HW133374   0.591   4.658   4.043  1.5008  1.0658  0.6151
 7246SOL    HW233375   0.471   4.716   3.993  0.0148  1.3747  0.4806
 7247SOL     OW33376   0.460   3.028  10.780 -0.0842  0.4509 -0.0293
 7247SOL    HW133377   0.509   3.108  10.800 -1.7938  1.4353  0.2235
 7247SOL    HW233378   0.391   3.054  10.719  0.3087  0.6500 -0.3844
 7248SOL     OW33379   0.943   1.228   7.139  0.0971 -0.1058  0.4923
 7248SOL    HW133380   1.005   1.200   7.206  0.3708  0.8598  0.6544
 7248SOL    HW233381   0.924   1.314   7.176 -1.2766 -0.9338  1.6940
 7249SOL     OW33382   1.779   1.797  13.713  0.1542  0.1060 -0.0133
 7249SOL    HW133383   1.738   1.750  13.640 -2.1134  0.3717  1.0696
 7249SOL    HW233384   1.700   1.842  13.743  1.2904 -0.0758  3.2258
 7250SOL     OW33385   0.085   3.369  13.930 -0.4195 -0.5538 -0.3713
 7250SOL    HW133386   4.729   3.343  13.932 -0.6443  0.1655 -1.5984
 7250SOL    HW233387   0.083   3.443  13.990  0.7830 -0.4391 -0.4608
 7251SOL     OW33388   3.114   0.134   7.584  0.7810  0.7655 -0.1540
 7251SOL    HW133389   3.167   0.183   7.647  0.1119  0.1072  0.9345
 7251SOL    HW233390   3.050   0.194   7.545  0.8178  2.3427  2.1774
 7252SOL     OW33391   0.568   1.674  13.026 -0.0927  0.1701  0.3801
 7252SOL    HW133392   0.549   1.688  12.933  1.3091 -1.9344 -0.2041
 7252SOL    HW233393   0.659   1.705  13.026 -0.0621  0.0761  1.3899
 7253SOL     OW33394   1.854   1.131   0.954  0.3074 -0.1592  0.5288
 7253SOL    HW133395   1.762   1.153   0.968 -0.0505 -0.7888 -0.7830
 7253SOL    HW233396   1.886   1.137   1.044 -1.0150 -0.3157  1.0114
 7254SOL     OW33397   0.199   3.353   9.011  0.1220 -0.0122  0.3110
 7254SOL    HW133398   0.171   3.367   9.101  1.2343 -2.3243  1.0022
 7254SOL    HW233399   0.119   3.316   8.972  0.8266  0.3385 -1.4787
 7255SOL     OW33400   4.340   1.496   6.738  0.4017 -0.2613 -0.0721
 7255SOL    HW133401   4.338   1.536   6.826  0.4286  0.1791 -0.2715
 7255SOL    HW233402   4.411   1.549   6.701  0.6649  0.2400  1.1463
 7256SOL     OW33403   3.956   3.906   6.247 -0.2485  0.4049  0.7022
 7256SOL    HW133404   3.899   3.888   6.322 -3.0078  1.1008 -1.2277
 7256SOL    HW233405   3.942   3.998   6.224  1.4544  0.0622 -1.7341
 7257SOL     OW33406   3.995   1.250   3.290  0.2293 -0.1925 -0.1949
 7257SOL    HW133407   3.911   1.241   3.335 -0.6111  2.1312 -1.3508
 7257SOL    HW233408   3.964   1.274   3.203  2.2463 -0.1475 -0.9024
 7258SOL     OW33409   3.424   0.506  10.948  0.2314  0.0849  0.0509
 7258SOL    HW133410   3.452   0.509  11.040  1.2995  1.4896 -0.3127
 7258SOL    HW233411   3.353   0.442  10.953 -1.6387  2.2023  0.3952
 7259SOL     OW33412   3.697   0.015   9.968  0.1503 -0.5726  0.4811
 7259SOL    HW133413   3.682   4.718  10.056  2.3082 -1.1429  0.6300
 7259SOL    HW233414   3.610   0.035   9.934  1.3619  2.3205 -0.9763
 7260SOL     OW33415   1.400   3.663  13.276  0.0107  0.2905  0.1355
 7260SOL    HW133416   1.477   3.625  13.234 -0.5505  0.1251 -0.7255
 7260SOL    HW233417   1.331   3.597  13.277 -0.6975  1.0281  0.3885
 7261SOL     OW33418   1.769   4.490   0.704  0.4184 -0.2850  0.1348
 7261SOL    HW133419   1.776   4.517   0.613  0.7264 -0.0004  0.2453
 7261SOL    HW233420   1.755   4.578   0.739 -1.3511  0.1049 -1.5104
 7262SOL     OW33421   4.711   0.563   6.554  0.3375 -0.1159  0.4661
 7262SOL    HW133422   4.640   0.599   6.501  0.1167  0.0323  0.8582
 7262SOL    HW233423   4.675   0.498   6.615  0.5763 -2.5007 -1.9404
 7263SOL     OW33424   4.466   3.045   1.930  0.0934  0.5591  0.3418
 7263SOL    HW133425   4.548   3.025   1.884 -0.7547 -0.2979 -0.7830
 7263SOL    HW233426   4.451   2.961   1.973  0.5848  0.0839 -0.4064
 7264SOL     OW33427   3.758   2.302  17.400  0.4631 -0.6290  0.1894
 7264SOL    HW133428   3.827   2.258  17.350  1.6874  2.2411 -0.6702
 7264SOL    HW233429   3.690   2.298  17.333 -0.8694  0.5100  1.4525
 7265SOL     OW33430   3.808   1.175   9.397  0.2325 -0.4042  0.5321
 7265SOL    HW133431   3.725   1.178   9.443  1.1479  1.9715  2.0356
 7265SOL    HW233432   3.830   1.260   9.359  0.4605  1.0446  3.9208
 7266SOL     OW33433   3.707   3.777   2.239  0.5174 -0.0274 -0.2832
 7266SOL    HW133434   3.737   3.732   2.160 -0.5235 -1.8037  0.3485
 7266SOL    HW233435   3.612   3.765   2.232  0.4116  0.7798 -0.2335
 7267SOL     OW33436   2.461   0.417   5.499 -0.4023 -0.5548 -0.6293
 7267SOL    HW133437   2.477   0.508   5.526 -1.4380 -0.4748 -0.2687
 7267SOL    HW233438   2.536   0.398   5.442 -0.8441 -2.5173 -0.5367
 7268SOL     OW33439   2.177   1.110  15.292  0.3301 -0.4648  0.2622
 7268SOL    HW133440   2.173   1.067  15.377 -1.2798 -1.6535 -0.4233
 7268SOL    HW233441   2.240   1.181  15.305  1.7959 -1.6888 -0.2522
 7269SOL     OW33442   4.019   1.026   9.267 -0.4069 -0.2066 -0.3286
 7269SOL    HW133443   3.953   1.095   9.266  0.1322  0.3126 -0.3634
 7269SOL    HW233444   4.098   1.080   9.259  0.4461 -1.2078  1.1699
 7270SOL     OW33445   1.135   0.329   7.839 -0.5823 -1.0112 -0.1672
 7270SOL    HW133446   1.134   0.237   7.814  1.2056 -1.0101 -0.2759
 7270SOL    HW233447   1.113   0.327   7.932 -0.1606 -0.6212 -0.0544
 7271SOL     OW33448   1.083   2.373   8.115 -0.2248  0.1322 -0.0031
 7271SOL    HW133449   1.106   2.362   8.207  0.3118 -0.3657 -0.1913
 7271SOL    HW233450   1.043   2.287   8.101 -0.6601  0.9130 -3.5657
 7272SOL     OW33451   4.310   4.490   6.248 -0.3141  0.2063 -0.2500
 7272SOL    HW133452   4.242   4.555   6.231  0.3249  0.7724 -0.5901
 7272SOL    HW233453   4.280   4.419   6.191  1.5391  0.1719 -1.1770
 7273SOL     OW33454   4.102   3.488  11.787  0.0824 -0.1268 -0.0405
 7273SOL    HW133455   4.046   3.414  11.809 -2.0385  1.2397 -0.9234
 7273SOL    HW233456   4.151   3.445  11.716 -0.6624 -0.3998 -0.3836
 7274SOL     OW33457   4.135   0.521   7.735  0.0124 -0.4117 -0.3527
 7274SOL    HW133458   4.208   0.469   7.703  0.0874 -2.2317  2.7943
 7274SOL    HW233459   4.136   0.496   7.828 -0.6047  2.3432  0.3946
 7275SOL     OW33460   0.712   3.956   7.112 -0.3781  0.8259  0.0518
 7275SOL    HW133461   0.664   3.984   7.034 -0.3465  0.3400 -0.1356
 7275SOL    HW233462   0.776   4.027   7.119 -2.6423  2.5673  3.5692
 7276SOL     OW33463   3.050   0.291  12.180 -0.3084 -0.2181  0.4615
 7276SOL    HW133464   3.117   0.242  12.133 -0.9798  0.0938 -0.8097
 7276SOL    HW233465   3.085   0.381  12.179 -0.3832 -0.1519  2.7206
 7277SOL     OW33466   0.339   2.382   5.402 -0.0799  0.2491  0.0585
 7277SOL    HW133467   0.284   2.305   5.392  0.7073 -0.2788 -0.1777
 7277SOL    HW233468   0.375   2.381   5.313  1.6478 -1.3173  0.7627
 7278SOL     OW33469   0.619   2.738   3.610 -0.1298  0.2034 -0.0767
 7278SOL    HW133470   0.640   2.645   3.621  1.1259  0.3798 -0.8866
 7278SOL    HW233471   0.525   2.732   3.623 -0.1842 -1.9628 -1.5148
 7279SOL     OW33472   2.609   2.036   9.237  0.0398 -0.1551 -0.5374
 7279SOL    HW133473   2.558   2.023   9.317  0.8629 -3.0846 -0.4841
 7279SOL    HW233474   2.611   2.129   9.214  1.1852  0.1163  0.6013
 7280SOL     OW33475   1.914   3.426   7.748  0.3484  0.2017  0.2989
 7280SOL    HW133476   1.945   3.427   7.839  0.2553 -0.4622  0.3444
 7280SOL    HW233477   1.820   3.408   7.756  0.6660 -1.5340  0.2448
 7281SOL     OW33478   3.715   3.223   4.723 -0.4866 -0.2177  0.0438
 7281SOL    HW133479   3.674   3.304   4.693 -0.2451  0.7316  2.2724
 7281SOL    HW233480   3.663   3.196   4.798  1.7372  2.4436  2.5119
 7282SOL     OW33481   2.659   0.437  11.142  0.1094  0.4123 -0.0757
 7282SOL    HW133482   2.665   0.511  11.202  2.7924  0.4886 -0.4427
 7282SOL    HW233483   2.629   0.487  11.066 -1.4489 -2.0125 -1.0495
 7283SOL     OW33484   4.114   2.640   0.641  0.1671  0.3928 -0.7638
 7283SOL    HW133485   4.033   2.604   0.677 -0.8848  1.2467 -2.2823
 7283SOL    HW233486   4.170   2.563   0.633  0.8560  0.7411  0.7087
 7284SOL     OW33487   2.457   4.020   8.343 -0.0135  0.3862  0.5119
 7284SOL    HW133488   2.365   4.046   8.342 -0.2479 -0.4524  0.6858
 7284SOL    HW233489   2.448   3.956   8.414  0.5697 -1.6834 -1.2843
 7285SOL     OW33490   3.265   0.490  13.729 -0.7596 -0.3296 -0.3982
 7285SOL    HW133491   3.343   0.460  13.683 -2.3748 -4.2222 -0.5778
 7285SOL    HW233492   3.265   0.584  13.712 -0.4035 -0.1315  0.7333
 7286SOL     OW33493   1.955   0.697   4.656 -0.2198  0.0900  0.1279
 7286SOL    HW133494   2.002   0.690   4.740  2.2924  2.8797 -1.0408
 7286SOL    HW233495   1.880   0.638   4.668 -0.4101  0.6425  1.6193
 7287SOL     OW33496   2.543   4.412   2.137  0.2704 -0.6772 -0.3801
 7287SOL    HW133497   2.500   4.494   2.162 -2.4027 -2.0335 -0.6003
 7287SOL    HW233498   2.478   4.343   2.150  1.2066 -1.0949  2.1701
 7288SOL     OW33499   3.106   2.818  13.199  0.1280 -0.2399  0.8616
 7288SOL    HW133500   3.098   2.724  13.219 -0.8124 -0.1446  0.9164
 7288SOL    HW233501   3.068   2.814  13.111  0.7602 -3.0897  0.7198
 7289SOL     OW33502   3.892   2.966  14.762  0.4048  0.9011  0.0249
 7289SOL    HW133503   3.841   3.046  14.776 -0.8979  0.2717 -1.1238
 7289SOL    HW233504   3.919   2.980  14.671 -1.4153 -0.5885 -0.7351
 7290SOL     OW33505   0.811   2.087   9.325  0.1570  0.0307  0.0808
 7290SOL    HW133506   0.800   2.176   9.358  0.3513  0.4059 -0.8430
 7290SOL    HW233507   0.723   2.057   9.347 -0.2120 -0.2134 -1.7029
 7291SOL     OW33508   4.415   2.054   4.846 -0.3491 -0.5522 -0.3294
 7291SOL    HW133509   4.348   1.996   4.882 -0.0622  0.8194  2.3662
 7291SOL    HW233510   4.453   1.989   4.786  0.6784 -1.1390  0.9669
 7292SOL     OW33511   3.188   4.221   8.241  0.6100  0.1229 -0.0514
 7292SOL    HW133512   3.122   4.152   8.232 -0.7463  1.6284 -1.6361
 7292SOL    HW233513   3.263   4.175   8.277  1.3671 -0.8752 -2.8646
 7293SOL     OW33514   1.791   4.189   3.271  0.4190 -0.7757 -0.0818
 7293SOL    HW133515   1.719   4.250   3.291  1.2487  0.7700 -1.8261
 7293SOL    HW233516   1.864   4.251   3.271  0.9312 -1.3802  0.1200
 7294SOL     OW33517   3.857   2.701  10.084  0.3273  0.0813  0.1433
 7294SOL    HW133518   3.846   2.735   9.995  1.0599  0.9632  0.3796
 7294SOL    HW233519   3.831   2.769  10.146 -1.3363  1.0236 -1.5731
 7295SOL     OW33520   0.925   2.973   7.607 -0.1127  0.1069  0.6654
 7295SOL    HW133521   0.868   3.005   7.678 -0.8456 -0.1500  0.2000
 7295SOL    HW233522   0.991   3.042   7.606 -0.9319  0.8710 -0.8766
 7296SOL     OW33523   3.477   1.428   3.386  0.6599  0.2441 -0.4817
 7296SOL    HW133524   3.475   1.359   3.452 -2.1444 -0.2772 -1.1320
 7296SOL    HW233525   3.534   1.494   3.426 -0.8068 -0.1425  2.2538
 7297SOL     OW33526   3.088   4.524   3.545 -0.6483 -0.2611 -0.7381
 7297SOL    HW133527   3.118   4.543   3.634 -0.9802 -2.7920 -0.1021
 7297SOL    HW233528   3.161   4.573   3.506 -0.0586  0.3952  1.2093
 7298SOL     OW33529   0.690   0.340  15.975  0.4195  0.0556  0.1914
 7298SOL    HW133530   0.780   0.328  15.945  0.5013 -0.7150  0.7373
 7298SOL    HW233531   0.705   0.297  16.059  0.9233  1.1075  0.6335
 7299SOL     OW33532   0.179   4.195   6.398 -0.5070 -0.1570 -0.2306
 7299SOL    HW133533   0.136   4.128   6.450  0.3468  0.0645  0.7738
 7299SOL    HW233534   0.100   4.234   6.360 -0.8968  0.3102  1.0808
 7300SOL     OW33535   3.231   2.332   4.834 -0.5519  0.3377  0.0874
 7300SOL    HW133536   3.192   2.273   4.770  0.0859 -0.2002  0.1982
 7300SOL    HW233537   3.183   2.299   4.910 -0.2060  1.6792  0.9000
 7301SOL     OW33538   1.917   4.322   3.533  0.2398  0.0288  0.2738
 7301SOL    HW133539   1.823   4.332   3.520  0.1083  1.7549  2.6254
 7301SOL    HW233540   1.939   4.414   3.548 -0.5497  0.3104 -0.3048
 7302SOL     OW33541   1.467   1.962   9.367 -0.3955 -0.6266  0.5768
 7302SOL    HW133542   1.494   1.877   9.335 -1.0889 -0.9262  0.7863
 7302SOL    HW233543   1.499   2.024   9.301  0.9452 -1.8921  0.0567
 7303SOL     OW33544   0.560   0.063  11.404  0.3457  0.5279  0.2901
 7303SOL    HW133545   0.645   0.025  11.382  0.3826  0.5289  0.4369
 7303SOL    HW233546   0.502   4.722  11.406  0.7438  0.2728  1.9096
 7304SOL     OW33547   1.013   4.093   2.811 -0.0613 -0.4022  0.0062
 7304SOL    HW133548   0.976   4.067   2.727  0.6316 -2.9884  0.5105
 7304SOL    HW233549   0.954   4.046   2.870 -1.5452  2.3559  0.7151
 7305SOL     OW33550   4.134   3.941   4.362 -0.2230  0.7415  0.2253
 7305SOL    HW133551   4.040   3.931   4.347 -0.2108 -0.4817  0.9616
 7305SOL    HW233552   4.141   4.034   4.380  2.5855  0.2728  1.5565
 7306SOL     OW33553   2.526   3.894  10.861  0.1145  0.1042  0.8525
 7306SOL    HW133554   2.449   3.945  10.837  0.4115 -1.0598 -2.4937
 7306SOL    HW233555   2.598   3.946  10.826  0.7752 -1.3364  0.0568
 7307SOL     OW33556   2.008   3.120   3.623  0.1841  0.0448  0.1211
 7307SOL    HW133557   1.982   3.158   3.707 -0.6367 -3.2376  1.3694
 7307SOL    HW233558   2.005   3.193   3.561  0.8403 -0.0826 -0.0548
 7308SOL     OW33559   3.763   4.028   5.529 -0.2294 -0.0949 -0.2464
 7308SOL    HW133560   3.851   3.999   5.503 -0.8867 -2.9684  0.8048
 7308SOL    HW233561   3.769   4.123   5.542  0.9204 -0.2761  0.5853
 7309SOL     OW33562   2.207   3.057   6.975  0.1995 -0.2428 -0.0838
 7309SOL    HW133563   2.142   3.074   7.043  2.9671  1.9743  2.0005
 7309SOL    HW233564   2.185   2.964   6.976 -1.5226  0.1640 -0.1062
 7310SOL     OW33565   2.773   3.343  14.463 -0.0214  0.1664 -0.6928
 7310SOL    HW133566   2.722   3.266  14.438 -0.4476  1.1994 -2.9582
 7310SOL    HW233567   2.841   3.343  14.396  1.6626 -0.1147  1.0175
 7311SOL     OW33568   0.818   1.389   4.335  0.3078  0.2495 -0.0730
 7311SOL    HW133569   0.870   1.412   4.412  2.0726 -0.5192 -1.0179
 7311SOL    HW233570   0.789   1.473   4.300 -0.6722 -1.2729 -2.9066
 7312SOL     OW33571   1.830   0.875   3.507  0.1205 -0.0644  0.1270
 7312SOL    HW133572   1.754   0.924   3.476  0.9978  0.7277 -0.7593
 7312SOL    HW233573   1.872   0.942   3.560 -2.0213  2.0254 -0.7888
 7313SOL     OW33574   1.135   1.213   8.168 -0.0980 -0.1003  0.0812
 7313SOL    HW133575   1.123   1.292   8.220  0.7680  0.1316 -0.0636
 7313SOL    HW233576   1.042   1.208   8.147  0.2051  0.8201 -1.4488
 7314SOL     OW33577   0.018   3.595   1.125  0.3358  0.6177 -0.2722
 7314SOL    HW133578   4.670   3.611   1.080 -0.0959 -1.5532 -0.2242
 7314SOL    HW233579   0.071   3.667   1.092  1.0545  0.9771  1.6517
 7315SOL     OW33580   2.422   0.408  17.196 -0.8660 -0.1578 -0.4561
 7315SOL    HW133581   2.347   0.446  17.151 -0.6863 -0.7240 -1.2192
 7315SOL    HW233582   2.432   0.322  17.155 -1.0806 -0.6340  0.4721
 7316SOL     OW33583   3.600   4.553  11.558  0.1785  0.1826  0.0871
 7316SOL    HW133584   3.586   4.551  11.652 -1.6616 -3.8503 -0.2697
 7316SOL    HW233585   3.676   4.611  11.554 -0.1914  0.8578  3.4682
 7317SOL     OW33586   4.330   4.072   1.041  0.8609  0.2468 -0.5428
 7317SOL    HW133587   4.352   4.098   1.131  0.4509 -1.3768  0.0345
 7317SOL    HW233588   4.261   4.133   1.014 -0.7203 -1.5858 -0.6139
 7318SOL     OW33589   1.608   2.196  15.203 -0.2196 -0.4322  0.0635
 7318SOL    HW133590   1.580   2.150  15.283  1.6687  0.4131  1.2047
 7318SOL    HW233591   1.691   2.153  15.184 -0.9393 -0.9476 -1.8975
 7319SOL     OW33592   0.687   4.261   9.353  0.4024 -0.6589  0.3055
 7319SOL    HW133593   0.619   4.236   9.290  0.1385  0.8218 -0.0029
 7319SOL    HW233594   0.677   4.202   9.428 -1.5484 -0.4196  0.2281
 7320SOL     OW33595   0.914   4.430  12.549 -0.0426 -0.6251  0.2907
 7320SOL    HW133596   0.841   4.491  12.562  0.4087 -0.0302 -0.0193
 7320SOL    HW233597   0.976   4.472  12.491  0.5063 -0.2444  1.1489
 7321SOL     OW33598   2.560   3.544  17.444  0.2243  0.3588  0.1822
 7321SOL    HW133599   2.494   3.608  17.418  1.3921  0.6895 -1.8968
 7321SOL    HW233600   2.598   3.525  17.358 -1.6604 -0.8988 -0.3706
 7322SOL     OW33601   0.352   1.891   6.384  0.0287 -0.3197 -0.0023
 7322SOL    HW133602   0.367   1.905   6.477  0.2703  0.2562 -0.1283
 7322SOL    HW233603   0.438   1.857   6.360  0.6324  2.6014 -1.9972
 7323SOL     OW33604   0.878   2.820   1.604 -0.2090  0.3865  0.3266
 7323SOL    HW133605   0.786   2.834   1.627 -0.9188  2.0899 -3.5866
 7323SOL    HW233606   0.901   2.745   1.659 -0.3827 -0.5552 -0.8877
 7324SOL     OW33607   3.908   1.040   4.126  0.1254 -0.2783 -0.0226
 7324SOL    HW133608   4.002   1.033   4.140  0.1135 -2.8061 -1.2537
 7324SOL    HW233609   3.901   1.109   4.059  3.2241 -0.0053 -0.0402
 7325SOL     OW33610   3.225   3.465  11.221 -0.8531 -0.0447 -0.4613
 7325SOL    HW133611   3.208   3.447  11.314  2.7542 -0.2179  0.1704
 7325SOL    HW233612   3.174   3.542  11.197 -1.5474 -0.7286 -1.2150
 7326SOL     OW33613   0.476   1.402   8.440 -0.1897 -0.4737  0.3232
 7326SOL    HW133614   0.554   1.414   8.385  0.3139 -1.1105  0.8949
 7326SOL    HW233615   0.406   1.388   8.377  0.0740 -0.0245 -0.0642
 7327SOL     OW33616   0.976   4.720  14.790 -0.7013 -0.1613  0.2628
 7327SOL    HW133617   1.028   4.650  14.749  1.6470  2.2369 -0.8006
 7327SOL    HW233618   0.895   4.713  14.738  0.8789 -0.2875 -2.1848
 7328SOL     OW33619   0.423   0.283   7.569  0.2442  0.1862 -0.6273
 7328SOL    HW133620   0.383   0.344   7.508 -1.5191  0.2108  0.5264
 7328SOL    HW233621   0.514   0.307   7.550  1.1585  0.1703  3.6435
 7329SOL     OW33622   0.411   3.136   7.533 -0.1570  0.0189 -0.2019
 7329SOL    HW133623   0.429   3.090   7.451  0.5047  1.3875 -0.8215
 7329SOL    HW233624   0.447   3.223   7.516  1.3142 -0.3018  1.2572
 7330SOL     OW33625   1.656   2.745   5.219  0.8895 -0.4815  0.4011
 7330SOL    HW133626   1.593   2.804   5.262  1.3855  1.0505 -0.9670
 7330SOL    HW233627   1.639   2.769   5.128  2.0014 -1.0258  0.0573
 7331SOL     OW33628   3.863   3.901   4.379  0.0172 -0.4737 -0.1583
 7331SOL    HW133629   3.783   3.875   4.425 -0.0368  1.1912  0.6795
 7331SOL    HW233630   3.841   3.883   4.287 -2.8431 -0.1852  0.4576
 7332SOL     OW33631   1.767   0.005   3.557  0.1969  0.8228 -0.3803
 7332SOL    HW133632   1.686   0.046   3.526 -0.8271 -1.2384 -0.4437
 7332SOL    HW233633   1.791   0.069   3.624 -2.7874  2.3676 -0.7976
 7333SOL     OW33634   2.638   4.704   6.018 -0.2755  0.0042  0.6006
 7333SOL    HW133635   2.579   4.665   6.083 -0.7926 -2.1825 -1.1433
 7333SOL    HW233636   2.680   0.043   6.061 -1.3329  1.9519 -1.7632
 7334SOL     OW33637   2.804   0.433   4.674 -0.5711  0.2325 -0.0506
 7334SOL    HW133638   2.832   0.417   4.584 -1.8204  1.0993 -0.5886
 7334SOL    HW233639   2.712   0.449   4.656 -0.2566  1.2700 -0.6950
 7335SOL     OW33640   1.820   1.135   1.912  0.3214 -0.2022  0.1077
 7335SOL    HW133641   1.791   1.216   1.869  0.4635  1.4817  3.2285
 7335SOL    HW233642   1.755   1.074   1.878 -1.5204  2.0199 -0.3229
 7336SOL     OW33643   3.538   4.060   6.121  0.1627  0.3763 -0.1265
 7336SOL    HW133644   3.608   3.998   6.100 -0.8745 -1.2908  1.3580
 7336SOL    HW233645   3.509   4.076   6.031  0.1568 -0.2016 -0.2255
 7337SOL     OW33646   4.272   0.307   0.571  0.0698  0.1046  0.9344
 7337SOL    HW133647   4.344   0.309   0.507  0.7733  0.5091  1.7364
 7337SOL    HW233648   4.206   0.363   0.531  0.5307  0.7704  1.1076
 7338SOL     OW33649   2.847   3.041  12.164  0.0857  0.0894  0.1211
 7338SOL    HW133650   2.907   2.966  12.161  0.6752  0.5914 -1.0273
 7338SOL    HW233651   2.780   2.998  12.110  0.4359  0.0555 -0.2893
 7339SOL     OW33652   0.630   0.588  14.807 -0.4753  0.5262  0.2075
 7339SOL    HW133653   0.656   0.617  14.720  2.7506  2.7135  1.9159
 7339SOL    HW233654   0.715   0.571  14.848 -0.3451  0.6623 -0.0056
 7340SOL     OW33655   0.822   0.601  14.587 -0.0050  0.0120 -0.2958
 7340SOL    HW133656   0.887   0.631  14.650 -0.1302  2.5985 -1.3770
 7340SOL    HW233657   0.825   0.665  14.516  1.1547  1.0318  0.6665
 7341SOL     OW33658   1.654   1.496   2.786 -0.0210 -0.9394 -0.0949
 7341SOL    HW133659   1.560   1.504   2.799 -0.3614 -4.1451 -0.3531
 7341SOL    HW233660   1.676   1.431   2.854 -0.3482  0.8310  1.7012
 7342SOL     OW33661   0.679   2.267  14.840  0.0095 -0.0693 -0.2277
 7342SOL    HW133662   0.684   2.265  14.936 -0.4785 -1.0797 -0.2220
 7342SOL    HW233663   0.585   2.278  14.826  0.1223 -2.0316 -2.5253
 7343SOL     OW33664   4.377   1.328   3.421 -0.0666  0.7084 -0.6544
 7343SOL    HW133665   4.409   1.273   3.492  1.4388 -0.2408 -2.0590
 7343SOL    HW233666   4.463   1.349   3.383  0.7124 -0.5138  0.4131
 7344SOL     OW33667   1.317   3.869   9.079  0.0079 -0.3917  0.3243
 7344SOL    HW133668   1.362   3.897   8.999 -0.3443 -1.3962 -0.2183
 7344SOL    HW233669   1.362   3.787   9.096  1.6032  0.8395  2.0102
 7345SOL     OW33670   0.407   3.445  11.845 -0.4681 -0.5680 -0.1263
 7345SOL    HW133671   0.421   3.391  11.923 -2.1330  0.0070  0.5725
 7345SOL    HW233672   0.350   3.516  11.876 -0.1793 -0.8408  1.0264
 7346SOL     OW33673   3.203   4.620   5.202  0.0481 -0.6869  0.1377
 7346SOL    HW133674   3.266   4.614   5.274  0.7159 -0.6805 -0.4370
 7346SOL    HW233675   3.130   4.568   5.235 -1.9424  2.2140  0.3653
 7347SOL     OW33676   0.730   2.533   4.536 -0.3007  0.2940  0.3940
 7347SOL    HW133677   0.719   2.606   4.597  2.2527  1.9548 -1.1651
 7347SOL    HW233678   0.745   2.575   4.451 -0.9678 -1.5461 -0.6384
 7348SOL     OW33679   0.583   3.470  14.886  0.6390  0.7921  0.3182
 7348SOL    HW133680   0.586   3.524  14.965 -2.0643  0.6520  0.5356
 7348SOL    HW233681   0.500   3.505  14.854  0.7929  0.0479 -0.8795
 7349SOL     OW33682   2.322   1.221  14.030  0.7572 -0.2149  0.1012
 7349SOL    HW133683   2.378   1.146  14.011  0.7988 -0.3144  0.6319
 7349SOL    HW233684   2.394   1.282  14.048 -1.8262  2.5268  1.2217
 7350SOL     OW33685   3.629   2.959   9.015  0.2336 -0.0783 -0.2189
 7350SOL    HW133686   3.680   3.019   9.069 -1.9384  1.2873  0.3070
 7350SOL    HW233687   3.673   2.960   8.930 -0.1762  1.3279 -0.4162
 7351SOL     OW33688   1.206   0.378   3.335  0.5817 -0.0988  0.2870
 7351SOL    HW133689   1.253   0.441   3.390 -1.1998  0.8703  0.7016
 7351SOL    HW233690   1.213   0.427   3.253 -1.5037  0.2277  0.3108
 7352SOL     OW33691   1.148   3.080   6.437  0.0362  0.2246  0.3289
 7352SOL    HW133692   1.054   3.079   6.457  0.1215  1.9464  0.7726
 7352SOL    HW233693   1.148   3.101   6.344 -0.2076  0.1522  0.3111
 7353SOL     OW33694   3.709   1.045   3.118 -0.3831 -0.3615 -0.1936
 7353SOL    HW133695   3.771   1.111   3.087  1.2828 -1.6137  0.4551
 7353SOL    HW233696   3.634   1.065   3.062 -0.0200  1.1114 -0.1560
 7354SOL     OW33697   2.769   2.133   3.532  0.4601  0.5207 -0.5004
 7354SOL    HW133698   2.827   2.168   3.600 -2.4298  4.7500 -0.1965
 7354SOL    HW233699   2.699   2.197   3.521  1.4971  1.5182 -1.3208
 7355SOL     OW33700   0.061   3.879   4.093  0.3227 -0.0403 -0.0511
 7355SOL    HW133701   0.105   3.810   4.143 -1.5543 -2.6093 -1.9176
 7355SOL    HW233702   4.729   3.833   4.043  1.3534 -1.5354 -0.0765
 7356SOL     OW33703   0.145   2.113   3.638  0.3293  0.6651 -0.0822
 7356SOL    HW133704   0.073   2.053   3.616  0.1332  0.7710  0.2686
 7356SOL    HW233705   0.106   2.191   3.678 -0.4463  1.1456 -1.7593
 7357SOL     OW33706   0.109   0.110   8.659  0.6705 -0.2625  0.0024
 7357SOL    HW133707   0.023   0.144   8.687  0.6244  0.6545 -1.2437
 7357SOL    HW233708   0.080   0.020   8.644  0.9184 -0.1246 -1.3272
 7358SOL     OW33709   3.638   2.094   9.211  0.1665  0.4779 -0.4029
 7358SOL    HW133710   3.563   2.141   9.174  0.1849 -0.8238 -2.1021
 7358SOL    HW233711   3.647   2.143   9.293 -0.0820  1.9711 -1.2613
 7359SOL     OW33712   4.642   1.815  16.426 -0.5711  0.6156 -1.6995
 7359SOL    HW133713   4.585   1.747  16.388  1.7478 -1.4751 -1.4545
 7359SOL    HW233714   4.578   1.885  16.415 -0.1434  1.2095 -0.3274
 7360SOL     OW33715   0.831   2.244   4.227 -0.4315 -0.3903 -0.2619
 7360SOL    HW133716   0.886   2.300   4.281  0.1536 -1.9919  0.7921
 7360SOL    HW233717   0.892   2.201   4.168 -0.1403  0.1056 -0.3220
 7361SOL     OW33718   4.627   0.359  17.124  0.0867 -0.5815 -0.3288
 7361SOL    HW133719   4.647   0.452  17.115 -1.3370 -0.1487  1.1390
 7361SOL    HW233720   4.561   0.363  17.193 -0.3810  0.1910 -0.8182
 7362SOL     OW33721   4.595   3.490   3.730  0.0558  0.5015 -0.4053
 7362SOL    HW133722   4.533   3.472   3.802  1.8779  1.4958  1.4165
 7362SOL    HW233723   4.546   3.555   3.680  0.5155  1.5751  0.5399
 7363SOL     OW33724   0.986   1.795   1.742 -0.0036  0.3428  0.3094
 7363SOL    HW133725   0.984   1.700   1.753  1.8304  0.1456 -1.1701
 7363SOL    HW233726   1.022   1.823   1.827 -1.5172 -0.7682  1.3217
 7364SOL     OW33727   1.709   2.971   2.876  0.0187 -0.4392 -0.3093
 7364SOL    HW133728   1.633   2.923   2.910 -0.3351  0.1804 -0.2237
 7364SOL    HW233729   1.674   2.993   2.789 -0.4762 -0.2437 -0.0608
 7365SOL     OW33730   3.144   1.588   7.506 -0.3602  0.3603  0.5467
 7365SOL    HW133731   3.221   1.620   7.554  1.1857  1.0133 -2.3036
 7365SOL    HW233732   3.154   1.618   7.415 -2.0876  1.2842  0.6665
 7366SOL     OW33733   2.664   1.919   8.408  0.1850  0.1985 -0.3479
 7366SOL    HW133734   2.626   1.891   8.325  0.2478  1.6064 -0.8465
 7366SOL    HW233735   2.677   2.012   8.394 -0.4481  0.5977  1.7013
 7367SOL     OW33736   3.977   2.156   6.830  0.1438 -0.3906  0.3322
 7367SOL    HW133737   4.021   2.242   6.836 -0.2381 -0.1177 -0.7669
 7367SOL    HW233738   4.056   2.102   6.830  1.0931  0.9778 -0.4260
 7368SOL     OW33739   0.527   4.464   1.187  0.5159 -0.3795  0.0223
 7368SOL    HW133740   0.549   4.450   1.095 -2.7728 -1.3199 -0.6115
 7368SOL    HW233741   0.445   4.419   1.205 -0.2986  1.0555 -0.0405
 7369SOL     OW33742   1.417   3.694   5.012 -0.1551 -0.0313 -0.0748
 7369SOL    HW133743   1.465   3.760   5.062 -0.2281  1.3042 -1.7524
 7369SOL    HW233744   1.474   3.618   5.026 -1.3947 -0.9530 -0.0920
 7370SOL     OW33745   3.948   4.576  16.604  0.1184  0.1967 -0.1610
 7370SOL    HW133746   3.870   4.615  16.565 -1.6589 -0.6536  2.5181
 7370SOL    HW233747   3.991   4.551  16.523 -0.4011  0.1347 -0.4155
 7371SOL     OW33748   4.666   0.070   9.108  0.2549  0.3314  0.2726
 7371SOL    HW133749   4.635   4.715   9.107  1.8061 -0.2025  0.8907
 7371SOL    HW233750   4.710   0.071   9.193 -0.7980  1.5234  0.7971
 7372SOL     OW33751   2.405   0.010  15.387  0.1898 -0.2017 -0.0474
 7372SOL    HW133752   2.355   4.683  15.439 -1.8504  0.8940 -0.6675
 7372SOL    HW233753   2.441   0.066  15.456 -1.0068  0.7331 -0.1852
 7373SOL     OW33754   3.027   4.685   1.324 -0.0191  0.5097  0.1659
 7373SOL    HW133755   3.109   4.734   1.329  1.8263 -2.4484 -1.2283
 7373SOL    HW233756   2.957   0.014   1.333 -0.1811  0.1079  1.8808
 7374SOL     OW33757   3.583   0.836   6.853  0.2132 -0.7937 -0.5788
 7374SOL    HW133758   3.656   0.898   6.860 -0.8929  0.4486  0.1900
 7374SOL    HW233759   3.635   0.766   6.890  2.1130 -1.0778 -3.8092
 7375SOL     OW33760   0.981   2.160   5.732 -0.4141  0.3544  0.1666
 7375SOL    HW133761   0.941   2.116   5.657 -0.3177 -1.1129  0.9849
 7375SOL    HW233762   1.071   2.177   5.702  0.2883 -0.1084  2.0328
 7376SOL     OW33763   1.068   2.878   9.386 -0.2994 -0.2892 -0.3313
 7376SOL    HW133764   0.984   2.867   9.341  0.1387 -0.2959 -1.1424
 7376SOL    HW233765   1.044   2.860   9.478 -0.4529  0.5373 -0.2080
 7377SOL     OW33766   0.332   3.699   3.757 -0.0250 -0.3754 -0.0118
 7377SOL    HW133767   0.260   3.674   3.815 -2.3891  0.9741 -2.3654
 7377SOL    HW233768   0.383   3.620   3.775 -1.6743 -1.7430 -1.3195
 7378SOL     OW33769   2.214   2.662  13.517 -0.0001 -0.5216  0.6672
 7378SOL    HW133770   2.174   2.619  13.442 -0.7562 -0.7610  1.2100
 7378SOL    HW233771   2.147   2.725  13.543  1.5526  1.8753 -1.1520
 7379SOL     OW33772   2.210   0.797   0.535 -0.7727 -0.4444 -0.4324
 7379SOL    HW133773   2.118   0.784   0.511  0.1313 -2.4314 -2.8747
 7379SOL    HW233774   2.242   0.707   0.527 -1.2903 -0.5756 -1.0393
 7380SOL     OW33775   1.316   1.854   1.694 -0.4551 -0.2325 -0.0285
 7380SOL    HW133776   1.233   1.845   1.648 -1.8576  1.2699  2.1838
 7380SOL    HW233777   1.302   1.937   1.740  2.5168 -0.3564  1.1030
 7381SOL     OW33778   3.512   1.418  13.628  0.3704 -0.9870 -0.2667
 7381SOL    HW133779   3.497   1.363  13.705 -1.4502 -0.8547 -0.5383
 7381SOL    HW233780   3.471   1.500  13.656  1.8383  0.0120 -1.0269
 7382SOL     OW33781   2.371   2.434   4.626 -0.3569  0.0155  0.2155
 7382SOL    HW133782   2.414   2.518   4.642  1.9218 -1.2799  0.8132
 7382SOL    HW233783   2.409   2.375   4.690  1.0874 -1.3304 -1.8991
 7383SOL     OW33784   1.462   1.600   6.701  0.3288 -0.2131  0.0825
 7383SOL    HW133785   1.497   1.524   6.747 -1.3055 -0.1308  1.4503
 7383SOL    HW233786   1.482   1.676   6.756 -2.3450  1.1714 -0.8671
 7384SOL     OW33787   2.292   2.813  11.988  0.0986  0.3328  0.4729
 7384SOL    HW133788   2.352   2.809  12.063  2.6910  1.4861 -1.5457
 7384SOL    HW233789   2.265   2.722  11.980  1.2496 -0.1922  2.4444
 7385SOL     OW33790   3.364   4.720  16.459  0.0696  0.4408 -0.3347
 7385SOL    HW133791   3.312   4.728  16.539 -0.2504  2.2489 -0.7110
 7385SOL    HW233792   3.432   0.043  16.493 -0.7931  0.3333  1.5723
 7386SOL     OW33793   0.246   2.493   4.576  0.2241  0.2393 -0.1344
 7386SOL    HW133794   0.323   2.516   4.628  0.2169  0.8793 -0.4112
 7386SOL    HW233795   0.207   2.428   4.635  0.7137  0.0829  0.0181
 7387SOL     OW33796   1.207   3.253   4.587  0.2289 -0.1800  0.8967
 7387SOL    HW133797   1.288   3.302   4.579  0.9124 -1.8740 -2.7770
 7387SOL    HW233798   1.144   3.318   4.619 -0.1482 -0.2513  0.3048
 7388SOL     OW33799   4.554   3.361   1.869  0.4603  0.0902  0.4654
 7388SOL    HW133800   4.465   3.359   1.833  0.4370 -1.5130  0.6175
 7388SOL    HW233801   4.594   3.399   1.790  0.5541  0.2239  0.5780
 7389SOL     OW33802   0.929   0.020   4.672 -0.5754  0.2279  0.5560
 7389SOL    HW133803   0.928   4.667   4.637  2.9353 -0.3726  2.0090
 7389SOL    HW233804   0.950   4.734   4.763  0.5118 -0.9460  0.0242
 7390SOL     OW33805   2.458   3.975  13.320 -0.3396  0.4118  0.1653
 7390SOL    HW133806   2.420   3.997  13.405 -2.0949 -1.4506 -0.1182
 7390SOL    HW233807   2.398   3.906  13.291 -0.3472  1.7554 -3.0365
 7391SOL     OW33808   0.979   0.075   2.365 -0.0093 -0.2697  0.1379
 7391SOL    HW133809   1.050   0.011   2.375 -0.8588 -1.2189  0.1534
 7391SOL    HW233810   0.927   0.047   2.441  0.7661  0.8670  1.0835
 7392SOL     OW33811   4.340   4.260   6.591  0.2877  0.1198  0.1324
 7392SOL    HW133812   4.322   4.212   6.671  2.0134 -0.6814  0.0227
 7392SOL    HW233813   4.272   4.216   6.539 -0.8631 -0.9775  2.5715
 7393SOL     OW33814   1.731   1.935   2.301  0.6003  0.1273 -0.2549
 7393SOL    HW133815   1.645   1.896   2.317 -0.5744  2.0700 -1.7208
 7393SOL    HW233816   1.789   1.873   2.343 -0.8806 -1.4891 -0.5914
 7394SOL     OW33817   3.322   3.644  16.752  0.4275 -0.3075  0.3181
 7394SOL    HW133818   3.410   3.680  16.737  0.2341 -1.3612 -3.3695
 7394SOL    HW233819   3.302   3.700  16.827  0.4140  1.4509 -0.9907
 7395SOL     OW33820   3.983   1.089   6.363  0.4814 -0.3085 -0.0416
 7395SOL    HW133821   3.986   1.171   6.412  1.2187 -0.4330  0.1244
 7395SOL    HW233822   4.056   1.041   6.402  1.0329 -0.9588 -1.8422
 7396SOL     OW33823   0.698   4.232   7.536 -0.6012  0.0796 -0.0172
 7396SOL    HW133824   0.637   4.271   7.598  0.7901  1.3348  0.5833
 7396SOL    HW233825   0.666   4.143   7.523  0.1708 -0.0792 -0.8432
 7397SOL     OW33826   1.139   3.846  17.346 -0.2011 -0.2025  0.0963
 7397SOL    HW133827   1.196   3.781  17.388 -0.4579  0.8085  2.0264
 7397SOL    HW233828   1.142   3.906  17.421  1.5087  0.0000 -0.1186
 7398SOL     OW33829   3.505   4.446  17.373 -0.5375  0.5916  0.3926
 7398SOL    HW133830   3.555   4.440  17.455 -1.2361 -0.2852  0.7568
 7398SOL    HW233831   3.421   4.408  17.397 -0.8639  0.7362 -0.5304
 7399SOL     OW33832   0.015   1.655   2.301 -0.4529 -0.5912 -0.4098
 7399SOL    HW133833   4.711   1.608   2.228  0.6498 -0.6407 -0.9737
 7399SOL    HW233834   0.091   1.687   2.253 -0.3455 -0.3654 -0.0905
 7400SOL     OW33835   1.241   0.806   5.000 -0.1021  0.2075  0.4034
 7400SOL    HW133836   1.238   0.721   4.955 -1.7454 -0.5581  1.9601
 7400SOL    HW233837   1.316   0.787   5.057  0.9118 -0.6066 -1.1762
 7401SOL     OW33838   3.321   1.777  11.771  0.8663  0.2865  0.0969
 7401SOL    HW133839   3.342   1.688  11.800  0.3116 -0.7158 -2.6346
 7401SOL    HW233840   3.233   1.772  11.733  0.9667 -3.4403  0.2595
 7402SOL     OW33841   1.198   2.674   8.708  0.3100  0.2204 -0.1209
 7402SOL    HW133842   1.293   2.673   8.715  0.2485  0.7856  0.7961
 7402SOL    HW233843   1.172   2.765   8.721 -0.2121 -0.1334  1.3606
 7403SOL     OW33844   3.460   2.336   2.942 -0.0586  0.3205  0.3688
 7403SOL    HW133845   3.365   2.327   2.951 -0.4777  2.2720 -2.1178
 7403SOL    HW233846   3.483   2.401   3.009  1.9366  0.9310 -0.9123
 7404SOL     OW33847   2.958   3.670   9.270  0.2900 -0.5589 -0.9137
 7404SOL    HW133848   2.971   3.703   9.181 -0.0596  1.2868 -0.2729
 7404SOL    HW233849   3.032   3.715   9.311 -0.9861  2.2166 -1.6302
 7405SOL     OW33850   3.585   4.091   4.321  0.0034  0.7035 -0.3115
 7405SOL    HW133851   3.572   3.997   4.336  1.9315  0.6199  0.8440
 7405SOL    HW233852   3.564   4.102   4.229 -0.3059 -0.2048 -0.3502
 7406SOL     OW33853   1.694   3.228  15.902  0.0454 -0.7057 -0.1137
 7406SOL    HW133854   1.609   3.258  15.935  0.0616 -0.5733 -0.1954
 7406SOL    HW233855   1.683   3.134  15.885 -1.6364 -0.4456 -0.4906
 7407SOL     OW33856   4.140   0.124   5.849 -0.0667  0.0960 -0.7473
 7407SOL    HW133857   4.111   0.146   5.761  0.9079  0.5900 -0.9460
 7407SOL    HW233858   4.163   0.209   5.886 -0.7555 -1.0120  2.2468
 7408SOL     OW33859   1.857   2.773   2.040  0.0838  0.2620 -0.1318
 7408SOL    HW133860   1.939   2.821   2.047  1.6362 -2.0309 -3.2621
 7408SOL    HW233861   1.823   2.805   2.124  1.0933  1.9936 -0.3805
 7409SOL     OW33862   2.569   1.202   2.435  0.1217  0.1403 -0.0839
 7409SOL    HW133863   2.618   1.256   2.372  1.5410 -0.2781  0.6483
 7409SOL    HW233864   2.629   1.128   2.448  0.2633  0.1931 -0.4368
 7410SOL     OW33865   1.133   2.581   0.873 -0.2902 -0.0633 -0.1065
 7410SOL    HW133866   1.138   2.540   0.787 -2.9683 -0.5652 -0.0174
 7410SOL    HW233867   1.206   2.534   0.915 -0.5719 -0.2503  0.1770
 7411SOL     OW33868   3.717   4.358   7.745  0.1880  0.1313  0.0400
 7411SOL    HW133869   3.706   4.398   7.832  1.7317  0.4781  0.0659
 7411SOL    HW233870   3.630   4.368   7.706 -0.2604  0.9161  1.2450
 7412SOL     OW33871   4.454   3.087   6.045 -0.5251 -0.1046 -0.3121
 7412SOL    HW133872   4.426   3.079   5.954  1.7500 -0.1724 -1.0201
 7412SOL    HW233873   4.544   3.053   6.042 -0.3269  0.3943 -0.0759
 7413SOL     OW33874   1.736   4.497   6.041 -0.0109 -0.3724 -0.0671
 7413SOL    HW133875   1.748   4.469   5.950 -1.3154  1.0711 -0.6933
 7413SOL    HW233876   1.643   4.522   6.035  0.5826  1.7612 -0.4319
 7414SOL     OW33877   4.642   1.113  11.949 -0.7966 -0.2362 -0.0693
 7414SOL    HW133878   4.725   1.068  11.962 -0.7218 -0.2508 -0.5736
 7414SOL    HW233879   4.603   1.111  12.036 -2.2929  1.9587 -0.6741
 7415SOL     OW33880   2.931   1.893  16.645 -0.0905  0.4019  0.3431
 7415SOL    HW133881   3.000   1.845  16.690  0.9527  2.2132  0.6800
 7415SOL    HW233882   2.850   1.842  16.653  1.8239 -1.9936  4.2339
 7416SOL     OW33883   3.872   1.396  12.807 -0.0535 -0.5240 -0.4227
 7416SOL    HW133884   3.860   1.305  12.837  0.1894 -0.9929 -1.7470
 7416SOL    HW233885   3.885   1.442  12.890  1.7684 -2.2012  0.2278
 7417SOL     OW33886   2.194   1.331   7.862 -0.0305  0.2756  0.5510
 7417SOL    HW133887   2.186   1.293   7.949 -0.8544  0.0254  0.3699
 7417SOL    HW233888   2.101   1.333   7.836  0.1429 -1.0022 -0.1650
 7418SOL     OW33889   4.571   3.200  12.576 -0.3324 -0.4271 -0.4053
 7418SOL    HW133890   4.580   3.241  12.662 -2.9266 -0.3708 -0.1521
 7418SOL    HW233891   4.477   3.213  12.561 -0.5867 -2.7124 -0.7683
 7419SOL     OW33892   4.368   3.994   8.386 -0.1838  0.3470  0.6427
 7419SOL    HW133893   4.401   4.025   8.470  1.1184  0.6631  0.0108
 7419SOL    HW233894   4.323   4.068   8.346 -1.6752 -0.5280  0.6938
 7420SOL     OW33895   0.183   2.372   7.881 -0.1541  0.2316 -0.8909
 7420SOL    HW133896   0.182   2.434   7.809 -0.3222 -0.5595 -1.5635
 7420SOL    HW233897   0.260   2.399   7.931  0.0161 -0.7234 -0.6474
 7421SOL     OW33898   1.469   2.660   8.970 -0.1824 -0.0732  0.4774
 7421SOL    HW133899   1.416   2.588   9.005 -0.1829  0.4599  1.5705
 7421SOL    HW233900   1.426   2.744   8.980 -2.3660 -1.2354  0.8833
 7422SOL     OW33901   2.864   3.215  15.937 -0.1955  0.2459  0.5880
 7422SOL    HW133902   2.890   3.307  15.948  2.1692 -0.1479 -1.7602
 7422SOL    HW233903   2.793   3.230  15.874 -0.9378 -1.8265  0.9390
 7423SOL     OW33904   3.357   4.424   0.272  0.3023  0.3977 -0.7663
 7423SOL    HW133905   3.298   4.498   0.291 -0.0567 -0.1153  0.1317
 7423SOL    HW233906   3.395   4.444   0.358  1.7247  0.0312 -1.3178
 7424SOL     OW33907   0.756   3.803   9.582 -0.1561  0.2014  0.0340
 7424SOL    HW133908   0.816   3.805   9.507 -1.4139 -0.5849 -1.0004
 7424SOL    HW233909   0.817   3.779   9.651 -0.5622 -0.4502  0.1656
 7425SOL     OW33910   0.849   3.284   4.373  0.3042 -0.2129 -0.0205
 7425SOL    HW133911   0.842   3.376   4.398  0.0517 -0.5111  1.0301
 7425SOL    HW233912   0.783   3.279   4.304  1.4787 -1.8258 -1.0518
 7426SOL     OW33913   2.636   3.957   3.814  0.0503  0.2989  0.0297
 7426SOL    HW133914   2.640   4.027   3.749  3.0495 -1.1617 -1.3758
 7426SOL    HW233915   2.582   3.891   3.773  4.0366 -0.6075 -3.7493
 7427SOL     OW33916   0.834   3.981   2.973 -0.7105  0.4631  0.0559
 7427SOL    HW133917   0.849   3.909   3.034  0.3123  1.0416  0.4929
 7427SOL    HW233918   0.826   4.057   3.032  0.7577 -0.0945  0.9799
 7428SOL     OW33919   4.672   0.903   3.612 -0.3342  0.4631  0.0851
 7428SOL    HW133920   4.711   0.819   3.637  1.0044  1.1009  0.1418
 7428SOL    HW233921   4.692   0.959   3.687  3.5162 -0.0533 -0.5271
 7429SOL     OW33922   1.750   4.729   8.418  0.3003  0.2118 -0.8010
 7429SOL    HW133923   1.778   0.024   8.504  1.1089  0.1190 -1.0211
 7429SOL    HW233924   1.711   4.646   8.447  2.2948 -1.0476 -1.6935
 7430SOL     OW33925   0.489   3.945   5.168 -0.2817  0.0318 -0.4924
 7430SOL    HW133926   0.577   3.951   5.207 -1.5161 -0.7584  2.3978
 7430SOL    HW233927   0.457   4.029   5.200  2.0393  0.7660 -0.0853
 7431SOL     OW33928   4.511   0.474  11.179 -0.5780  0.1093  0.0424
 7431SOL    HW133929   4.549   0.404  11.233  0.5432  1.3696  0.8693
 7431SOL    HW233930   4.439   0.511  11.230 -1.1454 -3.0663  1.5510
 7432SOL     OW33931   3.411   3.694   4.164  0.2977  0.0791  0.2576
 7432SOL    HW133932   3.494   3.724   4.202  0.6309  1.1627 -1.3271
 7432SOL    HW233933   3.378   3.652   4.243 -1.5529  0.7080 -0.1945
 7433SOL     OW33934   2.615   1.006   7.598 -0.2508 -0.1601  0.1825
 7433SOL    HW133935   2.594   1.090   7.557  1.3141 -0.0215 -0.3164
 7433SOL    HW233936   2.654   1.026   7.684  3.0400 -1.5663 -0.9759
 7434SOL     OW33937   3.083   3.896  11.156  0.5011 -0.2105  0.3946
 7434SOL    HW133938   3.174   3.925  11.159  0.7255 -1.2028  2.8174
 7434SOL    HW233939   3.081   3.830  11.225  3.4637  0.6146  1.2618
 7435SOL     OW33940   2.268   0.522   9.254 -0.0255 -0.3808 -0.3429
 7435SOL    HW133941   2.265   0.559   9.342 -0.1272  0.7353 -0.8167
 7435SOL    HW233942   2.342   0.563   9.209 -0.7212  0.1861 -0.9531
 7436SOL     OW33943   1.755   4.479   0.992  0.0983  0.2091  0.0441
 7436SOL    HW133944   1.727   4.442   0.908 -0.0424  1.7032 -0.5673
 7436SOL    HW233945   1.763   4.404   1.051  2.9293  0.7553  0.3448
 7437SOL     OW33946   0.599   1.145   2.447  0.2320 -0.3410 -0.0149
 7437SOL    HW133947   0.669   1.207   2.469  0.1539  0.0344 -0.8222
 7437SOL    HW233948   0.550   1.145   2.529 -0.7652  1.6064 -0.6214
 7438SOL     OW33949   0.844   2.425  17.006 -0.0343  0.2939  0.1286
 7438SOL    HW133950   0.783   2.392  16.940  0.0856 -0.6406  0.4839
 7438SOL    HW233951   0.807   2.513  17.020  0.1947 -0.1273  3.3225
 7439SOL     OW33952   0.243   3.283   3.977  0.2246 -0.2881  0.6215
 7439SOL    HW133953   0.208   3.327   4.054  0.9196 -0.6557  1.1441
 7439SOL    HW233954   0.164   3.280   3.923  0.8673 -2.5069 -0.2050
 7440SOL     OW33955   1.655   1.514  14.124 -0.4092  0.2886  0.0019
 7440SOL    HW133956   1.665   1.608  14.108 -1.2853  0.5138  0.7798
 7440SOL    HW233957   1.626   1.517  14.215  1.5917 -2.1580  0.7275
 7441SOL     OW33958   0.404   3.188  14.991 -0.0651 -0.1773 -0.7986
 7441SOL    HW133959   0.418   3.225  15.078  1.0407 -0.8084 -0.7050
 7441SOL    HW233960   0.492   3.159  14.966 -0.7858 -0.2890 -3.1586
 7442SOL     OW33961   1.987   3.395  16.570 -0.2510 -0.2272 -0.4174
 7442SOL    HW133962   1.949   3.412  16.656 -0.5333 -1.6676 -0.2569
 7442SOL    HW233963   2.004   3.303  16.590  0.8613  0.2511  0.7986
 7443SOL     OW33964   0.645   1.468   6.922 -0.5056  0.1361  0.5712
 7443SOL    HW133965   0.611   1.439   7.006  0.1233  1.7733  1.3746
 7443SOL    HW233966   0.586   1.543   6.916  0.7067  1.1333  1.1548
 7444SOL     OW33967   0.202   1.477   8.865 -0.0823  0.0122  0.0242
 7444SOL    HW133968   0.286   1.436   8.847 -0.2571  0.4312 -1.8313
 7444SOL    HW233969   0.194   1.469   8.960  0.0976  0.6397  0.0913
 7445SOL     OW33970   3.283   1.928   8.904  0.0887 -0.0170  0.0698
 7445SOL    HW133971   3.191   1.911   8.884  0.0623  2.9866 -2.2746
 7445SOL    HW233972   3.335   1.866   8.853  1.5886  2.5267 -1.5307
 7446SOL     OW33973   3.852   0.083   4.048 -0.0673 -0.4660 -0.0026
 7446SOL    HW133974   3.829   0.064   4.139  4.3070  0.0600  1.2007
 7446SOL    HW233975   3.798   0.158   4.023  1.5599  0.5621 -0.3744
 7447SOL     OW33976   1.208   0.892  13.512 -0.4699  0.0081  0.1081
 7447SOL    HW133977   1.220   0.816  13.454 -0.3783 -0.9090  1.3251
 7447SOL    HW233978   1.113   0.889  13.511 -0.4797  0.3260  0.0420
 7448SOL     OW33979   1.634   1.053  11.740 -0.2070  0.8019  0.4119
 7448SOL    HW133980   1.707   1.016  11.689 -0.2124  2.2111 -0.6039
 7448SOL    HW233981   1.555   1.026  11.694  0.4217 -0.8209  0.2620
 7449SOL     OW33982   3.353   4.650   2.617  0.5771 -0.1934 -0.4181
 7449SOL    HW133983   3.444   4.627   2.632  0.7944  2.1222  1.7911
 7449SOL    HW233984   3.325   4.624   2.705 -0.0394  0.8217 -0.3153
 7450SOL     OW33985   1.818   3.492   3.155  0.4164  0.0668  0.0439
 7450SOL    HW133986   1.758   3.508   3.229  1.1398 -0.5345  0.7604
 7450SOL    HW233987   1.776   3.428   3.098  1.8460  0.3548 -1.3300
 7451SOL     OW33988   4.708   3.485   1.365  0.4165  0.1644  0.0090
 7451SOL    HW133989   0.007   3.397   1.350 -1.0240 -0.7303  1.9547
 7451SOL    HW233990   4.717   3.522   1.277  1.3003 -0.7681 -0.2886
 7452SOL     OW33991   0.558   4.499   2.025 -0.2860  0.1293  0.7827
 7452SOL    HW133992   0.500   4.575   2.034  0.9438  1.2811 -1.0364
 7452SOL    HW233993   0.616   4.517   2.099 -0.8267 -0.9086  1.4671
 7453SOL     OW33994   3.790   0.520  11.837  0.3057 -0.4180 -0.0486
 7453SOL    HW133995   3.711   0.553  11.794 -0.9472 -0.4644  2.1786
 7453SOL    HW233996   3.802   0.584  11.908 -1.3477  1.2094 -1.2220
 7454SOL     OW33997   1.931   0.720   6.040 -0.1109 -0.0700 -0.4517
 7454SOL    HW133998   1.925   0.808   6.001 -0.5334 -0.8297 -2.0747
 7454SOL    HW233999   1.987   0.730   6.117  0.0849  3.5022 -1.0252
 7455SOL     OW34000   1.330   0.365   4.989  0.1775 -0.2543  0.5020
 7455SOL    HW134001   1.344   0.457   4.964 -2.9319  0.3560  0.9844
 7455SOL    HW234002   1.388   0.355   5.064  2.7907  0.2993 -1.4242
 7456SOL     OW34003   1.152   3.179  17.733  0.0966  0.1356 -0.1425
 7456SOL    HW134004   1.155   3.148  17.642 -0.9188  1.1403 -0.5191
 7456SOL    HW234005   1.232   3.141   0.027 -0.0912  1.2044  1.4112
 7457SOL     OW34006   3.923   0.146  13.607 -0.3641 -0.2000 -0.4579
 7457SOL    HW134007   3.901   0.194  13.686  1.3292  0.1599 -0.2062
 7457SOL    HW234008   3.967   0.216  13.560 -0.1921  0.2257  0.3325
 7458SOL     OW34009   0.445   3.539   8.926 -0.3428 -0.0044  0.4344
 7458SOL    HW134010   0.434   3.577   9.013  3.3382  0.6472  0.5859
 7458SOL    HW234011   0.387   3.463   8.936  2.6047 -2.2698  0.1625
 7459SOL     OW34012   2.468   2.249  11.716 -0.3343  0.3884 -0.0910
 7459SOL    HW134013   2.458   2.279  11.806  3.1594  0.9209  0.1188
 7459SOL    HW234014   2.543   2.192  11.731 -0.1013  0.2786 -1.7339
 7460SOL     OW34015   0.837   3.857   2.315  0.0833  0.1096  0.2932
 7460SOL    HW134016   0.799   3.793   2.255  0.3310  0.6856 -0.4852
 7460SOL    HW234017   0.920   3.818   2.341  0.1498 -0.0261 -0.1271
 7461SOL     OW34018   1.243   2.222  12.656 -0.1733 -0.0992 -0.0100
 7461SOL    HW134019   1.262   2.304  12.611  2.0976 -1.0275 -0.7571
 7461SOL    HW234020   1.321   2.168  12.647 -1.0215 -1.1900 -0.8245
 7462SOL     OW34021   1.775   3.315   6.338 -0.1828 -0.1963 -0.2582
 7462SOL    HW134022   1.781   3.293   6.431 -1.4128  1.7945  0.2901
 7462SOL    HW234023   1.731   3.399   6.343  1.2432  0.4702  1.0117
 7463SOL     OW34024   3.186   2.871   5.213  0.1573 -0.1802  0.1188
 7463SOL    HW134025   3.153   2.923   5.286 -3.0737 -0.0234 -1.4721
 7463SOL    HW234026   3.134   2.909   5.143 -1.2975 -1.1294  0.6692
 7464SOL     OW34027   0.708   2.919   6.326  0.0288 -0.0707 -0.0467
 7464SOL    HW134028   0.620   2.942   6.354 -0.3819 -3.4441  1.3840
 7464SOL    HW234029   0.693   2.825   6.314  0.8318 -0.2375  0.2766
 7465SOL     OW34030   3.125   4.541   9.131  0.6074 -0.2113 -0.2862
 7465SOL    HW134031   3.156   4.626   9.162  0.5225 -0.7508  1.2807
 7465SOL    HW234032   3.132   4.501   9.217 -1.0464 -1.1481 -0.5900
 7466SOL     OW34033   1.672   3.072   6.263  0.2181 -0.2284  0.3431
 7466SOL    HW134034   1.676   3.074   6.168 -2.5547  0.0878  0.2511
 7466SOL    HW234035   1.721   3.153   6.279 -1.0830  0.4575  0.8820
 7467SOL     OW34036   2.550   2.656   5.003 -0.2618  0.1375  0.4294
 7467SOL    HW134037   2.569   2.574   4.956  1.3082  1.1493 -0.6795
 7467SOL    HW234038   2.563   2.722   4.935  2.6787  0.5168  1.4034
 7468SOL     OW34039   4.662   0.388   7.746  0.0402 -0.2238  0.2776
 7468SOL    HW134040   4.662   0.292   7.750  1.4257 -0.2190  0.7323
 7468SOL    HW234041   4.633   0.395   7.656 -2.6813 -1.3261  1.0915
 7469SOL     OW34042   2.533   4.129  16.498 -0.1732 -0.1648  0.3980
 7469SOL    HW134043   2.522   4.219  16.469  0.4962 -0.7634 -1.6876
 7469SOL    HW234044   2.445   4.098  16.517 -0.8777  1.9226  0.5071
 7470SOL     OW34045   4.502   0.499   5.455 -0.3918  0.4354  0.1770
 7470SOL    HW134046   4.501   0.497   5.550 -1.9229 -1.0146  0.1251
 7470SOL    HW234047   4.551   0.423   5.424  0.3064  2.2330 -3.1138
 7471SOL     OW34048   3.166   3.289  16.909  0.4487 -0.0559  0.2629
 7471SOL    HW134049   3.258   3.261  16.913  0.5185  0.0035 -1.0313
 7471SOL    HW234050   3.151   3.272  16.816 -0.6974 -1.7684  0.7588
 7472SOL     OW34051   0.622   0.587  15.901 -0.1407  0.0266  0.1358
 7472SOL    HW134052   0.635   0.493  15.898  0.7983  0.1803 -1.0084
 7472SOL    HW234053   0.706   0.622  15.869  0.1790 -1.2663 -0.4272
 7473SOL     OW34054   3.501   3.479   5.266  0.5009  0.3002  0.1635
 7473SOL    HW134055   3.485   3.384   5.265  4.0444 -0.2832  0.4659
 7473SOL    HW234056   3.593   3.482   5.291  0.3249  0.1479  0.8156
 7474SOL     OW34057   1.777   2.715   2.700 -0.0722 -0.4461  0.1134
 7474SOL    HW134058   1.806   2.802   2.728  2.5515 -1.3346  0.1342
 7474SOL    HW234059   1.809   2.693   2.613 -1.7581 -0.2887 -0.5450
 7475SOL     OW34060   4.519   3.998   6.058 -0.1756  0.0823 -0.3093
 7475SOL    HW134061   4.428   3.994   6.087  0.2875 -1.3000  0.9809
 7475SOL    HW234062   4.517   3.998   5.962  1.4237  1.2751 -0.3394
 7476SOL     OW34063   4.131   2.314  15.864  0.0348 -0.1126  0.3963
 7476SOL    HW134064   4.198   2.269  15.813 -0.8423 -1.3407  0.3264
 7476SOL    HW234065   4.052   2.262  15.848  0.5540 -0.2347 -1.7624
 7477SOL     OW34066   3.704   0.629   1.375  0.0126  0.0472  0.4009
 7477SOL    HW134067   3.787   0.660   1.340 -0.4158 -0.7486 -1.3197
 7477SOL    HW234068   3.654   0.611   1.296  0.3807 -3.0345  0.8609
 7478SOL     OW34069   3.211   4.451  15.640 -0.3126  0.7542  0.2489
 7478SOL    HW134070   3.169   4.460  15.555  0.8760 -0.7006 -0.4777
 7478SOL    HW234071   3.303   4.459  15.615 -0.2723  0.7622  0.3974
 7479SOL     OW34072   2.764   1.392   8.839 -0.1109  0.0200 -0.4315
 7479SOL    HW134073   2.749   1.395   8.744  0.8715  0.2220 -0.5787
 7479SOL    HW234074   2.788   1.483   8.857 -1.0306  0.2262 -0.2292
 7480SOL     OW34075   2.044   2.074   2.936 -0.5227  0.3720  0.4456
 7480SOL    HW134076   2.108   2.004   2.927  1.5078  2.2663  0.1112
 7480SOL    HW234077   1.973   2.019   2.969 -1.1086  0.3894 -0.7999
 7481SOL     OW34078   3.774   0.480  16.267  0.6223 -0.2617 -0.4128
 7481SOL    HW134079   3.823   0.398  16.276 -0.9229 -1.2413 -0.8334
 7481SOL    HW234080   3.796   0.527  16.348 -2.7315 -2.7878  1.9578
 7482SOL     OW34081   2.107   2.661   6.413  0.0099  0.3047  0.1255
 7482SOL    HW134082   2.079   2.738   6.363 -1.9173 -0.6509 -0.2863
 7482SOL    HW234083   2.107   2.710   6.495 -1.0784  2.7188 -1.3155
 7483SOL     OW34084   4.603   1.181   3.151 -0.3043 -0.1531 -0.1189
 7483SOL    HW134085   4.614   1.107   3.210 -1.5475  1.2504  1.8467
 7483SOL    HW234086   4.519   1.162   3.109 -0.4669 -0.7327  0.4666
 7484SOL     OW34087   3.203   2.091   6.214 -0.3116  0.2302 -0.2326
 7484SOL    HW134088   3.207   2.185   6.233  1.8334 -0.0831  0.8960
 7484SOL    HW234089   3.261   2.076   6.139  1.3512  0.7980  0.9325
 7485SOL     OW34090   4.091   3.080  13.463 -0.2507 -0.0058  0.2008
 7485SOL    HW134091   4.018   3.031  13.424 -0.2972 -0.7091  1.1661
 7485SOL    HW234092   4.147   3.079  13.385 -0.2054 -1.8014  0.2470
 7486SOL     OW34093   1.713   1.305   1.382 -0.2756  0.0712 -0.1370
 7486SOL    HW134094   1.687   1.316   1.291 -0.3119 -0.6184 -0.2091
 7486SOL    HW234095   1.656   1.372   1.419 -1.7190  0.1357 -2.5031
 7487SOL     OW34096   0.387   3.954  14.988 -0.1419 -0.1268 -0.5685
 7487SOL    HW134097   0.445   3.915  14.922 -0.9555 -0.0676 -1.3126
 7487SOL    HW234098   0.433   3.917  15.064  0.9519  0.0213 -1.1545
 7488SOL     OW34099   4.037   3.127   6.892 -0.2729  0.2379 -0.1600
 7488SOL    HW134100   4.105   3.169   6.839 -1.2316 -0.3820 -1.8682
 7488SOL    HW234101   3.960   3.180   6.871 -1.2847 -0.9582  0.5283
 7489SOL     OW34102   4.547   4.688   8.115 -0.5832 -0.5237 -0.0689
 7489SOL    HW134103   4.543   4.610   8.059 -0.2344 -1.3430  1.0520
 7489SOL    HW234104   4.482   0.007   8.070 -0.1830  0.1216  0.1461
 7490SOL     OW34105   4.527   2.366   8.713  0.3157 -0.1958 -1.0039
 7490SOL    HW134106   4.540   2.416   8.632  2.8072  2.8287  1.2617
 7490SOL    HW234107   4.436   2.341   8.696  0.6617 -0.6896 -2.1195
 7491SOL     OW34108   2.912   0.353   1.609  0.5252  0.0594 -0.5670
 7491SOL    HW134109   2.853   0.413   1.655 -1.0501 -1.4936 -0.5563
 7491SOL    HW234110   2.953   0.294   1.671  0.6277  2.5963  1.7838
 7492SOL     OW34111   1.668   0.294   8.624  0.0217  0.2905  0.3487
 7492SOL    HW134112   1.758   0.285   8.657 -0.0936  0.8534  0.8063
 7492SOL    HW234113   1.631   0.210   8.652 -2.9623  1.7317  0.6961
 7493SOL     OW34114   0.332   2.317   4.143  0.1316  0.5772  0.4615
 7493SOL    HW134115   0.379   2.235   4.161  0.9143  1.1376  0.9814
 7493SOL    HW234116   0.365   2.339   4.055 -4.3000  3.1735 -0.5826
 7494SOL     OW34117   4.160   0.705   2.665 -0.2618  0.2441  0.2028
 7494SOL    HW134118   4.153   0.791   2.706  1.2306  0.1381  0.6768
 7494SOL    HW234119   4.219   0.712   2.590 -0.4310  0.1932  0.0634
 7495SOL     OW34120   3.564   0.024  14.885 -0.1514  0.3674 -0.4952
 7495SOL    HW134121   3.582   0.103  14.835 -1.5892  0.2720 -1.1650
 7495SOL    HW234122   3.523   0.051  14.968 -2.1138  0.5684 -1.5347
 7496SOL     OW34123   4.396   4.572   5.671 -0.0948  0.1491 -0.0153
 7496SOL    HW134124   4.414   4.481   5.693  1.2199  0.1897 -0.8917
 7496SOL    HW234125   4.472   4.583   5.613 -0.0173  1.2141  0.2799
 7497SOL     OW34126   0.393   1.405  15.476  0.3247  0.8407 -0.0045
 7497SOL    HW134127   0.303   1.373  15.472  0.5256  0.5079 -1.6865
 7497SOL    HW234128   0.385   1.473  15.410  0.1489  0.2208 -0.6269
 7498SOL     OW34129   3.516   4.046  14.176 -0.3695 -0.0913  0.3337
 7498SOL    HW134130   3.611   4.051  14.188 -0.3589  1.4167 -0.3428
 7498SOL    HW234131   3.512   4.044  14.080  0.2098  0.7496  0.2924
 7499SOL     OW34132   0.490   0.930   3.280  0.0768 -0.3935 -0.3125
 7499SOL    HW134133   0.544   0.951   3.203  0.0418 -2.2276 -0.8405
 7499SOL    HW234134   0.417   0.981   3.245 -0.5763 -0.1311  1.4644
 7500SOL     OW34135   1.919   4.337   6.796  0.1572  0.0866 -0.3375
 7500SOL    HW134136   1.866   4.260   6.818  0.1102 -0.1992 -1.4786
 7500SOL    HW234137   2.006   4.326   6.834 -1.0767 -3.1398  1.6389
 7501SOL     OW34138   2.753   2.762   2.588  0.1256  0.9608  0.1346
 7501SOL    HW134139   2.763   2.849   2.627  1.3743  0.8918 -0.0548
 7501SOL    HW234140   2.665   2.763   2.550 -1.1374  0.9809  3.1033
 7502SOL     OW34141   2.408   3.088   5.336  0.0477 -0.3253 -0.2964
 7502SOL    HW134142   2.441   2.999   5.331  1.6577  0.4589 -3.4038
 7502SOL    HW234143   2.348   3.103   5.263  1.8685 -2.0972 -2.1170
 7503SOL     OW34144   4.258   1.550   4.238 -0.5032  0.0790  0.9019
 7503SOL    HW134145   4.349   1.573   4.254 -0.2777 -1.3514  1.6918
 7503SOL    HW234146   4.233   1.640   4.258 -1.2025 -0.2543  1.5490
 7504SOL     OW34147   1.584   1.207   4.468  0.1557 -0.5201  0.1409
 7504SOL    HW134148   1.554   1.266   4.400  0.5484  2.2450  2.3614
 7504SOL    HW234149   1.516   1.141   4.480  2.2677 -2.4108  1.7150
 7505SOL     OW34150   2.964   3.044   7.522  0.2298  1.0408 -0.7457
 7505SOL    HW134151   3.033   3.027   7.587 -0.5504 -2.1020 -0.7432
 7505SOL    HW234152   3.003   3.012   7.441 -1.2637 -0.8180 -0.7167
 7506SOL     OW34153   1.020   0.201   6.401  0.0837  0.5125  0.2064
 7506SOL    HW134154   1.050   0.119   6.361  1.2550  1.2525 -0.4391
 7506SOL    HW234155   1.040   0.176   6.491  1.8152 -0.8090 -0.5327
 7507SOL     OW34156   1.928   4.055   1.183 -0.0179 -0.6048  0.3931
 7507SOL    HW134157   1.963   4.044   1.272 -1.6256 -2.2032  0.8454
 7507SOL    HW234158   2.014   4.064   1.142  1.2303  0.1347  3.1551
 7508SOL     OW34159   3.937   4.255   8.261  0.1046  0.0448 -0.0340
 7508SOL    HW134160   3.937   4.195   8.187  0.8038 -0.5114  0.4196
 7508SOL    HW234161   4.012   4.229   8.314  1.0782  1.6640 -0.6090
 7509SOL     OW34162   1.307   2.450   7.806 -0.1191  0.2592 -0.3252
 7509SOL    HW134163   1.341   2.529   7.764 -0.5306  0.1336 -0.8985
 7509SOL    HW234164   1.356   2.472   7.886  0.0090  0.9872 -0.6084
 7510SOL     OW34165   3.823   1.782   3.671 -0.3590  0.0783  0.2087
 7510SOL    HW134166   3.731   1.808   3.662 -0.2512  0.7322  0.9906
 7510SOL    HW234167   3.822   1.712   3.737 -0.2814  1.0553  1.2353
 7511SOL     OW34168   1.831   4.468   5.286  0.4812  0.1184 -0.4443
 7511SOL    HW134169   1.791   4.386   5.256 -1.0207  0.8516 -0.4714
 7511SOL    HW234170   1.905   4.441   5.341 -0.3094  0.8757  1.0130
 7512SOL     OW34171   3.441   3.422   2.218  0.3549 -0.4224  0.3310
 7512SOL    HW134172   3.536   3.420   2.208  0.4383 -1.6913  1.2919
 7512SOL    HW234173   3.410   3.331   2.215  0.0888 -0.3198 -0.0748
 7513SOL     OW34174   4.303   1.866   5.586  0.8221 -0.2081 -0.9277
 7513SOL    HW134175   4.371   1.799   5.577  1.9521  0.7934  0.1694
 7513SOL    HW234176   4.218   1.823   5.602  1.5226 -0.8107  1.1696
 7514SOL     OW34177   1.287   2.142   7.914 -0.1654  0.1721  0.3631
 7514SOL    HW134178   1.279   2.197   7.993 -0.1914  1.1042 -0.2842
 7514SOL    HW234179   1.313   2.053   7.936 -0.2826  0.4146  1.5140
 7515SOL     OW34180   0.837   2.541   7.950  0.1410  0.2469 -0.1170
 7515SOL    HW134181   0.863   2.623   7.992 -0.6179  0.2679  0.3244
 7515SOL    HW234182   0.901   2.545   7.880 -0.0120  0.0878 -0.2659
 7516SOL     OW34183   3.484   4.696   1.442 -0.8699  0.0628 -0.0792
 7516SOL    HW134184   3.521   4.625   1.391  0.9751  0.3921  0.8102
 7516SOL    HW234185   3.475   4.644   1.522  0.7447 -0.6549 -0.3738
 7517SOL     OW34186   2.626   4.397  14.873  0.1580 -0.4134  0.1081
 7517SOL    HW134187   2.614   4.488  14.898  2.0973  0.2708 -1.4617
 7517SOL    HW234188   2.583   4.363  14.952  0.4384 -0.1811  0.3599
 7518SOL     OW34189   2.965   3.670   3.175 -0.1519 -0.2127 -0.1722
 7518SOL    HW134190   2.923   3.713   3.249 -3.1305 -0.7512 -1.5479
 7518SOL    HW234191   3.050   3.645   3.211 -1.2104 -4.3507 -0.5765
 7519SOL     OW34192   2.816   4.458   4.417 -0.4586  0.5165 -0.0569
 7519SOL    HW134193   2.871   4.525   4.456  0.8206  1.5823 -3.6134
 7519SOL    HW234194   2.878   4.411   4.360  0.6531  1.3212  0.4937
 7520SOL     OW34195   2.851   1.212   4.401 -0.1946  0.1528  0.0608
 7520SOL    HW134196   2.837   1.139   4.341  2.3802 -0.4103  0.1342
 7520SOL    HW234197   2.763   1.249   4.407  0.0332  0.7154 -0.0066
 7521SOL     OW34198   1.500   2.180   0.333  0.1803 -0.2395 -0.8298
 7521SOL    HW134199   1.419   2.230   0.324  0.0574 -0.7434 -2.6806
 7521SOL    HW234200   1.481   2.121   0.406 -0.6832 -0.0798 -0.9276
 7522SOL     OW34201   3.066   4.055  14.267  0.5263 -0.0854  0.0570
 7522SOL    HW134202   3.155   4.086  14.287 -0.1301 -0.0541  3.0017
 7522SOL    HW234203   3.068   3.966  14.233 -0.0056  0.4318 -1.3124
 7523SOL     OW34204   4.102   0.420   8.000  0.1936  0.3261  0.0718
 7523SOL    HW134205   4.111   0.349   7.937  0.8499  3.5415 -3.4483
 7523SOL    HW234206   4.039   0.371   8.052  0.2460 -0.3585 -0.5258
 7524SOL     OW34207   4.160   2.372   7.535  0.3804 -0.2644 -0.6483
 7524SOL    HW134208   4.086   2.428   7.556  1.0159 -0.2607  1.5880
 7524SOL    HW234209   4.119   2.292   7.502  2.9798 -1.0840 -1.8768
 7525SOL     OW34210   1.258   4.443   9.876 -0.0095 -0.3838  0.5542
 7525SOL    HW134211   1.276   4.365   9.824 -0.3497  1.2051 -1.9499
 7525SOL    HW234212   1.306   4.504   9.819 -0.1358 -0.2340  0.6100
 7526SOL     OW34213   0.787   3.752   6.381  0.3377 -0.5757  0.0815
 7526SOL    HW134214   0.806   3.828   6.435  1.0801 -0.5881 -0.1650
 7526SOL    HW234215   0.711   3.724   6.433  0.9869 -1.6343  0.4543
 7527SOL     OW34216   2.461   3.298   7.350 -0.2748  0.0904  0.2047
 7527SOL    HW134217   2.484   3.390   7.342 -0.5506  0.0992 -0.5051
 7527SOL    HW234218   2.415   3.276   7.269 -0.6812 -0.0003  0.4571
 7528SOL     OW34219   0.495   3.131  15.632 -0.3575  0.1855  0.0801
 7528SOL    HW134220   0.513   3.065  15.700  1.2295 -2.7361 -3.1821
 7528SOL    HW234221   0.460   3.070  15.567 -0.3186 -0.4198  0.6263
 7529SOL     OW34222   0.179   2.247  13.723  0.1536  0.0174  0.1410
 7529SOL    HW134223   0.168   2.339  13.745  0.4734  0.5725 -2.0233
 7529SOL    HW234224   0.267   2.227  13.755 -0.6590 -0.7770  1.8803
 7530SOL     OW34225   4.240   0.880   1.913  0.6010 -0.0342  0.1286
 7530SOL    HW134226   4.308   0.947   1.918  0.6895 -0.1397  0.3006
 7530SOL    HW234227   4.203   0.896   1.826  0.6158  0.3694  0.1975
 7531SOL     OW34228   3.948   3.190   3.498  0.0339  0.1027 -0.1340
 7531SOL    HW134229   3.998   3.264   3.464  0.6899 -0.0323  0.5308
 7531SOL    HW234230   4.018   3.146   3.547 -0.6545 -0.5363  0.2634
 7532SOL     OW34231   0.971   3.946   6.980 -0.2982 -0.0324 -0.1402
 7532SOL    HW134232   0.876   3.961   6.987 -0.3218 -0.0418 -0.4414
 7532SOL    HW234233   0.994   3.979   7.067 -0.1307  2.3292 -1.0964
 7533SOL     OW34234   4.622   3.484   5.219 -0.2110 -0.7133 -0.3679
 7533SOL    HW134235   4.690   3.527   5.271 -1.3630  1.7519 -0.8940
 7533SOL    HW234236   4.568   3.441   5.286 -1.0808  0.2782 -0.4317
 7534SOL     OW34237   3.579   4.382  17.090  0.1621  0.3286 -0.2230
 7534SOL    HW134238   3.567   4.437  17.013  3.1898 -0.3231 -1.1969
 7534SOL    HW234239   3.531   4.418  17.164 -1.0958 -1.2673 -0.2648
 7535SOL     OW34240   0.545   0.366   4.827 -0.1980 -0.8500  0.1896
 7535SOL    HW134241   0.493   0.307   4.881 -3.6880  2.8616  0.9037
 7535SOL    HW234242   0.496   0.445   4.848 -1.3406 -1.3424 -0.6459
 7536SOL     OW34243   1.921   4.369   1.651 -0.4056  0.2793  0.1533
 7536SOL    HW134244   2.000   4.318   1.669 -1.4979 -1.2668  0.5456
 7536SOL    HW234245   1.854   4.305   1.674 -0.8446  0.3987 -0.8133
 7537SOL     OW34246   2.470   1.427  10.224 -0.0905 -0.1317 -0.0302
 7537SOL    HW134247   2.401   1.385  10.275  1.1972 -1.5438  0.5535
 7537SOL    HW234248   2.505   1.346  10.188 -1.7377  0.6224 -3.3714
 7538SOL     OW34249   2.363   1.518   4.706 -0.0677  0.2921  0.3140
 7538SOL    HW134250   2.317   1.556   4.631  0.8075  1.8975  0.5885
 7538SOL    HW234251   2.436   1.578   4.720 -1.2896  1.8364 -0.0125
 7539SOL     OW34252   0.628   3.452   6.988  0.6089  0.0500 -0.8584
 7539SOL    HW134253   0.617   3.445   7.082 -1.4803  0.6763 -1.0462
 7539SOL    HW234254   0.577   3.376   6.960  0.1376  1.0400 -2.7550
 7540SOL     OW34255   1.853   2.991   8.643  0.4659 -0.2502 -0.2495
 7540SOL    HW134256   1.825   3.043   8.719 -0.1267 -0.3258 -0.4191
 7540SOL    HW234257   1.914   2.924   8.675 -0.3230 -0.3852  0.9819
 7541SOL     OW34258   0.430   4.303   7.053 -0.4234 -0.1507 -0.2801
 7541SOL    HW134259   0.339   4.282   7.030 -0.5737  0.1068  0.0827
 7541SOL    HW234260   0.419   4.396   7.074  1.8295  0.2505 -0.8898
 7542SOL     OW34261   3.784   4.356  11.433 -0.2480 -0.1236 -0.0552
 7542SOL    HW134262   3.853   4.316  11.486  0.4567  2.9952  1.3916
 7542SOL    HW234263   3.724   4.401  11.493 -0.1305 -1.3560  0.9642
 7543SOL     OW34264   1.375   4.679   4.606 -0.1367 -0.1317  0.5716
 7543SOL    HW134265   1.399   0.021   4.554  3.0890 -1.1489  0.5509
 7543SOL    HW234266   1.287   4.703   4.635  0.8573  1.8910  1.8944
 7544SOL     OW34267   3.957   2.232   4.697 -0.3536  1.2918  0.0149
 7544SOL    HW134268   4.001   2.166   4.751  0.0880  1.1951 -0.4698
 7544SOL    HW234269   3.882   2.179   4.668 -0.8031  1.1364  1.4242
 7545SOL     OW34270   3.408   3.533   3.184  0.5664 -0.1518  0.3670
 7545SOL    HW134271   3.388   3.440   3.194 -0.4847  0.4422  4.0222
 7545SOL    HW234272   3.343   3.558   3.119  0.9036 -0.5871 -0.1320
 7546SOL     OW34273   0.199   4.216   4.627  0.4824 -0.2707 -0.6535
 7546SOL    HW134274   0.228   4.131   4.660  0.8370 -1.4764 -4.1156
 7546SOL    HW234275   0.135   4.255   4.687  1.0509  1.6283 -1.2802
 7547SOL     OW34276   2.636   3.336  15.788 -0.4656 -0.1421  0.0260
 7547SOL    HW134277   2.621   3.427  15.760  0.1408 -0.7276 -2.1992
 7547SOL    HW234278   2.547   3.325  15.820  0.4199  0.2532  2.5973
 7548SOL     OW34279   4.131   3.408   6.192  0.1334  0.0854 -0.2414
 7548SOL    HW134280   4.094   3.426   6.105  2.1121 -1.1599 -1.3552
 7548SOL    HW234281   4.063   3.350   6.228  0.4631  0.6990  1.3320
 7549SOL     OW34282   0.169   2.229   6.000  0.0799 -0.3091 -0.5401
 7549SOL    HW134283   0.089   2.177   5.988 -0.4948  0.6055 -0.6766
 7549SOL    HW234284   0.143   2.316   5.971 -1.1735 -0.4443  0.1706
 7550SOL     OW34285   3.130   3.418  15.173  0.2699 -0.3496 -0.3073
 7550SOL    HW134286   3.211   3.376  15.144  0.0383  0.1469 -1.6533
 7550SOL    HW234287   3.082   3.337  15.192  1.3193 -1.1003 -0.8192
 7551SOL     OW34288   0.377   3.661  14.847 -0.2784 -0.5358  0.3035
 7551SOL    HW134289   0.289   3.682  14.815 -0.2046 -0.9201 -0.1667
 7551SOL    HW234290   0.429   3.740  14.836  0.4522 -0.9965  0.5049
 7552SOL     OW34291   2.190   3.690   6.176  0.6918 -0.1450  0.3382
 7552SOL    HW134292   2.146   3.693   6.091  0.6361  2.1877  0.4431
 7552SOL    HW234293   2.127   3.630   6.216 -0.4165  0.1183 -1.0197
 7553SOL     OW34294   4.098   3.765   7.151 -0.0069 -0.2172 -0.4376
 7553SOL    HW134295   4.059   3.686   7.189  0.4097 -0.4026 -0.3966
 7553SOL    HW234296   4.079   3.837   7.211  3.2782  0.0018  0.3452
 7554SOL     OW34297   1.175   4.093   8.512 -0.1965  0.8813  0.2118
 7554SOL    HW134298   1.084   4.096   8.542  0.2431 -2.1561  1.9370
 7554SOL    HW234299   1.197   4.184   8.497 -1.1299  0.5997 -2.7435
 7555SOL     OW34300   1.583   0.531   3.060 -0.4154  0.1473 -0.0837
 7555SOL    HW134301   1.649   0.495   3.119 -0.4701 -1.0365 -0.7612
 7555SOL    HW234302   1.614   0.493   2.978  2.1687 -1.1185  1.4886
 7556SOL     OW34303   2.757   3.532   5.560 -0.2718  0.5176  0.4519
 7556SOL    HW134304   2.731   3.467   5.625 -0.0773 -1.6307 -1.5989
 7556SOL    HW234305   2.755   3.616   5.605 -0.3299  0.9895 -0.4157
 7557SOL     OW34306   0.716   2.831   9.507  0.1911 -0.1467 -0.0376
 7557SOL    HW134307   0.694   2.907   9.560 -0.4487 -0.5635  0.2873
 7557SOL    HW234308   0.642   2.771   9.507 -1.3483  1.7503 -2.1642
 7558SOL     OW34309   3.829   2.891   6.438 -0.0820 -0.0313 -0.1404
 7558SOL    HW134310   3.816   2.831   6.511  3.2551 -0.7968 -0.2000
 7558SOL    HW234311   3.881   2.838   6.378 -1.9839 -0.4917 -1.3931
 7559SOL     OW34312   2.331   2.038  16.897  0.1681  0.4623  0.2983
 7559SOL    HW134313   2.280   1.974  16.946  1.7927 -0.7550  0.3975
 7559SOL    HW234314   2.402   2.056  16.959  0.2142  0.8596  0.1316
 7560SOL     OW34315   4.492   3.695   2.611  0.3384  0.1635  0.5584
 7560SOL    HW134316   4.399   3.718   2.613  0.0065 -0.7972 -3.3357
 7560SOL    HW234317   4.481   3.610   2.570  0.4015  1.4571 -2.1645
 7561SOL     OW34318   1.752   1.888   7.274  0.5142  0.4802  0.4865
 7561SOL    HW134319   1.705   1.807   7.255 -2.6394  2.8224 -1.6273
 7561SOL    HW234320   1.760   1.890   7.370 -0.2661  3.6945  0.4750
 7562SOL     OW34321   2.357   4.439   7.651 -0.1420 -0.1949  0.1271
 7562SOL    HW134322   2.327   4.354   7.621  0.1106 -0.9317  1.9597
 7562SOL    HW234323   2.286   4.476   7.703  1.0447 -0.8782  2.2460
 7563SOL     OW34324   1.198   0.079  14.006 -0.2575  0.1083 -0.2858
 7563SOL    HW134325   1.152   0.160  13.986 -0.0547 -0.0180 -1.2823
 7563SOL    HW234326   1.129   0.013  14.004 -3.2167  3.1864  1.0147
 7564SOL     OW34327   0.417   4.219   6.263  0.3086  0.1995 -0.5471
 7564SOL    HW134328   0.425   4.129   6.296 -1.4759  0.8477  1.6039
 7564SOL    HW234329   0.332   4.247   6.295  1.1439  0.7859  1.1694
 7565SOL     OW34330   1.508   2.795   4.449  0.0438  0.2261  0.0684
 7565SOL    HW134331   1.445   2.733   4.413 -0.3094  0.8213 -0.3265
 7565SOL    HW234332   1.588   2.774   4.399  0.4804 -0.4658  1.0441
 7566SOL     OW34333   1.702   3.578  14.728 -0.2054  0.2257 -0.1119
 7566SOL    HW134334   1.629   3.549  14.673 -0.4437 -1.2538  0.9683
 7566SOL    HW234335   1.663   3.550  14.811 -2.4649 -1.6851 -1.8129
 7567SOL     OW34336   1.312   3.187   2.833  0.2277 -0.3388  0.0255
 7567SOL    HW134337   1.258   3.261   2.804 -0.6435 -0.5409  1.1340
 7567SOL    HW234338   1.256   3.147   2.900  0.7822 -0.3669  0.4701
 7568SOL     OW34339   3.768   1.413   4.105 -0.0658 -0.5331 -0.3131
 7568SOL    HW134340   3.809   1.329   4.085  2.6527  0.1893  2.3820
 7568SOL    HW234341   3.799   1.429   4.194 -0.4409 -0.6617 -0.1576
 7569SOL     OW34342   4.383   0.856   3.477  0.1002 -0.1478  0.0847
 7569SOL    HW134343   4.451   0.838   3.412  0.6675  0.8244  0.4055
 7569SOL    HW234344   4.402   0.787   3.539  2.2199 -0.3174 -0.7442
 7570SOL     OW34345   4.507   3.992   2.443 -0.4289  0.1787 -0.0179
 7570SOL    HW134346   4.585   3.994   2.498 -0.3444 -0.4130 -0.1156
 7570SOL    HW234347   4.522   3.907   2.402  0.0944  0.4874 -0.4694
 7571SOL     OW34348   1.537   4.131   1.873  0.3876 -0.2005  0.0290
 7571SOL    HW134349   1.511   4.092   1.956 -0.6456 -3.6273 -1.9337
 7571SOL    HW234350   1.483   4.210   1.870 -0.0086 -0.3884  2.4257
 7572SOL     OW34351   1.860   1.794   3.522 -0.0365 -0.5009  0.0095
 7572SOL    HW134352   1.893   1.829   3.440 -0.6110 -1.9814 -0.8434
 7572SOL    HW234353   1.933   1.822   3.577 -1.2331  4.7073 -1.1131
 7573SOL     OW34354   2.415   4.231  15.519 -0.0596  1.0020  0.6172
 7573SOL    HW134355   2.397   4.140  15.542 -0.6953  0.8977 -0.2873
 7573SOL    HW234356   2.508   4.238  15.541  0.4337  1.1824 -1.4697
 7574SOL     OW34357   2.873   1.200   8.539 -0.5247  0.2591 -0.2710
 7574SOL    HW134358   2.778   1.205   8.548 -0.5813 -0.2647 -0.5697
 7574SOL    HW234359   2.888   1.111   8.509 -2.3957  0.5456 -2.0182
 7575SOL     OW34360   4.107   0.666   2.343 -0.4890 -0.3272 -0.8765
 7575SOL    HW134361   4.099   0.708   2.257 -1.7256 -0.6308 -0.9009
 7575SOL    HW234362   4.173   0.726   2.378 -0.3223 -0.2650 -1.2937
 7576SOL     OW34363   2.592   0.508   5.932  0.4525 -0.2288 -0.4992
 7576SOL    HW134364   2.649   0.451   5.881  1.0142  0.7088 -0.9134
 7576SOL    HW234365   2.652   0.576   5.961 -1.1009  1.7734 -2.0382
 7577SOL     OW34366   2.731   0.919   7.303  0.6681 -0.0485  0.6999
 7577SOL    HW134367   2.754   0.985   7.368 -0.6798  1.3809 -0.2753
 7577SOL    HW234368   2.817   0.910   7.264  0.8323  2.4759  0.4532
 7578SOL     OW34369   0.014   3.695   9.058  0.1434 -0.0072  0.1938
 7578SOL    HW134370   4.708   3.642   9.125 -0.7963 -0.0468 -0.4257
 7578SOL    HW234371   4.718   3.781   9.086 -0.0511 -0.0567  0.1255
 7579SOL     OW34372   1.341   4.147   7.040  0.5445  0.2937 -0.0551
 7579SOL    HW134373   1.303   4.116   7.122 -0.0345  0.0476 -0.4136
 7579SOL    HW234374   1.263   4.189   7.004  0.5107  0.0293 -0.2935
 7580SOL     OW34375   4.067   0.297   8.927 -0.4130 -0.5147 -0.1931
 7580SOL    HW134376   4.089   0.388   8.944 -1.5949 -0.3087  0.1626
 7580SOL    HW234377   3.982   0.303   8.884  0.8431  3.3551 -2.1108
 7581SOL     OW34378   2.812   3.655  15.462 -0.0958 -0.3533  0.0136
 7581SOL    HW134379   2.809   3.614  15.376 -0.4933 -0.9364  0.3069
 7581SOL    HW234380   2.763   3.733  15.434 -1.7219 -1.9954 -1.6439
 7582SOL     OW34381   3.220   3.410   5.428  0.4098 -0.9066  0.4338
 7582SOL    HW134382   3.215   3.377   5.517  0.2506  0.6120  0.9826
 7582SOL    HW234383   3.309   3.443   5.416  0.8951 -1.2976  3.0463
 7583SOL     OW34384   3.453   1.677   2.063 -0.3582  0.0347  0.2560
 7583SOL    HW134385   3.399   1.705   2.137 -1.7803 -1.4354 -0.2365
 7583SOL    HW234386   3.540   1.662   2.100  0.3397  0.6785 -1.1240
 7584SOL     OW34387   4.553   4.598   5.245 -0.2956 -0.1602  0.3914
 7584SOL    HW134388   4.531   4.600   5.152 -0.5387 -1.2418  0.4299
 7584SOL    HW234389   4.517   4.684   5.270 -1.0048 -0.0820 -0.9211
 7585SOL     OW34390   0.756   3.218   3.097 -0.4101  0.4033  0.3648
 7585SOL    HW134391   0.695   3.278   3.140  0.5331  1.2379  0.5439
 7585SOL    HW234392   0.752   3.144   3.157 -0.7281 -0.3606 -0.6020
 7586SOL     OW34393   0.949   3.291   2.604  0.3739  0.0373  0.0707
 7586SOL    HW134394   0.907   3.290   2.690  1.3665 -0.6448  0.5599
 7586SOL    HW234395   1.037   3.302   2.640  1.1527  0.9219 -2.1209
 7587SOL     OW34396   0.009   2.835   1.102 -0.2094 -0.2979 -0.0498
 7587SOL    HW134397   4.657   2.869   1.081  0.1829  0.3555 -0.6345
 7587SOL    HW234398   0.010   2.837   1.198 -0.6554 -0.3100 -0.0434
 7588SOL     OW34399   2.372   2.599   6.944  0.2525  0.0829  0.1701
 7588SOL    HW134400   2.383   2.610   6.850  2.3200 -0.6854  0.3262
 7588SOL    HW234401   2.315   2.522   6.940 -0.8393  0.9299 -0.5676
 7589SOL     OW34402   2.093   0.267   4.483  0.5589  0.1950  0.4036
 7589SOL    HW134403   2.157   0.282   4.414 -1.5140  1.1321 -1.2880
 7589SOL    HW234404   2.103   0.351   4.528 -1.3177  0.2317  0.7466
 7590SOL     OW34405   3.378   2.340  11.343  0.4002  0.2487  0.5956
 7590SOL    HW134406   3.399   2.247  11.340 -2.4201 -0.3317 -1.1221
 7590SOL    HW234407   3.285   2.328  11.324 -0.1598  1.7490  2.3515
 7591SOL     OW34408   4.661   2.489  14.670  0.7431 -0.3752  0.1122
 7591SOL    HW134409   4.651   2.490  14.765  0.9246 -1.2915  0.1429
 7591SOL    HW234410   4.599   2.418  14.649  0.1585  0.3267 -0.5145
 7592SOL     OW34411   2.107   4.376   7.392 -0.1286  0.1624  0.9024
 7592SOL    HW134412   2.127   4.302   7.450 -0.7241 -1.9573 -1.6190
 7592SOL    HW234413   2.023   4.408   7.426 -1.3656 -2.0033 -0.1259
 7593SOL     OW34414   1.362   0.037   3.944  0.3000 -0.2031 -0.0707
 7593SOL    HW134415   1.389   0.111   3.890 -1.2910 -0.9476 -1.9336
 7593SOL    HW234416   1.353   4.704   3.878 -3.2735  0.8298 -0.6635
 7594SOL     OW34417   2.083   0.507  14.196  0.2012  0.0433  0.0919
 7594SOL    HW134418   2.080   0.412  14.206  4.1975 -0.1244 -0.3579
 7594SOL    HW234419   2.171   0.528  14.228  0.7681 -0.7755 -0.9126
 7595SOL     OW34420   1.082   1.312  12.953  0.6129  0.1360 -0.1844
 7595SOL    HW134421   1.044   1.256  12.885 -1.5958 -0.3908  1.4887
 7595SOL    HW234422   1.045   1.396  12.925 -0.4110 -0.3012 -0.1304
 7596SOL     OW34423   0.870   0.102  10.369  0.3492 -0.3553 -0.3994
 7596SOL    HW134424   0.915   0.033  10.320  0.0775  0.7574 -2.1728
 7596SOL    HW234425   0.850   0.060  10.453  1.9958 -0.7760 -0.2113
 7597SOL     OW34426   2.980   1.411   2.514 -0.0149  0.5291 -0.0616
 7597SOL    HW134427   2.889   1.414   2.545 -0.5055  2.2596 -1.7126
 7597SOL    HW234428   2.973   1.316   2.509 -3.9990  0.7444  1.3027
 7598SOL     OW34429   4.466   0.569  16.229 -0.5304  0.1256 -0.0825
 7598SOL    HW134430   4.549   0.591  16.186  0.0605 -2.1234 -0.0885
 7598SOL    HW234431   4.455   0.486  16.183  2.1017 -0.4472  0.3121
 7599SOL     OW34432   2.207   3.869  12.470  0.1478  0.0633 -0.0346
 7599SOL    HW134433   2.184   3.792  12.417 -0.8586  1.6440 -1.8800
 7599SOL    HW234434   2.280   3.832  12.520  0.1167 -0.5440 -0.4340
 7600SOL     OW34435   3.612   0.469   6.218 -0.1941  0.2317 -0.0399
 7600SOL    HW134436   3.618   0.564   6.211  0.5937 -0.0773 -3.5813
 7600SOL    HW234437   3.549   0.458   6.290 -1.4879 -1.4252 -1.4112
 7601SOL     OW34438   0.113   0.571  14.221  0.1882  0.7080  0.0931
 7601SOL    HW134439   0.147   0.569  14.310 -1.6146  1.5878  0.7968
 7601SOL    HW234440   0.177   0.521  14.171 -1.3074 -1.9296  0.8382
 7602SOL     OW34441   0.629   1.615   3.549 -0.4071  0.2545  0.2085
 7602SOL    HW134442   0.675   1.532   3.565 -0.8183 -0.4593 -2.3400
 7602SOL    HW234443   0.560   1.587   3.489 -0.9511  0.8823  0.5532
 7603SOL     OW34444   3.017   3.438   3.876  0.0615  0.0434 -0.1335
 7603SOL    HW134445   3.095   3.387   3.853 -0.3684 -0.5352 -0.3170
 7603SOL    HW234446   2.955   3.414   3.808 -0.4368  0.6941  0.0958
 7604SOL     OW34447   3.102   1.159  11.692  0.0683 -0.1518 -0.1759
 7604SOL    HW134448   3.169   1.128  11.754 -0.8836 -0.9276  0.4639
 7604SOL    HW234449   3.068   1.075  11.663  1.4046 -0.2128 -1.5377
 7605SOL     OW34450   4.487   2.547   9.951 -0.2844 -0.1622  0.0807
 7605SOL    HW134451   4.458   2.614  10.013 -3.0600  0.4157 -1.8225
 7605SOL    HW234452   4.537   2.496  10.014 -0.0292 -2.0009 -1.5915
 7606SOL     OW34453   0.828   2.970  16.446  0.0580  0.7070 -0.0134
 7606SOL    HW134454   0.782   3.021  16.380 -0.2204 -1.3542 -1.4262
 7606SOL    HW234455   0.801   3.015  16.526 -0.8640 -0.3366  0.2729
 7607SOL     OW34456   3.280   1.999   2.576  0.7395 -0.5258  0.1260
 7607SOL    HW134457   3.225   1.972   2.649 -2.7330 -0.4964 -2.4914
 7607SOL    HW234458   3.306   2.086   2.606  0.1022  0.2397 -1.5218
 7608SOL     OW34459   1.070   0.352   2.658  0.4126  0.3806 -0.0630
 7608SOL    HW134460   0.976   0.365   2.646  0.5935  1.9912  0.3005
 7608SOL    HW234461   1.073   0.264   2.696  0.7275  0.5219  0.2401
 7609SOL     OW34462   3.433   0.062  17.697 -0.3921 -0.5668  0.3438
 7609SOL    HW134463   3.446   4.705  17.713 -1.5870 -0.8799 -0.4125
 7609SOL    HW234464   3.515   0.111  17.706 -0.8617 -0.4189  3.8789
 7610SOL     OW34465   4.437   3.224  11.627 -0.0744 -0.5866  0.0641
 7610SOL    HW134466   4.351   3.260  11.647  0.2235  0.1111  0.0995
 7610SOL    HW234467   4.483   3.265  11.701 -0.0281 -0.8049  0.1577
 7611SOL     OW34468   2.061   0.068   4.004 -0.5492  0.0651 -0.3173
 7611SOL    HW134469   2.079   0.048   4.095 -0.6316 -1.8483 -0.7038
 7611SOL    HW234470   2.112   4.734   3.962 -1.7895 -0.4514 -0.9825
 7612SOL     OW34471   1.151   2.779  11.961  0.2133 -0.4195  0.7500
 7612SOL    HW134472   1.239   2.815  11.956 -0.9313  2.5963  2.1940
 7612SOL    HW234473   1.133   2.760  11.869  0.2477  1.1073  0.4301
 7613SOL     OW34474   4.628   4.137   5.627 -0.1453  0.5813  0.5254
 7613SOL    HW134475   4.708   4.090   5.604  0.1452  1.0116  0.6551
 7613SOL    HW234476   4.656   4.169   5.713  0.4525  0.7770  0.2566
 7614SOL     OW34477   2.763   3.616   6.101 -0.0164 -0.1541 -0.1080
 7614SOL    HW134478   2.792   3.530   6.071 -1.3578 -0.0774 -1.5981
 7614SOL    HW234479   2.671   3.621   6.075 -0.2276  0.4567  0.7656
 7615SOL     OW34480   3.244   1.659   3.062  0.0325 -0.6284  0.2817
 7615SOL    HW134481   3.275   1.684   2.975  4.5730 -2.3793  1.3773
 7615SOL    HW234482   3.304   1.586   3.080  0.1468 -0.5656  0.1528
 7616SOL     OW34483   1.502   3.682   2.629 -0.6058  0.0374 -0.2527
 7616SOL    HW134484   1.415   3.672   2.666  0.6853 -0.8264  2.5256
 7616SOL    HW234485   1.559   3.695   2.705  0.9448  0.2891 -1.4445
 7617SOL     OW34486   0.843   3.798   5.672 -0.0444  0.0483 -0.4370
 7617SOL    HW134487   0.793   3.764   5.746 -0.2897  0.6281 -0.3351
 7617SOL    HW234488   0.897   3.720   5.661 -0.7600 -0.2707 -1.6254
 7618SOL     OW34489   0.316   4.635   8.773  0.0225 -0.0219 -0.0300
 7618SOL    HW134490   0.331   4.729   8.767 -1.2884  0.3142  1.8666
 7618SOL    HW234491   0.289   4.622   8.864  0.9438 -0.7613  0.1356
 7619SOL     OW34492   1.922   2.273   9.066  0.0678 -0.3384 -0.4159
 7619SOL    HW134493   1.941   2.194   9.016  2.2804  0.2135 -0.4471
 7619SOL    HW234494   1.828   2.275   9.048  0.3836  0.0759 -1.9622
 7620SOL     OW34495   3.419   0.814   0.404  0.1507  0.5193 -0.5685
 7620SOL    HW134496   3.337   0.864   0.403 -1.3580 -1.8930  1.1632
 7620SOL    HW234497   3.387   0.734   0.360 -0.3971  2.1969 -3.2471
 7621SOL     OW34498   0.675   3.416   6.692  0.8130 -0.6713 -0.7933
 7621SOL    HW134499   0.762   3.456   6.685 -0.0027  1.6980  2.3572
 7621SOL    HW234500   0.645   3.460   6.772  0.0884 -2.5992 -0.0036
 7622SOL     OW34501   2.074   0.193   8.492 -0.4090  0.4886 -0.0044
 7622SOL    HW134502   2.111   0.149   8.415 -1.6835 -2.7144  1.1917
 7622SOL    HW234503   2.075   0.288   8.478  0.4732  0.3393 -0.9305
 7623SOL     OW34504   4.121   1.130  16.980 -0.4435  0.2681 -0.0345
 7623SOL    HW134505   4.113   1.113  17.074 -0.7483  1.2980  0.1258
 7623SOL    HW234506   4.176   1.053  16.967  1.7662  1.9293 -0.6006
 7624SOL     OW34507   0.204   2.885   6.537 -0.5615 -0.1219  0.4049
 7624SOL    HW134508   0.292   2.922   6.536  0.1045 -1.7774 -1.5801
 7624SOL    HW234509   0.215   2.793   6.559  0.6521 -0.3660 -1.2033
 7625SOL     OW34510   0.795   3.530   3.109 -0.5897  0.0363  0.1734
 7625SOL    HW134511   0.718   3.514   3.164 -0.1993  1.9357  1.2433
 7625SOL    HW234512   0.800   3.625   3.116  2.4077 -0.1274  0.0135
 7626SOL     OW34513   4.735   1.112   2.409  0.1343  0.1589  0.3794
 7626SOL    HW134514   0.094   1.121   2.415 -0.0611  0.5281  2.7862
 7626SOL    HW234515   0.002   1.028   2.363 -0.8545  0.9331 -1.0941
 7627SOL     OW34516   0.683   3.224   8.878  0.0333 -0.7604  0.3914
 7627SOL    HW134517   0.600   3.179   8.894 -2.0310  4.0351  3.2958
 7627SOL    HW234518   0.685   3.234   8.783 -0.1709 -2.3985  0.2219
 7628SOL     OW34519   3.251   3.646   1.388  0.0913  0.6298 -0.4548
 7628SOL    HW134520   3.229   3.730   1.429 -1.3948  0.2867 -0.5608
 7628SOL    HW234521   3.174   3.633   1.333  0.2723  0.4979 -0.6805
 7629SOL     OW34522   0.849   2.265  15.751 -0.5313  0.2334  0.0739
 7629SOL    HW134523   0.810   2.348  15.722 -0.9769 -0.2063 -0.5751
 7629SOL    HW234524   0.886   2.236  15.668 -3.2100 -0.8338 -0.7623
 7630SOL     OW34525   0.347   0.183   8.785  0.1567 -0.0481 -0.3576
 7630SOL    HW134526   0.339   0.262   8.838  2.0881 -0.4047  0.4650
 7630SOL    HW234527   0.265   0.175   8.736  0.4376 -1.9254 -0.5220
 7631SOL     OW34528   1.056   3.762   9.612  0.1060  0.4424  0.1559
 7631SOL    HW134529   1.021   3.851   9.612  0.0745  0.4343 -0.9220
 7631SOL    HW234530   1.088   3.757   9.702 -2.7407 -1.6679  1.0660
 7632SOL     OW34531   2.960   1.260  11.903  0.3282  0.1395 -0.1163
 7632SOL    HW134532   2.999   1.213  11.829 -1.7930  0.1124 -1.2234
 7632SOL    HW234533   3.016   1.228  11.974 -1.2631  0.5440  1.3018
 7633SOL     OW34534   3.325   1.095  11.920  0.3960 -0.4965 -0.1591
 7633SOL    HW134535   3.331   1.160  11.990 -2.3387 -0.1330 -0.2768
 7633SOL    HW234536   3.254   1.043  11.956 -0.3597 -0.8338 -2.1767
 7634SOL     OW34537   2.318   0.947   9.597  0.0955  0.1562 -0.3227
 7634SOL    HW134538   2.308   0.877   9.533  0.1567  0.3559 -0.5494
 7634SOL    HW234539   2.302   0.913   9.686 -1.0886  2.4009  0.3386
 7635SOL     OW34540   1.247   2.282   2.109 -0.3512  0.3237 -0.3365
 7635SOL    HW134541   1.248   2.376   2.121  0.7983  0.0492  1.5419
 7635SOL    HW234542   1.299   2.249   2.182 -0.1614 -1.4559 -1.2627
 7636SOL     OW34543   2.027   0.364   0.056 -0.0294  0.7610  0.5955
 7636SOL    HW134544   2.097   0.389  17.737 -2.1722  2.0802 -1.3392
 7636SOL    HW234545   2.025   0.268   0.048  0.2232  0.7410  0.7540
 7637SOL     OW34546   0.425   0.653   3.201 -0.0794  0.0745 -0.1815
 7637SOL    HW134547   0.444   0.592   3.272 -0.2587 -0.6733 -0.7736
 7637SOL    HW234548   0.438   0.742   3.233  0.5696  0.7651 -2.3585
 7638SOL     OW34549   3.492   2.371   8.005 -0.2560  0.0492  0.1862
 7638SOL    HW134550   3.551   2.443   8.028  0.4673 -0.2108 -0.8382
 7638SOL    HW234551   3.409   2.414   8.025 -2.0020 -1.8569 -2.9798
 7639SOL     OW34552   1.879   3.569   8.531  0.0280 -0.0724 -0.5165
 7639SOL    HW134553   1.895   3.657   8.563 -1.0029 -0.1389  0.1994
 7639SOL    HW234554   1.947   3.557   8.465 -1.0441  1.4215 -1.8892
 7640SOL     OW34555   0.614   4.652   8.720 -0.0123 -0.9058  0.2464
 7640SOL    HW134556   0.521   4.634   8.733 -0.5035 -0.1886 -2.2454
 7640SOL    HW234557   0.643   4.570   8.760 -0.2319 -1.2908 -0.3832
 7641SOL     OW34558   1.965   4.490  13.767  0.0442 -0.1072 -0.5190
 7641SOL    HW134559   1.924   4.467  13.683  2.9257 -1.0693 -1.6649
 7641SOL    HW234560   1.976   4.410  13.818 -0.3157 -1.1253 -2.0411
 7642SOL     OW34561   0.150   2.038  12.742 -0.2680 -0.2493 -0.2762
 7642SOL    HW134562   0.234   2.084  12.739  0.4393 -1.5234  0.2918
 7642SOL    HW234563   0.139   2.020  12.836 -0.1366  0.2343 -0.1680
 7643SOL     OW34564   2.738   2.813   1.157  0.6087  0.1442 -0.3647
 7643SOL    HW134565   2.697   2.726   1.147 -0.2860  0.2173  2.7798
 7643SOL    HW234566   2.790   2.808   1.076  2.0317  2.2294  0.4432
 7644SOL     OW34567   0.339   3.053   3.720  0.0479 -0.2982  1.0449
 7644SOL    HW134568   0.309   3.061   3.811  2.2993 -1.6207  1.8879
 7644SOL    HW234569   0.294   3.122   3.671  3.0122  2.1819  1.8335
 7645SOL     OW34570   4.052   4.672   8.568  0.4831 -0.1641 -0.2877
 7645SOL    HW134571   4.077   4.599   8.626 -0.0948  1.6674  2.2623
 7645SOL    HW234572   4.089   4.735   8.630 -0.7516 -0.2441  0.5240
 7646SOL     OW34573   1.279   2.282   4.287  0.3023  0.3926 -0.4535
 7646SOL    HW134574   1.215   2.221   4.323  0.0819  1.7927  1.4950
 7646SOL    HW234575   1.357   2.232   4.264  0.3732 -0.0014  0.6937
 7647SOL     OW34576   0.346   3.312   3.196 -0.5082 -0.6262 -0.1030
 7647SOL    HW134577   0.259   3.344   3.175 -0.2680  0.1458  0.0907
 7647SOL    HW234578   0.345   3.223   3.160  1.4927 -1.4133  1.7557
 7648SOL     OW34579   2.073   4.548   6.252  0.0259 -0.1671 -0.0238
 7648SOL    HW134580   2.013   4.579   6.185  0.6405 -0.5516 -0.7552
 7648SOL    HW234581   2.113   4.475   6.205  1.3189  0.9397 -0.6663
 7649SOL     OW34582   3.652   2.483  13.370  0.6027  0.3074 -0.3881
 7649SOL    HW134583   3.559   2.462  13.360  0.4862  0.0304  1.3582
 7649SOL    HW234584   3.632   2.573  13.397 -0.9205  0.0636 -0.6794
 7650SOL     OW34585   4.203   1.949  16.039  0.1175 -0.3899 -0.3596
 7650SOL    HW134586   4.116   1.967  16.004 -0.1623 -0.6022  0.2265
 7650SOL    HW234587   4.230   1.875  15.984 -0.4030  1.0845 -2.6203
 7651SOL     OW34588   3.695   3.388   8.265  0.5132  0.0484 -0.7228
 7651SOL    HW134589   3.671   3.479   8.246  2.5569  0.8915  0.6824
 7651SOL    HW234590   3.672   3.390   8.358 -1.3497  5.1417 -1.3138
 7652SOL     OW34591   4.318   3.796   8.671  0.1415 -0.3273  0.1459
 7652SOL    HW134592   4.282   3.760   8.589 -1.0410  1.6187 -0.2000
 7652SOL    HW234593   4.369   3.870   8.639 -0.9634  0.6783  0.7427
 7653SOL     OW34594   3.616   2.736  13.427  0.1155 -0.1006  0.3483
 7653SOL    HW134595   3.606   2.770  13.338 -0.7065 -0.6980  0.2066
 7653SOL    HW234596   3.673   2.802  13.465  2.1849 -1.3680 -0.5978
 7654SOL     OW34597   2.243   4.319  12.337 -0.0611  0.3757 -0.4676
 7654SOL    HW134598   2.324   4.280  12.304  1.5462  1.8801  1.7435
 7654SOL    HW234599   2.240   4.286  12.427 -2.9120  1.3553 -0.1860
 7655SOL     OW34600   0.310   0.849  16.196 -0.3677  0.3175 -0.1159
 7655SOL    HW134601   0.285   0.919  16.135  0.6445  0.1603 -0.7133
 7655SOL    HW234602   0.385   0.811  16.150  0.6031  0.6480  1.1944
 7656SOL     OW34603   0.868   2.080  14.894  0.3637  0.6041  0.6597
 7656SOL    HW134604   0.958   2.111  14.891  1.4686 -2.7704 -1.3313
 7656SOL    HW234605   0.829   2.158  14.856 -2.1319 -0.1251  1.6861
 7657SOL     OW34606   0.495   1.835   2.549  0.2891  0.6140 -0.4238
 7657SOL    HW134607   0.559   1.906   2.560  0.0939  1.1946 -3.2202
 7657SOL    HW234608   0.446   1.847   2.630  3.3940 -2.6871  1.9473
 7658SOL     OW34609   2.405   3.559   2.666 -0.3889  0.4588  0.2895
 7658SOL    HW134610   2.329   3.600   2.624 -0.9051  0.9376  1.6922
 7658SOL    HW234611   2.397   3.595   2.754  0.3361 -0.0478  0.5618
 7659SOL     OW34612   1.449   2.618   5.622 -0.9902  0.2623  0.3577
 7659SOL    HW134613   1.480   2.569   5.698 -2.2586 -1.0912  0.0184
 7659SOL    HW234614   1.537   2.644   5.595 -0.5871  1.2158  2.6127
 7660SOL     OW34615   3.897   0.420   2.964  0.1450  0.3796  0.4493
 7660SOL    HW134616   3.930   0.469   3.039 -1.7321  0.1776  1.3998
 7660SOL    HW234617   3.965   0.353   2.970  0.5766  0.8617  0.9866
 7661SOL     OW34618   1.094   3.532  14.656  0.3784  0.3945 -0.2599
 7661SOL    HW134619   1.053   3.456  14.697  4.7168 -0.5577  2.2308
 7661SOL    HW234620   1.049   3.605  14.698  1.1596 -1.7953  4.3810
 7662SOL     OW34621   4.580   4.305  13.054  0.4416  0.5518  0.7492
 7662SOL    HW134622   4.578   4.394  13.091  2.8241  0.6160  0.7314
 7662SOL    HW234623   4.637   4.267  13.121 -1.3892 -1.2668  1.2331
 7663SOL     OW34624   4.603   0.268   4.355  0.1698 -0.2168  0.2520
 7663SOL    HW134625   4.679   0.252   4.410  0.8539 -2.2261 -1.2791
 7663SOL    HW234626   4.602   0.360   4.327 -3.0887 -0.4082 -0.2724
 7664SOL     OW34627   1.500   2.916   8.585  1.0405  0.2423  0.3572
 7664SOL    HW134628   1.515   2.964   8.666  0.3354  2.2089 -0.6882
 7664SOL    HW234629   1.585   2.886   8.551  0.0219 -1.5427 -0.6378
 7665SOL     OW34630   2.670   4.606   3.187  0.0497  0.0180 -0.0252
 7665SOL    HW134631   2.724   4.560   3.123 -0.3586 -0.6478  0.1086
 7665SOL    HW234632   2.716   4.588   3.268 -0.5141 -0.2095  0.2447
 7666SOL     OW34633   1.033   0.471   8.761  0.5063 -0.3230 -0.6716
 7666SOL    HW134634   0.951   0.480   8.809  0.5480  1.3142 -0.9330
 7666SOL    HW234635   1.013   0.443   8.672 -2.2988  0.5889 -0.2965
 7667SOL     OW34636   4.218   0.577  15.667  0.6813  0.3700 -0.3016
 7667SOL    HW134637   4.205   0.483  15.674 -0.5430  0.4951 -0.8074
 7667SOL    HW234638   4.137   0.617  15.701  0.4616  0.3177 -0.7619
 7668SOL     OW34639   0.267   3.728   7.947  0.0002 -0.3523 -0.1938
 7668SOL    HW134640   0.278   3.718   7.853 -2.0739 -0.8392 -0.3874
 7668SOL    HW234641   0.182   3.687   7.964  0.2249 -1.4202 -1.7031
 7669SOL     OW34642   0.917   3.898   8.094  0.9815 -0.5341  0.4669
 7669SOL    HW134643   1.011   3.919   8.095  1.2800 -1.7548 -1.8651
 7669SOL    HW234644   0.897   3.922   8.184  0.5735 -0.1280  0.2634
 7670SOL     OW34645   1.371   2.698   4.999  0.3094  0.2236 -0.1530
 7670SOL    HW134646   1.424   2.747   5.061 -0.1679 -2.1324  2.1045
 7670SOL    HW234647   1.303   2.761   4.974  0.5476  0.8800  0.8831
 7671SOL     OW34648   4.471   2.156   3.300  0.4836 -0.1938  0.2557
 7671SOL    HW134649   4.509   2.244   3.301 -0.4475  0.2035  0.8006
 7671SOL    HW234650   4.385   2.162   3.342  0.3308  2.3175 -0.4230
 7672SOL     OW34651   3.413   1.757   3.491 -0.2605  0.0322 -0.3188
 7672SOL    HW134652   3.359   1.836   3.485  0.1859  0.6593  3.7873
 7672SOL    HW234653   3.492   1.791   3.448 -0.1410 -0.0946 -0.1992
 7673SOL     OW34654   1.055   2.624   5.632 -0.4816 -0.3750  0.3983
 7673SOL    HW134655   1.109   2.563   5.683  1.3901  1.9265  1.1839
 7673SOL    HW234656   1.112   2.691   5.593 -1.9097  0.1760 -0.7128
 7674SOL     OW34657   1.815   1.061   4.799  0.4104  0.0701 -0.4975
 7674SOL    HW134658   1.869   1.137   4.780  4.5659 -2.6067  0.6395
 7674SOL    HW234659   1.884   1.020   4.851 -0.8895 -2.0632 -0.4590
 7675SOL     OW34660   4.157   4.377   3.725 -0.3130 -0.2896 -0.6796
 7675SOL    HW134661   4.096   4.420   3.665 -1.5659 -0.9375  0.1068
 7675SOL    HW234662   4.239   4.386   3.677 -0.0990 -2.3878 -0.7331
 7676SOL     OW34663   2.491   1.729   4.192  0.3513  0.3144 -0.0681
 7676SOL    HW134664   2.432   1.779   4.135  0.3110  0.0727 -0.2396
 7676SOL    HW234665   2.516   1.657   4.133 -0.9658 -0.4559  0.3008
 7677SOL     OW34666   3.632   1.011   1.323 -0.2241  0.8657  0.5176
 7677SOL    HW134667   3.674   1.096   1.337 -2.4175  2.3176 -1.7206
 7677SOL    HW234668   3.704   0.954   1.350 -0.9467  0.0961  0.8306
 7678SOL     OW34669   1.706   1.125   8.873  0.1464 -0.5272  0.0072
 7678SOL    HW134670   1.641   1.086   8.814 -0.3728 -1.1021  0.9614
 7678SOL    HW234671   1.700   1.052   8.935  1.1920 -1.6933 -1.2458
 7679SOL     OW34672   0.007   3.045   8.631 -0.4942  0.3346 -0.2649
 7679SOL    HW134673   0.074   2.993   8.675  0.6891  0.6506 -1.6667
 7679SOL    HW234674   4.668   2.986   8.643  1.2682 -1.9240 -0.4805
 7680SOL     OW34675   1.788   2.545   7.382  0.0810 -0.1301 -0.1421
 7680SOL    HW134676   1.822   2.621   7.335 -1.0230  2.4256  3.1876
 7680SOL    HW234677   1.818   2.478   7.321 -0.3796 -0.0971 -0.4063
 7681SOL     OW34678   0.251   3.664   0.695 -0.1089 -0.4262  0.0913
 7681SOL    HW134679   0.163   3.630   0.677 -0.1056 -0.0805 -0.5503
 7681SOL    HW234680   0.229   3.749   0.733 -0.2292  0.4880 -2.0569
 7682SOL     OW34681   4.066   2.005   2.335 -0.4901  0.2119  0.2180
 7682SOL    HW134682   4.062   2.091   2.378  1.8558 -0.1053  1.1146
 7682SOL    HW234683   4.153   1.969   2.352 -1.4759 -2.3293 -0.1277
 7683SOL     OW34684   2.342   4.359   3.721 -0.2856 -0.0778  0.0670
 7683SOL    HW134685   2.298   4.332   3.801 -3.4634 -0.2207 -1.7283
 7683SOL    HW234686   2.420   4.393   3.765  0.8223 -0.5572 -1.5171
 7684SOL     OW34687   2.537   4.523   3.525 -0.5634 -0.0398 -0.2747
 7684SOL    HW134688   2.478   4.491   3.594  0.7246  0.8766  1.2442
 7684SOL    HW234689   2.606   4.457   3.519  0.8301  1.2946  1.3130
 7685SOL     OW34690   1.772   2.584   8.143 -0.3756 -0.1153  0.7843
 7685SOL    HW134691   1.729   2.504   8.116  2.4174 -0.7576 -1.8302
 7685SOL    HW234692   1.809   2.561   8.228  2.0913 -0.1048 -0.2802
 7686SOL     OW34693   2.252   0.559   6.756  0.0617 -0.3746  0.2836
 7686SOL    HW134694   2.220   0.532   6.670  0.0965  0.3982  0.0241
 7686SOL    HW234695   2.278   0.474   6.792  0.7445 -0.6339 -0.8183
 7687SOL     OW34696   0.268   4.413   4.850  0.5640  0.0812 -0.1507
 7687SOL    HW134697   0.279   4.334   4.904 -2.4262 -0.4625 -0.3181
 7687SOL    HW234698   0.347   4.410   4.797  0.3337  2.4342 -0.6112
 7688SOL     OW34699   3.796   2.559  12.959  0.7969  0.2466 -0.4511
 7688SOL    HW134700   3.780   2.485  13.017  3.0920  0.0929 -0.0263
 7688SOL    HW234701   3.720   2.617  12.966  0.1816 -0.4815 -1.0723
 7689SOL     OW34702   3.722   0.698  14.093 -0.4602 -0.7922  0.4680
 7689SOL    HW134703   3.792   0.755  14.125  0.0941 -1.7680  1.0096
 7689SOL    HW234704   3.719   0.632  14.162  1.8810  0.8900  2.1937
 7690SOL     OW34705   2.135   1.432   3.101  0.0942  0.4429  0.9515
 7690SOL    HW134706   2.206   1.479   3.144  2.5209 -1.1410 -1.3745
 7690SOL    HW234707   2.175   1.417   3.016 -1.8899 -0.3437  0.1521
 7691SOL     OW34708   4.588   4.160   2.938 -0.0186  0.0724 -0.0626
 7691SOL    HW134709   4.592   4.255   2.939 -1.0182  0.1360 -1.7093
 7691SOL    HW234710   4.670   4.129   2.975  0.7791  0.4563 -1.5114
 7692SOL     OW34711   1.772   3.160   1.992  0.6502 -0.3375 -0.3366
 7692SOL    HW134712   1.833   3.212   1.940  0.5615  1.6435  1.5581
 7692SOL    HW234713   1.731   3.101   1.928  1.3572 -2.3641  1.0628
 7693SOL     OW34714   0.025   1.874  14.555  0.3791  0.0740 -0.4596
 7693SOL    HW134715   0.083   1.907  14.486  1.0882  1.7395  0.9583
 7693SOL    HW234716   0.072   1.892  14.636 -0.7906  0.5598  0.1139
 7694SOL     OW34717   2.312   3.643   1.369  0.5708  1.2055  0.0176
 7694SOL    HW134718   2.399   3.615   1.397 -0.1973 -0.1879  0.9875
 7694SOL    HW234719   2.346   3.713   1.312  0.6450  0.4396 -0.8986
 7695SOL     OW34720   3.333   0.227   6.267 -0.3741  0.3402  0.6291
 7695SOL    HW134721   3.300   0.237   6.357  0.7143  2.3364  0.7997
 7695SOL    HW234722   3.336   0.132   6.277  1.7684  0.4869  1.4008
 7696SOL     OW34723   0.439   0.845   4.848  0.0190 -0.0510 -0.1184
 7696SOL    HW134724   0.356   0.820   4.807 -0.7145 -0.9029  1.8422
 7696SOL    HW234725   0.506   0.827   4.783  1.2116  1.8748  0.5594
 7697SOL     OW34726   3.276   4.197   5.212 -0.2926 -0.4015  0.3928
 7697SOL    HW134727   3.240   4.253   5.143  0.3305  1.1921  1.3566
 7697SOL    HW234728   3.194   4.164   5.249 -1.3441  0.8747 -0.8063
 7698SOL     OW34729   3.254   2.445   5.366  0.1409  0.6515  0.2975
 7698SOL    HW134730   3.318   2.485   5.425  3.4475 -3.4597 -0.4210
 7698SOL    HW234731   3.195   2.407   5.431 -2.1331 -2.6504 -3.6737
 7699SOL     OW34732   0.908   1.217  12.561  0.0182 -0.0341  0.0056
 7699SOL    HW134733   0.950   1.303  12.551  1.6121 -0.7722  0.3995
 7699SOL    HW234734   0.859   1.205  12.480 -0.5559 -1.5799  0.5844
 7700SOL     OW34735   2.864   3.157   1.131 -0.3071  0.5891  0.4446
 7700SOL    HW134736   2.784   3.163   1.184 -0.4085  0.7347  0.2746
 7700SOL    HW234737   2.847   3.098   1.057 -0.7536  3.6684 -1.9124
 7701SOL     OW34738   4.422   0.657  17.489 -0.2826 -0.2836 -0.2374
 7701SOL    HW134739   4.479   0.625  17.559  0.3660  0.8581 -0.2482
 7701SOL    HW234740   4.350   0.598  17.510  0.4461 -0.4106  1.9584
 7702SOL     OW34741   1.373   4.568  13.942 -0.0748 -0.0495 -0.0242
 7702SOL    HW134742   1.385   4.550  14.035  1.2763 -0.3484 -0.2608
 7702SOL    HW234743   1.309   4.640  13.943  1.3883  1.2595 -0.1774
 7703SOL     OW34744   2.784   4.464  15.216 -0.2992 -0.0437 -0.6371
 7703SOL    HW134745   2.707   4.484  15.269  1.6409  0.2740  2.0697
 7703SOL    HW234746   2.785   4.540  15.158  0.5690  2.5283  2.7343
 7704SOL     OW34747   0.891   3.575   6.646  0.3209  0.7936 -0.0365
 7704SOL    HW134748   0.931   3.607   6.727 -0.3677  0.0782  0.5861
 7704SOL    HW234749   0.825   3.641   6.625 -2.3004 -1.6390  0.6738
 7705SOL     OW34750   1.087   4.419   8.795  0.7291  0.1590  1.1061
 7705SOL    HW134751   1.031   4.426   8.718  0.2997 -2.6457  1.1371
 7705SOL    HW234752   1.029   4.468   8.853  0.6003 -0.6705  1.6928
 7706SOL     OW34753   2.116   0.362  17.417 -0.2059  0.0015 -0.3271
 7706SOL    HW134754   2.055   0.293  17.444 -1.3684  1.2922  0.3542
 7706SOL    HW234755   2.143   0.408  17.496 -2.1525 -4.1821  2.7495
 7707SOL     OW34756   0.355   0.212   4.965  0.3932  0.3699 -0.4877
 7707SOL    HW134757   0.319   0.124   4.960  3.1308 -0.7126 -0.9384
 7707SOL    HW234758   0.347   0.223   5.060  1.0727  0.4831 -0.4424
 7708SOL     OW34759   1.443   3.718   1.504 -0.3202 -0.0838 -0.1385
 7708SOL    HW134760   1.538   3.716   1.515 -0.3179 -0.3541 -0.2136
 7708SOL    HW234761   1.438   3.812   1.489  3.5427 -0.2331 -2.2323
 7709SOL     OW34762   1.198   1.894   8.018 -0.3232  0.0065 -0.0724
 7709SOL    HW134763   1.161   1.889   7.929 -2.3722  1.4184  0.6952
 7709SOL    HW234764   1.216   1.800   8.011 -1.7587 -0.3332  0.8012
 7710SOL     OW34765   3.277   4.588   5.725  0.1046  0.8794 -0.2040
 7710SOL    HW134766   3.258   4.497   5.701  3.6908  0.5014 -1.5076
 7710SOL    HW234767   3.189   4.627   5.730 -0.6085 -0.9814  1.6786
 7711SOL     OW34768   4.275   1.912   7.981 -0.2123  0.3531  0.2316
 7711SOL    HW134769   4.292   1.939   8.071 -0.9709  0.6916  0.2735
 7711SOL    HW234770   4.318   1.827   7.970 -2.1313 -0.3961 -1.4341
 7712SOL     OW34771   3.495   3.895   0.748 -0.7661 -0.1647  0.8527
 7712SOL    HW134772   3.547   3.818   0.726  0.0780  0.7257 -0.2772
 7712SOL    HW234773   3.563   3.941   0.799  2.1585 -1.3115 -2.0461
 7713SOL     OW34774   3.320   1.836   1.117  1.0367 -0.5200 -0.7135
 7713SOL    HW134775   3.319   1.764   1.181 -2.1297 -1.1016 -1.3867
 7713SOL    HW234776   3.383   1.896   1.157 -0.6432 -0.2323  1.5254
 7714SOL     OW34777   4.500   2.864   7.190 -0.1578 -0.8818  0.4406
 7714SOL    HW134778   4.565   2.910   7.244  2.2451 -1.4253 -2.0137
 7714SOL    HW234779   4.553   2.823   7.123  1.1312  1.7530 -0.1673
 7715SOL     OW34780   0.053   2.386   8.155  0.4534  0.5409 -0.2188
 7715SOL    HW134781   4.720   2.318   8.156 -0.0489  1.0361 -1.4054
 7715SOL    HW234782   0.089   2.376   8.067 -1.3345 -1.4084 -0.7307
 7716SOL     OW34783   2.443   4.312   6.433 -0.2721 -0.3665  0.0586
 7716SOL    HW134784   2.494   4.346   6.359 -0.7090  2.9780  1.3126
 7716SOL    HW234785   2.390   4.390   6.450 -0.6754 -0.4727 -0.6755
 7717SOL     OW34786   3.527   4.534  15.196 -0.2340  0.1138 -0.0999
 7717SOL    HW134787   3.458   4.468  15.192  0.8183 -1.0969  1.4067
 7717SOL    HW234788   3.481   4.606  15.238 -1.5410  0.8039 -2.7136
 7718SOL     OW34789   4.058   2.556   2.927 -0.1002 -0.7287 -0.0148
 7718SOL    HW134790   4.019   2.477   2.890 -1.4730  0.6579 -1.5421
 7718SOL    HW234791   4.145   2.521   2.948  0.4754  0.8847  0.3137
 7719SOL     OW34792   0.157   2.211  14.332  0.1200 -0.1969 -0.0830
 7719SOL    HW134793   0.152   2.307  14.334  2.0825 -0.0879 -0.1049
 7719SOL    HW234794   0.150   2.206  14.237  0.2883 -0.5447 -0.0775
 7720SOL     OW34795   4.230   1.020  14.132 -0.3674  0.1888 -0.3823
 7720SOL    HW134796   4.258   1.023  14.040 -0.0735 -1.2225 -0.3421
 7720SOL    HW234797   4.315   1.025  14.176  0.1808 -1.6112 -1.2091
 7721SOL     OW34798   3.701   1.901   8.179  0.4491  0.1313  0.2328
 7721SOL    HW134799   3.795   1.921   8.183  0.8646 -1.8705  0.1864
 7721SOL    HW234800   3.671   1.991   8.166 -2.4609 -0.8254  0.4449
 7722SOL     OW34801   3.323   1.933  10.817  0.0254  0.2067 -0.6173
 7722SOL    HW134802   3.349   1.859  10.871 -1.2912 -1.4759 -2.2677
 7722SOL    HW234803   3.247   1.893  10.774 -0.7828  1.1150 -0.0310
 7723SOL     OW34804   0.548   0.853   6.193  0.4082  0.1206  0.1564
 7723SOL    HW134805   0.615   0.921   6.195 -0.0546  0.6531 -2.1962
 7723SOL    HW234806   0.468   0.890   6.156 -0.8175 -0.1996  2.4867
 7724SOL     OW34807   0.811   0.059   0.686 -0.0492 -0.6404 -0.2289
 7724SOL    HW134808   0.829   0.097   0.772  0.3673 -0.5313 -0.3661
 7724SOL    HW234809   0.718   0.072   0.668 -0.4241 -1.4403  1.1765
 7725SOL     OW34810   0.190   4.433  17.256 -0.3740  0.3008 -0.4379
 7725SOL    HW134811   0.172   4.414  17.348 -1.0941 -2.0260 -1.0693
 7725SOL    HW234812   0.222   4.523  17.263 -0.9534  0.3075  2.1487
 7726SOL     OW34813   0.890   3.093   0.778 -0.5996  0.2945  0.0225
 7726SOL    HW134814   0.911   3.000   0.772  0.6585  0.5554  0.3889
 7726SOL    HW234815   0.828   3.097   0.851 -0.8491 -0.3499 -0.1567
 7727SOL     OW34816   2.503   0.184   0.077 -0.0799  0.3429  0.0383
 7727SOL    HW134817   2.420   0.138   0.088  0.1006  0.1006  0.4027
 7727SOL    HW234818   2.472   0.271   0.052 -1.2027  0.4173  1.7336
 7728SOL     OW34819   1.716   1.259   3.326 -0.2767  0.5368  0.2396
 7728SOL    HW134820   1.805   1.285   3.299 -0.6087  1.7776  0.3422
 7728SOL    HW234821   1.723   1.270   3.421 -0.1012 -0.2798  0.3225
 7729SOL     OW34822   1.866   3.964   4.367 -0.0712 -0.3876  0.4243
 7729SOL    HW134823   1.846   4.038   4.310  0.5088  0.3537  1.1795
 7729SOL    HW234824   1.779   3.923   4.364 -0.4777  0.5274 -0.2676
 7730SOL     OW34825   3.889   0.139   4.927 -0.2768  0.3021  0.4820
 7730SOL    HW134826   3.865   0.161   5.017  2.6457  0.0465  1.3294
 7730SOL    HW234827   3.808   0.162   4.882  0.5765 -0.0054 -1.2461
 7731SOL     OW34828   3.017   4.671   5.770  0.2740  0.2063  0.3959
 7731SOL    HW134829   2.936   4.714   5.741  0.1392  0.6074  1.3340
 7731SOL    HW234830   2.974   4.611   5.831 -1.1496  1.4608  0.6225
 7732SOL     OW34831   1.334   1.884   3.690  0.4613  0.2974 -0.2710
 7732SOL    HW134832   1.429   1.897   3.682  0.3777  0.9191 -0.2944
 7732SOL    HW234833   1.308   1.910   3.602 -1.3558 -0.3538  0.0815
 7733SOL     OW34834   1.026   3.673   7.191  0.4256 -0.6320  0.1587
 7733SOL    HW134835   0.964   3.718   7.248 -0.6212  0.1855 -1.6233
 7733SOL    HW234836   1.099   3.735   7.191 -1.5783  1.7234 -1.6591
 7734SOL     OW34837   1.554   1.036  16.494 -0.1159  0.5941  0.9840
 7734SOL    HW134838   1.522   0.990  16.572  2.9954  0.3554  2.1338
 7734SOL    HW234839   1.471   1.038  16.447  0.2079 -0.9018  0.3552
 7735SOL     OW34840   4.417   3.353   9.324 -0.0504  0.1130  0.2705
 7735SOL    HW134841   4.507   3.358   9.357 -0.1930  1.4093  0.4805
 7735SOL    HW234842   4.381   3.327   9.409 -0.2651 -0.9746 -0.1590
 7736SOL     OW34843   2.959   3.205   0.850  0.4766 -0.0768  0.2858
 7736SOL    HW134844   3.020   3.213   0.924  0.5886  0.1444  0.1678
 7736SOL    HW234845   2.897   3.134   0.869  0.7829 -0.4711 -0.1912
 7737SOL     OW34846   1.338   3.311  13.699  0.1331  0.2254 -0.3336
 7737SOL    HW134847   1.390   3.350  13.629  0.3095  0.3931 -0.1127
 7737SOL    HW234848   1.267   3.270  13.650  0.2268  1.4387 -1.4793
 7738SOL     OW34849   0.678   0.961   5.887  0.1152  0.4327 -0.7196
 7738SOL    HW134850   0.712   0.979   5.974 -3.3196 -1.9590  1.1027
 7738SOL    HW234851   0.755   0.962   5.829 -1.2164  1.5649 -2.4703
 7739SOL     OW34852   2.062   3.219   1.069 -0.3387 -0.2616 -0.1848
 7739SOL    HW134853   1.984   3.224   1.012  1.3434  1.1258 -2.3837
 7739SOL    HW234854   2.068   3.314   1.083  2.4855 -0.0424 -2.9822
 7740SOL     OW34855   4.383   1.972   2.336 -0.0205 -0.0372 -0.0780
 7740SOL    HW134856   4.365   1.885   2.374  0.1895  1.1789  2.8275
 7740SOL    HW234857   4.479   1.969   2.332 -0.0371  0.3882 -0.6756
 7741SOL     OW34858   2.881   0.902   9.250  0.2567 -0.4798 -0.1924
 7741SOL    HW134859   2.834   0.845   9.189 -1.6811 -1.7251  2.4684
 7741SOL    HW234860   2.813   0.901   9.317 -0.7230 -1.1189 -1.1923
 7742SOL     OW34861   0.133   0.752  10.640  0.5069 -0.3740 -0.2739
 7742SOL    HW134862   0.203   0.783  10.583  1.5892 -1.3306  0.5214
 7742SOL    HW234863   0.171   0.755  10.728 -1.7825  1.8876  0.6616
 7743SOL     OW34864   2.157   3.695   1.764 -0.5983 -0.2442 -0.1851
 7743SOL    HW134865   2.231   3.634   1.766 -1.7310 -1.6578 -1.6961
 7743SOL    HW234866   2.133   3.698   1.672 -0.6878  2.3606 -0.0709
 7744SOL     OW34867   2.163   3.793   6.852  0.4242  0.8554  0.0890
 7744SOL    HW134868   2.251   3.766   6.878 -0.2611  2.1956  3.7175
 7744SOL    HW234869   2.126   3.835   6.930  0.5020 -0.2188  0.7161
 7745SOL     OW34870   4.550   0.249  13.631 -0.2300 -0.1670  0.6017
 7745SOL    HW134871   4.587   0.253  13.720  0.3911  3.7289  0.1599
 7745SOL    HW234872   4.459   0.261  13.657 -0.6235 -0.8713 -0.4635
 7746SOL     OW34873   2.968   2.677   3.960  0.6917 -0.0790  0.2787
 7746SOL    HW134874   3.007   2.616   3.897  1.0754 -1.4490  1.8305
 7746SOL    HW234875   2.952   2.752   3.903  2.7454 -1.8988 -2.7230
 7747SOL     OW34876   3.416   1.355  15.031 -0.1407  0.3569 -0.2558
 7747SOL    HW134877   3.356   1.363  15.105  0.0544  2.4403 -0.3358
 7747SOL    HW234878   3.367   1.368  14.950  0.9356 -3.0103 -1.4873
 7748SOL     OW34879   3.288   4.215  16.285  0.4408  0.3674 -0.8513
 7748SOL    HW134880   3.282   4.123  16.311  0.4777  1.6417  3.5492
 7748SOL    HW234881   3.327   4.204  16.198  1.3113  1.4649 -0.5931
 7749SOL     OW34882   0.660   2.886  14.029  0.1170  0.3741  0.1445
 7749SOL    HW134883   0.584   2.940  14.047  0.2159  1.0013 -1.3687
 7749SOL    HW234884   0.615   2.819  13.978 -0.9435  1.9658 -0.9767
 7750SOL     OW34885   4.547   2.278   2.290 -0.0554  0.7218 -0.0002
 7750SOL    HW134886   4.551   2.198   2.237  0.5318 -0.1140  1.3031
 7750SOL    HW234887   4.453   2.293   2.294 -0.0510  0.7748 -0.1141
 7751SOL     OW34888   3.934   0.306   6.763  0.1313 -0.3074 -0.0503
 7751SOL    HW134889   3.848   0.310   6.806  2.3408  1.2349  4.2682
 7751SOL    HW234890   3.904   0.271   6.680  0.0508 -1.9870  0.6836
 7752SOL     OW34891   2.335   3.070  11.883  0.4957 -0.0820  0.0429
 7752SOL    HW134892   2.304   2.982  11.907 -0.2035  0.0362 -0.4066
 7752SOL    HW234893   2.353   3.066  11.789  0.4847  2.2215 -0.0630
 7753SOL     OW34894   4.696   1.575   9.517 -0.9290 -0.3179  0.4594
 7753SOL    HW134895   4.705   1.643   9.451  0.9008 -0.9536  0.0470
 7753SOL    HW234896   4.700   1.631   9.595 -0.0475  0.9264 -0.4957
 7754SOL     OW34897   0.356   1.760   9.314 -0.2879 -0.1436  0.5536
 7754SOL    HW134898   0.362   1.783   9.406 -2.4486 -1.5680  1.0425
 7754SOL    HW234899   0.268   1.721   9.313 -0.4344  0.2583 -2.4394
 7755SOL     OW34900   2.745   4.520   7.553 -0.7135  0.8032 -0.1558
 7755SOL    HW134901   2.738   4.613   7.532  0.0694  1.0286  0.5821
 7755SOL    HW234902   2.836   4.502   7.577 -1.2237 -1.0906  0.3219
 7756SOL     OW34903   3.524   1.756   8.762  0.5780  0.3584 -0.0847
 7756SOL    HW134904   3.509   1.676   8.711 -0.7036  1.2973 -1.1855
 7756SOL    HW234905   3.520   1.731   8.854  2.7784 -1.0193 -0.3601
 7757SOL     OW34906   0.903   2.664   1.370 -0.0131  0.0078 -0.0054
 7757SOL    HW134907   0.870   2.710   1.447 -0.7644 -0.7894  0.1511
 7757SOL    HW234908   0.996   2.687   1.363  0.1199  0.3196  3.0001
 7758SOL     OW34909   0.538   3.843   7.276  0.1344 -0.4304 -0.4236
 7758SOL    HW134910   0.608   3.873   7.218  0.2159  0.0964 -0.0621
 7758SOL    HW234911   0.485   3.921   7.295  2.0226  0.4418  1.2352
 7759SOL     OW34912   4.533   1.915   2.798 -0.1569 -0.4777 -0.0009
 7759SOL    HW134913   4.509   1.892   2.888  1.0121  0.0920  0.4576
 7759SOL    HW234914   4.450   1.883   2.763 -0.9837  1.0028  0.6244
 7760SOL     OW34915   2.968   1.572  11.944  0.8078 -0.3809 -0.2221
 7760SOL    HW134916   2.879   1.560  11.976  1.1322 -1.0673  0.3959
 7760SOL    HW234917   2.974   1.509  11.872 -1.1857  0.4325 -1.1124
 7761SOL     OW34918   2.945   0.592   2.421 -0.1220 -0.0250  0.2818
 7761SOL    HW134919   2.963   0.500   2.402 -0.2212  0.2238 -1.0707
 7761SOL    HW234920   2.947   0.604   2.516 -1.2968 -0.9042  0.4089
 7762SOL     OW34921   0.311   3.994  10.525 -0.2260  0.5199 -0.1046
 7762SOL    HW134922   0.256   3.973  10.600 -0.0048 -1.2093 -0.4316
 7762SOL    HW234923   0.273   4.075  10.490  1.1585  0.1623 -2.4665
 7763SOL     OW34924   2.594   2.098  17.702  0.4792  0.2456  0.0869
 7763SOL    HW134925   2.519   2.157  17.690 -0.2013 -0.9598 -1.6686
 7763SOL    HW234926   2.592   2.083   0.055  1.2935 -1.2554 -0.1324
 7764SOL     OW34927   1.050   0.977   7.650  0.1806  0.4500  0.1600
 7764SOL    HW134928   1.039   1.042   7.719  0.1359 -0.8627  1.4068
 7764SOL    HW234929   1.132   0.933   7.669  1.3806  2.3735 -0.6000
 7765SOL     OW34930   3.368   1.374   7.311  0.0268  0.2054 -0.3165
 7765SOL    HW134931   3.419   1.349   7.235 -2.2288 -0.9678 -1.4492
 7765SOL    HW234932   3.294   1.419   7.271  0.4658  1.7454  0.6171
 7766SOL     OW34933   2.185   1.686  14.544  0.5251 -0.4171 -0.1978
 7766SOL    HW134934   2.103   1.658  14.503 -0.9490 -0.1916  2.6775
 7766SOL    HW234935   2.159   1.686  14.636  1.1080  0.2036 -0.0286
 7767SOL     OW34936   1.923   3.408  15.889 -0.2338  0.5438  0.2838
 7767SOL    HW134937   1.854   3.354  15.928  2.1611 -1.0072  2.3733
 7767SOL    HW234938   1.928   3.471  15.962 -0.8907  0.1780  0.6455
 7768SOL     OW34939   3.263   0.052  17.479  0.6267 -0.6795  0.3054
 7768SOL    HW134940   3.307   0.078  17.560  0.3647 -0.9853  0.5452
 7768SOL    HW234941   3.192   0.115  17.478  1.9143  0.7416 -2.4235
 7769SOL     OW34942   1.295   0.080   1.240 -0.1712 -0.1630  0.0270
 7769SOL    HW134943   1.386   0.066   1.215 -0.3515 -0.6837 -0.3569
 7769SOL    HW234944   1.316   0.075   1.333 -0.3818 -0.3889  0.0639
 7770SOL     OW34945   1.627   2.722   3.525 -0.4058  0.1146  0.2362
 7770SOL    HW134946   1.607   2.694   3.615  1.7895  0.9740  0.9874
 7770SOL    HW234947   1.665   2.806   3.551  1.2100 -0.7879  0.7791
 7771SOL     OW34948   3.036   0.257   9.837 -0.7425 -0.8079  0.5891
 7771SOL    HW134949   2.995   0.343   9.843  2.2030  0.6180  0.2190
 7771SOL    HW234950   3.056   0.239   9.929  0.5253  1.0731  0.6815
 7772SOL     OW34951   1.297   1.144   6.714 -0.5940  0.3498 -0.1092
 7772SOL    HW134952   1.245   1.224   6.720 -0.7334  0.2861 -0.4971
 7772SOL    HW234953   1.297   1.129   6.620  2.4345 -2.7513  0.3769
 7773SOL     OW34954   0.005   2.056  13.861  0.2996 -0.3872 -0.2726
 7773SOL    HW134955   0.028   2.092  13.775 -0.8790  0.2498 -0.3120
 7773SOL    HW234956   0.063   1.980  13.870 -0.8294 -1.3524 -1.1445
 7774SOL     OW34957   3.489   1.937   4.784 -0.2723  0.1499 -0.2343
 7774SOL    HW134958   3.468   1.986   4.704 -0.6876  1.0374  0.4131
 7774SOL    HW234959   3.436   1.857   4.782 -0.6330  0.3648  0.5543
 7775SOL     OW34960   4.387   1.330   7.132 -0.3145  0.6314 -0.2674
 7775SOL    HW134961   4.337   1.325   7.214  0.6762 -1.2314  0.2134
 7775SOL    HW234962   4.336   1.396   7.084 -0.1711 -0.5240 -1.9826
 7776SOL     OW34963   0.446   1.618   9.848  0.5205  0.4189  0.2932
 7776SOL    HW134964   0.359   1.603   9.885 -0.3633  0.6213 -1.6929
 7776SOL    HW234965   0.492   1.647   9.927  0.1716  0.8469  0.3390
 7777SOL     OW34966   1.423   3.917   8.580 -0.3379  0.2773 -0.1717
 7777SOL    HW134967   1.377   4.001   8.577 -1.5213 -0.4286 -1.6365
 7777SOL    HW234968   1.499   3.937   8.525 -0.6937 -0.6327 -0.9773
 7778SOL     OW34969   2.865   2.980   8.954 -0.2855  0.0023 -0.6436
 7778SOL    HW134970   2.839   3.035   8.880  0.2107  2.3194  0.9213
 7778SOL    HW234971   2.953   3.010   8.976 -0.1835 -0.7429 -0.0483
 7779SOL     OW34972   3.664   3.963   1.997 -0.4152  0.7066  0.3159
 7779SOL    HW134973   3.643   4.009   2.078  1.1634 -0.2418  1.2509
 7779SOL    HW234974   3.758   3.984   1.996 -0.3576  0.4675  0.8945
 7780SOL     OW34975   0.960   3.094   2.415 -0.6776 -0.2910  0.0783
 7780SOL    HW134976   1.047   3.078   2.380 -1.1901  0.4881 -1.5173
 7780SOL    HW234977   0.971   3.150   2.492  0.0642 -0.3238 -0.0052
 7781SOL     OW34978   4.462   0.270  13.054 -0.5093  0.2039 -0.6736
 7781SOL    HW134979   4.366   0.266  13.054 -0.5073  0.2819 -3.6957
 7781SOL    HW234980   4.478   0.203  13.120  0.2506  0.5997 -0.4500
 7782SOL     OW34981   1.066   3.021   1.658  0.2373  0.4844 -0.6434
 7782SOL    HW134982   1.002   3.001   1.590  0.8564  0.8488 -1.3370
 7782SOL    HW234983   1.145   2.986   1.617 -0.1773 -1.5653  0.3052
 7783SOL     OW34984   3.402   4.114   8.341 -0.6175  0.1177 -0.2848
 7783SOL    HW134985   3.487   4.132   8.300 -0.3605 -0.8833 -0.1937
 7783SOL    HW234986   3.423   4.033   8.387  0.0835  0.8372  0.6700
 7784SOL     OW34987   0.005   0.268   3.080 -0.1489 -0.2374  0.5202
 7784SOL    HW134988   0.005   0.239   2.988  0.4814  0.4979  0.2821
 7784SOL    HW234989   0.097   0.287   3.098 -0.5498  1.4530  0.8530
 7785SOL     OW34990   3.724   2.323   4.498  0.2071 -0.6777  0.2642
 7785SOL    HW134991   3.714   2.245   4.553 -1.4269 -0.0692  0.8428
 7785SOL    HW234992   3.647   2.313   4.442  1.3641 -0.0564 -1.4166
 7786SOL     OW34993   0.165   0.448   2.149  0.5845  0.3504  0.6059
 7786SOL    HW134994   0.179   0.543   2.150 -1.0292  0.5943 -0.5404
 7786SOL    HW234995   0.107   0.435   2.225 -0.9376  2.9067 -0.1241
 7787SOL     OW34996   0.878   3.313   7.430 -0.1399  0.0053  0.6198
 7787SOL    HW134997   0.935   3.288   7.503  1.3085  1.3304 -0.0735
 7787SOL    HW234998   0.812   3.370   7.469  0.2348 -0.3932  1.8395
 7788SOL     OW34999   2.023   4.346   1.107 -0.0420 -0.7376 -0.6709
 7788SOL    HW135000   2.080   4.299   1.046 -0.3510 -2.9186  0.7184
 7788SOL    HW235001   1.950   4.285   1.117 -0.5375  0.1302  0.9956
 7789SOL     OW35002   1.590   3.008  10.843 -0.5789 -0.0258 -0.0503
 7789SOL    HW135003   1.552   2.954  10.913 -1.3438  0.1615 -0.3163
 7789SOL    HW235004   1.632   3.075  10.896 -0.1682 -1.1471  1.0505
 7790SOL     OW35005   0.112   1.634   9.196 -0.1555 -0.4141  0.5909
 7790SOL    HW135006   0.136   1.698   9.129  0.8040 -0.0673  1.2620
 7790SOL    HW235007   0.054   1.688   9.249  0.5653  0.1670  0.7853
 7791SOL     OW35008   0.324   0.665   5.849  0.0790  0.0178 -0.0060
 7791SOL    HW135009   0.256   0.698   5.908  0.0846  1.8113 -1.0111
 7791SOL    HW235010   0.388   0.628   5.910  1.3011  0.3587 -1.0814
 7792SOL     OW35011   2.030   2.067  14.517  0.6299  0.2695 -0.3373
 7792SOL    HW135012   1.992   2.016  14.588 -2.2502  2.9624  0.0517
 7792SOL    HW235013   1.994   2.154  14.535 -0.1655 -0.4070  1.3322
 7793SOL     OW35014   2.941   3.498   1.972 -0.8689 -0.4238  0.4281
 7793SOL    HW135015   3.036   3.506   1.977 -0.9917  0.1701  2.0654
 7793SOL    HW235016   2.912   3.533   2.057  0.7140  1.9811 -0.0274
 7794SOL     OW35017   4.722   1.028   8.644  0.2763 -0.0791 -0.2295
 7794SOL    HW135018   0.010   1.086   8.716 -1.6794 -1.8998  1.8770
 7794SOL    HW235019   0.069   0.987   8.618 -0.5936  0.2353 -3.5114
 7795SOL     OW35020   2.849   0.163   7.172  0.1077 -0.4857  0.2970
 7795SOL    HW135021   2.930   0.212   7.164  0.6639 -1.0519  2.5436
 7795SOL    HW235022   2.862   0.090   7.111 -0.3474  0.6454 -1.1479
 7796SOL     OW35023   0.110   4.176  12.777  0.6392 -0.7381  0.4609
 7796SOL    HW135024   0.132   4.164  12.869  1.4419 -0.3678  0.3194
 7796SOL    HW235025   0.198   4.195  12.744 -0.1102  1.0552 -0.5478
 7797SOL     OW35026   0.826   1.754   5.434  0.3795 -0.4837 -0.2700
 7797SOL    HW135027   0.749   1.770   5.380  0.2493  1.8386  0.6098
 7797SOL    HW235028   0.851   1.842   5.464  0.2707  0.0288 -1.6599
 7798SOL     OW35029   1.782   0.668  13.065 -0.2097 -0.0806  0.1960
 7798SOL    HW135030   1.766   0.574  13.054 -1.9685 -0.0359  2.2904
 7798SOL    HW235031   1.810   0.668  13.156  1.6069  0.0690 -0.3602
 7799SOL     OW35032   2.913   1.876   6.107  0.3166  0.0541  0.2401
 7799SOL    HW135033   2.844   1.919   6.056  0.1103 -1.4871 -0.7799
 7799SOL    HW235034   2.961   1.943   6.155  0.6001 -0.9024  1.2928
 7800SOL     OW35035   3.443   2.748   7.725  0.2359 -0.4382  0.2584
 7800SOL    HW135036   3.415   2.749   7.817  1.6958 -2.0847  0.7173
 7800SOL    HW235037   3.515   2.685   7.730  2.0741  1.7893  1.6159
 7801SOL     OW35038   3.159   2.519   1.477  0.4116 -0.4253  0.0692
 7801SOL    HW135039   3.212   2.467   1.416 -0.0762  1.4091 -1.8968
 7801SOL    HW235040   3.120   2.449   1.530 -0.8725  0.0155 -0.2950
 7802SOL     OW35041   0.946   0.221  15.949 -0.5553 -0.1238 -0.3161
 7802SOL    HW135042   0.974   0.149  15.892 -1.1453 -0.1695 -0.5476
 7802SOL    HW235043   0.908   0.176  16.024  0.3555  0.7062  0.6343
 7803SOL     OW35044   4.204   1.233   2.498 -0.6364 -0.0854  0.0212
 7803SOL    HW135045   4.173   1.322   2.515 -0.2659 -0.3551  2.1393
 7803SOL    HW235046   4.260   1.256   2.424  0.6903  0.2793  1.1553
 7804SOL     OW35047   4.517   4.181  11.420  0.0453  0.2900  0.3753
 7804SOL    HW135048   4.496   4.138  11.337  1.9755 -0.2093  0.1405
 7804SOL    HW235049   4.600   4.140  11.444  0.8376  0.5104 -1.9886
 7805SOL     OW35050   0.252   0.077  11.246  0.1772 -0.1927 -0.0145
 7805SOL    HW135051   0.300   0.062  11.328 -1.1719 -1.2690  0.5690
 7805SOL    HW235052   0.311   0.047  11.176 -2.8654 -3.1173 -1.2951
 7806SOL     OW35053   2.425   2.728   4.605 -0.5994  0.3630  0.2249
 7806SOL    HW135054   2.357   2.794   4.595 -0.3943  0.3682 -1.1153
 7806SOL    HW235055   2.479   2.758   4.678 -0.2168  0.4204 -0.0764
 7807SOL     OW35056   3.341   3.817  16.957  0.2597 -0.2081  0.5139
 7807SOL    HW135057   3.289   3.781  17.029 -0.7484  0.7152  0.2443
 7807SOL    HW235058   3.373   3.897  16.999  0.4383 -0.8481  1.6062
 7808SOL     OW35059   2.743   0.726   9.088  0.0706  0.5769  0.6389
 7808SOL    HW135060   2.764   0.735   8.995 -3.5332  0.3267 -0.2258
 7808SOL    HW235061   2.800   0.652   9.105  1.3197  1.2607 -0.5594
 7809SOL     OW35062   1.974   3.604   3.388 -0.5765  0.0043  0.1324
 7809SOL    HW135063   1.888   3.580   3.422  0.0824  1.7391  2.9733
 7809SOL    HW235064   1.998   3.530   3.333 -0.6332  0.8471 -1.0332
 7810SOL     OW35065   2.849   4.028   9.306  0.4049 -0.0442 -0.0617
 7810SOL    HW135066   2.920   4.054   9.248  0.3575  0.2327  0.0063
 7810SOL    HW235067   2.899   4.027   9.388  2.3860  0.0156 -1.2750
 7811SOL     OW35068   3.704   4.556   9.106  0.2049 -0.0390  0.2930
 7811SOL    HW135069   3.728   4.644   9.077 -1.4594 -0.0255 -1.0979
 7811SOL    HW235070   3.781   4.527   9.155 -0.6321 -0.4086  1.3762
 7812SOL     OW35071   1.218   2.781   2.937 -0.5318 -0.4031  0.0856
 7812SOL    HW135072   1.186   2.871   2.949 -0.1617 -0.3904  0.9269
 7812SOL    HW235073   1.134   2.736   2.946  0.5960 -2.5318 -0.0558
 7813SOL     OW35074   3.783   4.458   8.405  0.4389 -0.0951  0.1944
 7813SOL    HW135075   3.837   4.473   8.483  1.0170  0.8557 -0.3872
 7813SOL    HW235076   3.829   4.386   8.363  0.9374  0.1279  0.3580
 7814SOL     OW35077   3.585   1.292   8.807  0.0279 -0.0236  0.1178
 7814SOL    HW135078   3.660   1.320   8.755 -0.2114  1.7071  0.7182
 7814SOL    HW235079   3.518   1.352   8.775 -0.9682 -1.5431 -0.6494
 7815SOL     OW35080   3.058   1.699  11.595 -0.0089 -0.5187  0.8739
 7815SOL    HW135081   3.001   1.625  11.616 -0.1982 -0.2376  1.3643
 7815SOL    HW235082   2.994   1.769  11.581  2.9469  1.9926 -0.2340
 7816SOL     OW35083   0.872   4.200   7.154 -0.5509 -0.2980  0.0268
 7816SOL    HW135084   0.953   4.222   7.109 -1.1247  0.2344 -0.7333
 7816SOL    HW235085   0.853   4.285   7.194  3.3451 -0.1491  1.5506
 7817SOL     OW35086   1.283   0.783  10.230 -0.7054  0.4628  0.0426
 7817SOL    HW135087   1.356   0.721  10.229 -1.0625  0.0096  2.4093
 7817SOL    HW235088   1.290   0.815  10.140  1.0738  0.9070  0.3451
 7818SOL     OW35089   1.170   2.705  11.707 -0.2095  0.1491 -0.5390
 7818SOL    HW135090   1.102   2.649  11.669  0.0898  0.3380 -1.3401
 7818SOL    HW235091   1.216   2.741  11.632  0.5908  0.2845  0.0222
 7819SOL     OW35092   0.298   2.083   4.464 -0.0611 -0.2019  0.7253
 7819SOL    HW135093   0.338   2.132   4.536  0.3426  0.4211  0.0763
 7819SOL    HW235094   0.307   2.135   4.384 -1.7747 -0.6814  0.2248
 7820SOL     OW35095   2.876   1.314  12.871 -0.1443 -0.2951  0.1568
 7820SOL    HW135096   2.940   1.328  12.801 -0.4549 -0.1129 -0.0938
 7820SOL    HW235097   2.801   1.279  12.822 -1.1865  0.6933  1.0589
 7821SOL     OW35098   3.989   4.294  16.950  0.3418 -0.2651 -0.3769
 7821SOL    HW135099   4.076   4.258  16.970 -0.3250 -0.3408  2.4761
 7821SOL    HW235100   3.935   4.249  17.015 -0.6496 -0.2636 -1.2056
 7822SOL     OW35101   1.591   3.781   8.289 -0.2899  0.0553 -0.0516
 7822SOL    HW135102   1.649   3.853   8.313  1.4448 -1.4371  0.1355
 7822SOL    HW235103   1.650   3.706   8.287  1.0690  1.0590  2.8831
 7823SOL     OW35104   1.229   2.989   5.701 -0.1282  0.0890  0.4139
 7823SOL    HW135105   1.316   3.030   5.696  0.3183 -0.7903  1.0007
 7823SOL    HW235106   1.244   2.904   5.661  0.3661 -0.3065  1.4556
 7824SOL     OW35107   0.697   2.469   8.468  0.6158  0.6885 -0.4052
 7824SOL    HW135108   0.745   2.514   8.398  2.4828 -1.4480 -0.5034
 7824SOL    HW235109   0.771   2.419   8.503 -1.0944 -1.2066  0.4690
 7825SOL     OW35110   0.891   3.944   0.847  0.1981  0.0464 -0.4031
 7825SOL    HW135111   0.943   3.947   0.927  3.0158  0.1801 -2.2229
 7825SOL    HW235112   0.947   3.991   0.786  3.0756 -2.8823 -0.0296
 7826SOL     OW35113   4.177   0.090   2.785 -0.1424 -0.3652 -0.3280
 7826SOL    HW135114   4.174   0.165   2.725  1.8978  0.6593  0.8729
 7826SOL    HW235115   4.272   0.085   2.795 -0.1083  2.2552  0.7818
 7827SOL     OW35116   0.729   4.083  15.216  0.0532 -0.4349 -0.3471
 7827SOL    HW135117   0.658   4.022  15.194 -1.9566  1.8782 -0.3090
 7827SOL    HW235118   0.686   4.162  15.182 -3.8536 -2.0625  0.7449
 7828SOL     OW35119   3.728   2.090   4.649 -0.4303  0.1090 -0.0650
 7828SOL    HW135120   3.659   2.062   4.590  1.4628 -2.7653 -0.8786
 7828SOL    HW235121   3.677   2.106   4.729 -0.0524  0.0299  0.1959
 7829SOL     OW35122   1.169   3.733  17.724  0.2219 -0.3973  0.3431
 7829SOL    HW135123   1.122   3.752   0.063 -2.0337 -1.1735 -0.7739
 7829SOL    HW235124   1.152   3.639  17.726  1.0190 -0.5367  0.4128
 7830SOL     OW35125   0.836   1.432  13.701  0.3203 -0.2241 -0.6302
 7830SOL    HW135126   0.758   1.404  13.652  1.2377 -3.4823 -0.2273
 7830SOL    HW235127   0.875   1.345  13.714  1.3082  0.2760 -0.2633
 7831SOL     OW35128   0.625   4.529   9.429  0.6812 -0.2965 -0.0212
 7831SOL    HW135129   0.593   4.508   9.516 -1.2806 -0.0912 -0.6980
 7831SOL    HW235130   0.650   4.439   9.405  1.6483  0.6778 -2.6625
 7832SOL     OW35131   2.271   4.349  11.702  0.2289  0.4140 -0.0816
 7832SOL    HW135132   2.230   4.432  11.725 -0.6061 -0.2594  0.8336
 7832SOL    HW235133   2.235   4.340  11.613  0.5665 -1.5698 -0.0131
 7833SOL     OW35134   3.089   2.926   7.308  0.7754  0.0706 -0.1354
 7833SOL    HW135135   3.099   2.834   7.334  0.3448  0.5805  1.7971
 7833SOL    HW235136   3.181   2.938   7.284  1.1792 -2.9571 -0.0545
 7834SOL     OW35137   0.319   1.585   6.022 -0.3356 -0.0295  0.4121
 7834SOL    HW135138   0.402   1.628   6.043  0.2275 -1.1235  0.4551
 7834SOL    HW235139   0.267   1.665   6.024 -1.9645 -1.1251  1.2166
 7835SOL     OW35140   4.244   1.793   6.640 -0.2446 -0.4239 -0.1051
 7835SOL    HW135141   4.325   1.820   6.597 -0.9951 -0.2007 -1.3583
 7835SOL    HW235142   4.224   1.873   6.689  0.4248  0.0562 -0.6175
 7836SOL     OW35143   0.402   0.120   8.079  0.2393 -0.7638 -0.2855
 7836SOL    HW135144   0.377   0.131   7.987 -2.2292 -0.8748  0.3948
 7836SOL    HW235145   0.318   0.091   8.115 -0.2613 -0.6182 -1.3388
 7837SOL     OW35146   1.934   3.584   1.891 -0.3982  0.2279  0.0913
 7837SOL    HW135147   2.028   3.604   1.892 -0.5127  0.9015 -2.4570
 7837SOL    HW235148   1.905   3.670   1.860  1.0915  0.2771 -1.1609
 7838SOL     OW35149   0.970   1.833   9.546  0.1947 -0.4345 -0.1097
 7838SOL    HW135150   1.044   1.874   9.500  0.3726  0.4482  0.9757
 7838SOL    HW235151   0.993   1.740   9.545  2.6256  0.1572  0.7991
 7839SOL     OW35152   2.410   1.861   2.797 -0.0477  0.2102  0.2867
 7839SOL    HW135153   2.409   1.910   2.879  1.1346 -0.5139  0.7305
 7839SOL    HW235154   2.325   1.817   2.797 -0.7262  1.5449  0.8356
 7840SOL     OW35155   4.377   2.271  16.138 -0.2703 -0.6274 -0.1181
 7840SOL    HW135156   4.353   2.333  16.069  0.6737 -0.5061 -0.3349
 7840SOL    HW235157   4.430   2.322  16.199  0.7654 -2.3524  0.4207
 7841SOL     OW35158   2.688   1.493   7.086 -0.2572 -0.8131 -0.0942
 7841SOL    HW135159   2.634   1.573   7.081  0.0909 -0.6133 -0.7132
 7841SOL    HW235160   2.619   1.431   7.061 -2.9891  2.1228  0.1576
 7842SOL     OW35161   0.945   1.538  16.201  0.2113 -0.4386  0.7546
 7842SOL    HW135162   1.014   1.500  16.146 -0.6328 -1.1264  0.1739
 7842SOL    HW235163   0.867   1.500  16.161  1.6975 -2.2677 -0.4426
 7843SOL     OW35164   3.458   1.586   0.053  0.2837  0.2008  0.7998
 7843SOL    HW135165   3.550   1.607   0.037  0.2530 -1.3064 -1.3487
 7843SOL    HW235166   3.458   1.494   0.080  1.5274  0.3095  1.1909
 7844SOL     OW35167   0.954   3.486   9.429 -0.0371  0.0276 -0.0985
 7844SOL    HW135168   1.037   3.490   9.476  0.3296 -0.8491 -0.6717
 7844SOL    HW235169   0.957   3.579   9.407  1.1768 -0.0306 -0.1749
 7845SOL     OW35170   1.423   0.650   5.154  0.0668  0.4030  0.5233
 7845SOL    HW135171   1.490   0.679   5.092 -1.4809  0.3579 -1.1634
 7845SOL    HW235172   1.482   0.617   5.223  0.2472  1.5550  0.9105
 7846SOL     OW35173   0.359   0.181   4.508 -0.9041 -0.0758 -0.1010
 7846SOL    HW135174   0.432   0.148   4.456 -0.4688 -2.7969  2.1893
 7846SOL    HW235175   0.375   0.271   4.481 -0.1890 -0.1193  0.1598
 7847SOL     OW35176   1.280   0.968   5.256 -0.3891  0.3924  0.2445
 7847SOL    HW135177   1.273   1.027   5.181 -0.0802  2.0761  1.5348
 7847SOL    HW235178   1.370   0.988   5.284  0.1907 -2.2185  0.2741
 7848SOL     OW35179   4.618   2.305  12.711 -0.2002 -0.0274  0.3404
 7848SOL    HW135180   4.542   2.268  12.665 -0.9315  0.8114  0.8691
 7848SOL    HW235181   4.652   2.229  12.757 -2.3322 -2.2011 -1.6771
 7849SOL     OW35182   0.134   1.427   4.758  0.2016  0.2768 -0.2190
 7849SOL    HW135183   0.168   1.436   4.847 -0.5912  2.6617 -0.1576
 7849SOL    HW235184   0.221   1.437   4.719  0.0345  0.5503 -0.5171
 7850SOL     OW35185   0.185   2.803  13.880  0.8339 -0.2084 -0.0680
 7850SOL    HW135186   0.162   2.888  13.917  0.2744  0.0117 -0.9270
 7850SOL    HW235187   0.111   2.785  13.823 -0.7149  1.4799  1.4158
 7851SOL     OW35188   0.573   3.873   8.980  0.1129 -0.0115 -0.1745
 7851SOL    HW135189   0.626   3.842   9.054 -1.3897  0.9515  1.3073
 7851SOL    HW235190   0.633   3.939   8.945 -1.1415  0.6591 -1.0680
 7852SOL     OW35191   0.667   3.505  16.576  0.5444  1.0894 -0.0567
 7852SOL    HW135192   0.706   3.435  16.628 -3.8035 -1.7297 -0.6462
 7852SOL    HW235193   0.724   3.578  16.602  2.4822  0.7604 -3.3711
 7853SOL     OW35194   2.610   1.671   2.839  0.3696  0.4341 -0.4367
 7853SOL    HW135195   2.541   1.736   2.829  0.7614  0.9669  0.3409
 7853SOL    HW235196   2.675   1.722   2.888 -0.0164  0.5653 -0.0630
 7854SOL     OW35197   3.500   1.558   4.105 -0.0760  0.4523 -0.3799
 7854SOL    HW135198   3.488   1.530   4.014 -1.3188 -1.8874  0.5005
 7854SOL    HW235199   3.588   1.530   4.127 -0.9920 -2.2749 -0.2545
 7855SOL     OW35200   3.936   4.557   6.753  0.6290 -0.2112  0.5296
 7855SOL    HW135201   3.849   4.577   6.721  0.4721 -0.8470  0.5553
 7855SOL    HW235202   3.985   4.536   6.673 -2.0694  0.9277 -1.3978
 7856SOL     OW35203   2.810   3.605  15.204 -0.5544  0.1286  0.5343
 7856SOL    HW135204   2.730   3.577  15.160 -0.7561  1.4968  0.0053
 7856SOL    HW235205   2.854   3.647  15.130 -0.5609  0.1218  0.5265
 7857SOL     OW35206   1.145   0.967  17.271 -0.0978 -0.4328  0.1225
 7857SOL    HW135207   1.127   0.914  17.194  2.6475 -2.1245  0.6418
 7857SOL    HW235208   1.229   1.004  17.243 -0.7192  2.6164  2.3534
 7858SOL     OW35209   4.067   4.133   3.005  0.1185 -0.3483 -0.5194
 7858SOL    HW135210   4.094   4.216   2.965 -0.6223 -0.6406 -1.6103
 7858SOL    HW235211   4.038   4.164   3.091 -1.0529 -0.2904 -0.9410
 7859SOL     OW35212   0.348   2.185   4.691  0.0308  0.2120  0.5379
 7859SOL    HW135213   0.258   2.212   4.707 -0.6711 -2.3679  0.8787
 7859SOL    HW235214   0.384   2.171   4.778  3.2311  1.1289 -0.6383
 7860SOL     OW35215   0.992   2.994   6.212 -0.5402  0.2613 -0.7047
 7860SOL    HW135216   1.021   2.903   6.205  1.4795  0.8361  0.2009
 7860SOL    HW235217   0.905   2.972   6.244 -0.1935  0.4847  0.3988
 7861SOL     OW35218   1.563   3.984   7.895 -0.0726  0.5493 -0.8091
 7861SOL    HW135219   1.619   3.910   7.920 -0.4414  1.1048  1.6500
 7861SOL    HW235220   1.545   4.022   7.981  0.0779 -0.3597 -0.3671
 7862SOL     OW35221   2.813   4.682  15.051 -0.0274  0.6212 -0.3525
 7862SOL    HW135222   2.846   4.687  14.961  0.3048  1.8911 -0.1579
 7862SOL    HW235223   2.733   4.733  15.042  0.2670  1.5585  2.5917
 7863SOL     OW35224   0.962   1.960   1.208  0.3272  0.2658  0.6429
 7863SOL    HW135225   0.893   2.026   1.200 -0.9829 -1.1698  0.0332
 7863SOL    HW235226   0.923   1.916   1.283 -3.0881  1.4787 -0.4049
 7864SOL     OW35227   3.000   0.526   7.788  0.5595 -0.3197 -0.1619
 7864SOL    HW135228   3.019   0.598   7.848  1.2831 -0.2225 -0.4998
 7864SOL    HW235229   2.965   0.578   7.716  2.2485  0.7512 -0.2151
 7865SOL     OW35230   0.753   3.734   1.635  0.1851  0.6440  0.2623
 7865SOL    HW135231   0.672   3.705   1.677  0.9522 -1.5304  0.2886
 7865SOL    HW235232   0.780   3.808   1.690 -1.6119  1.7214 -0.3263
 7866SOL     OW35233   0.955   1.352   2.007 -0.2842 -0.3478 -0.1652
 7866SOL    HW135234   0.884   1.314   1.955  0.7142 -2.9236  0.3688
 7866SOL    HW235235   0.924   1.314   2.089 -2.5595  0.7678 -0.5121
 7867SOL     OW35236   0.725   1.696   8.451  0.4147 -0.1572  0.2956
 7867SOL    HW135237   0.697   1.606   8.435  2.6003 -0.8024  0.0345
 7867SOL    HW235238   0.751   1.682   8.542 -2.6148 -1.4194  0.9674
 7868SOL     OW35239   0.681   2.526  12.321 -0.2365  0.1998  0.0767
 7868SOL    HW135240   0.627   2.579  12.263 -0.8457  0.6192  1.0189
 7868SOL    HW235241   0.769   2.557  12.304  0.9832 -2.1739  1.9560
 7869SOL     OW35242   2.438   0.536   5.115 -0.0856 -0.7342 -0.0153
 7869SOL    HW135243   2.350   0.574   5.104 -0.7885 -1.8327  1.8412
 7869SOL    HW235244   2.477   0.606   5.168  2.5946 -0.0172 -2.9593
 7870SOL     OW35245   0.013   1.960   4.483  0.4239 -0.5876 -0.0689
 7870SOL    HW135246   0.085   2.012   4.518 -0.0345  0.8515 -1.2432
 7870SOL    HW235247   4.721   2.015   4.409 -1.5749  1.0169  1.8596
 7871SOL     OW35248   2.125   4.164   1.541  0.0730  0.1694  0.0065
 7871SOL    HW135249   2.061   4.097   1.564 -1.0097  0.8328 -1.0562
 7871SOL    HW235250   2.178   4.118   1.476  0.8663 -0.1078  0.8487
 7872SOL     OW35251   0.365   3.669   1.351 -0.1534  0.1642 -0.2648
 7872SOL    HW135252   0.359   3.655   1.256 -0.6736  1.5665 -0.4307
 7872SOL    HW235253   0.448   3.625   1.369 -0.2588  0.0920  0.0382
 7873SOL     OW35254   3.404   2.366   8.655  0.4926 -0.0113  0.6735
 7873SOL    HW135255   3.428   2.318   8.733 -0.4269 -1.4939  0.0420
 7873SOL    HW235256   3.310   2.354   8.669  0.2834 -0.1084 -0.7922
 7874SOL     OW35257   1.645   4.041   4.791  0.1582 -0.2724 -0.2590
 7874SOL    HW135258   1.589   4.118   4.796  0.2254 -0.2281 -0.1799
 7874SOL    HW235259   1.690   4.070   4.712 -1.7794  1.8826 -0.5596
 7875SOL     OW35260   4.167   3.407   5.431  0.4314 -0.0329  0.3303
 7875SOL    HW135261   4.131   3.322   5.459  0.0248  1.2152  3.6753
 7875SOL    HW235262   4.247   3.388   5.383  0.4244 -0.0933  0.3416
 7876SOL     OW35263   4.555   1.803  10.364  0.0765 -0.5815 -0.3190
 7876SOL    HW135264   4.578   1.739  10.296 -2.1393 -2.2621  0.5173
 7876SOL    HW235265   4.599   1.754  10.434 -0.2014 -2.2588 -1.3131
 7877SOL     OW35266   4.445   3.145   7.401  0.7768  0.0667 -0.0623
 7877SOL    HW135267   4.390   3.200   7.346 -0.0455  0.4825  1.1581
 7877SOL    HW235268   4.511   3.110   7.342 -0.3700 -0.0448 -1.2788
 7878SOL     OW35269   1.055   2.950  16.767  0.4473  0.1181 -0.1472
 7878SOL    HW135270   1.061   2.854  16.776  0.2509 -0.0959 -2.4795
 7878SOL    HW235271   0.991   2.972  16.835 -0.6040  1.8474 -1.7354
 7879SOL     OW35272   0.307   3.390  13.410  0.0096 -0.3935 -0.0856
 7879SOL    HW135273   0.267   3.369  13.494  0.4502  3.1537  1.0323
 7879SOL    HW235274   0.388   3.341  13.414  1.6015  2.1760 -0.7924
 7880SOL     OW35275   1.253   3.595  14.064 -0.0345  0.2265 -0.1998
 7880SOL    HW135276   1.184   3.623  14.125 -3.4349  1.8475 -4.8036
 7880SOL    HW235277   1.218   3.525  14.009 -1.9054 -0.2032  1.5117
 7881SOL     OW35278   2.471   4.724   7.824  0.1614 -0.1870 -0.1635
 7881SOL    HW135279   2.431   4.654   7.876  0.5601  0.3362  0.8484
 7881SOL    HW235280   2.411   4.716   7.750  0.6329 -0.6442 -0.4911
 7882SOL     OW35281   4.713   0.893   7.794 -0.7011  0.8816  0.8863
 7882SOL    HW135282   4.671   0.811   7.768 -0.3717  0.6844  0.9838
 7882SOL    HW235283   0.022   0.916   7.712 -0.7741  0.6710  0.7864
 7883SOL     OW35284   1.801   2.115   9.512 -0.5560  0.4130  0.0929
 7883SOL    HW135285   1.851   2.033   9.507  0.5005  1.0353  0.4303
 7883SOL    HW235286   1.837   2.164   9.438 -1.8153 -0.9704 -1.4466
 7884SOL     OW35287   2.211   2.030  10.140 -0.0687 -0.5392 -0.0747
 7884SOL    HW135288   2.192   2.070  10.225 -1.4460 -2.1574  0.3803
 7884SOL    HW235289   2.307   2.037  10.138 -0.1559  1.0073  1.1326
 7885SOL     OW35290   3.696   1.367   2.570  0.2666 -0.2076  0.1615
 7885SOL    HW135291   3.710   1.393   2.479  0.3146  1.9199  0.7808
 7885SOL    HW235292   3.722   1.444   2.621 -0.3242 -0.1449  0.3680
 7886SOL     OW35293   4.609   1.354   1.775 -0.4077 -0.1093  0.4333
 7886SOL    HW135294   4.701   1.327   1.782 -0.1348  0.9991  1.0674
 7886SOL    HW235295   4.565   1.274   1.745  1.2334 -0.0770 -2.0242
 7887SOL     OW35296   2.488   3.814   8.533 -0.1373 -0.2054 -0.3365
 7887SOL    HW135297   2.416   3.761   8.498 -1.2037 -0.0734  1.6698
 7887SOL    HW235298   2.499   3.765   8.615 -1.6772  0.9592  0.5676
 7888SOL     OW35299   3.214   3.168  10.378  0.3280  0.1527  0.6105
 7888SOL    HW135300   3.160   3.168  10.457 -2.5413  0.2603 -1.3760
 7888SOL    HW235301   3.306   3.168  10.403  0.1203  0.5260  1.3818
 7889SOL     OW35302   0.347   0.381   2.342 -0.0570 -0.0141  0.1016
 7889SOL    HW135303   0.276   0.391   2.280  1.6688  3.7495 -1.3147
 7889SOL    HW235304   0.411   0.439   2.300  0.9645 -0.9604  0.3498
 7890SOL     OW35305   1.686   3.552   2.036 -0.4667 -0.1070 -0.2281
 7890SOL    HW135306   1.775   3.551   1.999  0.0291  1.9200  0.8880
 7890SOL    HW235307   1.708   3.558   2.129 -1.1466  1.6358 -0.1852
 7891SOL     OW35308   3.001   0.331   3.171  0.0746 -0.1482 -0.0425
 7891SOL    HW135309   3.029   0.271   3.101  0.4288 -1.9101  1.6121
 7891SOL    HW235310   2.934   0.387   3.131  0.8480  0.1582 -0.9237
 7892SOL     OW35311   2.750   2.175   3.062  0.4179 -0.1130 -0.1431
 7892SOL    HW135312   2.759   2.245   3.127  1.3084 -0.9925  0.6688
 7892SOL    HW235313   2.703   2.117   3.122  1.0461  0.7788  1.2144
 7893SOL     OW35314   3.443   2.308   3.408 -0.1842  0.5938 -0.0245
 7893SOL    HW135315   3.470   2.399   3.411  2.7865 -0.2822  0.1165
 7893SOL    HW235316   3.503   2.271   3.474 -0.5482  0.5820  0.2975
 7894SOL     OW35317   1.352   0.899   8.248 -0.2759 -0.2498 -0.0142
 7894SOL    HW135318   1.416   0.875   8.314 -0.1965 -2.1505 -0.7999
 7894SOL    HW235319   1.270   0.893   8.297 -0.1042  1.9712  0.5647
 7895SOL     OW35320   0.471   0.100  16.220  0.2394  0.0689  0.0008
 7895SOL    HW135321   0.467   0.005  16.214  0.4515  0.0560  0.0726
 7895SOL    HW235322   0.427   0.118  16.303 -0.6387 -0.8418 -0.2685
 7896SOL     OW35323   1.735   4.650  13.672 -0.5242  0.2734 -0.2759
 7896SOL    HW135324   1.664   4.586  13.669  1.5435 -2.1454  3.3109
 7896SOL    HW235325   1.815   4.618  13.714  0.9494  1.3094 -2.2713
 7897SOL     OW35326   2.608   2.595  16.615 -0.0364  0.1591 -0.2328
 7897SOL    HW135327   2.576   2.614  16.527 -1.2891 -1.0751 -0.0544
 7897SOL    HW235328   2.630   2.503  16.598 -0.6306  0.1570 -0.9871
 7898SOL     OW35329   3.689   3.621   7.471 -0.1342 -0.0029 -0.4526
 7898SOL    HW135330   3.633   3.614   7.548 -0.3847  0.5615 -0.5879
 7898SOL    HW235331   3.746   3.549   7.498 -3.1999 -1.5678  1.8595
 7899SOL     OW35332   3.335   2.920  10.611  0.0542  0.0061 -0.3459
 7899SOL    HW135333   3.321   2.863  10.536  1.7380 -0.1659 -0.5318
 7899SOL    HW235334   3.397   2.860  10.653  0.7409 -0.4486 -1.9919
 7900SOL     OW35335   0.528   2.556   6.137 -0.5239 -0.0234  0.2797
 7900SOL    HW135336   0.583   2.601   6.072 -2.1028 -0.4997 -1.3793
 7900SOL    HW235337   0.485   2.489   6.084 -0.3777 -0.1492  0.3201
 7901SOL     OW35338   4.721   2.165   2.948 -1.0626 -0.3920  0.5177
 7901SOL    HW135339   4.695   2.111   3.024  1.5059  0.6719  2.1695
 7901SOL    HW235340   4.734   2.091   2.888 -0.2862  1.5673 -1.6887
 7902SOL     OW35341   2.733   4.086  12.172 -0.0146 -0.4380  0.4595
 7902SOL    HW135342   2.653   4.130  12.200 -0.5142 -1.5424  0.7508
 7902SOL    HW235343   2.706   3.997  12.191  1.7963 -1.0669  0.0987
 7903SOL     OW35344   2.680   3.901   3.078 -0.0520 -0.1151 -0.6055
 7903SOL    HW135345   2.621   3.954   3.025 -1.0191  0.0258  0.6043
 7903SOL    HW235346   2.682   3.819   3.030  2.3979 -1.2177  1.3339
 7904SOL     OW35347   3.155   2.873   2.678 -0.1023  0.5263 -0.2553
 7904SOL    HW135348   3.227   2.811   2.662 -0.4438 -0.4129  1.7322
 7904SOL    HW235349   3.114   2.823   2.749 -0.5538  0.3294 -0.6542
 7905SOL     OW35350   4.348   2.351   0.352 -0.1563  0.0952 -0.3620
 7905SOL    HW135351   4.296   2.405   0.292 -2.2968  0.1956  1.5930
 7905SOL    HW235352   4.341   2.259   0.327 -1.7081 -0.2020  1.1868
 7906SOL     OW35353   3.267   3.624   4.397  0.0315  0.1485 -0.1898
 7906SOL    HW135354   3.252   3.704   4.448  1.2206  1.1212 -1.3762
 7906SOL    HW235355   3.175   3.601   4.382 -0.4176  0.0648  2.7687
 7907SOL     OW35356   0.699   4.499   8.484  0.2226  0.2531  0.2973
 7907SOL    HW135357   0.693   4.471   8.393 -2.1301 -1.4143  0.9858
 7907SOL    HW235358   0.700   4.594   8.471  0.3246  0.5241  2.2865
 7908SOL     OW35359   1.156   3.901   1.493 -0.4782 -0.5713 -0.1704
 7908SOL    HW135360   1.201   3.899   1.577  0.5524 -0.7076 -0.7191
 7908SOL    HW235361   1.072   3.942   1.515 -0.3816 -0.7074  0.4394
 7909SOL     OW35362   4.103   0.404  14.989 -0.5990 -0.4740 -0.1969
 7909SOL    HW135363   4.194   0.431  15.002 -0.8119 -0.0169  0.3017
 7909SOL    HW235364   4.070   0.437  15.072  1.0375  1.4005 -0.2971
 7910SOL     OW35365   4.226   2.009   8.253  0.2825 -0.1821  0.1705
 7910SOL    HW135366   4.288   1.954   8.302 -0.3266 -2.7609 -1.9472
 7910SOL    HW235367   4.154   2.014   8.317  0.3197  2.5206 -0.0176
 7911SOL     OW35368   1.640   0.627   8.933 -0.1120 -0.0837 -0.2405
 7911SOL    HW135369   1.584   0.554   8.960  1.0192 -1.3380 -1.2800
 7911SOL    HW235370   1.721   0.577   8.924 -0.0836 -0.1906  0.5737
 7912SOL     OW35371   0.270   3.792  16.684  0.0273 -0.6634 -0.1053
 7912SOL    HW135372   0.187   3.809  16.727 -0.2405 -1.3396 -0.3642
 7912SOL    HW235373   0.260   3.698  16.676 -0.1209 -0.7524  1.1534
 7913SOL     OW35374   0.299   2.747  14.223 -0.2002  0.4444  0.0288
 7913SOL    HW135375   0.299   2.771  14.130  1.2811 -1.9496 -0.6068
 7913SOL    HW235376   0.391   2.757  14.250 -0.1869 -1.2121  0.6346
 7914SOL     OW35377   0.841   1.381  15.385 -0.5868 -0.4398 -0.6126
 7914SOL    HW135378   0.782   1.332  15.442  0.3319  0.1581  0.8591
 7914SOL    HW235379   0.815   1.356  15.297  0.6289 -0.0494 -1.0821
 7915SOL     OW35380   2.860   0.888   4.660 -0.6540 -0.4466 -0.1688
 7915SOL    HW135381   2.865   0.800   4.697 -1.0190 -0.7213 -0.7824
 7915SOL    HW235382   2.910   0.940   4.724 -2.9889  0.6687  0.7352
 7916SOL     OW35383   0.067   1.572  16.251  0.0027  0.5093  0.1130
 7916SOL    HW135384   4.709   1.577  16.268  0.3717 -1.7025  2.7475
 7916SOL    HW235385   0.086   1.666  16.255 -0.1138  0.5014  0.7965
 7917SOL     OW35386   2.648   1.599   7.863  0.0253  0.1994  0.1960
 7917SOL    HW135387   2.636   1.543   7.787 -0.4011  0.3926  0.1207
 7917SOL    HW235388   2.690   1.536   7.922  1.4547 -0.1783 -1.2327
 7918SOL     OW35389   3.216   4.378  16.495  0.0470  0.0481 -0.3922
 7918SOL    HW135390   3.270   4.341  16.425  0.0461 -3.8046  1.6499
 7918SOL    HW235391   3.243   4.324  16.569  0.0977  2.2341  1.1699
 7919SOL     OW35392   3.059   4.490   2.542 -0.4410 -0.4873 -0.7076
 7919SOL    HW135393   3.102   4.506   2.626  0.0672 -0.8450 -0.8941
 7919SOL    HW235394   3.070   4.575   2.499  0.2126 -0.1476  0.1469
 7920SOL     OW35395   3.421   2.890   4.213  0.4601 -0.3441  0.1329
 7920SOL    HW135396   3.425   2.974   4.258 -0.3819 -0.6516  0.7978
 7920SOL    HW235397   3.426   2.830   4.287 -0.3197  0.3917  0.7737
 7921SOL     OW35398   1.639   3.219   2.211 -0.2316 -0.2028  0.3908
 7921SOL    HW135399   1.676   3.200   2.297  0.6029  0.4962  0.1869
 7921SOL    HW235400   1.714   3.199   2.156 -0.8308  1.2833 -0.9681
 7922SOL     OW35401   2.448   0.338   4.948  0.1211 -0.3982 -0.2045
 7922SOL    HW135402   2.440   0.410   5.010 -2.0306 -0.3858 -0.4994
 7922SOL    HW235403   2.363   0.343   4.904  0.0015  1.3232  0.2353
 7923SOL     OW35404   4.537   4.454   6.955 -0.0383 -0.0871  0.1628
 7923SOL    HW135405   4.501   4.390   7.016 -0.8174 -0.7367 -0.9714
 7923SOL    HW235406   4.576   4.401   6.885  1.1776  1.9138 -0.6757
 7924SOL     OW35407   1.625   4.085   6.609  0.1295 -0.1300  0.1907
 7924SOL    HW135408   1.648   4.081   6.516  0.9737 -1.8989  0.4686
 7924SOL    HW235409   1.532   4.103   6.620  0.2969  1.2044 -0.5635
 7925SOL     OW35410   4.663   0.162   6.936 -0.0465 -0.2973 -0.5855
 7925SOL    HW135411   4.644   0.091   6.875 -0.3852  0.9297 -1.8980
 7925SOL    HW235412   4.575   0.198   6.942  0.2661  0.3173  0.3815
 7926SOL     OW35413   0.595   4.539  14.200  0.4136 -0.0292 -0.3882
 7926SOL    HW135414   0.573   4.625  14.233 -1.3407 -0.2411 -1.0255
 7926SOL    HW235415   0.508   4.500  14.196 -0.7039  2.5097 -0.3936
 7927SOL     OW35416   3.276   1.431   5.768 -0.0923  0.0551  0.4780
 7927SOL    HW135417   3.316   1.419   5.854 -1.8747 -1.7109  1.0568
 7927SOL    HW235418   3.275   1.343   5.732  1.9581  0.8976 -1.6572
 7928SOL     OW35419   0.724   3.286  11.186  0.3269 -0.2048 -0.3965
 7928SOL    HW135420   0.733   3.378  11.208  1.1786 -0.5593  0.7092
 7928SOL    HW235421   0.630   3.270  11.187 -0.1719  2.7224 -1.7002
 7929SOL     OW35422   3.345   4.038   9.800 -0.3714 -0.8423 -0.4038
 7929SOL    HW135423   3.268   4.077   9.758  0.1117  0.1531 -0.3877
 7929SOL    HW235424   3.416   4.096   9.772  1.0182 -2.0201  0.6811
 7930SOL     OW35425   1.374   2.062   2.821  0.3081  0.1671  0.0078
 7930SOL    HW135426   1.410   2.060   2.909 -1.6397 -3.0492  0.7245
 7930SOL    HW235427   1.461   2.080   2.785 -0.0270  2.0631  0.1232
 7931SOL     OW35428   0.861   4.370   9.172  0.6336 -0.7041  0.6516
 7931SOL    HW135429   0.953   4.359   9.197  0.6390  0.7348  1.2401
 7931SOL    HW235430   0.811   4.337   9.247  0.4773 -3.5996 -0.7081
 7932SOL     OW35431   1.725   2.839   7.870 -0.8477 -0.1008 -0.6854
 7932SOL    HW135432   1.694   2.881   7.790 -0.0940  0.0296 -0.9112
 7932SOL    HW235433   1.647   2.801   7.911 -0.3360 -2.9980 -2.3885
 7933SOL     OW35434   1.464   1.744   5.945 -0.5789 -0.4325  0.6192
 7933SOL    HW135435   1.418   1.691   6.010  2.5543 -2.7728  0.9515
 7933SOL    HW235436   1.424   1.709   5.865  1.8101 -1.9605  0.0902
 7934SOL     OW35437   1.327   0.596   9.487 -0.4979  0.9695  0.3570
 7934SOL    HW135438   1.281   0.675   9.460  0.1324  1.9927  2.3064
 7934SOL    HW235439   1.289   0.582   9.574 -1.6633  1.5828 -0.0590
 7935SOL     OW35440   3.475   2.274   7.732 -0.4112  0.3396  0.0337
 7935SOL    HW135441   3.493   2.279   7.826 -0.3297 -3.2672  0.2056
 7935SOL    HW235442   3.388   2.234   7.741 -0.1390 -0.4003 -0.6067
 7936SOL     OW35443   1.088   0.144   2.822  0.3448 -0.3320 -0.1534
 7936SOL    HW135444   1.179   0.115   2.812  0.7882  1.5448 -1.4525
 7936SOL    HW235445   1.099   0.198   2.901 -0.7804 -1.6609  0.9152
 7937SOL     OW35446   2.208   4.431  10.180 -0.1043 -0.1108  1.0514
 7937SOL    HW135447   2.205   4.513  10.131  3.8137 -1.0328 -0.6868
 7937SOL    HW235448   2.300   4.428  10.206 -0.4168 -1.4176  1.9989
 7938SOL     OW35449   3.156   2.299   9.015 -0.6059 -0.3504 -0.3276
 7938SOL    HW135450   3.086   2.353   9.052  0.5750  0.3982  0.7888
 7938SOL    HW235451   3.161   2.333   8.925 -0.4308 -1.6262 -0.8062
 7939SOL     OW35452   4.108   2.596   2.242  0.5133  0.2460 -0.4635
 7939SOL    HW135453   4.021   2.586   2.202 -0.1511 -0.4085  1.1544
 7939SOL    HW235454   4.148   2.514   2.212  1.8432  0.7575 -0.0530
 7940SOL     OW35455   4.692   4.627   2.684 -0.2616  0.0764 -0.3460
 7940SOL    HW135456   4.692   4.651   2.591  2.1151 -0.1490 -0.3924
 7940SOL    HW235457   4.727   4.539   2.670 -0.8386  0.1002 -2.0063
 7941SOL     OW35458   1.621   3.443  13.244 -0.1781  0.4825  0.5160
 7941SOL    HW135459   1.549   3.380  13.244  1.2579 -1.1623  0.5403
 7941SOL    HW235460   1.688   3.395  13.195  0.5903  3.1224 -1.0085
 7942SOL     OW35461   0.246   4.357   8.707  0.2140 -0.1676  0.3180
 7942SOL    HW135462   0.332   4.341   8.670  0.3324  0.3300  0.3777
 7942SOL    HW235463   0.254   4.452   8.721  2.3013 -0.1153 -1.2626
 7943SOL     OW35464   3.987   1.613  17.575  0.0967 -0.3993  0.2027
 7943SOL    HW135465   3.926   1.683  17.551 -0.2436 -1.0240 -0.7745
 7943SOL    HW235466   4.073   1.650  17.555  0.1677  0.0794  1.4513
 7944SOL     OW35467   3.234   0.084   8.178  0.0603  0.4232 -0.1349
 7944SOL    HW135468   3.176   0.039   8.240 -0.6193 -1.6881 -2.3010
 7944SOL    HW235469   3.252   0.012   8.118  2.4839  1.4619 -0.6604
 7945SOL     OW35470   4.600   2.503   6.946 -0.1565  0.2470 -0.6823
 7945SOL    HW135471   4.623   2.544   7.029  0.2745 -1.5082  0.0731
 7945SOL    HW235472   4.567   2.573   6.890 -1.5748 -0.8494 -1.2322
 7946SOL     OW35473   0.161   4.033   5.646  0.0216 -0.1558  0.6092
 7946SOL    HW135474   0.194   4.012   5.734 -3.1993  0.5829  1.9859
 7946SOL    HW235475   0.236   4.017   5.589  0.1037  0.3859  0.5594
 7947SOL     OW35476   1.476   3.061  14.132  0.3122 -0.4627 -0.0395
 7947SOL    HW135477   1.544   3.114  14.173  1.7160 -1.4499 -1.1008
 7947SOL    HW235478   1.467   3.080  14.039 -2.5367 -2.6606 -0.2245
 7948SOL     OW35479   1.309   2.858   1.595 -0.3487  0.5973 -0.2464
 7948SOL    HW135480   1.261   2.783   1.560 -1.2643  0.3867  1.5019
 7948SOL    HW235481   1.338   2.826   1.680 -2.3926 -2.1460 -0.5977
 7949SOL     OW35482   3.577   3.920  11.339  0.6483 -0.1492  0.4422
 7949SOL    HW135483   3.598   4.012  11.328 -0.2962 -0.2294 -2.0550
 7949SOL    HW235484   3.631   3.900  11.416  0.8180  0.9349  0.5983
 7950SOL     OW35485   4.032   0.736  13.766  0.2209  0.2226 -0.2123
 7950SOL    HW135486   4.055   0.691  13.686 -0.1874  0.5690 -0.5255
 7950SOL    HW235487   3.959   0.781  13.724  0.8086  2.7324  1.4569
 7951SOL     OW35488   1.904   1.442   2.197 -0.5743 -0.1827  0.2959
 7951SOL    HW135489   1.825   1.491   2.176  0.8692  2.2686  0.5471
 7951SOL    HW235490   1.881   1.349   2.202 -0.0541 -0.3739 -1.0283
 7952SOL     OW35491   2.459   1.847  15.320 -0.4174 -0.0252  0.4827
 7952SOL    HW135492   2.533   1.864  15.378  0.0825 -0.1838 -0.1123
 7952SOL    HW235493   2.499   1.894  15.247  1.0632 -1.1938  0.5525
 7953SOL     OW35494   1.330   4.287   8.799 -0.0444 -0.0085 -0.3064
 7953SOL    HW135495   1.359   4.283   8.707 -1.8633 -5.5041 -0.6522
 7953SOL    HW235496   1.250   4.339   8.800 -0.1958 -0.2889  0.9101
 7954SOL     OW35497   2.491   0.638   9.162  0.1722 -0.2090 -0.1567
 7954SOL    HW135498   2.440   0.704   9.115  1.0463  0.0190 -0.7848
 7954SOL    HW235499   2.574   0.685   9.151  0.1093  0.2431  1.3276
 7955SOL     OW35500   3.753   2.758   9.786 -0.5014  0.0525  0.2165
 7955SOL    HW135501   3.802   2.840   9.791  1.6887 -1.2411  0.0543
 7955SOL    HW235502   3.782   2.728   9.700  0.0412  0.4897  0.2499
 7956SOL     OW35503   0.884   3.723   9.337  0.7282 -0.3573  0.1767
 7956SOL    HW135504   0.876   3.674   9.256  0.8176  1.5442 -0.9713
 7956SOL    HW235505   0.975   3.756   9.336  0.7647 -0.6394 -4.3449
 7957SOL     OW35506   2.584   1.143   7.823 -0.8752  0.5556  0.5465
 7957SOL    HW135507   2.622   1.225   7.790 -1.1238  0.1879 -0.6694
 7957SOL    HW235508   2.526   1.190   7.883 -1.6220  1.5990 -0.9875
 7958SOL     OW35509   2.299   2.515  16.370  0.2440  0.6032 -0.1956
 7958SOL    HW135510   2.228   2.452  16.382  1.5697 -0.9886 -0.7038
 7958SOL    HW235511   2.273   2.580  16.435  0.7370  0.5255  0.0722
 7959SOL     OW35512   1.599   1.004  12.305 -0.2909 -0.0719  0.4554
 7959SOL    HW135513   1.573   0.916  12.279  1.2099 -0.6152  0.7965
 7959SOL    HW235514   1.563   1.008  12.393  1.3189 -1.7420  1.1826
 7960SOL     OW35515   4.401   3.333   0.131 -0.2061  0.6593 -0.8507
 7960SOL    HW135516   4.457   3.283   0.071  1.2659  1.9431 -0.5580
 7960SOL    HW235517   4.360   3.262   0.179  1.5239 -2.2934 -3.7566
 7961SOL     OW35518   3.624   3.392  14.946  0.5459 -0.1564 -0.9085
 7961SOL    HW135519   3.545   3.438  14.915 -0.1815  0.5094  1.9504
 7961SOL    HW235520   3.609   3.381  15.040 -0.7665  0.2147 -1.0657
 7962SOL     OW35521   2.047   0.331   6.957  0.3839 -0.3956 -0.8713
 7962SOL    HW135522   2.005   0.370   7.034 -0.9382  1.0721 -2.3192
 7962SOL    HW235523   2.118   0.281   6.997  1.2447  1.8950  0.4873
 7963SOL     OW35524   3.462   4.673  12.842  0.1522  0.2066 -0.6222
 7963SOL    HW135525   3.427   4.626  12.918 -0.1482 -0.5119 -1.2018
 7963SOL    HW235526   3.498   0.012  12.891  1.8491 -0.1142 -1.3797
 7964SOL     OW35527   1.167   2.304  12.016  0.1617  0.1584 -0.0185
 7964SOL    HW135528   1.180   2.398  12.006 -0.7652  0.5210  2.3792
 7964SOL    HW235529   1.248   2.272  12.057 -0.2473  0.4525  0.9967
 7965SOL     OW35530   3.017   2.522   5.942  0.0984  0.0672 -0.2664
 7965SOL    HW135531   2.946   2.467   5.974 -0.3442 -0.5160 -2.2151
 7965SOL    HW235532   2.995   2.611   5.970 -3.4287 -0.9873  0.3397
 7966SOL     OW35533   3.897   3.164   8.401  0.2075 -0.5744 -0.3707
 7966SOL    HW135534   3.975   3.166   8.345 -0.0609  0.5948 -0.7019
 7966SOL    HW235535   3.873   3.257   8.400 -0.9486 -0.8746  0.0281
 7967SOL     OW35536   0.496   4.208  11.051  0.2742 -0.4638 -0.5767
 7967SOL    HW135537   0.557   4.281  11.058 -2.3411  1.6201  0.3390
 7967SOL    HW235538   0.487   4.180  11.142  0.5815  0.2237 -0.3343
 7968SOL     OW35539   3.556   3.734  16.653  0.0840 -0.2814 -0.1052
 7968SOL    HW135540   3.571   3.810  16.597 -1.7468  0.5170  0.4874
 7968SOL    HW235541   3.645   3.713  16.682  0.1079  0.3542  0.2930
 7969SOL     OW35542   0.860   4.386   7.373 -0.4688  0.0947  0.5949
 7969SOL    HW135543   0.896   4.377   7.461  0.1495  0.9733  0.4375
 7969SOL    HW235544   0.781   4.336   7.390  0.9719 -1.7885  1.8047
 7970SOL     OW35545   3.886   3.526   9.417 -0.2490  0.3151  0.1610
 7970SOL    HW135546   3.943   3.469   9.470  0.8332  0.4408 -0.8778
 7970SOL    HW235547   3.844   3.586   9.479 -1.0743  1.1795 -1.2247
 7971SOL     OW35548   2.785   0.291   7.956  0.5447 -0.6177 -0.4843
 7971SOL    HW135549   2.782   0.378   7.996  0.8252 -0.7236 -0.2383
 7971SOL    HW235550   2.877   0.290   7.933 -0.0771 -1.9331 -2.9174
 7972SOL     OW35551   2.135   1.941   6.933  0.3329  0.3331 -0.2810
 7972SOL    HW135552   2.139   2.014   6.995  2.3759 -0.5266  0.5838
 7972SOL    HW235553   2.109   1.877   6.999 -1.3911  0.6477 -0.6484
 7973SOL     OW35554   0.418   1.429   2.463  0.2955  0.6751 -0.2965
 7973SOL    HW135555   0.502   1.385   2.479  0.6301  0.9768 -1.1858
 7973SOL    HW235556   0.444   1.511   2.421  1.5344  0.4646  0.0356
 7974SOL     OW35557   2.136   2.347   6.562 -0.7166  1.0925  0.0980
 7974SOL    HW135558   2.075   2.366   6.490 -1.6367  1.7870  1.0592
 7974SOL    HW235559   2.076   2.300   6.620  0.8644  0.4452  1.1860
 7975SOL     OW35560   2.150   0.742   8.515 -1.0883 -0.6756  0.2292
 7975SOL    HW135561   2.094   0.813   8.486  2.6438  1.9075 -0.6948
 7975SOL    HW235562   2.217   0.790   8.564  0.3846 -3.2387  0.7314
 7976SOL     OW35563   0.742   1.604   7.460  0.4959  0.0289 -0.5139
 7976SOL    HW135564   0.837   1.600   7.470  0.3358  1.7240  1.8246
 7976SOL    HW235565   0.716   1.689   7.496 -1.3143  0.2967 -2.4474
 7977SOL     OW35566   0.527   4.666   0.346  0.7922 -0.4398 -0.1839
 7977SOL    HW135567   0.460   4.667   0.278 -1.3087  1.7157  1.9264
 7977SOL    HW235568   0.605   4.705   0.308 -0.9045  1.7066 -1.4289
 7978SOL     OW35569   0.946   2.048  11.016  0.7819  0.2074  0.2189
 7978SOL    HW135570   0.978   2.058  10.927 -2.2546  0.8268 -0.7759
 7978SOL    HW235571   0.982   2.128  11.056  2.7476  0.8187 -2.8001
 7979SOL     OW35572   1.301   3.150  10.811  0.2474 -0.3512  0.1264
 7979SOL    HW135573   1.232   3.086  10.793  0.4738 -0.4186 -0.5082
 7979SOL    HW235574   1.377   3.093  10.813 -1.5251 -2.7532 -0.8781
 7980SOL     OW35575   0.235   0.430   6.946 -0.1587  0.2048 -0.2389
 7980SOL    HW135576   0.210   0.426   6.854  2.0478 -0.0869 -0.8160
 7980SOL    HW235577   0.228   0.337   6.969 -1.7142  0.7308  1.4469
 7981SOL     OW35578   2.013   2.345   4.813  0.3307 -0.3147 -0.5547
 7981SOL    HW135579   2.024   2.338   4.908  1.4531 -2.2498 -0.8282
 7981SOL    HW235580   1.920   2.369   4.806  0.6954  1.4462  0.8082
 7982SOL     OW35581   0.887   2.095  13.574  0.3929 -0.1097  0.0057
 7982SOL    HW135582   0.946   2.139  13.514 -1.3303  0.5473 -1.2020
 7982SOL    HW235583   0.945   2.020  13.590 -1.0216 -0.7789  2.0573
 7983SOL     OW35584   2.775   0.461   5.542 -0.1132  0.8600 -0.6146
 7983SOL    HW135585   2.835   0.521   5.499 -1.2893  0.1256 -3.2970
 7983SOL    HW235586   2.800   0.463   5.634 -2.0309 -0.0857 -0.0623
 7984SOL     OW35587   1.676   2.223  16.612 -0.3541  0.2360 -0.2718
 7984SOL    HW135588   1.678   2.153  16.676 -1.3586 -1.1954 -1.8109
 7984SOL    HW235589   1.770   2.236  16.595  0.0591 -0.3164  1.5893
 7985SOL     OW35590   1.347   1.108   4.941  0.9065 -0.1230 -0.0341
 7985SOL    HW135591   1.295   1.161   4.881  0.9560  1.7041  1.5349
 7985SOL    HW235592   1.407   1.173   4.979  1.2252 -0.1144 -0.5634
 7986SOL     OW35593   2.925   2.587   5.278  0.3445  0.2321  0.3337
 7986SOL    HW135594   2.834   2.616   5.278 -0.2932 -1.7875 -0.1750
 7986SOL    HW235595   2.923   2.508   5.223  2.0587 -0.1311  0.8073
 7987SOL     OW35596   0.809   0.239   4.552  0.0312 -0.3617  0.1604
 7987SOL    HW135597   0.865   0.186   4.609 -2.0902 -2.1518  0.5459
 7987SOL    HW235598   0.825   0.204   4.464 -0.3828 -0.9274  0.3135
 7988SOL     OW35599   4.411   2.196   8.170  0.0950  0.2807 -0.7212
 7988SOL    HW135600   4.364   2.113   8.178  1.1484 -0.2496  0.0614
 7988SOL    HW235601   4.422   2.214   8.264 -0.2188  0.9863 -0.8212
 7989SOL     OW35602   4.308   0.351   8.596 -0.1639 -0.8188 -0.1848
 7989SOL    HW135603   4.389   0.396   8.571  0.3537 -0.5757  1.9164
 7989SOL    HW235604   4.247   0.389   8.533  1.0015  0.6740 -0.4178
 7990SOL     OW35605   3.554   4.247   1.499  0.4565  0.3706 -0.3656
 7990SOL    HW135606   3.649   4.249   1.487  0.4234  1.7469 -0.4365
 7990SOL    HW235607   3.535   4.170   1.445  0.3869 -0.3617  0.6942
 7991SOL     OW35608   2.416   3.859   1.229  0.0055  0.5824  0.3734
 7991SOL    HW135609   2.485   3.923   1.249  0.4348  0.9380 -2.2788
 7991SOL    HW235610   2.382   3.902   1.151 -1.3460 -4.3770 -1.8095
 7992SOL     OW35611   1.898   0.184   7.402  0.0724 -0.4954  0.0722
 7992SOL    HW135612   1.955   0.145   7.335  0.8202 -1.1795  1.1019
 7992SOL    HW235613   1.964   0.247   7.432 -1.6290  0.8021  1.0851
 7993SOL     OW35614   0.508   4.093   7.937 -0.2455 -0.0056 -0.0518
 7993SOL    HW135615   0.426   4.045   7.953  0.5503 -0.6462  2.0622
 7993SOL    HW235616   0.496   4.174   7.987 -1.4422  0.5484 -1.2142
 7994SOL     OW35617   0.960   4.199   5.948 -0.0981  0.4146 -0.5901
 7994SOL    HW135618   0.876   4.154   5.959 -1.3155  2.4530 -1.6330
 7994SOL    HW235619   1.023   4.128   5.962 -0.4272  0.5432  1.6769
 7995SOL     OW35620   2.934   4.204  12.305 -0.1452  0.0409  0.5443
 7995SOL    HW135621   2.859   4.153  12.274 -1.8717  2.3167  1.0084
 7995SOL    HW235622   2.947   4.268  12.234 -1.7534  1.3612  1.4455
 7996SOL     OW35623   1.621   1.709   4.337  0.0937  0.2553 -0.0321
 7996SOL    HW135624   1.627   1.804   4.351 -0.6096  0.6000 -1.9911
 7996SOL    HW235625   1.684   1.700   4.265 -0.3211  1.8509 -0.5969
 7997SOL     OW35626   4.474   3.730   3.663  1.0435  0.1601 -0.0494
 7997SOL    HW135627   4.381   3.733   3.686  0.6802 -1.2106 -1.3390
 7997SOL    HW235628   4.518   3.788   3.725  0.2130  1.9116 -1.0975
 7998SOL     OW35629   4.533   4.599  13.134  0.3256  0.0540  0.1096
 7998SOL    HW135630   4.621   4.630  13.109  0.0678  0.5011 -0.2336
 7998SOL    HW235631   4.520   4.672  13.195  2.0401  0.8458 -0.4570
 7999SOL     OW35632   0.499   4.446   6.498 -0.1037  0.9437  0.1237
 7999SOL    HW135633   0.523   4.471   6.409 -1.1746  1.3621 -0.0451
 7999SOL    HW235634   0.425   4.503   6.519 -2.0281 -0.8374 -1.7583
 8000SOL     OW35635   4.601   1.265   8.088 -0.1029  0.5059 -0.4793
 8000SOL    HW135636   4.529   1.209   8.058  1.4042 -2.0501  0.6598
 8000SOL    HW235637   4.552   1.343   8.113 -1.7571  0.0978 -2.3687
 8001SOL     OW35638   3.489   2.236   4.185 -0.1794 -0.0286 -0.2845
 8001SOL    HW135639   3.489   2.332   4.184  2.7544 -0.0489 -2.4242
 8001SOL    HW235640   3.540   2.223   4.105 -0.9382  0.5013 -0.8602
 8002SOL     OW35641   0.250   0.729  16.662 -0.4585  0.5036 -0.5162
 8002SOL    HW135642   0.202   0.647  16.669  0.2436 -0.0618 -2.1874
 8002SOL    HW235643   0.309   0.701  16.592 -1.1032 -1.0713 -0.4246
 8003SOL     OW35644   0.903   4.637   8.885  0.1909  0.6110  0.0506
 8003SOL    HW135645   0.949   4.652   8.967  1.8630 -0.6120 -0.6764
 8003SOL    HW235646   0.959   4.681   8.821 -0.6951 -0.1328 -1.2483
 8004SOL     OW35647   0.489   2.909   8.337 -0.3145  0.1229 -0.2304
 8004SOL    HW135648   0.494   3.005   8.344 -0.8913  0.1442 -0.1183
 8004SOL    HW235649   0.573   2.879   8.302  0.8398  2.7227  0.2825
 8005SOL     OW35650   4.687   0.224   4.927 -0.7239  0.0784  0.0729
 8005SOL    HW135651   4.625   0.156   4.904 -2.7179  1.1019  2.3811
 8005SOL    HW235652   0.018   0.178   4.979 -0.7427 -1.4452 -1.2642
 8006SOL     OW35653   0.767   2.993   5.877 -0.1246  0.2776 -0.1110
 8006SOL    HW135654   0.793   3.018   5.789 -1.0339  1.7451  0.0449
 8006SOL    HW235655   0.849   2.954   5.908 -0.7700 -0.1800  1.0323
 8007SOL     OW35656   0.127   2.220   6.965 -0.6992 -0.1210  0.0606
 8007SOL    HW135657   0.063   2.217   7.036 -1.5450  0.9115 -0.6626
 8007SOL    HW235658   0.077   2.190   6.889  0.0491 -1.4649  0.1110
 8008SOL     OW35659   1.089   3.612   5.974 -0.3921  0.4654  0.3130
 8008SOL    HW135660   1.056   3.529   6.010 -0.2116  0.0469 -0.4819
 8008SOL    HW235661   1.172   3.616   6.020  0.8771 -0.8521 -1.8602
 8009SOL     OW35662   2.324   1.135   3.010  0.0623 -0.0322 -0.7166
 8009SOL    HW135663   2.353   1.063   2.955 -1.1202 -1.9678  1.1711
 8009SOL    HW235664   2.255   1.093   3.062  0.2340 -0.9615 -1.2495
 8010SOL     OW35665   4.242   4.354   5.031  0.1021 -0.1903  0.0566
 8010SOL    HW135666   4.165   4.317   5.073 -0.0491  1.1157  0.9356
 8010SOL    HW235667   4.294   4.278   5.005 -0.8027 -0.9725  0.5349
 8011SOL     OW35668   0.292   1.466   3.069 -0.1849 -0.4791 -0.1342
 8011SOL    HW135669   0.267   1.516   2.992 -1.4797 -0.5914  0.2250
 8011SOL    HW235670   0.260   1.528   3.135 -2.4014  1.0306 -2.6554
 8012SOL     OW35671   4.469   0.100   5.334  0.3337 -0.1445  0.1155
 8012SOL    HW135672   4.374   0.100   5.345  0.4345  1.7582  0.9278
 8012SOL    HW235673   4.486   0.194   5.339  0.9038 -0.2706  0.5317
 8013SOL     OW35674   0.976   3.402  11.642 -0.0687 -0.3228  0.8301
 8013SOL    HW135675   0.886   3.380  11.667  0.3783 -1.6288  1.2830
 8013SOL    HW235676   0.963   3.481  11.591 -3.0780 -0.8926  0.7017
 8014SOL     OW35677   2.147   3.389  14.621 -0.0705  0.1130  0.1240
 8014SOL    HW135678   2.092   3.313  14.604 -1.1673  0.7304  0.9368
 8014SOL    HW235679   2.087   3.464  14.620  0.1187  0.2724  0.5956
 8015SOL     OW35680   1.402   1.412   3.558  0.1107  0.4654 -0.1385
 8015SOL    HW135681   1.488   1.446   3.583  1.2232 -0.3159 -2.8918
 8015SOL    HW235682   1.345   1.469   3.610 -1.0059 -0.5976 -0.1861
 8016SOL     OW35683   1.218   4.589   2.698 -0.2511 -0.2194  0.0928
 8016SOL    HW135684   1.143   4.562   2.751  0.0921 -1.1521  0.1113
 8016SOL    HW235685   1.267   4.507   2.703  1.4290  0.7934  0.0902
 8017SOL     OW35686   0.200   3.880   5.372 -0.3891 -0.0516  0.3308
 8017SOL    HW135687   0.275   3.923   5.413  0.5779 -1.4618  0.0481
 8017SOL    HW235688   0.152   3.960   5.348 -1.2220 -1.1237 -1.5586
 8018SOL     OW35689   2.724   0.790   5.858 -0.3754  0.6212  0.4429
 8018SOL    HW135690   2.781   0.847   5.807  1.9497 -0.5884  1.7275
 8018SOL    HW235691   2.742   0.826   5.945  0.2640 -0.2831  0.6809
 8019SOL     OW35692   3.899   4.345   4.312  1.1312  0.2682  0.1198
 8019SOL    HW135693   3.960   4.419   4.321  0.4158  0.7706  0.8861
 8019SOL    HW235694   3.931   4.309   4.229 -3.1162  2.2393 -2.3275
 8020SOL     OW35695   1.274   3.254  10.366 -0.0976 -0.3865  0.3168
 8020SOL    HW135696   1.309   3.343  10.367 -1.1323  0.0227  1.0450
 8020SOL    HW235697   1.346   3.204  10.406 -0.0814 -2.1745 -1.9504
 8021SOL     OW35698   3.991   3.954  11.508 -0.4175  0.3120 -0.1680
 8021SOL    HW135699   3.938   3.956  11.429 -0.2320 -0.1490 -0.3034
 8021SOL    HW235700   3.982   3.860  11.525 -1.4636  0.3034 -0.8074
 8022SOL     OW35701   2.007   2.263   2.460 -0.8436  0.3507  0.1284
 8022SOL    HW135702   2.014   2.168   2.447 -1.4509 -0.1960  3.7438
 8022SOL    HW235703   2.097   2.284   2.483 -0.1630 -2.2066 -0.1970
 8023SOL     OW35704   3.331   1.315   4.963 -0.1460 -0.3446 -0.1665
 8023SOL    HW135705   3.408   1.360   4.930  0.4764 -0.6514  0.8607
 8023SOL    HW235706   3.355   1.222   4.963  0.0953 -0.2820  0.8915
 8024SOL     OW35707   1.565   1.711   3.929  0.0651  0.3266  0.0031
 8024SOL    HW135708   1.568   1.617   3.945 -2.3332  0.8730  3.7794
 8024SOL    HW235709   1.502   1.742   3.995 -2.2372 -0.1171 -1.9788
 8025SOL     OW35710   2.895   3.647   8.732 -0.7134  0.8255  0.0621
 8025SOL    HW135711   2.823   3.591   8.704  0.3449 -0.7120  0.4169
 8025SOL    HW235712   2.952   3.584   8.776  1.4303  2.3514 -0.5102
 8026SOL     OW35713   2.234   1.350   1.566 -0.2426  0.2561 -0.4735
 8026SOL    HW135714   2.182   1.292   1.623  0.5010 -0.1487 -0.2016
 8026SOL    HW235715   2.283   1.390   1.638 -2.2738  1.2435  0.3389
 8027SOL     OW35716   1.555   1.437  10.992  0.1711  0.3633 -0.1447
 8027SOL    HW135717   1.641   1.395  10.986  0.8605  1.7271  0.1137
 8027SOL    HW235718   1.509   1.358  11.021  0.5213  0.6097  1.1073
 8028SOL     OW35719   0.454   0.808   5.217 -0.3330  0.5218  0.3308
 8028SOL    HW135720   0.381   0.834   5.160  0.1619 -2.2310 -1.5450
 8028SOL    HW235721   0.438   0.715   5.232  3.4084  0.2935  2.6919
 8029SOL     OW35722   2.327   1.714   2.180 -0.1028  0.0871  0.3571
 8029SOL    HW135723   2.290   1.630   2.150 -0.3645 -0.5069  2.3625
 8029SOL    HW235724   2.403   1.685   2.230 -1.3437 -2.6202  0.6628
 8030SOL     OW35725   2.406   3.206   4.482  0.1297 -0.1668 -0.1155
 8030SOL    HW135726   2.330   3.263   4.469  1.2300  1.1751 -0.7438
 8030SOL    HW235727   2.450   3.270   4.539 -2.0907  0.8609  0.4494
 8031SOL     OW35728   2.929   2.244   7.308  0.4505  0.3316  0.0939
 8031SOL    HW135729   2.978   2.223   7.229 -0.5131 -0.7309 -0.2174
 8031SOL    HW235730   2.895   2.332   7.292 -0.9559 -0.4441 -1.3011
 8032SOL     OW35731   3.581   4.410   8.614  0.1764  0.4344 -0.4541
 8032SOL    HW135732   3.650   4.415   8.548 -0.1186 -1.2344 -0.9043
 8032SOL    HW235733   3.589   4.483   8.675  1.0308 -2.0508  2.4165
 8033SOL     OW35734   2.828   0.113  15.983 -0.1190 -0.3392 -0.1547
 8033SOL    HW135735   2.787   0.027  15.995 -1.9848  0.0526 -3.5069
 8033SOL    HW235736   2.886   0.097  16.058  0.8887 -3.3383 -1.5493
 8034SOL     OW35737   4.645   2.711   9.551 -0.2428  0.3942  0.1934
 8034SOL    HW135738   4.585   2.712   9.476 -1.1142  2.0201  0.9061
 8034SOL    HW235739   4.704   2.779   9.518 -0.8323  0.4287 -0.7850
 8035SOL     OW35740   1.597   3.731   5.764  0.0754  0.0261  0.6045
 8035SOL    HW135741   1.615   3.780   5.844 -0.4235 -0.7256  1.1839
 8035SOL    HW235742   1.685   3.711   5.732 -0.4853 -1.8647  0.2230
 8036SOL     OW35743   3.871   0.902  13.621 -0.4920  0.2501 -0.0888
 8036SOL    HW135744   3.885   0.963  13.549 -0.5864 -0.8568 -1.0523
 8036SOL    HW235745   3.777   0.895  13.607 -0.1341 -0.5636 -2.0628
 8037SOL     OW35746   3.483   1.784  13.540  0.1547  0.1119  0.6745
 8037SOL    HW135747   3.550   1.720  13.516  0.6117  0.6111  0.6309
 8037SOL    HW235748   3.435   1.734  13.606  1.1944 -3.2725 -1.1272
 8038SOL     OW35749   3.537   2.369   4.911  0.5755 -0.2162 -0.3449
 8038SOL    HW135750   3.445   2.352   4.891  0.6548  1.3084 -2.0378
 8038SOL    HW235751   3.527   2.464   4.902 -1.8554 -0.6448 -1.9413
 8039SOL     OW35752   1.081   1.815   3.784 -0.0733  0.2280  0.2288
 8039SOL    HW135753   1.173   1.825   3.761 -0.0308 -0.4794  0.1089
 8039SOL    HW235754   1.041   1.882   3.728  1.1190  1.5765  0.9805
 8040SOL     OW35755   3.252   3.979   7.792  0.8015 -0.4382 -0.3047
 8040SOL    HW135756   3.176   3.971   7.850 -0.5574 -0.9752 -2.1581
 8040SOL    HW235757   3.251   4.073   7.777  1.7408 -0.3806 -0.0006
 8041SOL     OW35758   3.884   1.313  13.219 -0.3399 -0.1353 -0.0482
 8041SOL    HW135759   3.874   1.394  13.169  2.0357  0.5038  0.4999
 8041SOL    HW235760   3.879   1.347  13.309 -0.0830 -0.3133  0.0327
 8042SOL     OW35761   4.107   4.090  10.414  0.4195 -0.2516  0.2316
 8042SOL    HW135762   4.089   4.020  10.352 -3.2307  0.9084 -0.0302
 8042SOL    HW235763   4.023   4.078  10.459  1.3207 -2.1086  1.4114
 8043SOL     OW35764   2.687   2.069  12.505  0.8445 -0.1143  0.4046
 8043SOL    HW135765   2.773   2.035  12.527  0.2037 -1.7966  0.2815
 8043SOL    HW235766   2.655   2.083  12.594 -0.2945  0.2921 -0.0683
 8044SOL     OW35767   1.156   3.903  15.883  0.4935  0.0826  0.4088
 8044SOL    HW135768   1.106   3.984  15.881  1.0195  0.3949 -0.0718
 8044SOL    HW235769   1.169   3.897  15.788  1.7872 -0.3176  0.6203
 8045SOL     OW35770   1.922   1.911   5.229  0.2224  0.0451 -0.2798
 8045SOL    HW135771   1.917   1.844   5.160 -0.5340  0.3036 -0.4797
 8045SOL    HW235772   2.012   1.914   5.261 -0.0219 -2.0347  0.6163
 8046SOL     OW35773   3.950   1.353   6.479 -0.0115 -0.0744  0.6420
 8046SOL    HW135774   4.012   1.426   6.466 -1.1033  0.8030  0.3979
 8046SOL    HW235775   3.988   1.313   6.558  0.9147 -0.0444  0.2177
 8047SOL     OW35776   2.846   0.993   5.700  0.0867 -0.3787 -0.0683
 8047SOL    HW135777   2.820   1.084   5.686  0.8964 -0.1856 -0.2793
 8047SOL    HW235778   2.846   0.952   5.614  0.3977  1.0093 -0.7193
 8048SOL     OW35779   2.394   0.313   6.875  1.1576 -0.1739 -0.1949
 8048SOL    HW135780   2.359   0.316   6.964  1.7820  0.8903  0.0236
 8048SOL    HW235781   2.466   0.374   6.894 -0.4326  1.2059  1.3843
 8049SOL     OW35782   1.367   1.470  10.309  0.0504 -0.0383 -0.3194
 8049SOL    HW135783   1.311   1.523  10.365 -0.0627  2.0402 -2.3913
 8049SOL    HW235784   1.406   1.535  10.250  0.4949  0.9401  1.0353
 8050SOL     OW35785   0.634   3.842   3.817  0.5428  0.1328 -0.1199
 8050SOL    HW135786   0.623   3.755   3.855 -0.7134  0.5861  0.5319
 8050SOL    HW235787   0.585   3.904   3.871  1.6641  2.2520 -1.4963
 8051SOL     OW35788   2.122   4.166   3.624  0.3327 -0.2194  0.4199
 8051SOL    HW135789   2.054   4.212   3.574  1.3893  0.6714 -0.1909
 8051SOL    HW235790   2.189   4.233   3.634  0.5143 -0.2989 -0.2775
 8052SOL     OW35791   1.390   4.312  10.220  0.8000  0.1651  0.7656
 8052SOL    HW135792   1.409   4.405  10.211 -1.8501  0.6890  0.6994
 8052SOL    HW235793   1.320   4.317  10.284  2.3045 -1.2261  2.5278
 8053SOL     OW35794   2.750   0.337   9.669  0.2481 -0.0422 -0.1289
 8053SOL    HW135795   2.708   0.374   9.746  1.1826  1.8069 -0.5099
 8053SOL    HW235796   2.772   0.247   9.694 -1.6491 -0.2503  0.7499
 8054SOL     OW35797   0.490   2.222  17.723  0.8818  0.7109 -0.0776
 8054SOL    HW135798   0.544   2.159   0.029 -0.6923  0.4515  1.3700
 8054SOL    HW235799   0.429   2.164  17.678 -0.2226  1.8299 -0.0401
 8055SOL     OW35800   3.489   3.166   2.807  0.0807 -0.1332  0.4813
 8055SOL    HW135801   3.572   3.173   2.759 -0.5590  1.4666 -0.3723
 8055SOL    HW235802   3.514   3.080   2.842  0.8832  0.9525  2.5656
 8056SOL     OW35803   0.884   2.244   8.477 -0.2106 -0.3645  0.2966
 8056SOL    HW135804   0.917   2.198   8.400 -0.8453 -1.0719  0.4466
 8056SOL    HW235805   0.904   2.183   8.548 -0.6244 -0.0197  0.7111
 8057SOL     OW35806   1.989   2.114   7.355  0.2324 -0.2463 -0.1351
 8057SOL    HW135807   1.990   2.182   7.422  2.3647 -0.1168 -0.3149
 8057SOL    HW235808   1.910   2.072   7.390 -0.3227 -1.0532 -2.3730
 8058SOL     OW35809   2.233   4.021  12.714  0.2851 -0.0408  0.0998
 8058SOL    HW135810   2.312   4.051  12.758  0.0101  2.1241 -0.9147
 8058SOL    HW235811   2.253   4.055  12.627  0.8644  0.7305  0.5430
 8059SOL     OW35812   0.439   0.580   8.915  0.5585 -0.3069 -0.0343
 8059SOL    HW135813   0.405   0.510   8.970 -0.0511  0.5005  0.6026
 8059SOL    HW235814   0.392   0.658   8.945 -1.7686 -1.0692 -1.7205
 8060SOL     OW35815   3.120   4.378   6.414  0.1609  0.4177 -0.7348
 8060SOL    HW135816   3.052   4.312   6.417 -0.0376  0.6934  0.9639
 8060SOL    HW235817   3.203   4.330   6.416 -0.3407 -0.4063  0.0787
 8061SOL     OW35818   1.919   4.386  14.452  0.4215  0.0718  0.2255
 8061SOL    HW135819   1.988   4.325  14.477  1.5289  0.4451 -1.9402
 8061SOL    HW235820   1.905   4.344  14.367 -0.0275 -2.2525  1.4460
 8062SOL     OW35821   0.884   3.364   2.874  0.3848 -0.2653  0.0273
 8062SOL    HW135822   0.822   3.437   2.876 -0.2566 -0.8384  0.9101
 8062SOL    HW235823   0.860   3.312   2.950  0.7428 -0.3353  0.0907
 8063SOL     OW35824   3.498   4.320   7.997  0.0133 -0.2331 -0.0711
 8063SOL    HW135825   3.445   4.383   8.045 -1.1667  0.7824 -2.7081
 8063SOL    HW235826   3.430   4.288   7.937  0.4034 -1.0861 -0.0535
 8064SOL     OW35827   0.352   2.151  12.500 -0.2619 -0.3716 -0.4334
 8064SOL    HW135828   0.281   2.216  12.503  0.1545 -0.0320  1.8023
 8064SOL    HW235829   0.419   2.210  12.465  0.5715 -0.7095  0.6123
 8065SOL     OW35830   3.143   2.570   2.494  0.1488 -0.3427  0.3309
 8065SOL    HW135831   3.090   2.575   2.573  2.2998  2.6895  1.5709
 8065SOL    HW235832   3.224   2.599   2.536 -0.4012  2.5063 -0.5884
 8066SOL     OW35833   0.465   3.827   8.736  0.6022  0.2473  0.7610
 8066SOL    HW135834   0.500   3.842   8.824  2.7913 -1.9316  0.2724
 8066SOL    HW235835   0.534   3.773   8.697  1.3659  0.9669  1.1148
 8067SOL     OW35836   2.226   0.669  14.413 -0.4567  0.1968  0.2817
 8067SOL    HW135837   2.201   0.680  14.322 -1.1424 -1.7947  0.2297
 8067SOL    HW235838   2.283   0.592  14.406  2.5889  2.3904  0.6116
 8068SOL     OW35839   4.555   0.007   6.502  0.3741  0.1233 -0.0406
 8068SOL    HW135840   4.513   4.659   6.483  1.0174 -0.7175  2.1144
 8068SOL    HW235841   4.575   0.002   6.596 -2.4956 -1.8959  0.4684
 8069SOL     OW35842   2.522   1.736   0.401 -0.2095 -0.1449  0.0976
 8069SOL    HW135843   2.616   1.750   0.396 -0.2779  0.4967  0.5355
 8069SOL    HW235844   2.514   1.667   0.335  1.4521 -0.6545  0.4480
 8070SOL     OW35845   3.799   0.160   1.120  0.5302 -0.0403 -0.0287
 8070SOL    HW135846   3.850   0.200   1.191 -1.8322  2.7412  0.1373
 8070SOL    HW235847   3.750   0.242   1.107 -0.8878 -0.6785  1.2484
 8071SOL     OW35848   3.313   0.237   6.569  0.5445 -0.6873 -1.0569
 8071SOL    HW135849   3.366   0.181   6.626  1.2575  0.6403 -0.4128
 8071SOL    HW235850   3.244   0.258   6.632  2.8132 -0.6812  1.4492
 8072SOL     OW35851   4.261   1.182   9.196  0.2865  0.4385 -0.0497
 8072SOL    HW135852   4.327   1.114   9.190 -0.5360 -0.0914 -2.7477
 8072SOL    HW235853   4.305   1.267   9.191 -2.0528  1.7961  1.9666
 8073SOL     OW35854   3.595   0.465   5.954  0.8301  0.9857  0.2219
 8073SOL    HW135855   3.598   0.419   6.038 -0.3967 -0.5299 -0.5524
 8073SOL    HW235856   3.554   0.400   5.897  0.9214  0.3001  0.9459
 8074SOL     OW35857   2.879   4.102  11.923  0.8747  0.8071 -0.0662
 8074SOL    HW135858   2.833   4.174  11.880 -0.7757 -1.3836 -1.9547
 8074SOL    HW235859   2.826   4.084  12.001 -1.6832  1.8242 -1.5627
 8075SOL     OW35860   0.991   4.281  13.026 -0.0031 -0.7001 -0.1940
 8075SOL    HW135861   1.062   4.218  13.042  0.5931 -0.4245 -1.7501
 8075SOL    HW235862   1.012   4.321  12.941  1.5135  1.1720  1.0565
 8076SOL     OW35863   0.916   4.464   6.545 -0.4091 -0.5583  0.0121
 8076SOL    HW135864   0.964   4.520   6.485  2.2542 -0.1940  2.4779
 8076SOL    HW235865   0.857   4.522   6.594 -0.9772 -1.0353 -0.1038
 8077SOL     OW35866   4.705   3.125   5.881 -0.4369  0.0275  0.3551
 8077SOL    HW135867   0.013   3.051   5.838 -0.3156  0.3811 -0.1245
 8077SOL    HW235868   0.048   3.171   5.908  0.3656 -1.6712  0.9230
 8078SOL     OW35869   1.610   0.526   8.533  0.2152 -0.0858  0.6368
 8078SOL    HW135870   1.564   0.573   8.602 -0.5913 -1.5664  1.1149
 8078SOL    HW235871   1.622   0.433   8.555 -1.6383 -0.8953 -1.7006
 8079SOL     OW35872   0.513   2.507   0.399 -0.2557 -0.3288 -0.3942
 8079SOL    HW135873   0.462   2.455   0.338 -1.4964  0.3634  0.0607
 8079SOL    HW235874   0.602   2.504   0.362 -0.5554  1.3258 -1.2090
 8080SOL     OW35875   4.094   0.777  14.112  0.4052  0.2363  0.5745
 8080SOL    HW135876   4.176   0.733  14.134  0.4513 -0.8602 -1.6947
 8080SOL    HW235877   4.125   0.867  14.103  0.5510 -0.1055 -2.3922
 8081SOL     OW35878   0.609   0.166  10.324  0.2234  0.1235 -0.3194
 8081SOL    HW135879   0.610   0.192  10.231  1.1572  1.2199  0.0051
 8081SOL    HW235880   0.704   0.163  10.332  0.0813 -0.4192  1.1465
 8082SOL     OW35881   3.115   0.721   8.218  0.6236  0.0489 -0.3440
 8082SOL    HW135882   3.066   0.748   8.140  0.1476 -0.2622 -0.1533
 8082SOL    HW235883   3.073   0.641   8.249  0.0118  0.5472  0.1023
 8083SOL     OW35884   2.331   0.741   4.636 -0.2049 -0.3570 -0.0001
 8083SOL    HW135885   2.407   0.798   4.636  0.6361 -1.4805  1.2059
 8083SOL    HW235886   2.306   0.757   4.545 -0.6878  0.0946  0.2116
 8084SOL     OW35887   0.891   1.903   2.037  0.3228 -0.4144 -0.6982
 8084SOL    HW135888   0.975   1.883   2.079 -0.1184 -0.0140  0.3491
 8084SOL    HW235889   0.901   1.997   2.026 -0.0073 -0.7166 -3.4967
 8085SOL     OW35890   4.143   1.064  13.609 -0.9454  0.0618  0.3514
 8085SOL    HW135891   4.222   1.101  13.569 -0.7146  1.3965  2.0810
 8085SOL    HW235892   4.136   0.977  13.568  0.5200  0.4813 -0.7927
 8086SOL     OW35893   2.079   2.227   4.042 -0.5460  0.0623 -0.0489
 8086SOL    HW135894   2.170   2.241   4.065 -0.3877 -1.0252  0.0205
 8086SOL    HW235895   2.040   2.301   4.088  1.0743  0.8106  0.0862
 8087SOL     OW35896   4.502   0.824  11.132  0.0912 -0.0431  0.4577
 8087SOL    HW135897   4.550   0.814  11.214  0.4048 -0.1295  0.2664
 8087SOL    HW235898   4.511   0.919  11.127  0.5045 -0.1482 -0.9596
 8088SOL     OW35899   0.402   0.117   6.574  0.5380 -0.6184  0.3545
 8088SOL    HW135900   0.345   0.169   6.518 -0.7277  0.1195  2.3022
 8088SOL    HW235901   0.390   0.032   6.531  0.4184 -1.0004  1.1294
 8089SOL     OW35902   2.409   1.768   4.998  0.1225 -0.0723  0.5151
 8089SOL    HW135903   2.376   1.724   5.076 -1.1936  0.6326  0.3588
 8089SOL    HW235904   2.501   1.773   5.026  0.0237  0.1595  0.8000
 8090SOL     OW35905   0.251   2.672   5.769  0.1748  0.6233 -0.8917
 8090SOL    HW135906   0.206   2.605   5.822  1.8282  1.1633  1.1918
 8090SOL    HW235907   0.340   2.641   5.787 -0.1342  1.4328  2.0759
 8091SOL     OW35908   0.308   4.493   6.147  0.2269 -0.0903  0.0455
 8091SOL    HW135909   0.251   4.436   6.096 -0.3233 -0.6956  1.3711
 8091SOL    HW235910   0.382   4.434   6.161  1.3910  1.6099  1.1081
 8092SOL     OW35911   1.669   2.044   9.956 -0.4224 -0.9641  0.5169
 8092SOL    HW135912   1.656   1.966  10.011  0.8792 -0.5690  1.3825
 8092SOL    HW235913   1.754   2.069   9.991  0.7150 -2.2945 -1.3663
 8093SOL     OW35914   1.352   3.662   6.803 -0.3493 -0.0742 -0.1788
 8093SOL    HW135915   1.298   3.599   6.756  0.3489 -0.7636 -0.0685
 8093SOL    HW235916   1.299   3.741   6.797 -0.4387  0.0061  1.6395
 8094SOL     OW35917   3.468   3.990   3.519  0.3153  0.0770  0.0399
 8094SOL    HW135918   3.393   3.989   3.579 -0.6378 -1.6295 -1.1685
 8094SOL    HW235919   3.450   3.911   3.468 -2.9898  0.7770  0.1396
 8095SOL     OW35920   1.451   2.862   7.353  0.1052  0.3805 -0.6003
 8095SOL    HW135921   1.439   2.898   7.265  1.1076  4.1065  0.7552
 8095SOL    HW235922   1.400   2.933   7.393  1.1097  1.0406 -0.4908
 8096SOL     OW35923   0.496   3.398  13.783 -0.3982  0.1711  0.0993
 8096SOL    HW135924   0.442   3.477  13.778 -2.4569 -1.2501 -0.2308
 8096SOL    HW235925   0.509   3.404  13.877  1.1682 -1.7611  0.0028
 8097SOL     OW35926   3.614   2.900   3.981 -0.6789  0.0230  0.5321
 8097SOL    HW135927   3.542   2.886   4.042  0.5345 -3.9974  1.0958
 8097SOL    HW235928   3.592   2.977   3.930 -0.4107  1.0451  1.9659
 8098SOL     OW35929   0.037   1.757  16.915 -0.1133  0.4227  0.6369
 8098SOL    HW135930   0.014   1.788  16.827 -0.6984 -0.3926  0.5046
 8098SOL    HW235931   4.684   1.744  16.948  0.1201 -1.1851  0.6502
 8099SOL     OW35932   3.186   4.358   2.193  0.3016 -0.4278 -0.0981
 8099SOL    HW135933   3.248   4.415   2.239 -1.0721 -0.4195  1.7278
 8099SOL    HW235934   3.242   4.330   2.120  0.9564  0.3680  0.0963
 8100SOL     OW35935   2.609   1.074   5.425 -0.5422 -0.6547  0.1043
 8100SOL    HW135936   2.639   1.129   5.497 -0.9929 -0.3786  0.0818
 8100SOL    HW235937   2.665   0.997   5.426  1.4769  0.7847 -0.5948
 8101SOL     OW35938   2.842   2.840   7.113 -0.1734 -0.3220 -0.0357
 8101SOL    HW135939   2.836   2.752   7.076  1.0262  0.3932 -1.8813
 8101SOL    HW235940   2.926   2.844   7.159  0.7580 -0.3188 -1.7363
 8102SOL     OW35941   0.434   1.506  11.242 -0.2080 -0.4598 -0.3404
 8102SOL    HW135942   0.341   1.489  11.228 -0.5822  2.0559 -0.9104
 8102SOL    HW235943   0.459   1.541  11.157 -2.0055  0.3916 -0.5290
 8103SOL     OW35944   2.406   1.635  13.915  0.2764  0.3318 -0.5889
 8103SOL    HW135945   2.482   1.597  13.959  0.6324  1.2587 -0.4153
 8103SOL    HW235946   2.372   1.704  13.973  3.6640  1.0947  0.4674
 8104SOL     OW35947   0.510   3.105   5.857 -0.0319  0.1508  0.2284
 8104SOL    HW135948   0.593   3.057   5.856  0.9022  1.7316  1.7426
 8104SOL    HW235949   0.526   3.157   5.936 -0.2508 -0.3434  0.5965
 8105SOL     OW35950   0.344   0.725   3.567  0.6535  0.4990 -0.4507
 8105SOL    HW135951   0.259   0.710   3.526  1.0690 -0.4575 -0.9496
 8105SOL    HW235952   0.381   0.639   3.549 -1.1276 -0.2571 -0.4893
 8106SOL     OW35953   4.491   2.963   0.714 -0.4646  0.6317  0.4779
 8106SOL    HW135954   4.578   3.003   0.708  0.6498 -1.8400  0.2830
 8106SOL    HW235955   4.518   2.871   0.713  3.8042  1.8751  2.2961
 8107SOL     OW35956   3.178   2.413   6.244  0.2505 -0.2440 -0.9521
 8107SOL    HW135957   3.146   2.426   6.154  1.3551  2.0222 -1.0165
 8107SOL    HW235958   3.217   2.498   6.264  2.8151 -2.1909  2.1805
 8108SOL     OW35959   1.635   2.240  12.241 -0.8596  0.2767  0.0651
 8108SOL    HW135960   1.629   2.334  12.228  1.0953  0.2841 -0.8848
 8108SOL    HW235961   1.703   2.212  12.179 -0.1813 -0.4427  1.1252
 8109SOL     OW35962   2.765   0.631   4.333  0.7288 -0.6450 -0.2676
 8109SOL    HW135963   2.679   0.644   4.373  0.7025  2.4820 -1.2960
 8109SOL    HW235964   2.779   0.546   4.374 -1.9663 -1.6025 -1.3351
 8110SOL     OW35965   1.981   2.604   3.431 -0.8304 -0.3194 -0.9905
 8110SOL    HW135966   1.974   2.624   3.338  0.3704 -2.1362 -1.4733
 8110SOL    HW235967   1.964   2.685   3.478  2.1845 -0.4200  0.2862
 8111SOL     OW35968   3.024   2.910  10.448  0.5495 -0.1440 -0.4299
 8111SOL    HW135969   3.018   2.993  10.400  1.2715  0.4762  0.5536
 8111SOL    HW235970   3.072   2.854  10.387  1.4179  0.4658 -0.3056
 8112SOL     OW35971   3.110   0.995   1.782 -0.2071 -0.1751  0.2820
 8112SOL    HW135972   3.157   0.916   1.811 -0.8560 -0.7940 -0.3616
 8112SOL    HW235973   3.021   0.960   1.777 -1.3969  2.9590 -0.0386
 8113SOL     OW35974   2.586   3.184  11.462 -0.0656  0.5965 -0.3442
 8113SOL    HW135975   2.592   3.205  11.555 -0.1013 -2.1179  0.2653
 8113SOL    HW235976   2.665   3.220  11.422  1.2491 -0.2395  1.5499
 8114SOL     OW35977   1.118   3.295   1.790  0.5213  0.3546  0.1361
 8114SOL    HW135978   1.208   3.264   1.778 -0.4415 -2.4109 -0.0461
 8114SOL    HW235979   1.067   3.215   1.776  0.1018  0.5641  0.4911
 8115SOL     OW35980   0.351   0.178   7.824  0.5574 -0.3826 -0.4932
 8115SOL    HW135981   0.291   0.104   7.813 -3.0948  2.3525  0.9632
 8115SOL    HW235982   0.384   0.211   7.740  0.2029  3.2651  0.8198
 8116SOL     OW35983   2.310   1.851  12.919 -0.9618 -0.6557  0.0969
 8116SOL    HW135984   2.270   1.904  12.988 -0.1857 -0.8554  0.7003
 8116SOL    HW235985   2.347   1.779  12.969 -1.7524 -1.3599 -0.3342
 8117SOL     OW35986   0.368   3.606   7.173  0.1345 -0.3049  0.6780
 8117SOL    HW135987   0.444   3.649   7.212 -0.2799  0.5078  0.5845
 8117SOL    HW235988   0.397   3.617   7.082  0.6350  2.5440  1.1653
 8118SOL     OW35989   2.918   2.959  10.884 -0.4577  0.3068 -0.2561
 8118SOL    HW135990   2.932   3.043  10.839 -1.1078 -0.7481 -2.4629
 8118SOL    HW235991   2.968   2.905  10.822  0.4576  1.0707 -0.1886
 8119SOL     OW35992   1.941   1.373   3.263  0.5832  0.2367 -0.1044
 8119SOL    HW135993   2.023   1.361   3.215 -1.5412 -1.3204 -3.3416
 8119SOL    HW235994   1.912   1.459   3.234 -2.3510 -0.9082 -0.5168
 8120SOL     OW35995   4.388   4.461   7.667  0.2612 -0.1260 -0.2724
 8120SOL    HW135996   4.296   4.439   7.653  0.2020  0.8489 -1.4674
 8120SOL    HW235997   4.429   4.446   7.582 -0.5252 -1.3597 -0.4367
 8121SOL     OW35998   4.306   2.732   3.088  0.1007 -0.4748 -0.5855
 8121SOL    HW135999   4.281   2.709   3.177  1.3037  1.1520  0.1790
 8121SOL    HW236000   4.311   2.651   3.038 -0.9585  0.1532 -1.7145
 8122SOL     OW36001   1.584   4.039   3.728 -0.7162 -0.4016 -0.0119
 8122SOL    HW136002   1.581   4.121   3.777 -0.9746 -1.3880  1.6400
 8122SOL    HW236003   1.655   4.059   3.667 -0.4310  0.3187  0.5665
 8123SOL     OW36004   4.444   0.715   8.777  0.5995  0.1524 -0.4526
 8123SOL    HW136005   4.416   0.629   8.808 -0.6753  1.3840  1.8585
 8123SOL    HW236006   4.361   0.761   8.763 -0.2087 -1.9108 -2.4785
 8124SOL     OW36007   2.891   3.370   2.258  0.4208  0.0729 -0.2299
 8124SOL    HW136008   2.968   3.315   2.269  0.4341 -0.0694 -1.0337
 8124SOL    HW236009   2.849   3.367   2.344 -1.0371 -0.9579 -0.9723
 8125SOL     OW36010   0.774   1.875  10.743  0.0100 -0.3228 -0.6049
 8125SOL    HW136011   0.771   1.780  10.740  1.2122 -0.4141  1.1785
 8125SOL    HW236012   0.867   1.884  10.763 -0.0193 -1.1361 -0.1202
 8126SOL     OW36013   2.679   3.609  15.714  0.1069  1.0345 -0.3611
 8126SOL    HW136014   2.737   3.645  15.781  0.9335  0.6319 -0.8657
 8126SOL    HW236015   2.720   3.633  15.631 -1.4303  2.7378 -0.6425
 8127SOL     OW36016   3.396   2.092   9.950  0.0125  0.1109  0.1193
 8127SOL    HW136017   3.466   2.080  10.014  1.1563 -1.3184 -1.4167
 8127SOL    HW236018   3.374   2.005   9.918 -1.4586  0.5172  0.0062
 8128SOL     OW36019   0.672   2.507   2.267 -0.1593 -0.2261  0.1247
 8128SOL    HW136020   0.674   2.414   2.245  2.4482 -0.0617 -0.2548
 8128SOL    HW236021   0.580   2.529   2.281  0.0511  0.2895  0.7070
 8129SOL     OW36022   2.846   4.153  16.876  0.1217  0.1011 -0.0105
 8129SOL    HW136023   2.842   4.190  16.788  1.1413  0.6644  0.1784
 8129SOL    HW236024   2.858   4.239  16.918 -0.5525  0.4518 -0.5403
 8130SOL     OW36025   3.369   2.194   9.132 -0.5963 -0.3048 -0.4582
 8130SOL    HW136026   3.304   2.143   9.181 -0.1049 -0.1087  0.3988
 8130SOL    HW236027   3.308   2.247   9.081 -2.4387 -0.9026  1.1220
 8131SOL     OW36028   0.184   2.983   0.939  0.0756 -0.5210 -0.0382
 8131SOL    HW136029   0.137   2.922   0.996 -1.5535 -1.0453 -1.9654
 8131SOL    HW236030   0.129   2.980   0.861  0.0793  1.5376 -0.1160
 8132SOL     OW36031   4.165   1.224   5.443  0.2936 -0.6001  0.5836
 8132SOL    HW136032   4.078   1.214   5.482 -0.0857 -0.1299 -0.1476
 8132SOL    HW236033   4.159   1.171   5.364 -0.5284 -2.0407  1.6249
 8133SOL     OW36034   4.125   4.557   2.276  0.5999  0.1759  0.0271
 8133SOL    HW136035   4.141   4.590   2.364  1.1282  1.0283 -0.3844
 8133SOL    HW236036   4.031   4.554   2.291  0.6368 -1.6351 -0.1060
 8134SOL     OW36037   1.582   1.714   7.974  0.0865  0.2560 -0.3147
 8134SOL    HW136038   1.611   1.805   7.973  0.6875  0.0966  1.7319
 8134SOL    HW236039   1.527   1.714   7.896 -0.1654  0.6731 -0.1357
 8135SOL     OW36040   4.114   2.673  13.530  0.0290 -0.2355  0.3882
 8135SOL    HW136041   4.058   2.611  13.483  0.3474 -0.8152  0.7714
 8135SOL    HW236042   4.145   2.731  13.460  0.3379 -0.1983  0.5557
 8136SOL     OW36043   2.983   2.255   5.178  0.3630  0.4417  0.5784
 8136SOL    HW136044   2.960   2.218   5.092  2.3261  1.0115 -0.1918
 8136SOL    HW236045   3.076   2.242   5.158  0.1446 -0.1511 -0.0262
 8137SOL     OW36046   4.370   0.000   5.874  0.5324 -0.6821  0.4770
 8137SOL    HW136047   4.362   4.675   5.801 -2.0386 -1.6670  1.5632
 8137SOL    HW236048   4.289   0.049   5.859 -1.0713 -4.0518 -1.7978
 8138SOL     OW36049   1.314   2.577   8.130 -0.3740 -0.0811  0.1037
 8138SOL    HW136050   1.259   2.499   8.127  2.1211 -1.7786 -2.0990
 8138SOL    HW236051   1.306   2.603   8.221 -0.8779  1.0462 -0.2668
 8139SOL     OW36052   3.194   1.910   6.404  0.0592  0.2441 -0.0974
 8139SOL    HW136053   3.269   1.852   6.396  1.3911  2.0194 -0.6891
 8139SOL    HW236054   3.190   1.956   6.320  0.9589 -0.4015 -0.4889
 8140SOL     OW36055   4.352   0.656  17.045 -0.0106  0.2400  0.5394
 8140SOL    HW136056   4.351   0.619  16.956 -1.5779  0.1032  0.6116
 8140SOL    HW236057   4.280   0.604  17.082  2.1965 -1.8307  1.9533
 8141SOL     OW36058   4.079   1.979   1.740  0.4793 -0.5825  0.6220
 8141SOL    HW136059   4.069   2.069   1.770  1.4192 -0.4210  0.4687
 8141SOL    HW236060   4.174   1.965   1.731  0.5351  1.3790 -1.6708
 8142SOL     OW36061   0.471   4.213   1.042  0.0007  0.7360  0.2535
 8142SOL    HW136062   0.550   4.159   1.050 -0.9675 -0.6590  0.4637
 8142SOL    HW236063   0.442   4.211   1.133  0.4896  1.5706  0.4264
 8143SOL     OW36064   3.378   2.237   5.997 -0.9152 -0.0740 -0.2744
 8143SOL    HW136065   3.426   2.268   5.921 -1.5296 -0.5992 -0.8790
 8143SOL    HW236066   3.288   2.239   5.966 -0.7859 -0.1994 -0.6585
 8144SOL     OW36067   0.537   0.801  11.046  0.4387  0.7377  0.2889
 8144SOL    HW136068   0.489   0.801  11.129 -2.2877 -0.6224 -1.2757
 8144SOL    HW236069   0.476   0.850  10.991  0.2075 -0.2969 -0.3836
 8145SOL     OW36070   0.501   0.174   2.457 -0.2979  0.5701  0.3776
 8145SOL    HW136071   0.459   0.256   2.433  0.4844  0.7811 -0.2597
 8145SOL    HW236072   0.546   0.144   2.378 -2.1282  1.4602 -0.9787
 8146SOL     OW36073   3.708   3.179   7.571 -0.3454 -0.5026  0.3481
 8146SOL    HW136074   3.647   3.105   7.568  1.3575 -1.7598 -3.3296
 8146SOL    HW236075   3.654   3.248   7.610  0.4840  0.6949 -0.6060
 8147SOL     OW36076   0.509   0.949   3.579  0.2388 -0.6937 -0.4944
 8147SOL    HW136077   0.531   0.947   3.485  3.1773 -0.8437  0.2002
 8147SOL    HW236078   0.474   0.861   3.593  0.4728 -1.0451 -2.0884
 8148SOL     OW36079   0.296   3.938   7.085  0.5967  0.2443 -0.1295
 8148SOL    HW136080   0.245   3.872   7.131  1.3269 -0.6391 -0.5948
 8148SOL    HW236081   0.248   4.020   7.100 -2.8269 -1.6562 -0.8463
 8149SOL     OW36082   3.887   2.914  12.842 -0.2761  0.0981 -0.4864
 8149SOL    HW136083   3.941   2.870  12.907 -1.1947 -1.5105 -0.7924
 8149SOL    HW236084   3.840   2.975  12.899  0.7862 -0.9408  1.4944
 8150SOL     OW36085   3.650   4.005   7.237  0.2197  0.3322  0.5282
 8150SOL    HW136086   3.635   4.059   7.159  3.3040  1.1609  0.5196
 8150SOL    HW236087   3.609   4.054   7.309 -0.4470  3.4674 -1.9883
 8151SOL     OW36088   3.990   0.881   3.354 -0.5030 -0.1431  0.2817
 8151SOL    HW136089   4.051   0.935   3.304  0.7692 -1.2653  0.6034
 8151SOL    HW236090   3.980   0.916   3.442 -1.2460  1.2043 -0.3528
 8152SOL     OW36091   3.461   2.477  12.878 -0.5333  0.0460 -0.0193
 8152SOL    HW136092   3.481   2.394  12.836 -0.4746  1.0191 -1.9415
 8152SOL    HW236093   3.398   2.458  12.947  1.1499 -0.1280  1.4277
 8153SOL     OW36094   2.902   4.683   1.690  0.1788  0.3371 -0.2417
 8153SOL    HW136095   2.971   4.617   1.687 -0.4011 -0.2249 -1.3239
 8153SOL    HW236096   2.833   4.623   1.661 -0.7940  0.7731  1.1876
 8154SOL     OW36097   3.325   4.388  17.554  0.2587  0.2846 -0.2747
 8154SOL    HW136098   3.286   4.316  17.603  1.3654 -0.8142 -0.9867
 8154SOL    HW236099   3.373   4.435  17.621 -0.1819  0.0853  0.1804
 8155SOL     OW36100   0.652   0.318  12.605  0.0474 -0.4595 -0.5220
 8155SOL    HW136101   0.674   0.334  12.514 -1.3959  0.6063 -0.6721
 8155SOL    HW236102   0.632   0.411  12.613 -1.8565 -0.7588 -1.9007
 8156SOL     OW36103   3.117   2.212   5.924 -0.0341 -0.3984  0.2008
 8156SOL    HW136104   3.109   2.127   5.879  1.3149 -0.1779 -0.4415
 8156SOL    HW236105   3.025   2.224   5.947  0.2693 -0.9758  1.7151
 8157SOL     OW36106   3.804   2.032   3.546  0.2212  0.0555 -0.2103
 8157SOL    HW136107   3.853   1.968   3.598  1.5401  0.1729 -1.3183
 8157SOL    HW236108   3.872   2.098   3.536 -0.9464  1.0593 -1.4766
 8158SOL     OW36109   1.103   4.438   4.465  0.0303 -0.2337 -0.7426
 8158SOL    HW136110   1.070   4.434   4.555 -1.0861  1.5674 -1.0934
 8158SOL    HW236111   1.132   4.348   4.445 -1.0253 -0.2995 -1.9732
 8159SOL     OW36112   0.777   3.862   6.665  0.1439 -0.0543  0.2356
 8159SOL    HW136113   0.718   3.820   6.728 -0.3968  2.8589  1.7009
 8159SOL    HW236114   0.714   3.919   6.621 -2.0041 -3.2927 -0.9031
 8160SOL     OW36115   0.952   2.388   1.400  0.3076 -0.1340  0.2881
 8160SOL    HW136116   1.043   2.380   1.428  0.8839 -2.0832 -2.0898
 8160SOL    HW236117   0.938   2.482   1.392 -0.1811 -0.2318 -0.0447
 8161SOL     OW36118   3.273   4.219  15.765  0.2999 -0.6901 -0.0844
 8161SOL    HW136119   3.269   4.170  15.684  2.2141 -1.4391  0.2661
 8161SOL    HW236120   3.237   4.305  15.742 -2.1063 -1.7340 -0.1291
 8162SOL     OW36121   0.075   0.981   4.644  0.2185 -0.1726  0.2447
 8162SOL    HW136122   4.717   1.000   4.647  0.4547  1.0571 -0.0473
 8162SOL    HW236123   0.108   1.020   4.725 -1.5885  2.0399 -0.0609
 8163SOL     OW36124   1.749   0.089   6.041  0.3839 -0.0172 -0.6772
 8163SOL    HW136125   1.761   4.729   6.039  0.2180  0.0110 -2.9186
 8163SOL    HW236126   1.669   0.101   6.092  2.0775  1.5143  1.6210
 8164SOL     OW36127   2.523   1.703   7.029  0.2043 -0.2050  0.6969
 8164SOL    HW136128   2.537   1.798   7.029 -0.5477 -0.0879 -0.0105
 8164SOL    HW236129   2.435   1.693   6.991  0.1030 -0.8891  1.1144
 8165SOL     OW36130   3.360   4.726   1.792  0.5858 -0.3179  0.3244
 8165SOL    HW136131   3.418   4.719   1.716 -0.2887  0.6599 -0.4339
 8165SOL    HW236132   3.291   4.663   1.772 -0.7425  1.2339 -0.0822
 8166SOL     OW36133   3.696   3.186  15.956  0.9173  0.0289 -0.4287
 8166SOL    HW136134   3.752   3.152  15.886 -1.2389 -0.8893 -1.7272
 8166SOL    HW236135   3.733   3.122  16.017 -3.2247 -1.1305  0.8799
 8167SOL     OW36136   4.375   0.460   7.541  0.2902 -0.5475 -0.2353
 8167SOL    HW136137   4.412   0.482   7.455 -0.2967  1.2210 -0.0493
 8167SOL    HW236138   4.334   0.374   7.533  0.5540 -1.0446  4.0397
 8168SOL     OW36139   2.699   1.403   3.679  0.5909 -0.2795  0.6216
 8168SOL    HW136140   2.712   1.393   3.585  3.0509 -1.3304  1.0852
 8168SOL    HW236141   2.640   1.478   3.678 -0.6162 -1.2463 -1.5834
 8169SOL     OW36142   4.122   0.132   8.186  0.1790 -0.1934  0.4420
 8169SOL    HW136143   4.043   0.182   8.162  0.3091  1.7804  4.2054
 8169SOL    HW236144   4.073   0.062   8.229 -0.5700  0.0685  0.0174
 8170SOL     OW36145   1.424   2.174   5.442  0.0297  0.0700  0.1768
 8170SOL    HW136146   1.353   2.135   5.493 -1.1962  1.7291 -0.2589
 8170SOL    HW236147   1.464   2.100   5.397  0.3709  0.1687  0.3165
 8171SOL     OW36148   3.926   4.090   1.995 -0.1898  0.8239 -0.3435
 8171SOL    HW136149   3.954   4.036   1.921 -0.0610 -1.6584  1.4830
 8171SOL    HW236150   3.852   4.144   1.968 -2.1698 -0.9709  1.5059
 8172SOL     OW36151   3.958   4.637  14.837  0.6268  0.2169  0.0575
 8172SOL    HW136152   3.905   4.612  14.913  0.9312  0.3983  0.3273
 8172SOL    HW236153   3.952   4.731  14.851  0.1561  0.2304 -0.2297
 8173SOL     OW36154   0.155   1.233   4.074  0.2427 -0.2856 -0.2021
 8173SOL    HW136155   0.088   1.302   4.077  2.0995  1.5171 -0.6192
 8173SOL    HW236156   0.138   1.165   4.139  1.9182  1.0622  1.6322
 8174SOL     OW36157   2.045   2.291   5.082  0.0972  0.0584 -0.2475
 8174SOL    HW136158   2.056   2.311   5.174 -1.3311  0.0967 -0.0738
 8174SOL    HW236159   2.076   2.201   5.077  1.4762  0.4993  0.5982
 8175SOL     OW36160   1.744   4.003   9.234 -0.0750  0.2141 -0.1112
 8175SOL    HW136161   1.709   3.928   9.187 -1.1593  0.7399 -0.1541
 8175SOL    HW236162   1.672   4.063   9.215 -0.6572  0.1272  1.8651
 8176SOL     OW36163   1.201   3.445   7.548  0.4085  0.1883 -0.1338
 8176SOL    HW136164   1.228   3.537   7.548 -1.2049  0.6570 -3.0027
 8176SOL    HW236165   1.155   3.433   7.465  1.5676  0.4533 -0.8093
 8177SOL     OW36166   0.859   2.337   0.283 -0.7562 -0.2937  0.1324
 8177SOL    HW136167   0.832   2.378   0.365 -0.1870  0.2263  0.0496
 8177SOL    HW236168   0.871   2.244   0.302  1.4914 -0.4067 -1.7658
 8178SOL     OW36169   1.656   0.389   3.973 -0.3157 -0.0201 -0.0085
 8178SOL    HW136170   1.693   0.440   3.901 -1.6695 -1.3419 -1.6292
 8178SOL    HW236171   1.667   0.437   4.055 -3.1089  0.9682 -0.2224
 8179SOL     OW36172   1.304   0.756  10.623 -0.0610  0.3410  0.0215
 8179SOL    HW136173   1.323   0.714  10.706  0.6512  1.2924  0.3436
 8179SOL    HW236174   1.370   0.822  10.600  0.6836 -0.1144  0.8676
 8180SOL     OW36175   4.380   1.102  17.598  0.0264  0.1249  0.2074
 8180SOL    HW136176   4.441   1.050  17.546 -3.5181 -0.4801 -3.3954
 8180SOL    HW236177   4.302   1.046  17.597 -0.5941  0.9781  1.6642
 8181SOL     OW36178   3.323   2.808   7.477  0.1935 -0.3642 -0.1987
 8181SOL    HW136179   3.356   2.749   7.410  1.3194 -1.1955  1.1000
 8181SOL    HW236180   3.341   2.764   7.560  0.0802 -2.3056 -1.1941
 8182SOL     OW36181   0.757   0.278   2.729 -0.6264 -0.5590 -0.4138
 8182SOL    HW136182   0.746   0.291   2.824 -0.2090  0.9826 -0.5671
 8182SOL    HW236183   0.719   0.191   2.719 -0.8975 -0.7754  2.4157
 8183SOL     OW36184   3.671   0.161   7.279  0.3010  0.0921  0.2298
 8183SOL    HW136185   3.590   0.161   7.230  0.4402 -3.8366  0.0228
 8183SOL    HW236186   3.711   0.083   7.240 -0.5031  1.1887 -2.7654
 8184SOL     OW36187   0.718   0.692   6.399 -0.4589 -0.1752 -0.1420
 8184SOL    HW136188   0.722   0.710   6.493 -0.0794  2.9416 -0.7644
 8184SOL    HW236189   0.657   0.758   6.366 -0.1111  0.2548  0.0894
 8185SOL     OW36190   4.539   4.147   8.851  0.0624 -0.2936 -0.1656
 8185SOL    HW136191   4.544   4.078   8.917 -0.1241  0.0547  0.2071
 8185SOL    HW236192   4.632   4.169   8.838 -0.4203  0.6767 -2.0038
 8186SOL     OW36193   4.394   0.600   1.301 -0.3422  0.4308  0.8307
 8186SOL    HW136194   4.474   0.619   1.253 -1.0826  0.0951 -0.5497
 8186SOL    HW236195   4.345   0.557   1.231  2.5658  0.2657 -1.0963
 8187SOL     OW36196   0.274   1.260   3.821 -0.2059 -0.7938  0.3605
 8187SOL    HW136197   0.185   1.226   3.831 -0.2862 -0.6295  0.2149
 8187SOL    HW236198   0.284   1.301   3.907  0.8015 -0.2589 -0.0159
 8188SOL     OW36199   0.789   1.608   3.933  0.0433 -0.4355  0.4232
 8188SOL    HW136200   0.754   1.678   3.878  0.6201 -2.8385 -3.0019
 8188SOL    HW236201   0.840   1.550   3.877 -1.3700 -0.9388 -0.3278
 8189SOL     OW36202   1.383   4.073   6.724  0.1019  0.3100 -0.5698
 8189SOL    HW136203   1.349   4.109   6.806 -2.2146  0.1124 -1.4576
 8189SOL    HW236204   1.323   4.114   6.662  0.0934  0.6308 -0.3501
 8190SOL     OW36205   1.436   1.722   5.264 -0.1084 -0.1754 -0.4651
 8190SOL    HW136206   1.497   1.755   5.199  0.7276  2.2316  1.5607
 8190SOL    HW236207   1.401   1.648   5.214 -1.9358  0.4754 -0.1743
 8191SOL     OW36208   1.549   2.871  11.082 -0.0070 -0.4194  0.5741
 8191SOL    HW136209   1.617   2.903  11.142 -0.0657  0.1080  0.3567
 8191SOL    HW236210   1.550   2.777  11.101 -0.7096 -0.6147 -0.3652
 8192SOL     OW36211   1.836   4.558   1.950 -0.2608 -0.2273 -0.2738
 8192SOL    HW136212   1.848   4.497   1.877  1.2094 -1.0883  0.6823
 8192SOL    HW236213   1.907   4.619   1.933 -0.7350  0.1985 -0.7053
 8193SOL     OW36214   4.689   0.668   3.758 -0.0691 -0.2476  0.1287
 8193SOL    HW136215   4.593   0.664   3.760 -0.1683  0.5626 -2.4595
 8193SOL    HW236216   4.704   0.583   3.717 -1.1320  1.0433 -2.9328
 8194SOL     OW36217   1.840   1.145   1.547  0.6369 -0.3019 -0.3978
 8194SOL    HW136218   1.763   1.122   1.600 -0.9356 -0.4580 -2.7367
 8194SOL    HW236219   1.804   1.210   1.486 -0.2378  0.9260  1.4488
 8195SOL     OW36220   3.392   1.632  10.234 -0.3119  0.0315 -0.7441
 8195SOL    HW136221   3.354   1.713  10.199  0.5778  0.7170 -0.1215
 8195SOL    HW236222   3.324   1.591  10.286 -0.0480 -0.3864 -0.7321
 8196SOL     OW36223   1.639   4.022  12.973  0.1149  0.8114 -0.2891
 8196SOL    HW136224   1.597   4.034  12.888  0.3457 -1.9696 -0.7747
 8196SOL    HW236225   1.585   3.964  13.027  0.1864  1.0933  0.0944
 8197SOL     OW36226   2.884   2.714  17.271  0.6682  0.4798 -0.1058
 8197SOL    HW136227   2.823   2.703  17.344 -2.3486  0.8934 -2.5541
 8197SOL    HW236228   2.868   2.802  17.237 -0.8775 -0.8527 -2.8530
 8198SOL     OW36229   2.182   1.815   2.979  0.1033 -0.5623 -0.0740
 8198SOL    HW136230   2.093   1.789   3.002 -0.1972 -1.5110 -2.2684
 8198SOL    HW236231   2.181   1.752   2.908  2.8128  0.0640 -0.6760
 8199SOL     OW36232   2.316   1.959   8.699  0.0388 -0.9137  0.1534
 8199SOL    HW136233   2.341   2.010   8.776 -0.2156 -2.0894  1.0049
 8199SOL    HW236234   2.394   1.905   8.687  1.6092  1.0893  1.3420
 8200SOL     OW36235   3.172   0.680   1.359  0.0087  0.4870  0.3549
 8200SOL    HW136236   3.241   0.726   1.312  0.0043 -1.0963 -1.1863
 8200SOL    HW236237   3.211   0.666   1.445  1.1302 -5.1934 -1.1147
 8201SOL     OW36238   4.036   3.995  11.858  0.3747  0.6027  0.2997
 8201SOL    HW136239   4.008   3.987  11.767  3.1284 -0.7794 -0.4478
 8201SOL    HW236240   4.075   4.082  11.866  2.7195 -0.2960 -1.2533
 8202SOL     OW36241   2.749   0.203   5.458 -0.0544  0.4569  0.0132
 8202SOL    HW136242   2.686   0.212   5.387 -0.6664  1.8182  0.7213
 8202SOL    HW236243   2.760   0.294   5.488 -0.7853  1.2925 -2.2569
 8203SOL     OW36244   1.963   3.219   9.245  0.0809 -0.2754  0.2882
 8203SOL    HW136245   2.020   3.270   9.187 -3.6547  2.3258 -1.1489
 8203SOL    HW236246   1.880   3.258   9.215  1.0055  0.9825 -0.6332
 8204SOL     OW36247   0.056   3.455   5.005 -0.0978  0.2296 -0.0433
 8204SOL    HW136248   0.131   3.423   5.055 -1.2166 -1.0863  0.7971
 8204SOL    HW236249   4.725   3.449   5.073 -1.1719  1.1341 -1.0159
 8205SOL     OW36250   4.061   2.933   5.693 -0.1368 -0.0176  0.7250
 8205SOL    HW136251   4.074   2.840   5.711  0.7095  0.4125  2.3388
 8205SOL    HW236252   4.137   2.970   5.738 -0.1203  1.9524 -0.9539
 8206SOL     OW36253   3.413   3.215   5.245  0.5595 -0.5246 -0.3006
 8206SOL    HW136254   3.356   3.246   5.174  1.1384  2.0009  0.3285
 8206SOL    HW236255   3.346   3.177   5.301  0.9551  0.6429  0.9494
 8207SOL     OW36256   2.621   0.175  15.076 -0.8029  0.4154 -0.3209
 8207SOL    HW136257   2.665   0.230  15.011 -2.3425  0.3763 -1.4004
 8207SOL    HW236258   2.535   0.164  15.037  0.7064  0.0836 -3.5816
 8208SOL     OW36259   1.535   1.017  12.815 -0.9606  0.2542  0.2638
 8208SOL    HW136260   1.478   1.067  12.873 -3.0625 -1.1403 -0.5926
 8208SOL    HW236261   1.603   1.005  12.881 -1.1798 -2.8451 -0.0835
 8209SOL     OW36262   3.593   1.266   4.716 -0.0370 -0.0834 -0.2390
 8209SOL    HW136263   3.609   1.335   4.781 -3.0734 -0.2664  0.7270
 8209SOL    HW236264   3.617   1.185   4.761  0.2078  0.2742  0.2746
 8210SOL     OW36265   0.721   0.299   6.085  1.6456 -0.0042  0.1760
 8210SOL    HW136266   0.756   0.211   6.099 -0.3510 -0.2915  3.2663
 8210SOL    HW236267   0.739   0.343   6.167  2.5919  1.5566 -0.8794
 8211SOL     OW36268   0.932   4.521   7.152  0.1474 -0.0017 -0.7885
 8211SOL    HW136269   1.023   4.551   7.157 -0.0385  0.6856 -1.5630
 8211SOL    HW236270   0.908   4.483   7.237  2.9401 -1.4967 -0.6597
 8212SOL     OW36271   4.662   2.839   2.031  0.0215  0.4401 -0.4858
 8212SOL    HW136272   4.703   2.892   1.963  0.2923  1.0848  0.1744
 8212SOL    HW236273   4.727   2.788   2.078 -1.8466 -0.5123  1.0951
 8213SOL     OW36274   1.647   3.793   6.024  0.1554  0.3318  0.1741
 8213SOL    HW136275   1.554   3.807   6.043  0.3174  0.4572  0.9008
 8213SOL    HW236276   1.678   3.822   6.110  1.3380 -0.5334  0.0401
 8214SOL     OW36277   4.078   2.590  14.335  0.5136  0.0904  0.0907
 8214SOL    HW136278   4.085   2.599  14.240  3.6257  1.0076  0.4026
 8214SOL    HW236279   3.985   2.569  14.328  0.5824  0.3178 -1.3703
 8215SOL     OW36280   4.012   2.012  13.240  0.6746 -0.2801 -0.1623
 8215SOL    HW136281   4.014   2.088  13.182 -1.1206 -1.5515 -1.8810
 8215SOL    HW236282   4.089   2.049  13.284  0.3918 -1.6648  1.4763
 8216SOL     OW36283   2.123   0.127   0.543 -0.0942 -0.9302  0.5944
 8216SOL    HW136284   2.206   0.135   0.497 -1.5641 -0.6867 -1.9670
 8216SOL    HW236285   2.126   0.208   0.594  0.9811 -0.5937 -0.0158
 8217SOL     OW36286   2.401   3.414   8.653  0.5155  0.1936  0.6973
 8217SOL    HW136287   2.483   3.394   8.698 -0.5530 -0.8978  2.1740
 8217SOL    HW236288   2.384   3.325   8.622 -3.2501  0.2991  2.3726
 8218SOL     OW36289   2.984   1.124   2.583  0.4162  0.1015  0.8052
 8218SOL    HW136290   2.897   1.134   2.621  1.6363  0.8594  3.3502
 8218SOL    HW236291   3.042   1.141   2.657  1.4923  0.5002 -0.1338
 8219SOL     OW36292   0.826   3.042   1.249 -0.1244  0.5219  0.5401
 8219SOL    HW136293   0.760   3.000   1.305 -0.4921 -0.0491 -0.3294
 8219SOL    HW236294   0.772   3.081   1.180 -0.2975 -0.7902 -0.0666
 8220SOL     OW36295   1.383   1.561   2.795 -0.1773  0.2809  0.8965
 8220SOL    HW136296   1.339   1.638   2.761  0.4783 -0.1409 -0.8810
 8220SOL    HW236297   1.383   1.573   2.890  1.9425  0.6737  0.8517
 8221SOL     OW36298   1.734   3.482  10.692  0.7419 -0.0565  0.5925
 8221SOL    HW136299   1.648   3.443  10.708  0.8687  0.3874  2.3408
 8221SOL    HW236300   1.736   3.493  10.597  0.8252 -0.9167  0.4935
 8222SOL     OW36301   3.149   1.664  14.786  0.4398 -0.2384 -0.1384
 8222SOL    HW136302   3.201   1.587  14.809 -0.4148 -0.7833 -0.0100
 8222SOL    HW236303   3.214   1.733  14.773 -0.4291  0.9304  1.7859
 8223SOL     OW36304   1.417   3.733   3.955 -0.1146 -0.3428  0.8134
 8223SOL    HW136305   1.370   3.784   4.021  1.4464  0.9015  0.9657
 8223SOL    HW236306   1.502   3.729   4.000  0.3931  1.5758  0.0208
 8224SOL     OW36307   2.561   2.506  17.432  0.3819 -0.6157 -0.3106
 8224SOL    HW136308   2.645   2.549  17.416  0.6007 -1.1198 -0.5324
 8224SOL    HW236309   2.502   2.579  17.411 -0.9110 -1.4447  0.4115
 8225SOL     OW36310   3.550   1.514   9.911 -0.1700  0.8664 -0.0913
 8225SOL    HW136311   3.504   1.533   9.829  0.4988  2.0521 -0.2078
 8225SOL    HW236312   3.626   1.573   9.906  0.5384 -0.0247  0.1509
 8226SOL     OW36313   4.569   0.853   4.230 -0.2862  0.0850 -0.0732
 8226SOL    HW136314   4.604   0.932   4.272  0.1626 -0.9649  1.5402
 8226SOL    HW236315   4.498   0.829   4.290 -0.7735  1.1641 -0.2055
 8227SOL     OW36316   1.141   0.068   3.236 -0.0101  0.0293  0.1574
 8227SOL    HW136317   1.235   0.055   3.243 -0.2574 -1.2531  1.0063
 8227SOL    HW236318   1.110   4.718   3.265  0.0114 -0.4173 -1.1261
 8228SOL     OW36319   2.979   2.790  10.679  0.2490  0.6391  1.2397
 8228SOL    HW136320   2.983   2.832  10.593  1.6611 -2.2042 -0.0817
 8228SOL    HW236321   3.069   2.758  10.681 -0.4354 -1.3974 -1.0125
 8229SOL     OW36322   1.949   3.589   6.277 -0.0502  0.2887 -0.1846
 8229SOL    HW136323   1.899   3.671   6.286 -0.0688 -0.0370  2.6064
 8229SOL    HW236324   1.893   3.546   6.212  0.5972  0.1788 -0.6678
 8230SOL     OW36325   0.529   2.318   4.489  0.2308  0.5197 -0.2288
 8230SOL    HW136326   0.605   2.362   4.528 -0.0666  0.5466  0.3275
 8230SOL    HW236327   0.464   2.315   4.559 -0.9700 -1.7221 -1.4450
 8231SOL     OW36328   4.130   2.823  14.881 -0.3571 -0.0444 -0.3618
 8231SOL    HW136329   4.094   2.882  14.947 -3.2480 -2.4635  0.2128
 8231SOL    HW236330   4.058   2.831  14.819  0.2979  0.6963 -1.0326
 8232SOL     OW36331   0.735   3.820  11.547 -0.2170 -0.0607  0.1335
 8232SOL    HW136332   0.701   3.733  11.529  0.6841 -0.9509  2.6712
 8232SOL    HW236333   0.827   3.800  11.563  0.0545 -0.0292 -1.4421
 8233SOL     OW36334   0.522   3.145   3.484  0.1332 -0.4344 -0.2288
 8233SOL    HW136335   0.466   3.137   3.562  0.5052 -0.8665 -0.0069
 8233SOL    HW236336   0.552   3.236   3.480 -0.5457 -0.1934  0.0840
 8234SOL     OW36337   0.605   2.960   2.411  0.4653 -0.3679 -0.5788
 8234SOL    HW136338   0.578   3.052   2.411  1.6514 -0.0112 -1.7262
 8234SOL    HW236339   0.543   2.903   2.455 -1.2728  1.7008 -0.3599
 8235SOL     OW36340   3.890   3.897   8.445  0.3133 -0.8589  0.6368
 8235SOL    HW136341   3.812   3.877   8.392  0.1635  1.4154  0.0188
 8235SOL    HW236342   3.874   3.986   8.475  1.7667 -0.4426  0.1614
 8236SOL     OW36343   3.984   2.312   0.280  0.2110 -0.6434 -0.4793
 8236SOL    HW136344   3.888   2.307   0.285  0.4550 -4.1175  0.2772
 8236SOL    HW236345   3.999   2.402   0.250  0.2277 -1.6343 -3.4401
 8237SOL     OW36346   3.751   0.579   8.530 -0.1471 -0.4781  0.9409
 8237SOL    HW136347   3.769   0.673   8.527  0.1144 -0.5428  0.5133
 8237SOL    HW236348   3.834   0.541   8.558 -0.3270 -1.2661  0.3996
 8238SOL     OW36349   4.622   0.370   5.231  0.7982 -0.2964 -0.0666
 8238SOL    HW136350   4.631   0.303   5.163 -0.4710  1.5804 -2.0694
 8238SOL    HW236351   4.537   0.411   5.215 -0.1765 -1.3777  2.3850
 8239SOL     OW36352   1.577   2.258   4.344  0.4231  0.1650 -0.1489
 8239SOL    HW136353   1.561   2.330   4.405  0.1715 -0.3787  0.4300
 8239SOL    HW236354   1.619   2.299   4.268 -0.7377  0.7236 -0.4823
 8240SOL     OW36355   4.114   1.031   7.890  0.2132  0.1109 -0.6118
 8240SOL    HW136356   4.034   1.080   7.870 -0.3828  0.4147  2.3805
 8240SOL    HW236357   4.108   0.972   7.815  1.2029  0.6240 -1.0870
 8241SOL     OW36358   3.800   0.729   4.776  0.1121 -0.6240 -0.2938
 8241SOL    HW136359   3.753   0.768   4.850 -1.9271 -0.9048 -1.4644
 8241SOL    HW236360   3.784   0.635   4.782  1.1714 -0.8420 -0.9421
 8242SOL     OW36361   4.218   4.317  10.305  0.4269  0.0326  0.0757
 8242SOL    HW136362   4.176   4.240  10.343 -1.9924  1.2465 -0.1702
 8242SOL    HW236363   4.232   4.285  10.216 -3.9505 -0.8274 -0.2890
 8243SOL     OW36364   4.329   1.462   1.346  0.8243 -0.1465  0.2909
 8243SOL    HW136365   4.329   1.553   1.315  0.9297 -0.7029 -1.3433
 8243SOL    HW236366   4.235   1.443   1.345  1.0105 -1.0754  0.2800
 8244SOL     OW36367   4.502   3.967   9.060 -0.0047 -0.3523 -0.3506
 8244SOL    HW136368   4.519   3.903   9.129 -2.1121 -1.1723 -0.5955
 8244SOL    HW236369   4.434   4.022   9.100  2.2386  0.3562  2.5074
 8245SOL     OW36370   0.641   3.378   9.932  0.2225  0.2314  0.2051
 8245SOL    HW136371   0.709   3.422   9.983  0.9930  1.7851 -2.1057
 8245SOL    HW236372   0.563   3.406   9.980 -1.0910 -2.2677 -0.4545
 8246SOL     OW36373   4.668   3.601   6.181 -0.3564 -0.0131 -0.0049
 8246SOL    HW136374   4.585   3.553   6.176 -1.6975  2.3104 -0.1261
 8246SOL    HW236375   4.637   3.679   6.228 -0.8709 -1.5431  2.1782
 8247SOL     OW36376   3.757   1.307  12.551 -0.5046  0.4763 -0.3192
 8247SOL    HW136377   3.796   1.249  12.486  0.4246 -0.7964  1.3952
 8247SOL    HW236378   3.817   1.292  12.624 -0.3418  0.0666 -0.5391
 8248SOL     OW36379   3.257   1.420  11.814 -0.4338  0.3957 -1.1054
 8248SOL    HW136380   3.201   1.345  11.798  0.4870 -0.2661 -1.2381
 8248SOL    HW236381   3.289   1.442  11.727  2.4382  1.5597  0.2407
 8249SOL     OW36382   0.077   3.463   8.619 -0.0909 -0.1359 -0.3871
 8249SOL    HW136383   0.028   3.510   8.686 -1.8803  1.0728 -2.5809
 8249SOL    HW236384   0.170   3.482   8.631 -0.0637 -0.1103 -0.6497
 8250SOL     OW36385   3.658   2.866  13.158  0.3052 -0.3139 -0.2108
 8250SOL    HW136386   3.699   2.944  13.120  2.4203 -0.7065  1.3046
 8250SOL    HW236387   3.648   2.808  13.083  1.3892  2.3058 -2.3882
 8251SOL     OW36388   0.101   4.073   2.521  0.3132 -0.3325  0.1409
 8251SOL    HW136389   0.155   3.997   2.542  2.1695  0.7876 -0.6160
 8251SOL    HW236390   0.054   4.055   2.603  0.0613  0.0376  0.0778
 8252SOL     OW36391   0.870   0.088  17.531 -0.4460 -0.3498 -0.2436
 8252SOL    HW136392   0.779   0.064  17.548 -0.4290 -0.4943 -0.3598
 8252SOL    HW236393   0.898   0.042  17.452 -1.5389 -0.9489 -0.2882
 8253SOL     OW36394   3.014   4.272   5.295 -0.2530 -0.2703 -0.0375
 8253SOL    HW136395   2.965   4.219   5.358 -2.3707  1.5340 -0.1827
 8253SOL    HW236396   3.032   4.352   5.345  0.6376  0.7946 -2.0872
 8254SOL     OW36397   2.111   0.374   7.445 -0.0561  0.0149  0.2880
 8254SOL    HW136398   2.116   0.464   7.476  1.6416  1.0017 -2.8804
 8254SOL    HW236399   2.201   0.341   7.445  0.1898  0.6768 -0.9408
 8255SOL     OW36400   1.640   0.790   8.107 -0.0435 -0.0998 -0.2297
 8255SOL    HW136401   1.614   0.858   8.169  0.7734 -1.1858  1.2868
 8255SOL    HW236402   1.605   0.705   8.134  0.8602 -0.5948 -0.6131
 8256SOL     OW36403   0.481   1.317   0.109  0.0886  0.0782 -0.1899
 8256SOL    HW136404   0.435   1.268   0.042 -2.0364 -0.4964  1.6869
 8256SOL    HW236405   0.458   1.269   0.188 -0.7184 -0.8442 -0.9958
 8257SOL     OW36406   2.090   2.784   6.641 -0.8349  0.0889 -0.1349
 8257SOL    HW136407   2.022   2.848   6.664 -0.7282 -0.7341  2.4003
 8257SOL    HW236408   2.077   2.719   6.710 -2.1363  1.5885  1.0234
 8258SOL     OW36409   2.237   2.626   8.932  0.0387 -0.0101 -0.1788
 8258SOL    HW136410   2.291   2.547   8.931 -1.8747 -1.2957 -1.9788
 8258SOL    HW236411   2.307   2.686   8.957  1.5970 -1.4876 -1.0287
 8259SOL     OW36412   2.135   1.272   8.387 -0.4700  0.0732 -0.0550
 8259SOL    HW136413   2.141   1.222   8.468 -0.4709 -0.9353 -0.6843
 8259SOL    HW236414   2.119   1.361   8.419  0.5089  0.4002 -0.4763
 8260SOL     OW36415   3.333   3.352   6.950  0.5634  0.4010  0.0636
 8260SOL    HW136416   3.329   3.277   7.010  1.2420 -1.8715 -2.7123
 8260SOL    HW236417   3.419   3.347   6.908 -0.7925  1.6007 -2.8852
 8261SOL     OW36418   4.088   1.078   4.799  0.1803 -0.5830 -0.5301
 8261SOL    HW136419   4.183   1.065   4.803  0.0767 -1.2344 -0.2407
 8261SOL    HW236420   4.068   1.001   4.746 -2.4520 -0.8260  0.8064
 8262SOL     OW36421   1.073   3.559  14.298 -0.5885  0.1597 -0.1109
 8262SOL    HW136422   1.040   3.648  14.294 -0.1925  0.2332 -2.0046
 8262SOL    HW236423   1.026   3.531  14.376  2.2011  0.8815  1.8080
 8263SOL     OW36424   4.305   2.471   3.898 -0.0788  0.5040 -0.7931
 8263SOL    HW136425   4.393   2.432   3.903 -1.1281 -1.7496  0.3662
 8263SOL    HW236426   4.275   2.431   3.980  0.2384 -0.4957 -1.1598
 8264SOL     OW36427   3.008   4.690   4.265 -0.4113  1.0535 -0.2024
 8264SOL    HW136428   3.074   4.634   4.305  0.2036  1.7225 -0.2874
 8264SOL    HW236429   2.964   4.622   4.213 -1.6364  1.0675  0.8194
 8265SOL     OW36430   4.302   4.180  12.642  0.3185 -0.1104  0.0209
 8265SOL    HW136431   4.368   4.114  12.665 -0.4004 -0.8119  0.0934
 8265SOL    HW236432   4.334   4.228  12.566  0.4565 -0.3718 -0.0884
 8266SOL     OW36433   2.986   3.081   4.830 -0.1381 -0.3409  0.9925
 8266SOL    HW136434   2.903   3.043   4.800 -0.6196  0.1816  1.6731
 8266SOL    HW236435   3.028   3.083   4.743  1.3620  0.8613  1.7465
 8267SOL     OW36436   2.866   3.975   7.397  0.1317 -0.7385  0.2457
 8267SOL    HW136437   2.906   4.037   7.336 -2.3745 -0.2272 -0.8551
 8267SOL    HW236438   2.864   3.888   7.356 -3.0819 -0.5969  0.1337
 8268SOL     OW36439   4.300   1.357  17.575  1.2426  0.4325  0.6732
 8268SOL    HW136440   4.213   1.327  17.549  2.4768 -0.3705 -2.6083
 8268SOL    HW236441   4.353   1.294  17.526 -1.5769 -1.6596  0.2693
 8269SOL     OW36442   3.005   2.046   3.275  0.0887  0.3040  0.0599
 8269SOL    HW136443   3.018   2.004   3.190  0.8682 -1.8202  1.2426
 8269SOL    HW236444   2.954   1.979   3.319 -0.4419  1.4370  1.1730
 8270SOL     OW36445   2.038   3.229   3.067  0.8094  0.6242  0.4767
 8270SOL    HW136446   2.004   3.265   2.985 -0.9614 -1.8439  0.1118
 8270SOL    HW236447   1.997   3.143   3.060 -1.5142  1.7049  0.9335
 8271SOL     OW36448   2.213   2.077   9.327 -0.8659 -0.2066  0.4003
 8271SOL    HW136449   2.230   2.041   9.240 -2.0779  0.9643 -0.3170
 8271SOL    HW236450   2.288   2.048   9.378 -0.7915 -1.1158 -0.2251
 8272SOL     OW36451   3.760   0.495   5.404  0.0571 -0.3389 -0.1216
 8272SOL    HW136452   3.726   0.408   5.380 -0.7255  0.0328 -0.3742
 8272SOL    HW236453   3.800   0.479   5.490  0.7159  2.0901  0.0134
 8273SOL     OW36454   4.367   3.923  12.841 -0.0942  0.0292 -0.5088
 8273SOL    HW136455   4.430   3.964  12.901 -1.2417  1.3059 -0.1929
 8273SOL    HW236456   4.281   3.947  12.875  0.6712 -0.4288  1.7707
 8274SOL     OW36457   3.046   1.984   5.768 -0.1639 -0.2796  0.6528
 8274SOL    HW136458   3.065   1.895   5.797  0.8392 -0.3357 -0.1983
 8274SOL    HW236459   2.976   1.963   5.706  0.0500 -1.2035  0.7304
 8275SOL     OW36460   1.879   0.576  17.739  0.0957 -0.2416  0.6711
 8275SOL    HW136461   1.904   0.483   0.002 -2.1897 -0.8717  0.1813
 8275SOL    HW236462   1.919   0.608   0.078  2.3140  4.3136 -2.2670
 8276SOL     OW36463   0.895   0.046   7.248  0.3319 -0.2181 -0.3323
 8276SOL    HW136464   0.872   0.095   7.169 -1.2984 -0.9099 -0.2943
 8276SOL    HW236465   0.866   4.694   7.223 -0.9300 -0.1813  0.9975
 8277SOL     OW36466   2.057   3.486  11.652 -0.1013  0.1567  0.0938
 8277SOL    HW136467   2.139   3.475  11.604  1.1564 -0.0376  2.3033
 8277SOL    HW236468   1.994   3.461  11.583 -0.5004 -0.8088  0.8125
 8278SOL     OW36469   1.506   2.867   9.611 -0.0202 -0.0040 -0.3546
 8278SOL    HW136470   1.431   2.859   9.669 -0.3033  0.4921 -0.6518
 8278SOL    HW236471   1.499   2.956   9.575  0.6135 -0.7014 -2.2191
 8279SOL     OW36472   4.580   2.074   2.575  0.1030  0.4759 -0.0349
 8279SOL    HW136473   4.622   2.001   2.529  2.2378  1.1947  0.7574
 8279SOL    HW236474   4.570   2.036   2.662  1.5639  1.1928  0.4585
 8280SOL     OW36475   3.686   1.392   6.925 -0.6617 -0.3172  0.6845
 8280SOL    HW136476   3.683   1.474   6.973  0.3759  0.0728  0.0723
 8280SOL    HW236477   3.657   1.424   6.840 -2.0666  0.9985  1.6668
 8281SOL     OW36478   0.069   4.492   2.999  0.3263 -0.4123  0.4330
 8281SOL    HW136479   0.138   4.443   2.954 -1.3797 -1.5896 -0.8924
 8281SOL    HW236480   0.103   4.581   2.995  2.8505 -1.3539  1.1887
 8282SOL     OW36481   0.877   4.381  11.492  0.2577  0.1264  0.2158
 8282SOL    HW136482   0.846   4.396  11.581 -2.2873 -1.3334 -0.4576
 8282SOL    HW236483   0.964   4.420  11.500  0.6495 -0.6385 -0.3473
 8283SOL     OW36484   4.212   1.780  15.764 -0.3829 -0.0055 -0.0710
 8283SOL    HW136485   4.272   1.853  15.751  2.8911 -2.8061 -0.6405
 8283SOL    HW236486   4.146   1.809  15.701 -0.6290  0.2659  0.3092
 8284SOL     OW36487   2.296   2.413   5.940  0.0380 -0.1514 -0.2717
 8284SOL    HW136488   2.288   2.470   6.017  0.9046 -0.7929  0.2917
 8284SOL    HW236489   2.206   2.417   5.907 -0.2613  4.0084  0.9672
 8285SOL     OW36490   0.617   3.285   1.242 -0.6156 -0.1218 -0.1057
 8285SOL    HW136491   0.584   3.358   1.295  1.9821  0.4682  0.7093
 8285SOL    HW236492   0.655   3.330   1.167 -2.5902  0.9009 -0.4740
 8286SOL     OW36493   1.050   0.877   4.051  0.0900  0.6422  0.6595
 8286SOL    HW136494   0.968   0.828   4.057 -0.2443  1.1505  0.2402
 8286SOL    HW236495   1.102   0.834   4.119 -0.9385 -1.4110  0.1600
 8287SOL     OW36496   1.042   2.568  11.058 -0.4083  0.4171  0.3726
 8287SOL    HW136497   1.000   2.615  11.130 -0.6804  1.5727 -0.5402
 8287SOL    HW236498   1.134   2.586  11.077 -0.2442 -0.4668  0.4216
 8288SOL     OW36499   0.800   2.527   0.100 -0.0123  0.0456  0.1882
 8288SOL    HW136500   0.884   2.499   0.063  0.1075  2.2854 -1.2442
 8288SOL    HW236501   0.810   2.472   0.178  1.4964 -0.5414 -0.4176
 8289SOL     OW36502   4.174   1.694   5.131  0.0889 -0.1377 -0.2293
 8289SOL    HW136503   4.094   1.649   5.105 -0.7595  1.2391  0.0196
 8289SOL    HW236504   4.204   1.637   5.203 -1.7480 -2.2481 -1.1152
 8290SOL     OW36505   2.718   4.388   4.835  0.4681  0.2041  0.5637
 8290SOL    HW136506   2.709   4.303   4.791 -4.2515  0.8356  0.2637
 8290SOL    HW236507   2.636   4.437   4.823 -0.4054 -1.0124  1.5652
 8291SOL     OW36508   4.334   2.533  13.464 -0.0855  0.7582 -0.0795
 8291SOL    HW136509   4.256   2.580  13.494 -0.9105 -1.4861  1.2709
 8291SOL    HW236510   4.315   2.552  13.371  0.3383 -0.1686 -0.3497
 8292SOL     OW36511   1.504   2.054  11.396 -0.4389  0.1236  0.9886
 8292SOL    HW136512   1.433   2.109  11.364  1.0010  1.6543  0.4293
 8292SOL    HW236513   1.456   1.978  11.429 -1.8281  0.9201  0.8145
 8293SOL     OW36514   2.773   1.521   6.804 -0.4841  0.1810  0.1321
 8293SOL    HW136515   2.706   1.462   6.769  0.0536 -0.7193  0.6247
 8293SOL    HW236516   2.751   1.521   6.898  0.9790 -1.0737  0.4770
 8294SOL     OW36517   4.060   3.920   5.051 -0.2976 -0.1794 -0.4422
 8294SOL    HW136518   3.973   3.938   5.017 -1.0080 -1.0488  0.9093
 8294SOL    HW236519   4.095   3.881   4.971  0.5839 -0.7236  0.2060
 8295SOL     OW36520   0.498   1.563   7.328 -0.2130 -0.0716  0.3375
 8295SOL    HW136521   0.578   1.567   7.379  0.6518  0.9632 -1.1163
 8295SOL    HW236522   0.533   1.494   7.272  0.7735  1.6792 -1.2038
 8296SOL     OW36523   3.056   3.156   6.216 -0.1540  0.2011  0.2476
 8296SOL    HW136524   3.006   3.088   6.261 -0.8249 -0.5911 -1.7125
 8296SOL    HW236525   3.056   3.142   6.122  2.5369  2.0237 -0.0252
 8297SOL     OW36526   1.464   1.000  13.498 -0.5591  0.0045 -0.4149
 8297SOL    HW136527   1.432   0.957  13.419 -1.1588 -0.8028  0.2709
 8297SOL    HW236528   1.382   0.991  13.546 -1.3269  0.4101 -1.6423
 8298SOL     OW36529   1.905   0.121   3.821  0.1902 -0.2971  0.2874
 8298SOL    HW136530   1.955   0.048   3.784  0.7587  0.5686 -0.6399
 8298SOL    HW236531   1.965   0.137   3.893 -0.3925 -2.0231  1.1613
 8299SOL     OW36532   4.540   1.525  11.737 -0.1611  0.5116  0.2293
 8299SOL    HW136533   4.596   1.520  11.660 -1.4299  1.2269 -0.7423
 8299SOL    HW236534   4.461   1.479  11.710  0.3237  1.3297 -2.6209
 8300SOL     OW36535   1.766   3.799   7.971  0.2498 -0.0834  0.4825
 8300SOL    HW136536   1.789   3.892   7.963  3.0814 -0.9676 -1.5772
 8300SOL    HW236537   1.850   3.764   7.943 -0.1732 -1.1103  0.4932
 8301SOL     OW36538   0.417   3.191   6.411  0.4972  0.0123  0.1110
 8301SOL    HW136539   0.366   3.176   6.331  0.8777 -1.1986  0.0923
 8301SOL    HW236540   0.361   3.245   6.467  0.7946 -0.0510  0.4640
 8302SOL     OW36541   3.732   4.166   6.413  0.2867  0.2338  0.1292
 8302SOL    HW136542   3.668   4.102   6.444 -0.7050  1.9730  1.6807
 8302SOL    HW236543   3.803   4.152   6.477 -0.6062 -0.9257  0.8583
 8303SOL     OW36544   4.216   3.907  15.976  0.4320 -0.3709  0.3047
 8303SOL    HW136545   4.125   3.887  15.998 -0.5045  1.6902 -1.7504
 8303SOL    HW236546   4.209   3.927  15.883 -1.4014  0.9429  0.7255
 8304SOL     OW36547   2.555   2.614  12.037 -0.0555  0.4548  0.5974
 8304SOL    HW136548   2.573   2.578  11.951 -0.9012  1.3262  0.0557
 8304SOL    HW236549   2.607   2.555  12.092  0.4009  0.7242  0.4634
 8305SOL     OW36550   2.191   3.514   2.167 -0.4508 -0.3399 -0.0351
 8305SOL    HW136551   2.111   3.522   2.219 -1.0969 -1.4891 -0.8706
 8305SOL    HW236552   2.179   3.447   2.100 -2.9712 -0.1688  0.2597
 8306SOL     OW36553   3.143   2.469  14.799 -0.4723  0.2267 -0.0573
 8306SOL    HW136554   3.142   2.542  14.738 -1.3071  0.8358  0.6752
 8306SOL    HW236555   3.137   2.401  14.732 -1.2724 -0.4144  0.6648
 8307SOL     OW36556   2.924   2.158   7.622  0.3442 -0.4336 -0.1608
 8307SOL    HW136557   2.913   2.250   7.601 -1.7235 -1.0294 -1.6545
 8307SOL    HW236558   2.856   2.145   7.688 -0.6324  0.0602 -1.0776
 8308SOL     OW36559   0.738   0.913   7.125 -0.1840 -0.2609  0.0074
 8308SOL    HW136560   0.724   0.964   7.205 -1.1500 -2.0015  0.9522
 8308SOL    HW236561   0.764   0.986   7.069  1.4155 -0.1356  0.8931
 8309SOL     OW36562   4.223   2.568  10.323  0.1812  0.2422 -0.1984
 8309SOL    HW136563   4.136   2.566  10.364  0.4963  0.8651  0.5006
 8309SOL    HW236564   4.226   2.498  10.258 -1.7086  0.1070 -0.1625
 8310SOL     OW36565   3.448   1.618   3.741  0.3149  0.3583 -0.1638
 8310SOL    HW136566   3.417   1.662   3.662  0.8618 -2.0675 -1.7110
 8310SOL    HW236567   3.476   1.532   3.709 -1.2625 -0.8840  1.7517
 8311SOL     OW36568   2.652   3.573   4.665  0.3911  0.2917  0.0898
 8311SOL    HW136569   2.630   3.639   4.731 -1.2040  0.7054 -0.8529
 8311SOL    HW236570   2.740   3.603   4.642  0.7094 -3.1332 -3.1534
 8312SOL     OW36571   2.610   1.396  17.535 -0.3836 -0.5092  0.5337
 8312SOL    HW136572   2.569   1.311  17.551 -0.9169 -0.8286 -2.5003
 8312SOL    HW236573   2.586   1.445  17.613  0.5530  2.6013 -1.1171
 8313SOL     OW36574   2.612   2.343  12.524  0.2755 -0.7378  0.4217
 8313SOL    HW136575   2.690   2.289  12.531  0.1341 -0.8601  1.0189
 8313SOL    HW236576   2.567   2.305  12.448 -0.6659  0.8424  0.1790
 8314SOL     OW36577   4.394   2.787   4.333  0.2618 -0.1823  0.2013
 8314SOL    HW136578   4.470   2.740   4.367 -0.5781 -0.7817  1.2463
 8314SOL    HW236579   4.418   2.880   4.328  0.3644 -0.1137  2.1378
 8315SOL     OW36580   4.094   3.982   1.283  0.8292 -0.6782 -0.3933
 8315SOL    HW136581   4.175   4.004   1.237  0.0249  0.6767 -1.1622
 8315SOL    HW236582   4.053   4.068   1.288 -0.3682 -1.4082  2.1193
 8316SOL     OW36583   3.768   3.096  15.484  0.1828 -0.2963 -0.1886
 8316SOL    HW136584   3.762   3.116  15.577  1.1591  3.0768 -0.8441
 8316SOL    HW236585   3.853   3.051  15.485  1.1227  1.5291  0.7000
 8317SOL     OW36586   3.959   0.751   5.781 -0.5461  0.2328  0.4866
 8317SOL    HW136587   4.047   0.781   5.756 -1.1826  2.7111  1.2183
 8317SOL    HW236588   3.932   0.718   5.695  0.3652  0.1095  0.2431
 8318SOL     OW36589   3.785   0.430  16.778 -0.0236  0.0404 -0.0803
 8318SOL    HW136590   3.725   0.468  16.714 -0.8759 -1.1259  0.0320
 8318SOL    HW236591   3.856   0.403  16.719  0.3745 -1.0415  0.8830
 8319SOL     OW36592   3.767   2.411   5.430  0.0919 -0.2764  0.2014
 8319SOL    HW136593   3.764   2.316   5.414  1.2466 -0.2333 -0.2167
 8319SOL    HW236594   3.673   2.426   5.441  0.1112 -1.5414  2.1029
 8320SOL     OW36595   2.754   0.409  15.750 -0.5918  0.2135  0.3795
 8320SOL    HW136596   2.781   0.355  15.676  0.3686 -0.3413  1.1395
 8320SOL    HW236597   2.730   0.493  15.711 -1.1190 -0.4620 -0.7570
 8321SOL     OW36598   1.402   3.392  11.408  0.7792  0.1346 -0.2653
 8321SOL    HW136599   1.344   3.380  11.332  1.0692 -0.3390 -0.4108
 8321SOL    HW236600   1.386   3.313  11.459 -1.3239  0.7047 -0.0174
 8322SOL     OW36601   0.283   4.734   3.949 -0.2236 -0.2532 -0.1826
 8322SOL    HW136602   0.224   4.694   4.013 -0.1049  2.2196  1.4636
 8322SOL    HW236603   0.300   4.665   3.885 -0.0882  0.3601 -0.8013
 8323SOL     OW36604   1.425   3.408  13.476  0.1884 -0.0436  0.9988
 8323SOL    HW136605   1.337   3.443  13.457  1.0951  0.8182 -1.5998
 8323SOL    HW236606   1.435   3.355  13.397  1.0918  3.2651 -1.1129
 8324SOL     OW36607   2.560   4.102   2.937  0.2113  0.2949 -0.2862
 8324SOL    HW136608   2.535   4.177   2.991 -0.6055 -1.0508  1.1738
 8324SOL    HW236609   2.600   4.153   2.866  1.2813  0.3959  0.3932
 8325SOL     OW36610   3.359   3.020  14.346 -0.3653  0.1553 -0.2922
 8325SOL    HW136611   3.379   3.069  14.267 -0.9368  0.7123 -0.0900
 8325SOL    HW236612   3.368   2.931  14.313 -0.3737 -0.3692  1.1151
 8326SOL     OW36613   2.740   3.999  12.902  0.1512 -0.7134  0.5754
 8326SOL    HW136614   2.769   3.924  12.953  2.0126  0.8248  1.7673
 8326SOL    HW236615   2.803   4.070  12.914 -0.0515 -0.3785 -0.3450
 8327SOL     OW36616   0.846   1.340   5.483  0.5092 -0.1222 -0.3661
 8327SOL    HW136617   0.915   1.280   5.453  0.7093  0.3417 -0.8265
 8327SOL    HW236618   0.853   1.412   5.420 -0.9048  0.6313  0.3464
 8328SOL     OW36619   2.292   4.170   6.627  0.0499  0.2508  1.2257
 8328SOL    HW136620   2.215   4.166   6.570  0.7281  1.0049  0.2673
 8328SOL    HW236621   2.349   4.233   6.584 -1.0129 -1.0406 -2.0756
 8329SOL     OW36622   0.291   2.288   3.492  0.1850  0.5602 -0.6845
 8329SOL    HW136623   0.234   2.225   3.536  0.3237  0.3636 -0.7874
 8329SOL    HW236624   0.296   2.355   3.560 -0.4487 -0.7110  0.6254
 8330SOL     OW36625   0.237   0.894   5.094 -0.2786 -0.4416 -0.4709
 8330SOL    HW136626   0.157   0.846   5.073  0.4276 -0.9115 -2.1592
 8330SOL    HW236627   0.256   0.940   5.012 -0.1701 -0.6104 -0.5420
 8331SOL     OW36628   1.178   2.195   8.574  0.3094 -0.4104  0.5944
 8331SOL    HW136629   1.253   2.182   8.632  1.1278 -2.1481 -0.8767
 8331SOL    HW236630   1.115   2.152   8.633 -0.3639 -1.6713 -1.0506
 8332SOL     OW36631   4.495   3.908  10.693 -0.1408  0.3194 -0.4054
 8332SOL    HW136632   4.557   3.977  10.715  0.8993 -0.6466 -0.3340
 8332SOL    HW236633   4.498   3.910  10.597 -0.8201 -2.1862 -0.4866
 8333SOL     OW36634   2.114   0.318   6.657  0.5942  0.3937 -0.3666
 8333SOL    HW136635   2.200   0.283   6.634  0.6092 -0.0054  0.2838
 8333SOL    HW236636   2.062   0.286   6.584  0.1678  2.0517 -0.7964
 8334SOL     OW36637   2.164   1.774   1.486 -0.1374 -0.1030 -0.1187
 8334SOL    HW136638   2.106   1.791   1.412 -1.7467 -1.6618  0.7878
 8334SOL    HW236639   2.222   1.850   1.482 -0.0767 -0.0791  1.2494
 8335SOL     OW36640   1.775   0.054   7.598  0.2079  0.0323 -0.6377
 8335SOL    HW136641   1.711   0.002   7.550  0.2475  0.3812 -1.0737
 8335SOL    HW236642   1.815   0.103   7.526 -1.3934 -0.0059 -1.5626
 8336SOL     OW36643   2.880   2.444  17.237  0.0752 -0.2891  0.1558
 8336SOL    HW136644   2.890   2.533  17.271  1.2175 -0.4737  0.2870
 8336SOL    HW236645   2.969   2.423  17.210  0.0513 -1.0664  0.6832
 8337SOL     OW36646   0.307   3.294   6.683  0.0100 -0.6131  0.2632
 8337SOL    HW136647   0.366   3.277   6.757  0.6911  1.2735  0.1667
 8337SOL    HW236648   0.279   3.382   6.710  0.3102  0.0872 -1.7344
 8338SOL     OW36649   4.148   4.438   4.620 -0.0462 -0.6684  0.0964
 8338SOL    HW136650   4.097   4.515   4.644  2.2044  0.2071  2.0790
 8338SOL    HW236651   4.227   4.486   4.595 -0.7115  1.3174  1.9090
 8339SOL     OW36652   3.128   1.869   2.781  0.5440  0.3444 -0.0779
 8339SOL    HW136653   3.080   1.934   2.833 -0.9915  1.3099 -2.7378
 8339SOL    HW236654   3.065   1.798   2.767  1.4571 -0.2511 -1.1048
 8340SOL     OW36655   4.616   2.946   7.638  0.1736 -0.2704  0.0194
 8340SOL    HW136656   4.567   3.014   7.593  0.4979 -1.3762 -2.0291
 8340SOL    HW236657   4.700   2.954   7.591 -0.6157  0.0685 -1.3403
 8341SOL     OW36658   0.706   0.389  13.336  0.0532 -0.0323 -0.1476
 8341SOL    HW136659   0.667   0.303  13.347  0.6571 -0.3056 -0.1110
 8341SOL    HW236660   0.792   0.370  13.373 -0.4314 -1.6149  0.1789
 8342SOL     OW36661   0.932   3.961   2.581 -0.1440  0.0335  0.0667
 8342SOL    HW136662   1.000   3.926   2.523  0.2456  2.0627 -0.7010
 8342SOL    HW236663   0.897   3.885   2.628  0.0003  0.1192  0.3157
 8343SOL     OW36664   3.708   4.038   9.416  0.5765  0.3588  0.3925
 8343SOL    HW136665   3.642   4.106   9.406 -0.3412 -0.6402 -0.3098
 8343SOL    HW236666   3.683   3.964   9.360 -0.8031  0.4417  0.8971
 8344SOL     OW36667   1.296   1.040  17.726  0.0514 -0.2963 -0.3957
 8344SOL    HW136668   1.375   1.085  17.697 -0.3002  0.2578 -0.5010
 8344SOL    HW236669   1.317   1.001   0.069  1.7925 -0.6995 -1.0117
 8345SOL     OW36670   4.642   3.678   5.846  0.4866 -0.3651 -0.1077
 8345SOL    HW136671   4.692   3.649   5.770  0.3560  1.7931 -1.0276
 8345SOL    HW236672   4.632   3.598   5.898  1.0796  0.1489  0.8061
 8346SOL     OW36673   4.021   1.157   2.869  0.6806  0.3999 -0.2686
 8346SOL    HW136674   3.954   1.160   2.801 -1.3154  1.1049  1.7134
 8346SOL    HW236675   3.967   1.197   2.937  0.0555  1.8501 -1.6209
 8347SOL     OW36676   4.281   3.377  16.398  0.3337 -0.1973 -0.3074
 8347SOL    HW136677   4.311   3.405  16.312  2.1763  1.6623  0.9221
 8347SOL    HW236678   4.329   3.434  16.459 -0.8794 -1.5716  1.9449
 8348SOL     OW36679   3.891   3.669   8.601  0.5488 -0.2335  0.0856
 8348SOL    HW136680   3.894   3.754   8.555  0.6777 -0.3822 -0.1823
 8348SOL    HW236681   3.934   3.682   8.685  0.1880  0.7767  0.1172
 8349SOL     OW36682   3.572   1.600   9.484  0.3528  0.9101 -0.1085
 8349SOL    HW136683   3.551   1.671   9.423 -1.9348  0.4996  0.1969
 8349SOL    HW236684   3.532   1.633   9.564 -0.5590 -1.7883  0.5633
 8350SOL     OW36685   4.169   4.558   5.527 -0.0504 -0.0875  0.3243
 8350SOL    HW136686   4.215   4.497   5.468 -1.3719  0.8451 -1.6899
 8350SOL    HW236687   4.243   4.587   5.579  0.1192 -0.6922  0.4261
 8351SOL     OW36688   3.844   1.012   4.504  0.5910 -0.0734  0.3752
 8351SOL    HW136689   3.750   1.027   4.491  0.8447  2.2954  1.3257
 8351SOL    HW236690   3.871   1.097   4.472  0.4310 -0.1076  0.1490
 8352SOL     OW36691   4.102   2.395   6.937  0.1417  0.2302 -0.7080
 8352SOL    HW136692   4.148   2.363   7.014  0.6429  1.5968 -0.4459
 8352SOL    HW236693   4.128   2.487   6.936 -0.3447  0.3896  0.9065
 8353SOL     OW36694   0.875   2.419   0.579  0.0608  0.0975  0.0479
 8353SOL    HW136695   0.841   2.507   0.596 -3.7418 -0.8914 -2.5659
 8353SOL    HW236696   0.796   2.372   0.605  0.2196 -1.1622 -1.7394
 8354SOL     OW36697   2.603   3.231   9.122 -0.3240  0.0644  0.7044
 8354SOL    HW136698   2.676   3.286   9.093  1.1649 -2.1623  0.1617
 8354SOL    HW236699   2.593   3.260   9.212  0.4354  2.8960 -0.1153
 8355SOL     OW36700   0.394   4.038   5.464 -0.2270  0.2157  0.4676
 8355SOL    HW136701   0.445   4.102   5.416 -1.3118 -0.0115 -0.9717
 8355SOL    HW236702   0.440   4.039   5.548  3.2232  1.4978 -1.4452
 8356SOL     OW36703   3.397   3.399   4.429 -0.1792  0.1581  0.2433
 8356SOL    HW136704   3.361   3.368   4.512  2.2286  0.9809  1.5645
 8356SOL    HW236705   3.339   3.476   4.427  0.7897  0.8808  0.3294
 8357SOL     OW36706   2.876   4.537  12.290 -0.2590 -0.1847  0.2353
 8357SOL    HW136707   2.959   4.567  12.253 -0.6965 -2.1404 -2.3649
 8357SOL    HW236708   2.897   4.545  12.383  0.9412  0.6197 -0.1134
 8358SOL     OW36709   4.143   1.611   7.275  0.1576  0.1456  0.1733
 8358SOL    HW136710   4.056   1.647   7.287 -0.1483 -0.5230 -0.0638
 8358SOL    HW236711   4.209   1.680   7.282  0.7775 -0.2842 -1.4107
 8359SOL     OW36712   0.664   3.296   6.379  0.1675  0.5289  0.2095
 8359SOL    HW136713   0.656   3.271   6.471 -3.3100  1.6134  0.2076
 8359SOL    HW236714   0.607   3.235   6.331  1.7775 -2.1448  1.6500
 8360SOL     OW36715   4.667   4.025   2.723 -0.6225  0.4704 -0.2365
 8360SOL    HW136716   4.619   4.077   2.787  1.3365 -1.1296  2.5145
 8360SOL    HW236717   4.672   3.940   2.768 -1.9332 -0.3745 -1.6749
 8361SOL     OW36718   2.032   2.188   5.717  0.1439 -0.0306 -0.1779
 8361SOL    HW136719   2.046   2.277   5.749 -1.6283  0.4278 -0.6435
 8361SOL    HW236720   1.998   2.140   5.793  2.1666 -1.1922 -0.0103
 8362SOL     OW36721   1.518   1.271  11.925  0.1835 -0.3152  0.1430
 8362SOL    HW136722   1.430   1.272  11.889 -0.1438  0.0690  0.9631
 8362SOL    HW236723   1.552   1.191  11.884 -1.4535 -0.8863 -0.0998
 8363SOL     OW36724   2.242   3.267   9.085  0.2439 -0.1718 -0.6253
 8363SOL    HW136725   2.296   3.344   9.071 -1.5617  1.3693  0.8262
 8363SOL    HW236726   2.207   3.262   8.996 -1.3828 -2.4942  0.1510
 8364SOL     OW36727   3.553   3.103  13.779 -0.0323  0.6111 -0.0235
 8364SOL    HW136728   3.474   3.090  13.726 -0.0760 -0.3535  0.2848
 8364SOL    HW236729   3.514   3.129  13.862 -2.5788 -1.0855 -0.6985
 8365SOL     OW36730   0.648   0.140   3.432 -0.2492  0.0640 -0.4657
 8365SOL    HW136731   0.622   0.057   3.392  1.4969 -0.5532 -0.3381
 8365SOL    HW236732   0.592   0.141   3.509  1.0587 -0.0106  0.4962
 8366SOL     OW36733   3.338   3.269  15.028  0.3543 -0.1498 -0.3637
 8366SOL    HW136734   3.371   3.185  14.997  1.1880  0.4792 -1.2074
 8366SOL    HW236735   3.376   3.269  15.116 -0.9233 -1.8917  0.1711
 8367SOL     OW36736   1.220   4.147   4.676  0.8516  0.4470  0.4808
 8367SOL    HW136737   1.225   4.167   4.582 -2.5284  0.8501  0.3630
 8367SOL    HW236738   1.125   4.146   4.689  0.6527 -0.7282 -1.0201
 8368SOL     OW36739   4.710   3.017   9.622  0.0940  0.1143  0.1878
 8368SOL    HW136740   4.728   2.981   9.536 -1.1285  0.5050 -0.2295
 8368SOL    HW236741   0.036   3.090   9.635  0.1362  0.1491 -0.2356
 8369SOL     OW36742   4.632   0.116  11.743 -0.2883 -0.1335 -0.0086
 8369SOL    HW136743   4.704   0.055  11.728 -0.4958 -0.0907 -1.1832
 8369SOL    HW236744   4.674   0.198  11.719 -1.6025  0.7948  0.8483
 8370SOL     OW36745   4.023   1.774   5.409  0.7922  0.4954  0.8478
 8370SOL    HW136746   4.054   1.841   5.347 -3.0289  0.2334 -1.3058
 8370SOL    HW236747   4.075   1.696   5.386  1.3744  1.0961  0.1195
 8371SOL     OW36748   1.798   2.844   1.545 -0.0681  0.2054  0.5510
 8371SOL    HW136749   1.721   2.799   1.579  0.2296 -0.9893 -0.3450
 8371SOL    HW236750   1.863   2.827   1.614 -2.2393 -0.3353  2.4486
 8372SOL     OW36751   2.118   2.298   4.563 -0.0146  0.0024  0.6929
 8372SOL    HW136752   2.192   2.358   4.570  2.5719 -3.1855  0.7258
 8372SOL    HW236753   2.089   2.298   4.654 -5.3879  0.0604 -1.0341
 8373SOL     OW36754   4.022   1.901  11.756  0.1920 -0.4785 -0.0546
 8373SOL    HW136755   4.077   1.877  11.831 -0.3857 -1.9619 -0.1114
 8373SOL    HW236756   3.931   1.905  11.784  0.2946  0.2366  0.1973
 8374SOL     OW36757   0.014   2.131  10.623 -0.4596 -0.4661  0.4557
 8374SOL    HW136758   0.025   2.092  10.536 -0.7797  0.4567 -0.0070
 8374SOL    HW236759   0.072   2.077  10.676  0.3447  0.8358  0.9238
 8375SOL     OW36760   3.205   2.858   8.174  0.2559  0.1990 -0.5675
 8375SOL    HW136761   3.276   2.881   8.235 -0.7577 -2.3968  1.5642
 8375SOL    HW236762   3.152   2.802   8.230 -0.0633 -0.7019 -1.7826
 8376SOL     OW36763   0.442   4.530   7.622  0.1355 -0.3993  0.6748
 8376SOL    HW136764   0.376   4.523   7.691 -1.5721 -2.9155 -1.2155
 8376SOL    HW236765   0.525   4.546   7.668  0.2356 -3.4365  1.5756
 8377SOL     OW36766   1.448   0.829   3.204  0.0628  0.2590  0.4000
 8377SOL    HW136767   1.516   0.894   3.219 -0.6608  1.1546 -0.2100
 8377SOL    HW236768   1.473   0.762   3.268  0.2957  1.3857  1.4784
 8378SOL     OW36769   4.415   3.521   4.814 -0.8440 -0.1123  0.7035
 8378SOL    HW136770   4.487   3.580   4.794 -1.3133 -0.1196 -0.9988
 8378SOL    HW236771   4.363   3.585   4.863 -0.1139  0.1422  1.1469
 8379SOL     OW36772   3.007   0.149   4.671 -0.1086  0.1908  0.1638
 8379SOL    HW136773   3.072   0.177   4.735 -1.8329 -2.9213  3.2366
 8379SOL    HW236774   2.926   0.169   4.718  1.7750  0.5838  3.2729
 8380SOL     OW36775   3.546   3.144   3.840 -0.5263 -0.3523 -0.2734
 8380SOL    HW136776   3.593   3.203   3.781  0.3373  0.3440  1.1046
 8380SOL    HW236777   3.525   3.212   3.904 -0.2134 -0.5213  0.0068
 8381SOL     OW36778   3.051   3.458   7.761 -0.3394 -0.1831  0.5039
 8381SOL    HW136779   3.128   3.460   7.817 -0.2030  0.7699  0.2849
 8381SOL    HW236780   2.980   3.471   7.825 -0.9171 -0.6248 -0.0505
 8382SOL     OW36781   4.430   0.152  10.290 -0.1351  0.3866  0.1344
 8382SOL    HW136782   4.502   0.158  10.228  1.5353 -1.2311  1.9378
 8382SOL    HW236783   4.399   0.063  10.275 -0.0078  0.0681  1.8592
 8383SOL     OW36784   2.288   2.813  16.882 -0.2329 -0.2485 -0.0035
 8383SOL    HW136785   2.232   2.795  16.956 -0.6397  1.3945  0.0970
 8383SOL    HW236786   2.362   2.752  16.888  0.1428 -0.1609 -3.7265
 8384SOL     OW36787   1.643   2.539   8.492  0.1546 -1.1225 -0.4328
 8384SOL    HW136788   1.588   2.580   8.558 -1.5079 -0.5435 -2.1877
 8384SOL    HW236789   1.687   2.616   8.456 -0.8719 -0.6544 -0.6780
 8385SOL     OW36790   2.660   0.457   1.658 -0.1223  0.2643  0.2413
 8385SOL    HW136791   2.660   0.395   1.585 -1.5362  0.2411  0.2759
 8385SOL    HW236792   2.597   0.423   1.721 -0.5387  0.7753  0.0966
 8386SOL     OW36793   3.124   1.568  12.164  0.1381  0.2082 -0.7245
 8386SOL    HW136794   3.054   1.570  12.099 -0.8639 -4.5788  0.2423
 8386SOL    HW236795   3.152   1.659  12.174  0.0126  0.3825 -1.9316
 8387SOL     OW36796   2.720   4.691   0.239 -0.1347 -0.0812  0.0312
 8387SOL    HW136797   2.685   4.714   0.153  1.3761 -0.1837 -0.6036
 8387SOL    HW236798   2.701   4.597   0.244  1.6720 -0.4245  0.3986
 8388SOL     OW36799   1.703   3.503   3.416  0.4025  0.5930 -0.4668
 8388SOL    HW136800   1.619   3.512   3.461  2.0260  3.3008  1.9446
 8388SOL    HW236801   1.705   3.407   3.423 -1.0485  0.6263  0.3726
 8389SOL     OW36802   1.625   2.663   6.761 -0.0097 -0.1729  0.2319
 8389SOL    HW136803   1.677   2.603   6.708 -1.1729 -0.3078 -0.7614
 8389SOL    HW236804   1.642   2.752   6.729  0.6691 -1.4259 -2.8597
 8390SOL     OW36805   3.969   1.361   0.460  0.3363 -0.1425 -0.1323
 8390SOL    HW136806   3.913   1.364   0.538  1.3905  0.3659  0.6144
 8390SOL    HW236807   4.056   1.385   0.492  0.6476 -2.7996  1.0369
 8391SOL     OW36808   0.598   1.236   4.370  0.0091 -0.5700 -0.6346
 8391SOL    HW136809   0.520   1.291   4.376  0.9554  0.8975 -1.5527
 8391SOL    HW236810   0.663   1.303   4.347 -0.6428  0.2472 -0.0915
 8392SOL     OW36811   4.250   3.739   3.121  0.6122  0.1329  0.9506
 8392SOL    HW136812   4.288   3.703   3.040 -0.5546 -0.3405  0.6116
 8392SOL    HW236813   4.283   3.828   3.132  3.3220 -0.8033  0.5104
 8393SOL     OW36814   1.639   1.622   3.413 -0.1423  0.3255  0.3624
 8393SOL    HW136815   1.630   1.717   3.404 -2.3820  0.1693  0.8253
 8393SOL    HW236816   1.635   1.615   3.508  1.1364  3.0989  0.6138
 8394SOL     OW36817   3.572   1.279   5.672 -0.2322  0.3936  0.6035
 8394SOL    HW136818   3.544   1.330   5.596  1.2608  1.3019  0.6724
 8394SOL    HW236819   3.555   1.346   5.738 -1.3225 -0.0949  0.8260
 8395SOL     OW36820   4.622   1.282   9.869 -0.2415  0.5766 -0.3163
 8395SOL    HW136821   4.630   1.377   9.861 -0.5233  0.5350 -1.0500
 8395SOL    HW236822   4.526   1.281   9.877 -0.1662 -1.2990  0.3774
 8396SOL     OW36823   4.427   0.475   3.404  0.4626  0.0119 -0.4751
 8396SOL    HW136824   4.414   0.520   3.487  0.7506  0.1700 -0.5172
 8396SOL    HW236825   4.375   0.524   3.340  1.2145 -0.5293 -1.4836
 8397SOL     OW36826   0.537   0.572   2.284 -0.2910  0.7303  0.5623
 8397SOL    HW136827   0.613   0.524   2.250 -3.2183 -2.6805 -1.0279
 8397SOL    HW236828   0.554   0.659   2.248 -0.7812  1.2807  1.6605
 8398SOL     OW36829   1.772   2.219  17.259 -0.1979 -0.4971 -0.0043
 8398SOL    HW136830   1.776   2.196  17.166 -0.6181  0.0244 -0.1485
 8398SOL    HW236831   1.807   2.140  17.300 -0.7593 -1.9985 -2.4088
 8399SOL     OW36832   2.032   3.663   5.226  0.9081  0.7780  0.2130
 8399SOL    HW136833   2.057   3.687   5.137 -1.0134  0.3767 -0.4262
 8399SOL    HW236834   2.021   3.570   5.210  1.1245  1.1688 -2.1996
 8400SOL     OW36835   3.117   0.072   0.878 -0.9800  0.6649 -0.4056
 8400SOL    HW136836   3.128   0.060   0.973 -1.8215 -0.0588 -0.3967
 8400SOL    HW236837   3.080   0.160   0.877 -0.6933  0.7972  0.1829
 8401SOL     OW36838   3.203   2.534   4.638 -0.2748 -0.2507 -0.8339
 8401SOL    HW136839   3.267   2.549   4.568  0.3555  1.7424  0.1542
 8401SOL    HW236840   3.242   2.458   4.683 -2.0112 -0.2681  0.6605
 8402SOL     OW36841   0.420   4.550   7.161  0.2571  0.0613 -0.0857
 8402SOL    HW136842   0.431   4.552   7.256  1.2908 -0.4879 -0.1917
 8402SOL    HW236843   0.507   4.578   7.132  1.0072  0.0707  2.1477
 8403SOL     OW36844   4.300   4.212  15.895 -0.1106  0.6355  0.2231
 8403SOL    HW136845   4.287   4.269  15.820  1.0944  1.1107  0.3761
 8403SOL    HW236846   4.212   4.194  15.928  0.7033 -3.1616  0.3607
 8404SOL     OW36847   0.385   3.128   1.509  0.0271  0.4010  0.1435
 8404SOL    HW136848   0.377   3.223   1.512  1.3638  0.5134  0.0330
 8404SOL    HW236849   0.464   3.128   1.563 -0.6788 -0.8635  1.1850
 8405SOL     OW36850   0.053   1.907   5.687 -0.6784  0.4417  0.2462
 8405SOL    HW136851   0.012   1.869   5.609 -1.1729  1.9310 -0.2350
 8405SOL    HW236852   0.068   1.999   5.664  0.0379  0.2455 -0.0594
 8406SOL     OW36853   4.313   3.288   5.856 -0.0140 -0.3773 -0.3588
 8406SOL    HW136854   4.249   3.217   5.862 -0.9273  0.7088  2.4560
 8406SOL    HW236855   4.329   3.289   5.762 -2.8564 -0.7389 -0.8586
 8407SOL     OW36856   2.369   3.738   0.545  0.0980  0.1614  0.7289
 8407SOL    HW136857   2.433   3.731   0.474  1.2037 -1.2335  1.8751
 8407SOL    HW236858   2.363   3.830   0.571  0.8576 -0.3750  2.8253
 8408SOL     OW36859   2.722   3.775   5.685 -0.6348  0.6596  1.0237
 8408SOL    HW136860   2.763   3.853   5.722  0.1524  0.8052 -0.1433
 8408SOL    HW236861   2.651   3.770   5.749 -3.5150 -0.8552 -2.3119
 8409SOL     OW36862   2.076   3.674  11.004  0.3078  0.0085  0.6197
 8409SOL    HW136863   2.034   3.726  11.073 -1.4548  0.4673 -0.7848
 8409SOL    HW236864   2.133   3.739  10.963  0.0433 -0.9087 -1.2003
 8410SOL     OW36865   2.157   2.901   9.262  0.1402 -0.1818 -0.4538
 8410SOL    HW136866   2.228   2.963   9.278  1.5988 -1.9248 -0.0479
 8410SOL    HW236867   2.091   2.946   9.314  1.2375 -1.3529  1.9994
 8411SOL     OW36868   3.093   0.422   3.409 -0.4179 -0.2521  0.0997
 8411SOL    HW136869   3.140   0.349   3.450  0.8758  0.5966  0.1229
 8411SOL    HW236870   3.067   0.382   3.327 -2.7600 -0.8497  1.1281
 8412SOL     OW36871   4.420   3.920  12.335  0.4615  0.3411 -1.0464
 8412SOL    HW136872   4.435   3.947  12.426  0.3782  0.4452 -1.0624
 8412SOL    HW236873   4.487   3.972  12.292 -0.3720  2.3110  0.0228
 8413SOL     OW36874   3.729   0.695   7.743  0.3622 -0.0717  0.0972
 8413SOL    HW136875   3.680   0.632   7.796  0.8295  0.6443  1.3944
 8413SOL    HW236876   3.798   0.707   7.808  2.2798  1.0847 -2.1421
 8414SOL     OW36877   3.499   4.454   9.216  0.4188  0.2491 -0.2539
 8414SOL    HW136878   3.574   4.480   9.163 -0.1636  1.6301 -0.4080
 8414SOL    HW236879   3.458   4.541   9.219 -0.2939 -0.0200 -2.4726
 8415SOL     OW36880   4.422   2.513   9.130  0.1602 -0.7343 -0.1502
 8415SOL    HW136881   4.482   2.453   9.085  0.0043 -0.0325 -1.2763
 8415SOL    HW236882   4.341   2.504   9.080  0.4513 -2.1580 -0.3770
 8416SOL     OW36883   2.170   1.495  12.514 -0.3503  0.0564  0.0334
 8416SOL    HW136884   2.118   1.423  12.552  1.3287 -1.5318 -0.7059
 8416SOL    HW236885   2.200   1.526  12.599  0.7074 -0.4992 -0.1373
 8417SOL     OW36886   3.154   3.750   3.480 -0.0667  0.5206 -0.2323
 8417SOL    HW136887   3.234   3.706   3.510 -2.5303 -3.7115  0.1204
 8417SOL    HW236888   3.117   3.677   3.430 -0.5402 -1.1963  2.6486
 8418SOL     OW36889   2.527   0.935   4.072  0.6513  0.4820  0.0728
 8418SOL    HW136890   2.566   0.937   3.985 -2.0126  1.2971 -1.0920
 8418SOL    HW236891   2.452   0.992   4.058 -0.7381 -1.8595 -2.0424
 8419SOL     OW36892   1.979   4.511   5.702 -0.8776  0.5523  0.7832
 8419SOL    HW136893   1.955   4.588   5.650 -0.6739 -0.3275 -0.5982
 8419SOL    HW236894   1.912   4.452   5.669 -0.4456  1.2388 -1.3296
 8420SOL     OW36895   2.936   0.653   4.782  0.6661  0.3919 -0.0030
 8420SOL    HW136896   3.019   0.613   4.808  0.7550  0.1443 -0.6728
 8420SOL    HW236897   2.885   0.575   4.763  1.0791  0.5950 -1.9547
 8421SOL     OW36898   2.965   0.624   7.407 -0.0513  0.2783 -0.9624
 8421SOL    HW136899   2.970   0.682   7.331  1.1936 -0.0809 -1.1488
 8421SOL    HW236900   2.923   0.681   7.472 -0.7052  0.0180 -1.1608
 8422SOL     OW36901   4.185   0.259  15.334 -0.3493 -0.4854 -0.0012
 8422SOL    HW136902   4.150   0.279  15.421  0.7243  1.0501  0.0829
 8422SOL    HW236903   4.146   0.332  15.285 -1.0482 -0.8604 -0.0035
 8423SOL     OW36904   2.063   3.005   1.994  0.8032  0.0333  0.0286
 8423SOL    HW136905   2.151   3.014   1.958  0.6691 -0.9704 -0.5536
 8423SOL    HW236906   2.059   3.076   2.058  1.6792 -0.2063  0.3503
 8424SOL     OW36907   1.857   0.777   3.122 -0.3479 -0.5769 -0.1395
 8424SOL    HW136908   1.930   0.763   3.061  0.2331  0.7429  0.2449
 8424SOL    HW236909   1.834   0.684   3.129 -0.3476 -0.5569  0.0996
 8425SOL     OW36910   3.834   3.160   6.500  0.0267  0.2331  0.6842
 8425SOL    HW136911   3.852   3.161   6.594 -3.9517  0.8446  1.4179
 8425SOL    HW236912   3.828   3.066   6.483 -1.2656  0.2899  0.8351
 8426SOL     OW36913   4.723   3.002   4.370  0.2979  0.2118  0.7232
 8426SOL    HW136914   4.730   3.063   4.296  2.7688 -0.2945  0.5183
 8426SOL    HW236915   0.046   2.930   4.345 -3.7242 -2.3156 -1.4973
 8427SOL     OW36916   0.243   1.846   4.081  0.5615  0.4034  0.2462
 8427SOL    HW136917   0.296   1.903   4.025  0.7702 -0.5719 -0.5600
 8427SOL    HW236918   0.302   1.836   4.155 -0.2583 -2.1032  0.5667
 8428SOL     OW36919   4.091   3.037   9.429  0.5305 -0.6978 -0.3316
 8428SOL    HW136920   4.183   3.013   9.419  0.0147 -2.4956 -0.7163
 8428SOL    HW236921   4.054   2.969   9.484  0.0741  0.3155  0.6061
 8429SOL     OW36922   0.251   2.470  17.681  0.2198 -0.2769  0.1598
 8429SOL    HW136923   0.329   2.489  17.733 -0.3602 -1.8922  1.5967
 8429SOL    HW236924   0.221   2.394  17.730 -0.1490  0.5525  1.2417
 8430SOL     OW36925   3.659   3.444  15.912 -0.0215 -0.8106 -0.7654
 8430SOL    HW136926   3.671   3.355  15.945 -1.4743  0.1990  2.4138
 8430SOL    HW236927   3.592   3.430  15.845 -2.4041  2.1521  1.0305
 8431SOL     OW36928   0.474   2.546  13.104  0.3578 -0.0387  0.1777
 8431SOL    HW136929   0.437   2.629  13.075  1.5737  0.0209 -1.2012
 8431SOL    HW236930   0.390   2.499  13.101  0.7165 -0.6535 -0.2735
 8432SOL     OW36931   2.041   2.560   3.119  0.0306 -0.1358 -0.2120
 8432SOL    HW136932   2.087   2.552   3.035  1.1428  0.4243  0.3517
 8432SOL    HW236933   1.992   2.477   3.119 -0.4495  0.1515  3.9475
 8433SOL     OW36934   2.345   0.733   0.180  0.1589 -0.2906 -0.6873
 8433SOL    HW136935   2.321   0.776   0.097  0.5728  1.7338  0.2636
 8433SOL    HW236936   2.422   0.788   0.188 -0.2413  0.3777 -1.3281
 8434SOL     OW36937   1.512   4.308  12.597  0.3404  0.1798  0.1868
 8434SOL    HW136938   1.459   4.376  12.638  0.9178 -0.3076  1.7552
 8434SOL    HW236939   1.599   4.343  12.616  1.3404 -1.7924 -0.6812
 8435SOL     OW36940   1.901   0.756   8.002  0.2256  0.8489 -0.4770
 8435SOL    HW136941   1.921   0.839   7.959 -0.5219  0.9254 -0.6788
 8435SOL    HW236942   1.808   0.762   8.023  0.5691  1.1200  1.0025
 8436SOL     OW36943   1.574   1.401   6.878 -0.1483 -0.3090 -0.0942
 8436SOL    HW136944   1.577   1.312   6.843 -0.3363 -0.0490 -0.7829
 8436SOL    HW236945   1.558   1.389   6.971 -2.3594  0.4263 -0.3796
 8437SOL     OW36946   3.470   0.552  11.219  0.6383  0.1525  0.3240
 8437SOL    HW136947   3.563   0.565  11.233  0.8748 -1.6649  0.3650
 8437SOL    HW236948   3.465   0.461  11.248  2.8850  0.9231  3.0446
 8438SOL     OW36949   3.888   3.273   8.093  0.1011 -0.0672  0.5693
 8438SOL    HW136950   3.924   3.360   8.073 -0.2994  0.3575  1.6847
 8438SOL    HW236951   3.812   3.296   8.146 -1.5551 -4.7756  0.2055
 8439SOL     OW36952   3.130   1.647   7.905 -0.6988  0.4113 -0.1291
 8439SOL    HW136953   3.194   1.718   7.908  0.4309 -0.6275 -0.0522
 8439SOL    HW236954   3.166   1.602   7.981 -0.5511 -0.8322 -0.9307
 8440SOL     OW36955   1.666   2.511   7.795 -0.3228 -0.2864 -0.0753
 8440SOL    HW136956   1.750   2.538   7.757 -0.0831 -1.4355 -0.3599
 8440SOL    HW236957   1.613   2.535   7.719  0.3488 -0.2038 -0.5229
 8441SOL     OW36958   4.383   0.135   4.419 -0.1767 -0.0628  0.0782
 8441SOL    HW136959   4.328   0.212   4.406  0.1700  0.0305 -0.8367
 8441SOL    HW236960   4.469   0.172   4.402  0.5103 -1.6148  0.1405
 8442SOL     OW36961   3.357   1.120   8.151  0.0392  0.6957  0.1425
 8442SOL    HW136962   3.347   1.210   8.122  2.9382  0.4276 -1.7805
 8442SOL    HW236963   3.346   1.123   8.246  0.3145 -2.1143  0.2637
 8443SOL     OW36964   2.612   0.576   7.388  0.1055 -0.2369  0.2848
 8443SOL    HW136965   2.631   0.662   7.427 -0.6903  0.9910 -2.0076
 8443SOL    HW236966   2.568   0.614   7.312  2.6569 -1.2613 -1.7430
 8444SOL     OW36967   1.083   1.300   0.153  0.4080  0.8633  0.2738
 8444SOL    HW136968   1.002   1.250   0.144  1.6246 -1.1315  0.4144
 8444SOL    HW236969   1.112   1.260   0.235  1.0264  1.3400  0.2877
 8445SOL     OW36970   4.419   2.190   4.421  0.1385  0.1566  0.3985
 8445SOL    HW136971   4.428   2.097   4.401 -0.7685  0.3862 -1.0954
 8445SOL    HW236972   4.324   2.193   4.425  0.0851 -1.9680  0.6017
 8446SOL     OW36973   0.193   4.333   9.556  0.3146  0.1781  0.2386
 8446SOL    HW136974   0.260   4.386   9.513 -1.2640  2.0883  0.1086
 8446SOL    HW236975   0.233   4.248   9.540 -1.7769 -0.7264 -0.1772
 8447SOL     OW36976   4.340   2.995   6.543  0.1713  0.4000 -0.6785
 8447SOL    HW136977   4.270   3.056   6.520  0.8435  1.6549  0.6565
 8447SOL    HW236978   4.394   3.049   6.601 -1.4085  1.8466 -0.5488
 8448SOL     OW36979   3.404   0.155  10.874 -0.0829 -0.5611 -0.1774
 8448SOL    HW136980   3.461   0.166  10.798 -1.1351  1.7219 -0.6301
 8448SOL    HW236981   3.471   0.175  10.940 -0.4515 -3.7326  1.1446
 8449SOL     OW36982   1.112   1.372   5.695  0.0729  0.3251  0.2609
 8449SOL    HW136983   1.159   1.290   5.681 -0.9135  0.2509 -2.8107
 8449SOL    HW236984   1.032   1.342   5.738 -0.2750  1.9312  0.7170
 8450SOL     OW36985   4.376   0.640   3.714  0.1336 -0.2871  0.1581
 8450SOL    HW136986   4.335   0.678   3.791  0.9903  0.9316  0.0117
 8450SOL    HW236987   4.315   0.568   3.699  2.6598 -2.2101 -0.8256
 8451SOL     OW36988   4.295   4.464  12.403  0.0368 -0.0104 -0.7127
 8451SOL    HW136989   4.322   4.543  12.450 -0.6998  1.2522 -2.4111
 8451SOL    HW236990   4.378   4.419  12.417  0.6852  1.6272  0.8564
 8452SOL     OW36991   4.269   4.287   6.054 -0.1519  0.4782 -0.0889
 8452SOL    HW136992   4.256   4.210   6.108  1.3596  0.6231  0.4614
 8452SOL    HW236993   4.263   4.255   5.964 -0.0319  0.1197  0.0326
 8453SOL     OW36994   0.726   0.339   7.815 -0.4963  0.3473  0.5363
 8453SOL    HW136995   0.702   0.334   7.722  0.5703 -0.7345  0.3088
 8453SOL    HW236996   0.759   0.428   7.810  2.8843 -0.9916 -1.1778
 8454SOL     OW36997   4.102   0.602   0.157 -0.2273 -0.4622 -0.0038
 8454SOL    HW136998   4.048   0.642   0.227  1.3827 -0.1549  1.0553
 8454SOL    HW236999   4.061   0.640   0.079 -1.6373 -0.7321  0.5880
 8455SOL     OW37000   3.019   1.420   8.447  0.1463 -0.0842 -0.1909
 8455SOL    HW137001   3.067   1.469   8.514 -1.1532  0.6777  0.1951
 8455SOL    HW237002   2.997   1.344   8.502  1.9157 -0.8433 -0.5563
 8456SOL     OW37003   3.630   1.570   6.696  0.3541 -0.1146  0.5221
 8456SOL    HW137004   3.666   1.539   6.612  0.0341 -0.9450  0.6881
 8456SOL    HW237005   3.629   1.665   6.681 -1.6868 -0.3999 -1.1922
 8457SOL     OW37006   2.216   0.098  15.229 -0.1868 -0.0205 -0.3779
 8457SOL    HW137007   2.280   0.087  15.299 -2.1202  0.6798  1.5063
 8457SOL    HW237008   2.269   0.136  15.160  0.5389 -1.0146 -0.3652
 8458SOL     OW37009   0.936   2.664   9.540 -0.0855  0.0131  0.3371
 8458SOL    HW137010   0.852   2.711   9.541 -0.4137 -0.5846  0.4228
 8458SOL    HW237011   0.950   2.662   9.634 -2.7855  2.8618  0.8037
 8459SOL     OW37012   2.656   3.144   8.241  0.1708 -0.3500 -0.3226
 8459SOL    HW137013   2.574   3.152   8.290  1.7255 -2.5893  2.5983
 8459SOL    HW237014   2.665   3.230   8.199 -0.5528 -0.6216 -1.0430
 8460SOL     OW37015   3.558   2.198   5.131  0.1092  0.6683  0.0044
 8460SOL    HW137016   3.557   2.264   5.200  2.1743  1.7767 -1.0151
 8460SOL    HW237017   3.559   2.252   5.052 -2.4465 -0.4177 -0.7648
 8461SOL     OW37018   4.716   1.353   3.394 -0.3776  0.0874  0.0182
 8461SOL    HW137019   4.662   1.286   3.351 -1.0854  0.5650  0.1608
 8461SOL    HW237020   0.070   1.323   3.378 -0.9092 -1.3298 -0.3158
 8462SOL     OW37021   1.358   3.801   6.023 -0.3029 -0.5461 -0.0070
 8462SOL    HW137022   1.355   3.891   5.991  1.3375 -0.1976  0.8163
 8462SOL    HW237023   1.310   3.809   6.105  1.9044 -0.9791  1.3226
 8463SOL     OW37024   2.343   1.767  10.092  0.6084 -0.3246  0.1071
 8463SOL    HW137025   2.317   1.684  10.132  0.6907  0.0048  0.8361
 8463SOL    HW237026   2.259   1.813  10.098 -0.1800 -1.5631 -1.3603
 8464SOL     OW37027   2.392   0.393   7.338 -0.1906 -0.2428 -0.0076
 8464SOL    HW137028   2.422   0.332   7.405 -0.1378  0.3357  0.4878
 8464SOL    HW237029   2.473   0.442   7.329 -2.1115  2.7134 -1.2260
 8465SOL     OW37030   1.195   4.642   2.406  0.5567 -0.6395  0.5839
 8465SOL    HW137031   1.201   4.588   2.485 -1.0583 -1.5185  0.0936
 8465SOL    HW237032   1.265   4.703   2.431 -0.8116  0.9454  0.5313
 8466SOL     OW37033   2.823   1.627   8.979  0.0879 -0.0342 -0.0350
 8466SOL    HW137034   2.909   1.585   8.985 -0.0308 -0.3401 -0.5550
 8466SOL    HW237035   2.847   1.711   9.019 -0.3006 -0.2820  0.7203
 8467SOL     OW37036   3.951   2.965   3.316 -0.1936  0.1190  0.2605
 8467SOL    HW137037   3.968   2.903   3.387  1.2158  0.3082  0.0912
 8467SOL    HW237038   3.915   3.032   3.374 -1.2162 -1.6057  1.6395
 8468SOL     OW37039   2.350   1.629   6.107 -0.3952 -0.2483 -0.0047
 8468SOL    HW137040   2.412   1.619   6.179 -0.4409 -1.1676 -0.1037
 8468SOL    HW237041   2.278   1.652   6.167 -0.1713  0.6688 -0.0758
 8469SOL     OW37042   2.295   3.769   2.078  0.5274 -0.3501 -0.2462
 8469SOL    HW137043   2.321   3.824   2.152 -0.0499  0.5368 -0.7049
 8469SOL    HW237044   2.264   3.689   2.122 -0.9479 -0.7685 -2.0470
 8470SOL     OW37045   4.001   0.084  15.229 -0.1074  0.8733  0.4620
 8470SOL    HW137046   3.998   0.109  15.136 -2.6251 -0.4634  0.1758
 8470SOL    HW237047   4.059   0.151  15.265  1.5605 -0.3043 -0.0167
 8471SOL     OW37048   1.687   4.413  11.689 -0.1749  0.5517 -0.5714
 8471SOL    HW137049   1.679   4.367  11.772  2.3851  0.3674 -0.4193
 8471SOL    HW237050   1.768   4.374  11.658  0.3329  2.6847 -1.9515
 8472SOL     OW37051   2.849   3.944  13.379  0.2315 -0.5204 -0.0502
 8472SOL    HW137052   2.847   4.017  13.441  1.0150  0.7670 -1.5374
 8472SOL    HW237053   2.869   3.990  13.298  0.3936 -0.0018  0.2873
 8473SOL     OW37054   1.771   0.528   5.002  0.5964  0.0173  0.1940
 8473SOL    HW137055   1.711   0.454   5.013 -1.4643  1.5931 -0.2826
 8473SOL    HW237056   1.729   0.579   4.933 -1.7383 -0.3345  1.3428
 8474SOL     OW37057   0.310   3.110   7.131 -0.6701  0.7389  0.3616
 8474SOL    HW137058   0.326   3.197   7.166 -0.6231  1.2946 -1.0118
 8474SOL    HW237059   0.370   3.055   7.179  0.2051  0.3914 -1.1300
 8475SOL     OW37060   2.335   1.340   7.609 -0.1552  0.6654 -0.3398
 8475SOL    HW137061   2.303   1.354   7.698 -0.8165 -1.5093 -0.2239
 8475SOL    HW237062   2.429   1.327   7.620 -0.1552  0.5931 -0.4192
 8476SOL     OW37063   3.597   4.201  11.751  0.2245  0.2502 -0.0024
 8476SOL    HW137064   3.518   4.180  11.703 -1.3636  0.4870  2.5043
 8476SOL    HW237065   3.579   4.290  11.782  0.5757  1.0125 -1.9860
 8477SOL     OW37066   1.062   4.468   9.474  0.1148 -0.0454 -0.1059
 8477SOL    HW137067   1.089   4.559   9.484 -0.5301  0.2553 -1.0765
 8477SOL    HW237068   0.998   4.457   9.544  2.8000  0.4851  2.3954
 8478SOL     OW37069   2.463   3.325   3.794 -0.5604  0.0683 -0.1704
 8478SOL    HW137070   2.507   3.263   3.852  0.0194  2.2181  1.6948
 8478SOL    HW237071   2.454   3.277   3.711 -0.3668  1.2362 -0.8683
 8479SOL     OW37072   0.908   1.244  10.676  0.3666 -0.5396 -0.8070
 8479SOL    HW137073   0.879   1.300  10.604  2.3491 -2.7965 -3.3979
 8479SOL    HW237074   0.842   1.261  10.742 -0.7382 -2.2377 -1.4611
 8480SOL     OW37075   1.126   2.997   4.723 -0.1738  0.0668 -0.7754
 8480SOL    HW137076   1.154   2.929   4.662 -1.3945  1.1619 -2.5463
 8480SOL    HW237077   1.115   3.069   4.662  1.3548  0.6656 -0.3632
 8481SOL     OW37078   1.323   2.319  11.506  0.1691 -0.5077  0.5549
 8481SOL    HW137079   1.277   2.236  11.518 -2.2915  0.1686 -4.0487
 8481SOL    HW237080   1.413   2.289  11.516 -0.1988 -1.6790  0.2976
 8482SOL     OW37081   3.099   2.246   3.859  0.5437  0.1829 -0.6224
 8482SOL    HW137082   3.142   2.173   3.903 -1.0608 -1.0818 -1.1513
 8482SOL    HW237083   3.007   2.230   3.879  0.6676 -1.6104 -1.5014
 8483SOL     OW37084   1.127   1.078  16.931  0.3378  1.0144 -0.1370
 8483SOL    HW137085   1.146   1.143  16.864 -0.1308 -0.1619 -1.4112
 8483SOL    HW237086   1.039   1.102  16.960 -0.3192 -0.1257 -1.1649
 8484SOL     OW37087   3.101   3.858   5.834  0.1485 -0.3047  0.2603
 8484SOL    HW137088   3.074   3.844   5.744  1.0215  0.3030 -0.0960
 8484SOL    HW237089   3.131   3.772   5.862 -0.4562 -0.8600 -0.7965
 8485SOL     OW37090   4.267   2.811   8.176 -0.3989  0.1213 -0.0660
 8485SOL    HW137091   4.310   2.872   8.116  0.6514 -0.1986  0.3431
 8485SOL    HW237092   4.259   2.732   8.123  0.6102  0.4843 -0.7669
 8486SOL     OW37093   0.854   3.825  15.346 -0.4465  0.5744 -0.3008
 8486SOL    HW137094   0.858   3.894  15.280  1.7746  0.9398  0.2177
 8486SOL    HW237095   0.778   3.849  15.399  0.0758 -2.3796  1.8074
 8487SOL     OW37096   4.267   1.086   8.367  0.2470 -0.5025  0.5293
 8487SOL    HW137097   4.250   1.115   8.277 -2.9407 -1.4190  0.8281
 8487SOL    HW237098   4.277   0.992   8.351 -0.5577 -0.6471  0.8887
 8488SOL     OW37099   1.345   1.329  11.167 -0.7238  0.1375  0.4454
 8488SOL    HW137100   1.410   1.391  11.200 -1.2301  0.6975  0.4006
 8488SOL    HW237101   1.279   1.393  11.139 -0.7529  0.1099  0.4503
 8489SOL     OW37102   3.281   1.023   7.066  0.6670  0.1827  0.0693
 8489SOL    HW137103   3.289   1.082   6.991  1.5659 -2.7459 -2.1262
 8489SOL    HW237104   3.225   0.953   7.032 -1.0976  1.5883  0.1069
 8490SOL     OW37105   1.386   2.888   6.183 -0.2389  0.1714  0.2815
 8490SOL    HW137106   1.426   2.973   6.201  0.5741  0.0780 -1.0459
 8490SOL    HW237107   1.343   2.916   6.103 -0.6384  2.3454  1.2723
 8491SOL     OW37108   1.690   1.854   6.607 -0.1595 -0.3313  0.5722
 8491SOL    HW137109   1.704   1.821   6.518 -2.1304 -2.4097  1.0137
 8491SOL    HW237110   1.782   1.859   6.632 -0.4018  0.4686  1.3162
 8492SOL     OW37111   3.029   3.161   3.766  0.0074  0.1086  0.5834
 8492SOL    HW137112   2.947   3.201   3.737  0.2470 -1.4272 -2.2892
 8492SOL    HW237113   3.002   3.107   3.840 -0.4151  0.1229  0.4437
 8493SOL     OW37114   4.303   4.534   1.882 -0.2790  0.4023 -0.1241
 8493SOL    HW137115   4.244   4.556   1.810 -0.1427 -0.7202 -0.5728
 8493SOL    HW237116   4.247   4.465   1.917 -2.7765  2.0809 -0.7478
 8494SOL     OW37117   4.232   2.139   0.257  0.1888 -0.2233  0.0858
 8494SOL    HW137118   4.228   2.142   0.162 -1.1515 -0.4823  0.1388
 8494SOL    HW237119   4.145   2.149   0.295  0.3265  1.9046 -0.1458
 8495SOL     OW37120   3.798   0.453   4.702  0.3104  0.0083  0.2604
 8495SOL    HW137121   3.885   0.422   4.677  0.3888  1.0572 -0.7773
 8495SOL    HW237122   3.763   0.503   4.629  1.9315 -2.4633 -2.2074
 8496SOL     OW37123   4.162   3.148   8.310  0.3731 -0.4073 -0.0983
 8496SOL    HW137124   4.212   3.115   8.385  1.0660  0.6154 -0.1178
 8496SOL    HW237125   4.237   3.179   8.259  0.9639 -0.4550  0.7351
 8497SOL     OW37126   2.516   2.073  17.098  0.3976  0.5997  0.0317
 8497SOL    HW137127   2.546   2.008  17.162  2.8958  1.1983 -0.5051
 8497SOL    HW237128   2.570   2.150  17.117  1.5165 -0.1896  0.0984
 8498SOL     OW37129   0.580   1.403  11.704 -0.2386  0.2899  0.7931
 8498SOL    HW137130   0.525   1.481  11.706 -2.8379 -1.6749  5.5482
 8498SOL    HW237131   0.590   1.390  11.609  0.2899  0.9768  0.7543
 8499SOL     OW37132   3.076   4.072   4.893  0.4980 -0.3224  0.5199
 8499SOL    HW137133   3.098   4.003   4.955 -3.2377 -0.8049  1.2947
 8499SOL    HW237134   2.983   4.073   4.917  0.5982  2.0033  0.8396
 8500SOL     OW37135   3.716   0.089   8.194 -0.1164  0.0379 -0.1337
 8500SOL    HW137136   3.767   0.015   8.227 -0.0112  0.2703  0.2277
 8500SOL    HW237137   3.632   0.078   8.239 -0.1110  0.4181 -0.0301
 8501SOL     OW37138   1.133   4.333   9.236 -0.5763  0.3008 -1.0709
 8501SOL    HW137139   1.115   4.382   9.317 -0.4084  1.2275 -1.5972
 8501SOL    HW237140   1.159   4.250   9.276  0.1600  0.3510 -1.4519
 8502SOL     OW37141   2.677   3.238  12.978  0.5278  0.1947  0.4047
 8502SOL    HW137142   2.712   3.313  12.929 -0.3677  1.1075  1.1398
 8502SOL    HW237143   2.588   3.262  13.004  0.4960 -1.8829  2.1833
 8503SOL     OW37144   4.642   2.513   7.918  0.1608  0.1036  0.0403
 8503SOL    HW137145   4.638   2.582   7.851 -4.8631  1.1534  1.3637
 8503SOL    HW237146   4.637   2.440   7.856 -0.3554  1.6530 -1.7522
 8504SOL     OW37147   1.141   3.126   3.607 -0.6868 -0.2449 -0.5995
 8504SOL    HW137148   1.168   3.127   3.515 -0.6616  3.0971 -0.5717
 8504SOL    HW237149   1.068   3.187   3.604 -0.9627 -0.6520 -2.3791
 8505SOL     OW37150   4.120   2.215   4.398  0.4165  0.6593 -0.7533
 8505SOL    HW137151   4.083   2.263   4.472  0.1280  0.8152 -0.9962
 8505SOL    HW237152   4.041   2.169   4.368  0.6258 -0.1605 -0.0436
 8506SOL     OW37153   2.108   4.271   3.301  0.2923  0.0491  0.2473
 8506SOL    HW137154   2.089   4.332   3.373 -0.5955  0.7087 -0.5493
 8506SOL    HW237155   2.181   4.310   3.253 -0.9091  0.9254 -0.8631
 8507SOL     OW37156   2.227   3.424  16.421 -0.2685 -0.0543 -0.2719
 8507SOL    HW137157   2.270   3.376  16.493 -1.0381  1.8440  1.4652
 8507SOL    HW237158   2.211   3.355  16.357 -0.2073  2.1962 -2.6977
 8508SOL     OW37159   3.406   1.651   9.707 -0.3483  0.5555  0.9591
 8508SOL    HW137160   3.312   1.644   9.690 -0.6537  1.5247  2.1966
 8508SOL    HW237161   3.417   1.728   9.763 -0.0145 -0.1972  1.9316
 8509SOL     OW37162   1.104   4.226   5.147 -0.5195  0.6941 -0.6405
 8509SOL    HW137163   1.121   4.201   5.238  0.2993  0.7236 -0.7855
 8509SOL    HW237164   1.164   4.162   5.109 -1.3268 -2.3655  3.2996
 8510SOL     OW37165   0.017   3.049  14.508  0.3607  0.4724 -0.2653
 8510SOL    HW137166   0.004   2.968  14.557  1.0412 -0.3848 -1.5048
 8510SOL    HW237167   0.037   3.021  14.419 -0.6461  0.3663 -0.4623
 8511SOL     OW37168   2.529   1.555   8.220 -0.4909 -0.0602 -0.5379
 8511SOL    HW137169   2.571   1.585   8.140 -4.8177  4.5458 -1.1041
 8511SOL    HW237170   2.530   1.631   8.279 -0.5443  0.2608 -0.9539
 8512SOL     OW37171   2.592   0.370  11.487 -0.0212  0.5084  0.4209
 8512SOL    HW137172   2.648   0.438  11.448 -1.5401  1.7924  0.4966
 8512SOL    HW237173   2.657   0.304  11.512  0.2018 -0.3797 -2.5169
 8513SOL     OW37174   3.362   0.642   5.379 -0.2101  0.2373  0.8123
 8513SOL    HW137175   3.383   0.550   5.392 -0.0551  0.3523  1.3871
 8513SOL    HW237176   3.438   0.679   5.425 -0.6382 -0.2697  1.9165
 8514SOL     OW37177   1.660   3.908   5.418 -0.4459  0.1156  0.2830
 8514SOL    HW137178   1.565   3.898   5.413 -0.0603 -3.9751  0.9115
 8514SOL    HW237179   1.686   3.859   5.340 -0.8491  2.1414 -1.1102
 8515SOL     OW37180   3.177   4.436   1.228 -0.5906  0.5237  0.1831
 8515SOL    HW137181   3.130   4.511   1.264 -0.9473  0.0399  0.7180
 8515SOL    HW237182   3.101   4.392   1.189 -0.4577  2.4849 -2.2718
 8516SOL     OW37183   4.690   2.793  13.728 -0.4816  0.1352  0.2494
 8516SOL    HW137184   4.603   2.775  13.763 -0.2375 -1.7323 -0.0844
 8516SOL    HW237185   4.667   2.826  13.641 -1.1591  1.5776  0.9810
 8517SOL     OW37186   2.065   3.189   8.157  0.2993 -0.1077 -0.2025
 8517SOL    HW137187   2.148   3.220   8.194  0.0944  0.5657 -0.3036
 8517SOL    HW237188   2.078   3.097   8.180  0.8341  0.1463  0.5327
 8518SOL     OW37189   0.729   2.402   5.617 -0.1493  0.3546 -0.4029
 8518SOL    HW137190   0.660   2.335   5.618  0.4562 -0.3243 -3.4836
 8518SOL    HW237191   0.768   2.386   5.531  0.1577 -0.4436 -0.1189
 8519SOL     OW37192   1.164   1.491   6.466  0.2722 -0.3061  0.4646
 8519SOL    HW137193   1.176   1.583   6.490  2.2118 -0.5730  0.5508
 8519SOL    HW237194   1.230   1.470   6.399 -0.6962  0.9907 -0.8994
 8520SOL     OW37195   4.159   1.253  13.843 -0.1274  0.0973 -0.3335
 8520SOL    HW137196   4.233   1.249  13.903 -0.9038  0.8430  0.6729
 8520SOL    HW237197   4.164   1.171  13.794 -0.0979  0.2526 -0.5896
 8521SOL     OW37198   1.266   3.886   2.036  0.5041  0.1240  0.6639
 8521SOL    HW137199   1.329   3.955   2.054  2.1462 -0.7786 -1.6538
 8521SOL    HW237200   1.309   3.802   2.051  1.6396  0.4893 -0.5788
 8522SOL     OW37201   1.860   0.483   8.104 -0.0416  0.1705  0.5347
 8522SOL    HW137202   1.784   0.428   8.118 -0.9708  1.4724  0.6329
 8522SOL    HW237203   1.847   0.544   8.031  1.4072  1.0884  1.0195
 8523SOL     OW37204   3.747   4.581  11.242  0.1053  0.2014 -0.4573
 8523SOL    HW137205   3.783   4.633  11.315  0.0391 -0.9120  0.3654
 8523SOL    HW237206   3.797   4.502  11.260 -0.5172 -0.2032 -0.5207
 8524SOL     OW37207   0.200   4.639   3.673 -0.3285  0.6407 -0.0786
 8524SOL    HW137208   0.219   4.722   3.629  0.1875  0.4193 -0.2698
 8524SOL    HW237209   0.232   4.564   3.622 -2.2400  0.0051 -0.3699
 8525SOL     OW37210   4.466   0.740  11.499  0.5299  0.1481 -0.4435
 8525SOL    HW137211   4.504   0.780  11.577  0.6625 -0.2036 -0.3295
 8525SOL    HW237212   4.542   0.737  11.441 -0.6845 -1.3534 -1.9601
 8526SOL     OW37213   4.402   2.005   8.640 -0.8723  0.1366 -0.5478
 8526SOL    HW137214   4.313   1.992   8.671 -0.7287  0.1083 -0.1461
 8526SOL    HW237215   4.450   1.985   8.720  1.3836 -0.6915 -2.0958
 8527SOL     OW37216   0.463   2.051   7.720  0.3159 -0.0854  0.3344
 8527SOL    HW137217   0.439   2.141   7.699 -0.8252 -0.1174  1.4748
 8527SOL    HW237218   0.556   2.063   7.737  0.7486 -0.4758 -1.7302
 8528SOL     OW37219   3.762   1.722   5.351  0.1750  0.2292  0.5521
 8528SOL    HW137220   3.736   1.814   5.355 -1.2511 -0.1151 -1.0765
 8528SOL    HW237221   3.857   1.722   5.365 -0.2747  0.1546  3.5898
 8529SOL     OW37222   1.293   4.065   6.038  0.0874  0.3405  0.1632
 8529SOL    HW137223   1.272   4.122   6.112 -2.9083 -0.2615 -0.2148
 8529SOL    HW237224   1.277   4.126   5.966  1.7093  0.4804 -0.0699
 8530SOL     OW37225   3.924   1.116  12.400  0.2852 -0.3326 -0.0434
 8530SOL    HW137226   4.017   1.120  12.424  0.7195  0.7856 -1.8923
 8530SOL    HW237227   3.917   1.068  12.317  1.6994 -0.4033 -0.1232
 8531SOL     OW37228   4.224   3.115   2.196 -0.2345 -0.3973  0.5242
 8531SOL    HW137229   4.184   3.181   2.139  2.3415  1.0432  0.3822
 8531SOL    HW237230   4.307   3.156   2.221 -0.2897  0.2968 -0.4180
 8532SOL     OW37231   0.274   0.633   1.310 -0.5013  0.3730 -0.1543
 8532SOL    HW137232   0.208   0.626   1.241 -0.0114  0.8509 -0.6686
 8532SOL    HW237233   0.306   0.542   1.313  1.5337  1.0866 -0.2608
 8533SOL     OW37234   4.631   2.235   4.908 -0.0513 -0.0565  0.3990
 8533SOL    HW137235   4.586   2.295   4.968 -2.0196 -0.3901 -0.7409
 8533SOL    HW237236   4.559   2.181   4.875 -2.1505  2.0327  1.5064
 8534SOL     OW37237   1.240   2.006   3.463  0.4050  0.0830 -0.4220
 8534SOL    HW137238   1.200   1.923   3.436  0.4540  0.1569 -0.7203
 8534SOL    HW237239   1.212   2.073   3.400  2.0667 -0.5026 -1.8046
 8535SOL     OW37240   0.281   2.781  17.342 -0.8115  0.5183 -0.7501
 8535SOL    HW137241   0.314   2.691  17.341 -1.2356  0.3635 -0.4164
 8535SOL    HW237242   0.303   2.798  17.434 -1.0335  0.0527 -0.6138
 8536SOL     OW37243   0.537   1.019   5.043 -0.1192  0.9188 -0.4708
 8536SOL    HW137244   0.506   0.958   4.976  0.9269 -0.8687  0.6729
 8536SOL    HW237245   0.521   0.966   5.120 -1.6894  1.9141 -0.1215
 8537SOL     OW37246   2.587   0.386   7.813  0.4507 -0.2183  0.6707
 8537SOL    HW137247   2.533   0.402   7.890 -2.9677  1.7472 -2.0870
 8537SOL    HW237248   2.660   0.343   7.857  1.9805  0.5709 -1.0741
 8538SOL     OW37249   4.466   1.705   2.527 -0.1459 -0.6844 -0.1269
 8538SOL    HW137250   4.439   1.738   2.613 -0.5174 -2.5654  0.4639
 8538SOL    HW237251   4.536   1.641   2.538  1.1480  0.9999  1.5488
 8539SOL     OW37252   3.819   1.073  13.395  0.0293 -0.1845  0.0801
 8539SOL    HW137253   3.848   1.147  13.342  0.4314 -1.8549 -2.0229
 8539SOL    HW237254   3.728   1.065  13.367  0.4866 -1.5562 -0.9748
 8540SOL     OW37255   2.729   2.403   9.837  0.1253 -0.3659 -0.3503
 8540SOL    HW137256   2.678   2.484   9.837  0.6449 -0.0285  0.7378
 8540SOL    HW237257   2.786   2.414   9.761 -0.2101  0.9998 -0.4199
 8541SOL     OW37258   4.611   4.572   8.790  0.8081 -0.0164  0.4667
 8541SOL    HW137259   4.676   4.571   8.720 -1.6791 -0.2555 -1.8457
 8541SOL    HW237260   4.556   4.642   8.755  0.8673 -0.0570  0.2942
 8542SOL     OW37261   2.581   0.285   1.455  0.3628 -0.7097  0.4712
 8542SOL    HW137262   2.648   0.280   1.387 -0.4705  0.9025 -0.4531
 8542SOL    HW237263   2.514   0.349   1.431 -0.4507 -1.9056 -0.4479
 8543SOL     OW37264   1.232   1.855  12.483  0.3599  0.3016  0.0074
 8543SOL    HW137265   1.312   1.880  12.529 -0.2499  2.1963  0.0323
 8543SOL    HW237266   1.164   1.890  12.540  0.8466 -1.2118  1.5019
 8544SOL     OW37267   1.452   0.657   6.340  0.0303 -0.1141 -0.0222
 8544SOL    HW137268   1.418   0.615   6.419 -0.1453  0.0624 -0.0023
 8544SOL    HW237269   1.400   0.624   6.266  0.6859  2.0703 -1.4459
 8545SOL     OW37270   1.636   1.919   5.601  0.0098  0.3501 -0.4635
 8545SOL    HW137271   1.629   1.928   5.697  1.3062 -0.9791 -0.2550
 8545SOL    HW237272   1.685   1.997   5.576  0.9273  0.0951  0.5104
 8546SOL     OW37273   1.609   3.662   9.821  0.3307  0.0632  0.3915
 8546SOL    HW137274   1.644   3.749   9.841 -0.7607  0.4531  0.6315
 8546SOL    HW237275   1.585   3.637   9.910  0.7896  0.8806  0.7458
 8547SOL     OW37276   0.543   0.541  14.422 -0.2882 -0.3096  0.3083
 8547SOL    HW137277   0.552   0.481  14.496 -0.8119 -0.3436  0.3413
 8547SOL    HW237278   0.581   0.618  14.466  1.2480 -0.6384 -0.4319
 8548SOL     OW37279   1.111   1.891   7.768  0.2597 -0.6572  0.4432
 8548SOL    HW137280   1.053   1.914   7.696  1.8036  1.1653 -0.2384
 8548SOL    HW237281   1.174   1.827   7.735  0.0850 -1.0881  0.9480
 8549SOL     OW37282   0.515   1.784   5.937  0.6401 -0.3483  0.3274
 8549SOL    HW137283   0.469   1.798   5.855  1.4109 -0.2381 -0.0797
 8549SOL    HW237284   0.474   1.853   5.989 -0.7026 -0.6452 -0.3415
 8550SOL     OW37285   0.500   2.693   9.062  0.2171 -0.1420  0.2160
 8550SOL    HW137286   0.542   2.665   8.980 -0.9492 -0.8101 -0.1538
 8550SOL    HW237287   0.474   2.783   9.046 -0.3563 -0.6192 -1.5326
 8551SOL     OW37288   2.331   0.325   8.374 -0.4665 -0.0779 -0.6080
 8551SOL    HW137289   2.258   0.377   8.340 -1.3996  0.0634  1.5945
 8551SOL    HW237290   2.363   0.383   8.444  0.7408 -1.2723 -0.1648
 8552SOL     OW37291   0.976   1.010   8.720  0.8353  0.4090  0.1399
 8552SOL    HW137292   0.980   0.914   8.715 -1.9066  0.2979 -0.3168
 8552SOL    HW237293   0.925   1.025   8.800  0.6023 -0.0746  0.0846
 8553SOL     OW37294   2.604   0.892   0.975  0.1874  0.5905  0.6340
 8553SOL    HW137295   2.658   0.906   0.897 -0.2141 -0.4410  0.1710
 8553SOL    HW237296   2.652   0.831   1.030  2.9936  1.1360 -1.1928
 8554SOL     OW37297   1.685   0.987   0.255 -0.9686  0.3058  0.2808
 8554SOL    HW137298   1.731   1.048   0.313 -1.8159  2.1516 -0.9873
 8554SOL    HW237299   1.763   0.939   0.229 -1.2694  0.0332 -0.1242
 8555SOL     OW37300   2.878   2.751   9.271  0.5505  0.8026 -0.2436
 8555SOL    HW137301   2.952   2.810   9.275  2.5316 -1.9404  4.1339
 8555SOL    HW237302   2.806   2.805   9.305 -1.3918 -0.1291 -2.8718
 8556SOL     OW37303   3.840   3.033   5.811  0.1124 -0.0757 -0.1870
 8556SOL    HW137304   3.787   2.981   5.752 -0.8294  0.4906  0.1595
 8556SOL    HW237305   3.921   3.026   5.759  0.2919  0.3288  0.0307
 8557SOL     OW37306   0.003   4.018  11.557  0.1545  0.1733 -0.6799
 8557SOL    HW137307   0.056   4.024  11.478  1.2751 -1.8435 -0.0857
 8557SOL    HW237308   4.663   3.965  11.533 -0.9907  1.4635  0.0867
 8558SOL     OW37309   4.182   4.220  11.836  0.7555  1.1486 -0.2179
 8558SOL    HW137310   4.219   4.298  11.877  1.0389  0.5067  0.7515
 8558SOL    HW237311   4.202   4.229  11.743 -1.1248  2.7908 -0.4721
 8559SOL     OW37312   2.999   3.325   4.944  0.1029  0.1248 -0.0825
 8559SOL    HW137313   2.926   3.336   5.005 -0.7311 -1.5153 -0.7859
 8559SOL    HW237314   2.985   3.247   4.890  3.1735 -0.2111 -0.4031
 8560SOL     OW37315   4.653   0.754   4.805 -0.2610 -0.4127 -0.1364
 8560SOL    HW137316   4.599   0.679   4.779  1.3450 -1.3900 -0.6913
 8560SOL    HW237317   4.630   0.765   4.897  0.9509 -3.1695  0.4962
 8561SOL     OW37318   0.625   1.867   6.353  0.1762  0.6366 -0.3126
 8561SOL    HW137319   0.710   1.865   6.397  0.2837  1.5268 -0.4680
 8561SOL    HW237320   0.634   1.934   6.285 -2.7193  0.5881 -0.7180
 8562SOL     OW37321   3.985   0.661   5.197  0.0927  0.5244 -0.1374
 8562SOL    HW137322   3.994   0.665   5.292 -0.4657  0.3190 -0.0719
 8562SOL    HW237323   3.898   0.700   5.182 -0.0517  1.2537  2.6793
 8563SOL     OW37324   2.098   1.725   7.130 -0.5916 -0.2074  0.6036
 8563SOL    HW137325   2.006   1.730   7.107 -0.0752  1.3630 -1.1164
 8563SOL    HW237326   2.106   1.630   7.124 -1.1927 -0.2144 -0.1087
 8564SOL     OW37327   2.734   2.569   4.052 -0.2354 -0.3797  0.9276
 8564SOL    HW137328   2.665   2.633   4.033 -0.5093 -1.0717 -0.3887
 8564SOL    HW237329   2.816   2.613   4.034 -1.2518  0.6835 -1.0631
 8565SOL     OW37330   1.465   3.418   3.176  0.1828  0.0805  0.1159
 8565SOL    HW137331   1.514   3.364   3.115  1.9251  0.7671  0.8866
 8565SOL    HW237332   1.489   3.501   3.135 -0.3965  0.8850  1.3683
 8566SOL     OW37333   2.608   2.822   1.809  0.0751  0.1843  0.1852
 8566SOL    HW137334   2.685   2.870   1.836  0.1762  0.2605 -0.2294
 8566SOL    HW237335   2.613   2.748   1.870  0.1232  2.0789  2.4476
 8567SOL     OW37336   3.725   0.227   6.279 -0.0029  0.1146 -0.2893
 8567SOL    HW137337   3.715   0.321   6.267  2.4640  0.3216 -0.7285
 8567SOL    HW237338   3.640   0.201   6.314  0.3187  0.1597  0.5380
 8568SOL     OW37339   1.100   4.141   5.418  0.0811  0.0028 -0.3319
 8568SOL    HW137340   1.035   4.072   5.429  1.1191 -0.7356  1.3329
 8568SOL    HW237341   1.058   4.199   5.482 -0.4857  0.0205 -0.7200
 8569SOL     OW37342   0.061   0.171  17.589  0.4013  0.1688 -0.6849
 8569SOL    HW137343   4.704   0.156  17.610  0.9520 -0.3287  1.2726
 8569SOL    HW237344   0.072   0.194  17.496 -0.6084  0.6102 -0.7042
 8570SOL     OW37345   3.809   2.592   8.625  0.2351 -0.8582  0.6100
 8570SOL    HW137346   3.759   2.515   8.596 -2.0961  0.5602  0.9135
 8570SOL    HW237347   3.781   2.654   8.558  2.7761 -0.1495  0.1897
 8571SOL     OW37348   0.437   2.459   4.774 -0.7874  0.4447 -0.2000
 8571SOL    HW137349   0.526   2.456   4.810 -0.7857 -0.3457 -0.2639
 8571SOL    HW237350   0.411   2.367   4.768 -1.4817  0.4733  2.5836
 8572SOL     OW37351   4.624   2.384   3.302 -0.5542 -0.4703 -0.3099
 8572SOL    HW137352   4.576   2.406   3.222 -1.2475 -2.1891 -0.3552
 8572SOL    HW237353   4.706   2.362   3.258 -0.7896 -0.2289 -0.8697
 8573SOL     OW37354   0.596   1.353  12.764 -0.3011  0.0229 -0.2292
 8573SOL    HW137355   0.544   1.404  12.702  2.1741  0.9751 -1.4956
 8573SOL    HW237356   0.643   1.290  12.710  0.4928 -0.6432  1.2229
 8574SOL     OW37357   2.732   3.914   7.041 -0.0848  0.0728 -0.1489
 8574SOL    HW137358   2.818   3.928   7.081 -0.1151 -0.7795  0.2177
 8574SOL    HW237359   2.751   3.843   6.979 -0.5072  0.6231 -0.9001
 8575SOL     OW37360   3.717   1.878   4.907 -0.5794 -0.0712 -0.3066
 8575SOL    HW137361   3.641   1.892   4.851 -1.9151 -0.2031  1.4780
 8575SOL    HW237362   3.681   1.814   4.968  0.6297  1.3031  1.8536
 8576SOL     OW37363   4.618   1.086   6.320  0.5114 -0.2210  0.1014
 8576SOL    HW137364   4.673   1.007   6.321 -0.5971 -0.9936  0.3919
 8576SOL    HW237365   4.577   1.084   6.406  0.7587 -1.5462  0.1910
 8577SOL     OW37366   4.648   1.385   6.108 -0.2502 -0.1314  0.1530
 8577SOL    HW137367   4.674   1.433   6.186 -1.7285 -0.7005  1.0099
 8577SOL    HW237368   4.731   1.367   6.064  0.9786  0.4043  2.2756
 8578SOL     OW37369   1.179   3.158  16.655 -0.0560 -0.1869 -0.2656
 8578SOL    HW137370   1.237   3.115  16.592 -0.7948 -1.0009 -0.3981
 8578SOL    HW237371   1.118   3.088  16.680 -0.6921 -0.2970 -2.0893
 8579SOL     OW37372   2.914   4.162   8.105  0.2679 -0.6066 -0.4678
 8579SOL    HW137373   2.834   4.129   8.146  0.3285  0.4432  0.4891
 8579SOL    HW237374   2.896   4.254   8.120  0.9959 -0.7253  1.1394
 8580SOL     OW37375   1.119   0.236   9.610  0.1682 -0.2341  0.0944
 8580SOL    HW137376   1.058   0.238   9.683  0.2946  0.6050  0.1676
 8580SOL    HW237377   1.055   0.227   9.538  1.7462 -2.0220 -1.0893
 8581SOL     OW37378   3.572   4.725   1.059  0.6182 -0.6983  0.2271
 8581SOL    HW137379   3.558   4.659   1.127  0.2209  0.3160  1.1127
 8581SOL    HW237380   3.622   0.059   1.102 -1.1053  0.0633  0.9714
 8582SOL     OW37381   3.330   0.531   6.733 -0.3987 -0.3270  0.3827
 8582SOL    HW137382   3.259   0.530   6.668  0.1993  1.0443 -0.2908
 8582SOL    HW237383   3.372   0.451   6.701 -1.0328 -0.7690  0.6515
 8583SOL     OW37384   1.198   3.203   4.981 -0.0450 -0.0476 -0.3240
 8583SOL    HW137385   1.212   3.212   4.887  2.0452  1.3533  0.0942
 8583SOL    HW237386   1.166   3.293   4.988 -1.7282 -0.6376 -0.5009
 8584SOL     OW37387   3.037   0.556   4.479  0.0318 -0.1607  0.1236
 8584SOL    HW137388   3.099   0.484   4.475 -0.7312 -0.7669 -1.0163
 8584SOL    HW237389   2.951   0.514   4.481 -0.5816  1.0758  0.0201
 8585SOL     OW37390   2.697   2.688   8.738 -0.1503  0.5550  0.2758
 8585SOL    HW137391   2.693   2.690   8.834 -1.7021 -1.5229  0.2717
 8585SOL    HW237392   2.683   2.595   8.718 -0.7773  1.0078 -1.3145
 8586SOL     OW37393   3.030   1.426  13.488  0.7116  0.1320  0.3039
 8586SOL    HW137394   2.997   1.487  13.554 -0.0347 -0.0609  0.1061
 8586SOL    HW237395   3.083   1.365  13.540  0.5797  1.4760  1.9942
 8587SOL     OW37396   1.978   1.884   6.699 -0.3665  0.2647 -0.0843
 8587SOL    HW137397   2.000   1.932   6.779  0.1223 -0.4216  0.1967
 8587SOL    HW237398   1.986   1.953   6.633 -1.8426 -0.0171 -0.5573
 8588SOL     OW37399   3.059   2.048   3.617 -0.1152 -0.2564 -0.0932
 8588SOL    HW137400   2.971   2.033   3.583  0.4315 -2.5982 -0.4854
 8588SOL    HW237401   3.034   2.020   3.705 -1.4748  0.5590 -0.2215
 8589SOL     OW37402   1.907   0.246   9.097  0.1299 -0.1269  0.3882
 8589SOL    HW137403   1.934   0.337   9.111  0.8021 -0.0847 -1.2521
 8589SOL    HW237404   1.976   0.196   9.141 -0.2747  0.3791  1.6174
 8590SOL     OW37405   2.812   3.172   5.224  0.1326  0.3501  0.4650
 8590SOL    HW137406   2.781   3.148   5.136 -2.2841 -0.1837  1.4591
 8590SOL    HW237407   2.873   3.099   5.213  0.7309  0.9330 -0.0638
 8591SOL     OW37408   3.135   1.490   4.524  0.1236  0.5669 -0.2811
 8591SOL    HW137409   3.072   1.545   4.478 -3.1241 -3.7472 -1.0144
 8591SOL    HW237410   3.203   1.557   4.527  2.2055 -1.5370 -0.1615
 8592SOL     OW37411   3.681   4.110   3.343 -0.2131  0.5657  0.1152
 8592SOL    HW137412   3.621   4.131   3.271  2.2362  2.0333 -1.5173
 8592SOL    HW237413   3.621   4.089   3.414 -0.9361 -1.0060 -0.9779
 8593SOL     OW37414   2.518   4.041   8.060  0.1861 -0.1463 -0.6688
 8593SOL    HW137415   2.479   4.122   8.029  2.0821 -0.8242 -4.7758
 8593SOL    HW237416   2.502   4.043   8.155 -1.5135  0.6519 -0.9664
 8594SOL     OW37417   4.230   4.508   8.377  0.5129 -0.0386  0.5086
 8594SOL    HW137418   4.138   4.524   8.356  0.0829 -1.4541  1.3395
 8594SOL    HW237419   4.273   4.487   8.294 -0.8770  1.0536 -0.4877
 8595SOL     OW37420   1.359   0.394   4.253 -0.1158 -0.5277  0.0328
 8595SOL    HW137421   1.346   0.300   4.265 -0.7591 -0.2717  1.3136
 8595SOL    HW237422   1.322   0.403   4.165  0.5087 -0.1128 -0.1828
 8596SOL     OW37423   2.052   2.709   9.117 -0.0640 -0.8121 -0.8813
 8596SOL    HW137424   2.103   2.756   9.183  0.2369  0.9908 -2.4170
 8596SOL    HW237425   2.121   2.681   9.057 -0.7559 -1.4839 -1.3753
 8597SOL     OW37426   2.905   3.886  11.777  0.0687 -0.5788  0.9472
 8597SOL    HW137427   2.978   3.863  11.834  1.9523 -0.6914 -1.4987
 8597SOL    HW237428   2.877   3.973  11.803  0.3174 -0.4563  0.8101
 8598SOL     OW37429   2.768   1.999   4.193 -0.0100 -0.4260 -0.1752
 8598SOL    HW137430   2.698   1.957   4.243 -0.7054  1.8309  0.7122
 8598SOL    HW237431   2.759   2.086   4.232 -0.8307 -0.1627 -0.9662
 8599SOL     OW37432   3.306   2.151  12.888 -0.0577  0.3792 -0.0168
 8599SOL    HW137433   3.218   2.137  12.925  0.2153 -0.8544  0.1570
 8599SOL    HW237434   3.342   2.065  12.908  0.6635  0.8025  0.5203
 8600SOL     OW37435   3.601   4.631   8.776  0.0120 -0.3964 -0.0655
 8600SOL    HW137436   3.541   4.706   8.785  0.2617 -0.6654  3.7939
 8600SOL    HW237437   3.674   4.657   8.832 -0.5577 -0.8331  0.8920
 8601SOL     OW37438   1.192   3.863  16.620  0.4246 -0.2705  0.5567
 8601SOL    HW137439   1.175   3.793  16.557 -1.3678  0.8982 -0.2406
 8601SOL    HW237440   1.172   3.814  16.700 -4.1504 -2.2559 -1.7946
 8602SOL     OW37441   0.436   3.997  16.783  0.0457  0.2682  0.4602
 8602SOL    HW137442   0.377   3.939  16.734  0.6707  1.5741 -1.8305
 8602SOL    HW237443   0.391   4.019  16.865  0.3457  1.0147  0.4165
 8603SOL     OW37444   3.554   2.037   0.382  0.3604  0.0689 -0.3935
 8603SOL    HW137445   3.474   2.072   0.422 -0.4104 -2.4269  0.2555
 8603SOL    HW237446   3.519   1.985   0.309 -0.9977  0.1426  0.1987
 8604SOL     OW37447   3.359   3.718   5.866  0.1193  0.8252  0.5381
 8604SOL    HW137448   3.314   3.727   5.950 -3.1242  1.2539 -1.2496
 8604SOL    HW237449   3.356   3.623   5.859  2.2081  0.8259 -0.4225
 8605SOL     OW37450   0.861   4.360   2.273  0.3508  0.3306 -0.2242
 8605SOL    HW137451   0.874   4.299   2.346  4.1741  1.6815  0.2085
 8605SOL    HW237452   0.841   4.298   2.203 -1.7495  1.5250 -0.6975
 8606SOL     OW37453   2.698   2.136   0.530 -0.2676 -0.4199 -0.5944
 8606SOL    HW137454   2.703   2.060   0.587  2.5528 -0.3096 -0.7050
 8606SOL    HW237455   2.635   2.190   0.576 -1.4839 -2.6629  0.3984
 8607SOL     OW37456   4.176   0.056  12.491 -0.1325 -0.5597  0.1720
 8607SOL    HW137457   4.114   4.719  12.505 -0.9182 -0.3499 -2.3269
 8607SOL    HW237458   4.200   0.044  12.399 -0.6472  2.2973 -0.3141
 8608SOL     OW37459   0.229   2.864   8.705  0.6129 -0.3362  0.3184
 8608SOL    HW137460   0.236   2.794   8.640  0.3215  1.3335 -1.5457
 8608SOL    HW237461   0.321   2.893   8.702 -0.2531  2.3990 -0.3994
 8609SOL     OW37462   3.157   1.137   8.663 -0.4117 -0.3859  0.5993
 8609SOL    HW137463   3.197   1.153   8.749  0.9438 -0.1659 -0.0714
 8609SOL    HW237464   3.066   1.116   8.682 -0.2776 -3.4556 -2.1177
 8610SOL     OW37465   1.227   0.755   4.241 -0.1696  0.4276  0.3513
 8610SOL    HW137466   1.266   0.674   4.209 -0.1400  1.7039 -2.8360
 8610SOL    HW237467   1.216   0.731   4.333 -0.1873  1.1067  0.5320
 8611SOL     OW37468   1.420   1.221   8.469 -0.1835 -0.0338 -0.0986
 8611SOL    HW137469   1.422   1.249   8.378  1.8604  0.0534 -0.0293
 8611SOL    HW237470   1.513   1.216   8.491 -0.1776 -1.0710 -0.3419
 8612SOL     OW37471   1.631   3.547   7.465 -0.5475  0.5668  0.0785
 8612SOL    HW137472   1.675   3.581   7.543  0.1735  1.9246 -0.9392
 8612SOL    HW237473   1.612   3.460   7.501  2.5588 -0.4441 -0.7128
 8613SOL     OW37474   0.580   0.781   7.834 -0.4185  0.1270 -0.1335
 8613SOL    HW137475   0.632   0.859   7.813  2.7092 -1.9078  0.0745
 8613SOL    HW237476   0.508   0.784   7.771 -1.8594  0.6269  1.5485
 8614SOL     OW37477   2.151   0.725  10.028  0.0700  0.5133  0.0694
 8614SOL    HW137478   2.201   0.712  10.109 -1.5821  3.3468  1.5533
 8614SOL    HW237479   2.067   0.758  10.059  0.0892 -0.2940  1.0121
 8615SOL     OW37480   3.572   0.430   7.431 -0.6976  0.2054  0.1617
 8615SOL    HW137481   3.562   0.362   7.364 -0.6096  0.8005 -0.4645
 8615SOL    HW237482   3.650   0.477   7.402 -0.4639 -0.5648 -0.4716
 8616SOL     OW37483   3.418   4.442   4.905 -0.3396 -0.1798  0.2154
 8616SOL    HW137484   3.340   4.412   4.952 -0.3689  1.6083  1.3015
 8616SOL    HW237485   3.444   4.359   4.864 -2.0107 -2.3787  3.5958
 8617SOL     OW37486   3.582   2.796   7.263  0.2534  0.3081 -0.4110
 8617SOL    HW137487   3.586   2.730   7.194  0.1886  1.0977 -1.1757
 8617SOL    HW237488   3.515   2.848   7.218  1.3051  1.0252 -1.1492
 8618SOL     OW37489   1.921   3.407   7.134 -0.1063 -0.2842 -0.0443
 8618SOL    HW137490   1.915   3.415   7.038 -1.4044 -0.0812  0.0621
 8618SOL    HW237491   1.857   3.470   7.166  1.9740  0.9606  1.6836
 8619SOL     OW37492   4.171   1.674   3.322  0.6853  0.0776 -0.7345
 8619SOL    HW137493   4.223   1.754   3.316  1.0163  0.1505  3.0676
 8619SOL    HW237494   4.232   1.606   3.291  1.4766  0.0887  0.7795
 8620SOL     OW37495   0.972   2.387   8.819 -0.2330  1.0026  1.0198
 8620SOL    HW137496   1.040   2.447   8.848  1.1915  0.1800 -0.5862
 8620SOL    HW237497   0.919   2.447   8.767 -2.3756  0.2675  2.3706
 8621SOL     OW37498   3.937   4.645   2.032  0.1574 -0.5493 -0.0975
 8621SOL    HW137499   3.919   4.554   2.055 -2.9294 -0.0056 -0.4186
 8621SOL    HW237500   3.856   4.692   2.051 -0.8914 -2.6622  0.6560
 8622SOL     OW37501   4.660   3.404   9.800 -0.2942  0.0658 -0.0135
 8622SOL    HW137502   4.691   3.490   9.828  0.2021 -0.1304  0.0439
 8622SOL    HW237503   4.733   3.358   9.760 -0.7548 -0.5159 -0.1802
 8623SOL     OW37504   3.366   0.978   7.734  0.0634  0.0973  0.1240
 8623SOL    HW137505   3.372   0.934   7.819  0.7915  1.3119  0.6875
 8623SOL    HW237506   3.273   0.984   7.709  0.6466 -2.2498 -2.5707
 8624SOL     OW37507   0.566   2.017   8.425  0.0915  0.2679  0.0328
 8624SOL    HW137508   0.477   1.982   8.424 -0.1291  0.8167  0.1612
 8624SOL    HW237509   0.572   2.035   8.519 -1.4323  0.8192  0.0202
 8625SOL     OW37510   3.295   3.511  14.900  0.5120 -0.0259 -0.1489
 8625SOL    HW137511   3.293   3.422  14.935  2.7016 -0.6074 -1.5395
 8625SOL    HW237512   3.262   3.497  14.811  0.3465  0.4774 -0.1684
 8626SOL     OW37513   3.795   1.528   1.506 -0.2224  0.2714 -0.3557
 8626SOL    HW137514   3.735   1.461   1.540 -0.5773  1.1898  0.8069
 8626SOL    HW237515   3.812   1.588   1.578 -0.3614  0.4197 -0.4463
 8627SOL     OW37516   4.051   3.334   9.533  0.1414 -0.4216 -0.1616
 8627SOL    HW137517   4.021   3.273   9.601 -2.2068  1.7913  0.7498
 8627SOL    HW237518   4.120   3.279   9.495  1.0518  0.6347 -0.0219
 8628SOL     OW37519   0.877   1.546   6.474  0.3956  0.5137 -0.3271
 8628SOL    HW137520   0.840   1.541   6.385 -1.2049 -0.9559  0.4314
 8628SOL    HW237521   0.964   1.510   6.459  0.8018  2.3634 -2.5225
 8629SOL     OW37522   3.890   3.342   4.007  0.1657 -0.3885  0.4896
 8629SOL    HW137523   3.879   3.254   3.971 -0.7809  0.0098 -0.1934
 8629SOL    HW237524   3.934   3.394   3.940 -0.6567 -0.3404 -0.0074
 8630SOL     OW37525   2.640   2.232   4.280  0.2276  0.0042 -0.6923
 8630SOL    HW137526   2.644   2.328   4.279  3.2759 -0.1080  0.5749
 8630SOL    HW237527   2.574   2.212   4.346  1.2413 -0.4961  0.1716
 8631SOL     OW37528   2.926   1.160  13.669  0.5960 -0.2029 -0.2738
 8631SOL    HW137529   2.880   1.217  13.607 -0.4783  0.1564  0.8364
 8631SOL    HW237530   3.014   1.147  13.634  1.5550 -1.3912  2.5659
 8632SOL     OW37531   3.754   1.566   7.547 -0.1384  0.4672 -0.0765
 8632SOL    HW137532   3.696   1.554   7.472 -0.1788 -0.5570  0.1164
 8632SOL    HW237533   3.689   1.551   7.615  0.6831 -1.2755  0.3241
 8633SOL     OW37534   1.598   4.506   1.434 -0.1549 -0.0383 -0.0900
 8633SOL    HW137535   1.551   4.429   1.467 -0.9880  1.8290  3.1127
 8633SOL    HW237536   1.682   4.462   1.418  0.9423  3.0526 -2.8104
 8634SOL     OW37537   4.141   3.164   6.428 -0.1118 -0.0597  0.2705
 8634SOL    HW137538   4.225   3.188   6.387 -0.8230 -0.7634 -1.5708
 8634SOL    HW237539   4.124   3.256   6.449  2.2945  0.8259 -1.5246
 8635SOL     OW37540   3.997   3.338   8.655  0.2920  0.4962  0.3833
 8635SOL    HW137541   3.907   3.319   8.682  0.2118 -1.3524 -1.1490
 8635SOL    HW237542   4.038   3.371   8.735 -0.0825 -1.6610  1.4726
 8636SOL     OW37543   4.580   3.725   4.780 -0.2089  0.6041  0.1255
 8636SOL    HW137544   4.503   3.774   4.750  0.0336  1.0521  0.2198
 8636SOL    HW237545   4.616   3.793   4.838  2.3818 -0.5192 -0.1772
 8637SOL     OW37546   1.915   3.306   1.784  0.5620 -0.0399 -0.0801
 8637SOL    HW137547   1.968   3.310   1.704  1.0622  0.3277  0.2660
 8637SOL    HW237548   1.933   3.392   1.821  0.8505 -0.1078 -0.0602
 8638SOL     OW37549   2.409   2.215   4.417  0.0375 -0.2609 -0.1776
 8638SOL    HW137550   2.336   2.154   4.425 -1.3852  1.2373 -1.9680
 8638SOL    HW237551   2.383   2.288   4.472 -0.4440  0.7938 -1.8254
 8639SOL     OW37552   4.634   0.787  12.769  0.5479 -0.5609 -0.1561
 8639SOL    HW137553   4.633   0.720  12.837  0.3344 -0.3211  0.0750
 8639SOL    HW237554   4.726   0.814  12.778 -0.1476  0.5216  3.6148
 8640SOL     OW37555   1.763   3.517   2.660 -0.3434  0.2391  0.0548
 8640SOL    HW137556   1.689   3.515   2.600 -1.0921  0.1856  0.9729
 8640SOL    HW237557   1.770   3.611   2.673 -0.0239  0.1227  0.7138
 8641SOL     OW37558   1.948   1.070   9.782 -0.1251 -0.4823 -0.0221
 8641SOL    HW137559   2.027   1.092   9.832 -0.2489  0.7413 -0.3611
 8641SOL    HW237560   1.952   0.977   9.762 -1.6188 -0.6113  0.2507
 8642SOL     OW37561   1.510   3.386   3.612 -0.6608  0.3411  0.2517
 8642SOL    HW137562   1.495   3.299   3.650 -0.3751  0.9885  1.8285
 8642SOL    HW237563   1.455   3.445   3.663  2.0795  1.3541  2.0398
 8643SOL     OW37564   4.006   2.709  14.581 -0.1059  0.0765 -0.3382
 8643SOL    HW137565   4.011   2.678  14.490 -1.5404 -2.2276  0.3705
 8643SOL    HW237566   4.025   2.802  14.569 -1.0991  0.4780  1.1384
 8644SOL     OW37567   3.892   0.233  11.882  0.1858  0.1959  0.3770
 8644SOL    HW137568   3.853   0.318  11.864 -0.9039 -0.3968 -0.0625
 8644SOL    HW237569   3.917   0.243  11.974  0.4460 -1.6682  0.5213
 8645SOL     OW37570   2.172   2.679   1.552 -0.0280  0.1800  0.5241
 8645SOL    HW137571   2.183   2.618   1.480 -1.8155  1.1250 -0.5373
 8645SOL    HW237572   2.261   2.704   1.578 -0.6652  3.6076 -0.5146
 8646SOL     OW37573   3.254   2.236   6.948 -0.1307 -0.5419 -0.2167
 8646SOL    HW137574   3.195   2.189   6.889  0.3414 -0.2098 -0.9588
 8646SOL    HW237575   3.205   2.212   7.027  0.7592 -0.4776  0.3484
 8647SOL     OW37576   1.728   4.620   5.038 -0.1377 -0.0781  1.0465
 8647SOL    HW137577   1.660   4.558   5.010 -1.1342  2.4056 -2.0073
 8647SOL    HW237578   1.785   4.569   5.096  0.3097  0.3462  0.9800
 8648SOL     OW37579   2.800   1.758   6.676  0.0943 -0.2375  0.5249
 8648SOL    HW137580   2.803   1.674   6.722  2.2932 -0.0902  0.6562
 8648SOL    HW237581   2.847   1.726   6.598 -2.2209 -0.2573 -0.8499
 8649SOL     OW37582   2.611   3.041  17.326 -0.4852  0.6667  0.5480
 8649SOL    HW137583   2.540   3.105  17.330 -0.3272  0.8241  0.8245
 8649SOL    HW237584   2.633   3.049  17.233  0.5234 -0.5780  0.6854
 8650SOL     OW37585   0.405   0.648   2.924  0.0963  0.3785 -0.2562
 8650SOL    HW137586   0.421   0.554   2.928 -3.3788 -0.1700  0.7485
 8650SOL    HW237587   0.384   0.661   3.017  1.1504  0.5190 -0.0465
 8651SOL     OW37588   2.518   2.639  16.869  0.1127 -0.0945  0.1409
 8651SOL    HW137589   2.563   2.568  16.915  0.8430  1.3080  1.5874
 8651SOL    HW237590   2.536   2.616  16.778  1.8471  1.1081  0.1779
 8652SOL     OW37591   1.232   4.063   8.223 -0.4126 -0.3825  0.8548
 8652SOL    HW137592   1.320   4.097   8.209 -0.0135 -1.3470  0.9977
 8652SOL    HW237593   1.207   4.078   8.314 -1.5953  0.9930  0.2998
 8653SOL     OW37594   2.625   0.888   3.524 -0.2298  0.6598 -0.2949
 8653SOL    HW137595   2.567   0.940   3.468  0.4829  1.5064 -0.2372
 8653SOL    HW237596   2.688   0.954   3.554 -0.0067  0.5484 -0.5210
 8654SOL     OW37597   4.325   4.174   9.175  0.0389 -0.1319 -0.2315
 8654SOL    HW137598   4.262   4.161   9.245  0.8955  1.1003  0.7823
 8654SOL    HW237599   4.403   4.184   9.230  0.9251  2.6742 -2.0029
 8655SOL     OW37600   4.003   3.232   9.245 -0.3260  0.1756  0.5244
 8655SOL    HW137601   4.023   3.163   9.309  2.1314  0.3745 -0.0540
 8655SOL    HW237602   4.023   3.311   9.296  0.5023  0.0404  0.4102
 8656SOL     OW37603   1.496   1.070   7.670 -0.1277 -0.1818  0.0761
 8656SOL    HW137604   1.455   1.025   7.596 -2.3524 -0.5702  1.5599
 8656SOL    HW237605   1.558   1.005   7.701  0.6737  0.5406 -0.0255
 8657SOL     OW37606   4.397   0.875   5.310 -0.0305 -0.5170 -0.7671
 8657SOL    HW137607   4.416   0.968   5.317  1.0913 -0.6678 -1.7514
 8657SOL    HW237608   4.444   0.848   5.389  0.2460  0.2443 -0.6718
 8658SOL     OW37609   1.521   4.049  12.735 -0.1884  0.3332  0.0268
 8658SOL    HW137610   1.428   4.067  12.740 -0.0132  1.0703  0.6292
 8658SOL    HW237611   1.567   4.120  12.692 -1.0841  1.1358  0.4104
 8659SOL     OW37612   1.284   1.689  16.145  0.4646 -0.1538  0.5368
 8659SOL    HW137613   1.212   1.659  16.089  0.8788  0.3992 -0.2851
 8659SOL    HW237614   1.259   1.781  16.154 -0.6631 -0.5526  1.5656
 8660SOL     OW37615   1.679   4.427  10.319  0.6388 -0.4443 -0.0465
 8660SOL    HW137616   1.730   4.495  10.364 -1.1939  1.5863 -1.0255
 8660SOL    HW237617   1.602   4.478  10.294 -0.5779 -1.6012  1.3480
 8661SOL     OW37618   4.486   0.781   9.176 -0.2725  0.0663  0.0520
 8661SOL    HW137619   4.539   0.850   9.217 -0.8593  1.2551 -1.1677
 8661SOL    HW237620   4.556   0.724   9.146 -1.4097 -1.9225  1.2096
 8662SOL     OW37621   4.336   4.416   5.349 -0.4352  0.0730  0.3991
 8662SOL    HW137622   4.428   4.443   5.354 -1.2002  2.5044  1.3709
 8662SOL    HW237623   4.334   4.356   5.274 -1.7896  1.6984 -0.8826
 8663SOL     OW37624   2.722   3.408   8.676  0.1907 -0.1417  0.1113
 8663SOL    HW137625   2.738   3.423   8.583 -2.2783  0.5653 -0.1884
 8663SOL    HW237626   2.788   3.340   8.688 -1.2238 -1.8799 -2.1639
 8664SOL     OW37627   4.005   1.340   9.230 -0.6113 -0.6133 -0.1758
 8664SOL    HW137628   4.094   1.308   9.218 -1.1972 -1.5477 -2.0946
 8664SOL    HW237629   4.005   1.422   9.279 -0.4599 -0.1338 -0.9776
 8665SOL     OW37630   1.368   3.586  10.964  0.6554  0.2129 -0.2004
 8665SOL    HW137631   1.402   3.657  11.018  0.1487 -0.7432  1.3744
 8665SOL    HW237632   1.279   3.567  10.993  1.2486 -0.5820  1.0794
 8666SOL     OW37633   3.341   3.958  11.931 -0.3057 -0.6262 -0.5698
 8666SOL    HW137634   3.295   4.040  11.951 -1.9878 -2.0467  1.3231
 8666SOL    HW237635   3.408   3.955  11.999  2.5852 -1.5813 -3.4135
 8667SOL     OW37636   4.121   4.337   2.848 -0.7010 -0.2621 -0.4644
 8667SOL    HW137637   4.172   4.406   2.891 -1.0571  0.1769 -0.7390
 8667SOL    HW237638   4.034   4.378   2.849 -0.1201  1.0597 -2.8951
 8668SOL     OW37639   0.703   3.492   5.658  0.5598 -0.6050  0.1819
 8668SOL    HW137640   0.746   3.433   5.597  0.3462  1.0186 -1.5421
 8668SOL    HW237641   0.765   3.494   5.731  2.5777 -1.6451 -1.4977
 8669SOL     OW37642   2.457   1.561  10.610 -0.4097  0.1801  0.1171
 8669SOL    HW137643   2.431   1.482  10.658  0.2638  1.0904  1.9542
 8669SOL    HW237644   2.383   1.586  10.554  0.9482 -0.6868 -2.0627
 8670SOL     OW37645   3.317   3.926   9.055 -0.1971 -0.1290 -0.0880
 8670SOL    HW137646   3.222   3.927   9.042 -0.0651  2.0514 -0.9842
 8670SOL    HW237647   3.334   4.020   9.048  2.6102 -0.6887 -1.1017
 8671SOL     OW37648   2.026   2.794   6.038 -0.1194  0.3753 -0.6982
 8671SOL    HW137649   2.074   2.875   6.055  0.9276 -0.1938 -0.9508
 8671SOL    HW237650   2.092   2.751   5.983 -1.1549 -0.5808 -1.1986
 8672SOL     OW37651   1.008   2.178   4.838 -0.2105 -0.0107  0.0504
 8672SOL    HW137652   1.082   2.152   4.782 -1.4912  0.3613 -1.8265
 8672SOL    HW237653   1.049   2.186   4.924 -0.8062  0.8008  0.2540
 8673SOL     OW37654   0.389   1.848   2.800  0.5210  0.2208 -0.0320
 8673SOL    HW137655   0.298   1.874   2.789  0.2718  0.1830  2.1145
 8673SOL    HW237656   0.371   1.757   2.823  1.3056 -0.0586 -0.5232
 8674SOL     OW37657   0.122   2.666   8.004  0.0823 -0.1293 -0.4076
 8674SOL    HW137658   0.182   2.593   8.024 -0.9872 -0.8776  0.0870
 8674SOL    HW237659   0.057   2.617   7.955 -0.2202  1.2347 -1.3404
 8675SOL     OW37660   2.493   0.717   6.620  0.0975  0.8515  0.3904
 8675SOL    HW137661   2.438   0.699   6.696 -1.7088  0.6352 -0.9824
 8675SOL    HW237662   2.530   0.801   6.648 -0.8843  1.6654 -0.7672
 8676SOL     OW37663   3.854   2.617  15.913  0.1506 -0.2832  0.1857
 8676SOL    HW137664   3.921   2.559  15.878 -2.5797 -3.5635  0.4262
 8676SOL    HW237665   3.823   2.563  15.986 -1.8747 -0.8178 -1.0744
 8677SOL     OW37666   2.242   3.400  12.324 -0.3183  0.0945  0.5072
 8677SOL    HW137667   2.196   3.339  12.381 -2.0768  2.6262  1.8497
 8677SOL    HW237668   2.234   3.360  12.238  0.0373 -1.0518  1.0167
 8678SOL     OW37669   3.917   2.023  13.629  0.1553  0.4082  0.3530
 8678SOL    HW137670   3.839   1.986  13.588  1.5729 -0.9993 -1.0630
 8678SOL    HW237671   3.974   1.946  13.637  1.2199  0.9905 -1.6665
 8679SOL     OW37672   3.760   4.467   1.448 -0.4355  0.4992  0.7809
 8679SOL    HW137673   3.825   4.535   1.467 -1.7069  1.5613  1.3441
 8679SOL    HW237674   3.812   4.396   1.487  1.3262  1.4543  0.1610
 8680SOL     OW37675   3.129   3.708  15.196 -0.5286  0.3249 -0.3170
 8680SOL    HW137676   3.128   3.612  15.202  1.0557  0.1894 -1.8528
 8680SOL    HW237677   3.218   3.735  15.221 -0.8088  0.4533  0.5234
 8681SOL     OW37678   2.889   0.105   3.560  0.0164 -0.2661  0.2298
 8681SOL    HW137679   2.946   0.114   3.636  2.0515  2.3833 -1.6008
 8681SOL    HW237680   2.840   0.023   3.571  0.0642 -0.2483  0.5511
 8682SOL     OW37681   3.330   1.149   3.782  0.2661 -0.0435 -0.0496
 8682SOL    HW137682   3.321   1.055   3.795  2.4980 -0.2956 -0.2873
 8682SOL    HW237683   3.298   1.178   3.867  1.4007 -0.4646  0.5204
 8683SOL     OW37684   0.149   2.734   4.300  0.1228  0.2529 -0.4028
 8683SOL    HW137685   0.157   2.658   4.242 -0.1329 -1.8886  2.3816
 8683SOL    HW237686   0.236   2.731   4.342 -0.8700 -2.5402  1.4789
 8684SOL     OW37687   3.656   1.645   5.111  0.5486  0.2366 -0.1392
 8684SOL    HW137688   3.679   1.665   5.202 -2.2255 -1.6223  0.9457
 8684SOL    HW237689   3.561   1.639   5.120  0.4621 -1.3173 -2.2224
 8685SOL     OW37690   3.106   0.370   6.190 -0.2227  0.4771 -0.1873
 8685SOL    HW137691   3.184   0.314   6.188  0.1603  0.9696  0.7552
 8685SOL    HW237692   3.036   0.311   6.216  0.0596 -0.7056 -2.1270
 8686SOL     OW37693   2.998   3.482   6.983  0.2037  0.3920  0.2026
 8686SOL    HW137694   3.008   3.448   7.071 -1.8143  1.0983  0.6998
 8686SOL    HW237695   2.904   3.483   6.968  0.0533 -1.1239  1.0513
 8687SOL     OW37696   3.867   0.029   0.873  0.1490  0.5328  0.1782
 8687SOL    HW137697   3.772   0.033   0.865 -0.1497 -2.4954  1.9257
 8687SOL    HW237698   3.881   0.061   0.963  2.0525  2.9637 -0.9924
 8688SOL     OW37699   0.646   4.236   3.945 -0.2568 -0.2981  0.0363
 8688SOL    HW137700   0.735   4.226   3.978 -0.0494 -0.6006 -0.6118
 8688SOL    HW237701   0.655   4.225   3.850  1.2956 -2.3437  0.4286
 8689SOL     OW37702   0.643   2.050   0.127  0.3108 -0.6170  0.4550
 8689SOL    HW137703   0.637   1.961   0.162 -2.6841  0.7665  3.4192
 8689SOL    HW237704   0.709   2.033   0.059  1.1962 -0.5594  1.2960
 8690SOL     OW37705   3.642   2.108   6.704 -0.2519  0.3100  0.0739
 8690SOL    HW137706   3.617   2.197   6.677  0.6978 -0.1307 -2.2890
 8690SOL    HW237707   3.666   2.128   6.794 -0.5914  3.2584 -0.4830
 8691SOL     OW37708   0.241   0.940  15.931 -0.0730  1.1267  0.2812
 8691SOL    HW137709   0.210   0.994  15.858  2.3806  0.9567 -0.9012
 8691SOL    HW237710   0.266   0.859  15.887 -1.3387  0.0917  1.5105
 8692SOL     OW37711   0.163   4.401   9.244 -0.2911 -0.3505 -0.3851
 8692SOL    HW137712   0.212   4.446   9.176  1.8031 -0.7458  0.8808
 8692SOL    HW237713   0.189   4.310   9.231  1.0394 -0.4209  2.7045
 8693SOL     OW37714   1.878   2.176  15.090 -0.3690 -0.3576  0.1708
 8693SOL    HW137715   1.864   2.082  15.089  1.6642 -0.6451 -0.2190
 8693SOL    HW237716   1.854   2.212  15.004  1.9796  0.9322  0.0546
 8694SOL     OW37717   1.061   1.857  13.589 -0.0461 -0.2419  0.1436
 8694SOL    HW137718   1.003   1.794  13.546  0.8468 -1.5479  0.8835
 8694SOL    HW237719   1.124   1.789  13.612  1.0679  1.0736  0.9689
 8695SOL     OW37720   1.550   4.361  15.618  0.2655  0.2255 -0.1670
 8695SOL    HW137721   1.622   4.312  15.579  1.1450  2.3083 -1.1920
 8695SOL    HW237722   1.537   4.313  15.700  0.3260 -1.7522 -1.3203
 8696SOL     OW37723   1.955   4.392  15.620  0.2690  0.0463 -0.0753
 8696SOL    HW137724   2.039   4.379  15.663  0.0590 -0.5176  0.1690
 8696SOL    HW237725   1.982   4.419  15.532  0.3667  1.5639  0.4291
 8697SOL     OW37726   4.270   2.298   4.878 -0.1446  0.4305  0.4462
 8697SOL    HW137727   4.286   2.346   4.797 -2.3910  0.4515  0.0125
 8697SOL    HW237728   4.336   2.229   4.872 -0.6778 -0.4009  4.2672
 8698SOL     OW37729   0.652   0.256   4.031 -0.2292  0.1647  0.1084
 8698SOL    HW137730   0.585   0.264   4.100  1.2622 -1.8052  1.8029
 8698SOL    HW237731   0.646   0.162   4.015  1.0648  0.1425 -0.2185
 8699SOL     OW37732   4.733   1.214   5.692 -0.0280 -0.1480  1.2286
 8699SOL    HW137733   0.052   1.138   5.670 -3.6525 -2.2488 -0.6234
 8699SOL    HW237734   0.052   1.261   5.755 -0.4477  0.2618  1.2879
 8700SOL     OW37735   0.456   0.541   4.253  0.2824 -0.3798  0.5302
 8700SOL    HW137736   0.511   0.585   4.189 -0.2711  0.5985  0.7396
 8700SOL    HW237737   0.415   0.471   4.203  0.3666  0.9037 -1.3376
 8701SOL     OW37738   3.820   2.529  14.328 -0.1077 -0.2735  0.3685
 8701SOL    HW137739   3.737   2.557  14.365 -0.9590 -0.9238 -1.0465
 8701SOL    HW237740   3.800   2.465  14.260  0.6755 -0.8252  0.6590
 8702SOL     OW37741   3.210   0.540   7.293  0.6504 -0.3106 -0.4098
 8702SOL    HW137742   3.261   0.616   7.268 -1.8919  1.2583 -0.7820
 8702SOL    HW237743   3.126   0.578   7.317  0.0836 -1.2998 -0.8156
 8703SOL     OW37744   0.427   0.327  15.897  0.2477  0.1322  0.0758
 8703SOL    HW137745   0.518   0.316  15.924 -0.0585 -2.6876 -0.1199
 8703SOL    HW237746   0.401   0.411  15.936  0.3987  0.1210  0.2013
 8704SOL     OW37747   3.368   2.771  13.638  0.6225 -0.0868 -0.5711
 8704SOL    HW137748   3.313   2.829  13.585  1.1522 -0.0333 -1.0768
 8704SOL    HW237749   3.438   2.763  13.573  1.5505  0.5296  0.3508
 8705SOL     OW37750   0.132   3.887   0.773  0.9803  0.3996 -0.3059
 8705SOL    HW137751   0.112   3.976   0.744  1.2790  0.3572 -0.6418
 8705SOL    HW237752   0.045   3.847   0.774  0.2733  1.9374 -0.2217
 8706SOL     OW37753   3.865   1.481   8.123  0.0577 -0.1057 -0.5187
 8706SOL    HW137754   3.911   1.543   8.067 -2.2839  1.5165 -0.6352
 8706SOL    HW237755   3.787   1.458   8.072 -1.7564  2.3525  1.2010
 8707SOL     OW37756   0.469   1.694   7.735 -0.5565  0.7660 -0.1727
 8707SOL    HW137757   0.430   1.749   7.667  1.2297  1.4057 -0.6760
 8707SOL    HW237758   0.395   1.688   7.796  1.3115  0.7939  2.0615
 8708SOL     OW37759   4.297   4.478   6.765 -0.0552 -0.1620  0.0785
 8708SOL    HW137760   4.328   4.422   6.836  0.1501  0.0143  0.1284
 8708SOL    HW237761   4.296   4.418   6.690 -1.7068  0.2536 -0.2495
 8709SOL     OW37762   4.720   3.139  11.650 -0.1601  0.0211 -0.2738
 8709SOL    HW137763   4.627   3.146  11.626 -0.2536 -1.6614 -0.4256
 8709SOL    HW237764   4.715   3.061  11.706  0.5651 -1.6031 -2.4791
 8710SOL     OW37765   3.176   3.285   5.675  0.0480 -0.4652 -0.3598
 8710SOL    HW137766   3.117   3.336   5.730  1.2625 -0.3567  0.8539
 8710SOL    HW237767   3.147   3.200   5.708 -0.1233 -0.2874 -0.0554
 8711SOL     OW37768   1.710   0.481   9.282  0.1018 -1.1260  0.0550
 8711SOL    HW137769   1.634   0.478   9.341 -0.8024  2.2562 -0.9812
 8711SOL    HW237770   1.706   0.416   9.212 -0.3034 -1.5694  0.4887
 8712SOL     OW37771   0.517   0.830  13.735  0.1397  0.2488  0.5350
 8712SOL    HW137772   0.467   0.779  13.672  1.1394  1.5323 -1.2900
 8712SOL    HW237773   0.603   0.793  13.714 -0.3754 -2.1776  2.7462
 8713SOL     OW37774   1.296   4.001   2.435  0.2400 -0.1402  0.3818
 8713SOL    HW137775   1.331   4.089   2.422 -0.1510 -0.0962 -0.3883
 8713SOL    HW237776   1.376   3.954   2.412  1.4227  1.2895  1.6164
 8714SOL     OW37777   2.389   0.216   8.804  0.2429  0.3549  0.1044
 8714SOL    HW137778   2.460   0.192   8.862 -0.2130 -0.4712  0.3218
 8714SOL    HW237779   2.429   0.292   8.762  3.3419 -1.1886  0.2602
 8715SOL     OW37780   0.692   3.735   3.356 -0.3788 -0.1178 -0.3008
 8715SOL    HW137781   0.731   3.656   3.393  0.8933 -0.3642 -2.1746
 8715SOL    HW237782   0.704   3.796   3.429 -2.2108 -0.9547  0.6975
 8716SOL     OW37783   2.703   1.541  15.466 -0.5096 -0.0895  0.2148
 8716SOL    HW137784   2.759   1.619  15.473 -0.4027 -0.0653 -1.0182
 8716SOL    HW237785   2.766   1.473  15.493 -1.6905 -0.9037  0.9108
 8717SOL     OW37786   2.734   0.256   3.413 -0.6310  0.3647 -0.5477
 8717SOL    HW137787   2.786   0.178   3.430  1.1044  1.9782  1.5328
 8717SOL    HW237788   2.805   0.320   3.418 -0.6860  0.2594  1.7189
 8718SOL     OW37789   0.524   3.558  10.934  0.3771  0.6181  0.1748
 8718SOL    HW137790   0.465   3.558  11.009 -0.0346 -1.1235 -0.1374
 8718SOL    HW237791   0.513   3.646  10.897 -2.2079  0.7843  1.3558
 8719SOL     OW37792   3.179   0.719  17.286 -0.2835 -0.0189 -0.3652
 8719SOL    HW137793   3.243   0.657  17.252  1.7418  2.0273 -0.2977
 8719SOL    HW237794   3.161   0.779  17.214  0.4007  0.7592  0.1080
 8720SOL     OW37795   0.302   2.479   3.668  0.1831  0.2838 -0.4354
 8720SOL    HW137796   0.343   2.549   3.618  0.3246 -0.3394 -1.2013
 8720SOL    HW237797   0.239   2.528   3.720  1.2993 -0.5882  1.7267
 8721SOL     OW37798   0.612   1.896  17.161 -0.2320 -0.5506  0.7605
 8721SOL    HW137799   0.561   1.860  17.088  0.9946  1.7601 -1.2812
 8721SOL    HW237800   0.703   1.894  17.131 -0.0756  0.2482  1.1613
 8722SOL     OW37801   0.236   3.958   8.807  0.9109  0.4570  0.0982
 8722SOL    HW137802   0.221   3.895   8.877  1.3747  0.7128  0.4241
 8722SOL    HW237803   0.324   3.936   8.776  2.4280  3.1159  2.5223
 8723SOL     OW37804   3.740   0.841  13.206 -0.0747  0.0401 -0.5523
 8723SOL    HW137805   3.707   0.929  13.192  1.2007  0.5083 -0.6848
 8723SOL    HW237806   3.830   0.842  13.173 -0.4391 -2.2698 -1.6426
 8724SOL     OW37807   1.679   4.093  13.827  0.2143  0.0586 -0.3879
 8724SOL    HW137808   1.721   4.023  13.877 -1.7198 -0.2200  0.8480
 8724SOL    HW237809   1.644   4.055  13.747  0.9062  1.4653 -1.3614
 8725SOL     OW37810   3.257   0.777  13.582  0.3921  0.4456  0.0361
 8725SOL    HW137811   3.317   0.773  13.656  0.1033  0.4832  0.2730
 8725SOL    HW237812   3.322   0.801  13.517 -1.2096 -1.1911 -2.1796
 8726SOL     OW37813   2.676   3.912   0.553  0.1164  0.2499 -0.3899
 8726SOL    HW137814   2.655   3.901   0.460 -2.1321 -2.2247  0.3987
 8726SOL    HW237815   2.758   3.954   0.529  0.2520 -0.3672 -1.0208
 8727SOL     OW37816   1.981   4.343  10.363  0.5580  0.6145  0.5326
 8727SOL    HW137817   1.925   4.421  10.371 -1.0362 -0.3618 -0.9906
 8727SOL    HW237818   2.064   4.374  10.326  0.5401 -0.8139 -0.6772
 8728SOL     OW37819   0.952   3.605   9.904 -0.0659 -0.0227  0.0796
 8728SOL    HW137820   1.022   3.661   9.938  0.4819 -1.8833  2.0172
 8728SOL    HW237821   0.877   3.637   9.954 -0.1804 -1.0164  0.5440
 8729SOL     OW37822   3.589   4.666  15.477  0.1205 -0.2113 -0.5749
 8729SOL    HW137823   3.545   4.716  15.546 -0.2284  0.0158 -0.9627
 8729SOL    HW237824   3.527   4.662  15.404  1.3804  1.5776 -1.7533
 8730SOL     OW37825   4.420   4.097   5.322 -0.6878 -0.2059  0.2395
 8730SOL    HW137826   4.407   4.104   5.227  0.4111  3.4913  0.3642
 8730SOL    HW237827   4.475   4.019   5.332 -2.0550 -1.3993 -1.5996
 8731SOL     OW37828   0.139   0.988   9.035  0.6165  0.1411  0.0284
 8731SOL    HW137829   0.199   0.914   9.026  0.4046 -0.0491  0.1921
 8731SOL    HW237830   0.063   0.944   8.997  0.1756  0.1655  0.8978
 8732SOL     OW37831   1.389   3.988   7.460 -0.3628 -0.1827 -0.2378
 8732SOL    HW137832   1.368   3.908   7.509  0.2446  0.6022  1.3200
 8732SOL    HW237833   1.469   3.972   7.410 -0.6283  0.9640 -1.0021
 8733SOL     OW37834   3.465   1.410   5.981  0.2782 -0.5788  0.1765
 8733SOL    HW137835   3.549   1.373   5.953 -0.7726  0.3556 -4.1858
 8733SOL    HW237836   3.447   1.363   6.062 -0.4855  1.7474  1.3517
 8734SOL     OW37837   1.341   0.551   3.830 -0.6788  0.3130  0.2140
 8734SOL    HW137838   1.308   0.607   3.759 -0.0344  1.1246  0.5570
 8734SOL    HW237839   1.403   0.613   3.869  0.1629 -0.2276 -0.2654
 8735SOL     OW37840   4.285   0.152   3.377 -0.4282  0.2133  0.6815
 8735SOL    HW137841   4.296   0.247   3.386  0.3494  0.4138 -2.5977
 8735SOL    HW237842   4.192   0.149   3.359 -0.9025 -0.5050  3.1700
 8736SOL     OW37843   0.180   3.600   9.390 -0.5057 -0.0711  0.3715
 8736SOL    HW137844   0.092   3.605   9.426 -0.2536 -0.4673  1.0319
 8736SOL    HW237845   0.220   3.518   9.416 -0.7615 -0.4653 -0.4648
 8737SOL     OW37846   0.741   2.436  11.442 -0.1970 -0.5067  0.0790
 8737SOL    HW137847   0.742   2.444  11.347  0.0417 -1.9318 -0.0493
 8737SOL    HW237848   0.699   2.350  11.443  0.4479 -0.8326 -1.3918
 8738SOL     OW37849   0.956   3.371  11.109  0.7540  0.0663 -0.0232
 8738SOL    HW137850   0.876   3.336  11.146 -0.7254  0.7979 -2.5125
 8738SOL    HW237851   1.015   3.309  11.152 -0.8635  0.7941  3.2634
 8739SOL     OW37852   0.466   0.953   7.139  0.2860  0.1913  0.2035
 8739SOL    HW137853   0.558   0.938   7.121  0.1737  0.9909 -1.0172
 8739SOL    HW237854   0.440   1.035   7.098  0.8269  0.0851 -0.3363
 8740SOL     OW37855   0.461   3.769   2.889 -0.0557 -0.3853 -0.0917
 8740SOL    HW137856   0.365   3.768   2.882  0.1458  0.6344 -3.1314
 8740SOL    HW237857   0.481   3.676   2.880 -0.1584 -0.3928 -0.2465
 8741SOL     OW37858   2.148   3.019   8.383 -0.4049  0.3544 -0.6249
 8741SOL    HW137859   2.133   2.929   8.355 -0.1925  0.3828 -0.8281
 8741SOL    HW237860   2.234   3.034   8.344 -0.1329  1.9108  0.5697
 8742SOL     OW37861   0.639   2.385   1.928 -0.0394 -0.3426  0.4080
 8742SOL    HW137862   0.646   2.480   1.936  1.2439 -0.4386  0.5310
 8742SOL    HW237863   0.550   2.378   1.895 -0.0578 -1.0345  0.5995
 8743SOL     OW37864   0.761   0.942   8.896  0.2289 -0.7114 -0.2463
 8743SOL    HW137865   0.815   0.870   8.927  0.1801 -0.9003 -0.5952
 8743SOL    HW237866   0.691   0.912   8.838 -0.4855 -0.6596  0.5827
 8744SOL     OW37867   1.042   3.169   9.346  0.1598  0.5515  0.1172
 8744SOL    HW137868   1.017   3.182   9.438 -1.2736  0.2865 -0.2365
 8744SOL    HW237869   1.060   3.075   9.356  1.0256  0.6249 -0.7626
 8745SOL     OW37870   0.813   4.264   8.763  0.7463  0.3570  0.6437
 8745SOL    HW137871   0.775   4.342   8.803 -0.7717 -0.2393  0.3310
 8745SOL    HW237872   0.864   4.294   8.687 -0.1419  1.0753  0.3370
 8746SOL     OW37873   1.978   0.728  10.686 -0.3007  0.3787 -0.5971
 8746SOL    HW137874   1.978   0.632  10.696  0.6350  0.5374  0.8895
 8746SOL    HW237875   1.999   0.731  10.592 -2.3997 -0.6451 -1.0990
 8747SOL     OW37876   1.429   4.714   6.994 -0.2678  0.1414 -0.3934
 8747SOL    HW137877   1.469   4.640   6.948 -0.4532 -1.1269  1.5090
 8747SOL    HW237878   1.504   0.014   7.043  1.8185  0.3096 -3.6822
 8748SOL     OW37879   1.877   2.091   0.591 -0.4491 -0.1820 -0.3792
 8748SOL    HW137880   1.958   2.082   0.541 -0.3243 -3.4584  0.4192
 8748SOL    HW237881   1.882   2.185   0.608  1.6893  0.2263 -3.2479
 8749SOL     OW37882   1.414   0.206   5.263 -0.3322 -0.4126  0.0807
 8749SOL    HW137883   1.449   0.153   5.335 -1.4743 -0.7014  0.4171
 8749SOL    HW237884   1.377   0.139   5.205 -1.7496  2.4620 -2.2782
 8750SOL     OW37885   0.904   1.990   3.360 -0.1700 -0.0918 -0.1042
 8750SOL    HW137886   0.847   1.917   3.335  1.9110 -1.2940 -1.3501
 8750SOL    HW237887   0.903   2.030   3.273 -1.0468  1.4509  0.6101
 8751SOL     OW37888   2.781   0.092   7.545 -0.2382 -0.3367 -0.6182
 8751SOL    HW137889   2.753   0.180   7.571 -1.0754 -0.7400 -0.1241
 8751SOL    HW237890   2.854   0.098   7.484  1.0487 -0.4002  0.9396
 8752SOL     OW37891   2.218   2.681   9.540  0.7661 -0.8039 -0.0431
 8752SOL    HW137892   2.233   2.643   9.453 -0.3761  1.3402 -1.1789
 8752SOL    HW237893   2.125   2.704   9.532  1.1419  0.7396 -0.0299
 8753SOL     OW37894   4.086   4.362  12.254  0.0253 -0.2606 -0.7327
 8753SOL    HW137895   4.159   4.410  12.294 -0.7571 -1.1825  1.8366
 8753SOL    HW237896   4.117   4.382  12.166 -1.8742 -4.4765 -2.3538
 8754SOL     OW37897   3.105   0.945  12.437  0.0741  0.4213 -0.3501
 8754SOL    HW137898   3.066   0.858  12.427 -0.8240  0.9084 -1.1143
 8754SOL    HW237899   3.096   0.969  12.530  2.0617 -0.4585  0.0689
 8755SOL     OW37900   0.344   0.521   6.290  0.0979  0.0134  0.1371
 8755SOL    HW137901   0.396   0.472   6.354  0.4644  1.4487  0.9278
 8755SOL    HW237902   0.357   0.612   6.317 -0.6648  0.1391  0.0785
 8756SOL     OW37903   0.853   0.880  10.879  0.2702 -0.0249 -0.2356
 8756SOL    HW137904   0.799   0.863  10.801 -0.2367  1.5358 -0.2288
 8756SOL    HW237905   0.938   0.893  10.837  0.2975  0.6980  0.0446
 8757SOL     OW37906   2.514   0.527   2.148 -1.0152 -0.1678  0.2365
 8757SOL    HW137907   2.509   0.431   2.142 -1.3084 -0.3028  2.5609
 8757SOL    HW237908   2.591   0.546   2.094 -0.8765  0.0411  0.5062
 8758SOL     OW37909   2.745   3.040   5.557  0.1949 -0.1707 -0.0277
 8758SOL    HW137910   2.702   2.975   5.613 -0.5520 -0.2341 -0.6685
 8758SOL    HW237911   2.830   2.997   5.549 -0.9445 -2.1497 -1.6915
 8759SOL     OW37912   3.526   2.743   4.694 -0.0351 -0.2171 -0.1973
 8759SOL    HW137913   3.439   2.732   4.656 -0.3491  0.6163  0.2945
 8759SOL    HW237914   3.513   2.697   4.777 -0.4824  1.8439  0.8713
 8760SOL     OW37915   3.120   3.084   3.511  0.0477  0.1985 -0.1110
 8760SOL    HW137916   3.209   3.053   3.529 -0.6013 -0.7930  1.4699
 8760SOL    HW237917   3.102   3.123   3.597 -2.8388 -2.3794  0.4479
 8761SOL     OW37918   1.872   0.939   5.260  0.0069 -0.0284 -0.0658
 8761SOL    HW137919   1.923   0.901   5.332 -0.4885  0.6135  0.6245
 8761SOL    HW237920   1.855   0.853   5.221 -0.0957  0.1242 -0.3494
 8762SOL     OW37921   3.339   4.156  16.015  0.9048 -0.3635  0.0081
 8762SOL    HW137922   3.420   4.104  16.014  2.6200  2.4179 -4.3726
 8762SOL    HW237923   3.339   4.196  15.929  3.9016  2.2633  1.2250
 8763SOL     OW37924   0.185   3.385   7.265  0.0518  0.1556 -0.5799
 8763SOL    HW137925   0.245   3.454   7.236  1.2509  0.3511  2.4348
 8763SOL    HW237926   0.100   3.426   7.255 -0.3510 -1.0954 -2.4464
 8764SOL     OW37927   1.437   3.270  13.213  0.2237  0.3600  0.2574
 8764SOL    HW137928   1.400   3.285  13.126  0.0382  1.9096  0.5952
 8764SOL    HW237929   1.486   3.191  13.192  1.9613  0.8076  2.6235
 8765SOL     OW37930   2.058   0.962   6.410 -0.5927 -0.3505 -0.1142
 8765SOL    HW137931   1.980   0.953   6.464 -0.2779  0.1098  0.4162
 8765SOL    HW237932   2.052   1.055   6.386 -0.6427 -0.6688 -1.3349
 8766SOL     OW37933   2.618   4.139   2.056 -0.2111  0.0393  0.5563
 8766SOL    HW137934   2.651   4.058   2.095  2.1547  0.4971 -0.4597
 8766SOL    HW237935   2.527   4.143   2.086 -1.4254 -2.4809 -2.9333
 8767SOL     OW37936   2.962   1.049  15.021 -0.1245  0.2730 -0.4267
 8767SOL    HW137937   3.033   1.113  15.020  1.7704 -1.8345  0.0727
 8767SOL    HW237938   2.887   1.090  14.978  0.2794  0.3157 -1.0925
 8768SOL     OW37939   4.149   0.647   3.368 -0.4475 -0.0773 -0.3862
 8768SOL    HW137940   4.089   0.721   3.361 -1.7206 -1.0838 -0.1537
 8768SOL    HW237941   4.126   0.622   3.458  0.0215  0.4418 -0.1245
 8769SOL     OW37942   0.400   3.186   8.909  0.4014  0.1249  0.3144
 8769SOL    HW137943   0.368   3.096   8.912 -0.2311  0.3312 -0.2662
 8769SOL    HW237944   0.329   3.239   8.945  0.7781  0.1016  1.1050
 8770SOL     OW37945   2.787   0.382   4.419  0.0979  0.3132 -0.6130
 8770SOL    HW137946   2.844   0.308   4.399 -1.2763 -1.2200  1.1494
 8770SOL    HW237947   2.704   0.338   4.399  0.0541 -0.2053  0.6754
 8771SOL     OW37948   2.343   2.209   8.317 -0.0065 -0.6409  0.7360
 8771SOL    HW137949   2.434   2.238   8.309 -0.0498  0.4053  3.8240
 8771SOL    HW237950   2.322   2.203   8.224  0.3099 -0.0601  0.6299
 8772SOL     OW37951   3.975   2.474   8.396  0.1342  0.0032 -0.3342
 8772SOL    HW137952   3.947   2.466   8.488  0.0669 -0.0044 -0.3555
 8772SOL    HW237953   3.965   2.384   8.366  1.3781  0.5327 -2.3373
 8773SOL     OW37954   3.524   3.823   1.038 -0.4275 -1.0131  0.5656
 8773SOL    HW137955   3.467   3.897   1.017 -0.5005 -0.7788  1.5674
 8773SOL    HW237956   3.602   3.858   0.995 -1.6430  2.6094  1.2974
 8774SOL     OW37957   1.505   1.998   4.371  0.1042 -0.9025 -0.6177
 8774SOL    HW137958   1.529   2.089   4.388 -0.3057 -0.7417 -0.9062
 8774SOL    HW237959   1.441   2.024   4.305 -0.1558  1.5478  0.5900
 8775SOL     OW37960   0.546   0.805  16.057 -0.1254 -0.3004 -0.1005
 8775SOL    HW137961   0.494   0.838  15.984  0.8287  0.3261 -0.4881
 8775SOL    HW237962   0.581   0.724  16.020 -1.5493 -0.7974 -0.3796
 8776SOL     OW37963   2.763   4.509   2.294 -0.1981  0.4238  0.1618
 8776SOL    HW137964   2.792   4.563   2.220  0.6908 -1.7998 -1.1302
 8776SOL    HW237965   2.694   4.463   2.246 -2.4636  2.7486  1.2256
 8777SOL     OW37966   1.886   2.228   6.174  0.1765 -0.5877 -0.2367
 8777SOL    HW137967   1.791   2.236   6.169 -0.0334  0.2526  4.9231
 8777SOL    HW237968   1.899   2.319   6.201 -0.3504 -1.0382  1.5513
 8778SOL     OW37969   4.339   2.150   6.366  0.0880  0.0102 -0.2046
 8778SOL    HW137970   4.291   2.153   6.283 -1.1539  0.6323  0.5456
 8778SOL    HW237971   4.376   2.238   6.359  1.1375 -0.4103  0.0995
 8779SOL     OW37972   3.773   2.275   3.364 -0.2947 -0.0046  0.2759
 8779SOL    HW137973   3.756   2.286   3.457  1.0335 -2.0832  0.7540
 8779SOL    HW237974   3.757   2.358   3.320 -0.6751 -0.4732 -0.4745
 8780SOL     OW37975   1.624   1.389   4.689  0.4912  0.1439  0.2937
 8780SOL    HW137976   1.600   1.308   4.645  4.4806 -0.8584 -0.0104
 8780SOL    HW237977   1.635   1.366   4.781  0.1564  0.3175  0.3753
 8781SOL     OW37978   2.399   3.975   5.948  0.1457  0.0363 -0.0619
 8781SOL    HW137979   2.366   4.060   5.919 -0.0482  0.5821  1.7201
 8781SOL    HW237980   2.482   3.996   5.991  0.5132 -0.3411 -0.5905
 8782SOL     OW37981   4.683   1.941   4.004  0.0865  0.5531  0.3662
 8782SOL    HW137982   4.679   2.001   3.930 -2.3764  0.9670  0.8079
 8782SOL    HW237983   0.042   1.927   4.009  0.0805  0.1760 -0.5534
 8783SOL     OW37984   2.774   0.919   3.266 -0.2028  0.2925  0.2713
 8783SOL    HW137985   2.682   0.916   3.242  0.0684 -1.0681 -0.6282
 8783SOL    HW237986   2.773   0.852   3.335  0.0830 -1.1354 -1.1102
 8784SOL     OW37987   1.194   2.084   8.220  0.1217  0.4799 -0.0197
 8784SOL    HW137988   1.212   2.011   8.160  1.4702  0.1052  0.8485
 8784SOL    HW237989   1.103   2.110   8.208 -0.4578  0.3891  4.1031
 8785SOL     OW37990   3.460   2.589  12.608  0.4319 -0.2670 -0.0033
 8785SOL    HW137991   3.490   2.541  12.685  0.7137 -2.2599 -1.3601
 8785SOL    HW237992   3.513   2.668  12.618 -0.3976 -0.3348  4.7194
 8786SOL     OW37993   2.315   3.102  13.963  0.0736  0.5609  0.0132
 8786SOL    HW137994   2.266   3.175  13.926 -0.4234  1.3509  2.2643
 8786SOL    HW237995   2.249   3.039  13.992 -0.5740  1.3722  0.2965
 8787SOL     OW37996   0.728   3.712   6.914 -1.1715 -0.2943 -0.3939
 8787SOL    HW137997   0.762   3.748   6.996 -1.1003 -0.6925 -0.2472
 8787SOL    HW237998   0.709   3.620   6.932 -1.6962 -0.1649 -0.3154
 8788SOL     OW37999   0.322   0.719   2.101  0.0422 -0.3484 -0.1854
 8788SOL    HW138000   0.416   0.728   2.088  0.1014  0.2707  0.7065
 8788SOL    HW238001   0.303   0.701   2.009 -1.1412  0.8162 -0.1622
 8789SOL     OW38002   1.696   1.956   7.919 -0.3689  0.8485 -0.5553
 8789SOL    HW138003   1.676   2.046   7.892 -1.7502  1.4188  2.3091
 8789SOL    HW238004   1.790   1.947   7.935 -0.4376  1.9250  0.4708
 8790SOL     OW38005   2.995   3.957   2.423 -0.4692 -0.4710 -0.0456
 8790SOL    HW138006   2.964   3.941   2.512  1.0424 -1.6730  0.2747
 8790SOL    HW238007   3.020   4.050   2.422 -1.4638 -0.2276 -0.8577
 8791SOL     OW38008   1.900   4.420  13.492 -0.3114  0.0018  1.1240
 8791SOL    HW138009   1.923   4.329  13.475  0.6110  0.6913 -1.3809
 8791SOL    HW238010   1.814   4.427  13.450  1.4827  0.3702 -2.5477
 8792SOL     OW38011   3.253   3.044   7.610  0.8903  0.4033  0.3887
 8792SOL    HW138012   3.228   3.119   7.556 -0.0706  2.7051  3.9660
 8792SOL    HW238013   3.258   2.975   7.545 -1.2578 -0.3546  1.0214
 8793SOL     OW38014   2.914   0.465   3.766  0.2726  0.1934  0.3536
 8793SOL    HW138015   2.847   0.489   3.830  0.8540 -1.7698  1.7212
 8793SOL    HW238016   2.899   0.515   3.686 -0.5001 -1.1869 -0.3546
 8794SOL     OW38017   1.942   2.080   5.961 -0.5022  0.2482 -0.5880
 8794SOL    HW138018   1.983   2.000   5.992 -0.4929 -1.2696 -4.5228
 8794SOL    HW238019   1.938   2.136   6.039 -0.8390  0.6950 -0.9202
 8795SOL     OW38020   1.748   3.214   8.868 -0.4271  0.4722  0.0191
 8795SOL    HW138021   1.742   3.279   8.938 -0.7730 -0.5766  0.9624
 8795SOL    HW238022   1.839   3.185   8.877  0.1850  1.7362 -2.0887
 8796SOL     OW38023   2.025   3.346   6.077  0.2845  0.3923  0.2954
 8796SOL    HW138024   2.035   3.405   6.152  1.5003 -0.3781  0.7372
 8796SOL    HW238025   1.939   3.375   6.046 -0.3904  0.3483  2.1120
 8797SOL     OW38026   3.089   2.555  16.221 -0.5002  0.6128  0.0649
 8797SOL    HW138027   3.118   2.560  16.130  0.3113  1.9382  0.3961
 8797SOL    HW238028   3.016   2.617  16.222  0.2880  1.5243  1.4618
 8798SOL     OW38029   1.057   1.331   6.228 -0.0075  0.0823 -0.1362
 8798SOL    HW138030   1.086   1.269   6.295  0.0072 -1.8429 -1.8803
 8798SOL    HW238031   0.968   1.300   6.211 -0.7465  1.5102  1.1807
 8799SOL     OW38032   4.369   2.918  17.010  0.3922 -0.0030 -0.5326
 8799SOL    HW138033   4.278   2.948  17.020  0.6337  0.0522  1.6582
 8799SOL    HW238034   4.381   2.854  17.081 -0.4242 -0.1166 -0.4996
 8800SOL     OW38035   2.152   3.917   7.242  0.3833 -0.4682 -0.3516
 8800SOL    HW138036   2.185   3.857   7.309  1.0729  1.0582  0.6724
 8800SOL    HW238037   2.070   3.875   7.215  0.8865 -1.8214  0.2480
 8801SOL     OW38038   2.581   3.887   5.421  0.1439 -0.0843  0.5661
 8801SOL    HW138039   2.622   3.960   5.374  0.5891 -0.2709  0.6644
 8801SOL    HW238040   2.577   3.921   5.510 -1.9322 -1.4577  0.9955
 8802SOL     OW38041   1.930   1.290   7.772 -0.4454 -0.7535  0.1308
 8802SOL    HW138042   1.931   1.197   7.751 -2.6323 -0.8497  0.4999
 8802SOL    HW238043   1.922   1.327   7.684 -2.2451  1.2779  1.1474
 8803SOL     OW38044   4.329   2.219   2.830 -0.0322  0.1328  0.2635
 8803SOL    HW138045   4.281   2.136   2.830  2.5555 -1.3655 -0.1220
 8803SOL    HW238046   4.344   2.234   2.736 -0.5520  0.2469  0.1980
 8804SOL     OW38047   0.594   2.978  14.967 -0.1016  0.1667  0.5980
 8804SOL    HW138048   0.639   3.057  14.936  0.7935 -0.8292 -0.6466
 8804SOL    HW238049   0.653   2.958  15.040 -1.4397  1.2715  1.9806
 8805SOL     OW38050   2.228   3.851   4.306  0.0858  0.6857  0.0989
 8805SOL    HW138051   2.282   3.827   4.231  0.2540 -0.5710  0.6236
 8805SOL    HW238052   2.258   3.782   4.366 -1.8634  0.5233  0.8923
 8806SOL     OW38053   0.233   0.325   6.088 -0.5184  0.0092 -0.6905
 8806SOL    HW138054   0.242   0.392   6.156 -3.2940 -0.1497 -0.1413
 8806SOL    HW238055   0.218   0.244   6.137  2.1139 -0.9539 -1.4977
 8807SOL     OW38056   0.854   1.138  16.976  0.1280  0.0571 -0.1332
 8807SOL    HW138057   0.851   1.210  17.039 -0.5881  0.2608 -0.3977
 8807SOL    HW238058   0.761   1.125  16.958  0.5783 -0.6333 -1.9021
 8808SOL     OW38059   0.721   1.790   3.298 -0.6488 -0.2283  0.0966
 8808SOL    HW138060   0.687   1.746   3.376 -1.0572 -1.3395 -0.7069
 8808SOL    HW238061   0.793   1.731   3.273 -1.6895 -1.0634 -0.9310
 8809SOL     OW38062   2.308   0.566  11.969  0.1159 -0.3088 -0.3746
 8809SOL    HW138063   2.249   0.512  11.917 -1.2269  1.9744 -1.2467
 8809SOL    HW238064   2.358   0.501  12.017  1.8918  1.0745 -0.3699
 8810SOL     OW38065   1.811   0.806   6.915 -0.0435  0.4561  0.5435
 8810SOL    HW138066   1.893   0.842   6.951 -1.3389  0.9768  2.9489
 8810SOL    HW238067   1.839   0.716   6.901 -0.5052  0.9429 -3.4733
 8811SOL     OW38068   2.928   3.112   4.123 -0.5826 -0.5184  0.2636
 8811SOL    HW138069   2.993   3.149   4.184 -1.0421 -2.6028  2.0253
 8811SOL    HW238070   2.849   3.159   4.150  0.5592  1.4815  0.1485
 8812SOL     OW38071   3.977   2.869   2.416 -0.1287 -0.1118 -0.0353
 8812SOL    HW138072   3.883   2.877   2.428 -0.0768 -2.0894  1.7877
 8812SOL    HW238073   4.001   2.794   2.471 -0.7173 -2.2244 -2.6570
 8813SOL     OW38074   0.687   2.888  12.218 -0.2303  0.1370 -0.2601
 8813SOL    HW138075   0.746   2.866  12.290  0.8489 -1.8491 -1.7457
 8813SOL    HW238076   0.756   2.915  12.157  0.3135 -1.0175 -0.1459
 8814SOL     OW38077   2.012   3.243   9.687  0.0358 -0.0842  0.1379
 8814SOL    HW138078   2.015   3.337   9.706 -2.2240  0.0883 -0.2879
 8814SOL    HW238079   2.062   3.210   9.762  0.9658 -1.2774 -1.0106
 8815SOL     OW38080   1.825   0.647   5.248 -0.2225  0.0647  0.4438
 8815SOL    HW138081   1.901   0.595   5.274 -1.6537 -1.8577  0.8211
 8815SOL    HW238082   1.821   0.616   5.157  1.0893 -0.4297  0.5564
 8816SOL     OW38083   2.714   0.455   8.152  0.3307 -0.5130 -0.4708
 8816SOL    HW138084   2.702   0.389   8.220 -2.3723 -0.2181 -0.6528
 8816SOL    HW238085   2.700   0.539   8.195 -0.6332 -0.7094 -0.3936
 8817SOL     OW38086   3.447   2.183   8.863 -0.1539  0.5061  0.2372
 8817SOL    HW138087   3.486   2.263   8.899 -1.5203  1.5087 -0.5496
 8817SOL    HW238088   3.430   2.131   8.942 -1.1612  1.6804  0.7796
 8818SOL     OW38089   2.849   2.968  15.166 -0.3500  0.0403  0.1422
 8818SOL    HW138090   2.760   2.940  15.187 -0.5921  2.4304  2.2617
 8818SOL    HW238091   2.895   2.884  15.159 -0.0290  0.2932 -0.7145
 8819SOL     OW38092   3.598   1.637  12.564  0.2643 -0.2489  0.3570
 8819SOL    HW138093   3.559   1.568  12.510  0.9435 -1.0679  0.9166
 8819SOL    HW238094   3.687   1.626  12.531  0.3068  1.2523 -0.0415
 8820SOL     OW38095   2.278   0.182   1.260  0.4363 -0.4915  0.1346
 8820SOL    HW138096   2.288   0.118   1.330 -0.8278 -0.7373  0.0939
 8820SOL    HW238097   2.284   0.263   1.311  2.5810 -0.6489  0.1312
 8821SOL     OW38098   2.807   1.306   4.056  0.4573 -0.2392 -0.8657
 8821SOL    HW138099   2.875   1.370   4.036  0.8368 -0.5173 -0.4518
 8821SOL    HW238100   2.856   1.233   4.094 -0.6737 -0.7183 -0.3162
 8822SOL     OW38101   0.442   3.020   0.947  0.0365  0.6951  0.1030
 8822SOL    HW138102   0.439   2.929   0.919  0.9459 -0.0307  2.3352
 8822SOL    HW238103   0.352   3.020   0.982 -0.6473 -3.0234 -1.6600
 8823SOL     OW38104   2.080   1.503   8.800  0.2743 -0.0914  0.3570
 8823SOL    HW138105   2.116   1.577   8.752  1.8207 -2.2317 -1.7361
 8823SOL    HW238106   2.012   1.546   8.853  2.1191  0.8299  1.9763
 8824SOL     OW38107   2.024   4.011  10.927 -0.6612 -0.8544 -0.3038
 8824SOL    HW138108   2.005   3.958  11.004 -0.3134 -1.1989 -0.4503
 8824SOL    HW238109   1.966   4.087  10.922 -1.5526 -1.5522 -0.6384
 8825SOL     OW38110   3.219   2.024   3.958 -0.0846  0.5650 -0.2495
 8825SOL    HW138111   3.311   2.001   3.949  0.2618  1.7614  0.1328
 8825SOL    HW238112   3.194   1.941   3.997 -0.3452  1.4246  1.3957
 8826SOL     OW38113   4.009   2.873  13.958  0.3530  0.1433 -0.3453
 8826SOL    HW138114   3.972   2.955  13.927  1.2790  1.0281  0.9207
 8826SOL    HW238115   4.053   2.854  13.876 -0.6607 -1.5786 -0.5023
 8827SOL     OW38116   3.417   3.678  11.323 -0.4281  0.4020  0.0415
 8827SOL    HW138117   3.503   3.721  11.320 -0.3112  0.0324 -1.9554
 8827SOL    HW238118   3.400   3.675  11.229 -0.2307  2.7896 -0.0869
 8828SOL     OW38119   3.190   2.187   2.773  0.3575 -0.0800 -0.0727
 8828SOL    HW138120   3.267   2.221   2.729 -0.5797 -0.1912 -1.7950
 8828SOL    HW238121   3.184   2.253   2.842  0.7107  1.8757 -1.9247
 8829SOL     OW38122   1.638   1.049   7.378 -0.2822  0.1900  0.3503
 8829SOL    HW138123   1.559   1.003   7.408  1.2469 -2.8937 -0.3770
 8829SOL    HW238124   1.692   1.030   7.455  1.9216  1.0935 -0.9888
 8830SOL     OW38125   1.252   3.511   5.350  0.4373 -0.0303 -0.3917
 8830SOL    HW138126   1.305   3.482   5.424  1.1247  0.6221 -0.6194
 8830SOL    HW238127   1.201   3.435   5.324  2.6251 -1.8946  0.6966
 8831SOL     OW38128   4.424   1.170   2.106 -0.1343  0.0025  0.7462
 8831SOL    HW138129   4.434   1.091   2.053 -1.3293 -1.0517  2.1132
 8831SOL    HW238130   4.511   1.204   2.084 -0.2135  0.2179  0.7600
 8832SOL     OW38131   0.561   0.748   6.648 -0.3217 -0.6049  0.1185
 8832SOL    HW138132   0.567   0.835   6.689  0.5022 -2.0099  2.9691
 8832SOL    HW238133   0.479   0.741   6.599  0.7992  0.6590 -1.9819
 8833SOL     OW38134   3.914   3.564   7.203  0.0516 -0.0136  0.2949
 8833SOL    HW138135   3.852   3.626   7.241  0.4556  0.5853 -0.0239
 8833SOL    HW238136   3.868   3.484   7.225  1.0602 -1.1036 -1.5172
 8834SOL     OW38137   1.911   0.780  10.951 -0.3496  0.0054  0.1677
 8834SOL    HW138138   1.841   0.715  10.964  1.1371 -2.0177 -1.8794
 8834SOL    HW238139   1.943   0.772  10.861 -0.3278 -3.8853  0.5097
 8835SOL     OW38140   3.500   1.026   1.991  0.4367 -0.2437 -0.7370
 8835SOL    HW138141   3.525   0.989   1.907  0.2019 -2.2784  0.0832
 8835SOL    HW238142   3.464   0.950   2.038 -1.1444  0.8684 -0.1615
 8836SOL     OW38143   4.594   4.053   7.067  0.7531  0.0709  0.1922
 8836SOL    HW138144   4.632   3.978   7.020  1.3657  0.6248 -0.1881
 8836SOL    HW238145   4.575   4.001   7.145 -0.6258 -0.2064 -0.3268
 8837SOL     OW38146   0.865   4.352   9.700  0.6465 -0.9224  0.1677
 8837SOL    HW138147   0.915   4.276   9.731  0.7203 -1.2128 -0.6635
 8837SOL    HW238148   0.784   4.312   9.669  0.6468  1.2507 -2.5499
 8838SOL     OW38149   4.310   0.211   7.576  0.4950  0.3574 -0.3292
 8838SOL    HW138150   4.352   0.142   7.524 -1.1850  0.7998 -2.2513
 8838SOL    HW238151   4.324   0.195   7.670  0.5502  0.1287 -0.3763
 8839SOL     OW38152   2.651   0.874   2.923 -0.3178 -0.1506  0.2784
 8839SOL    HW138153   2.583   0.879   2.855 -0.3544 -2.1501  0.1576
 8839SOL    HW238154   2.640   0.787   2.962 -0.0010  0.2141  1.1703
 8840SOL     OW38155   4.062   0.384   1.904  0.0717 -0.1617  0.2146
 8840SOL    HW138156   4.091   0.475   1.902  0.3391 -0.3045 -3.0334
 8840SOL    HW238157   4.055   0.364   1.997 -2.1550 -1.0534 -0.1300
 8841SOL     OW38158   3.294   0.148   5.149  0.6366  0.2759  0.0454
 8841SOL    HW138159   3.236   0.084   5.191  0.8275  1.5521  2.2840
 8841SOL    HW238160   3.334   0.095   5.081  1.1832 -1.6671  1.8996
 8842SOL     OW38161   0.479   2.602  12.101 -0.0331 -0.0915 -0.0196
 8842SOL    HW138162   0.410   2.577  12.039 -1.2290  0.3769  1.1355
 8842SOL    HW238163   0.536   2.646  12.038 -0.9450  0.6588 -0.3202
 8843SOL     OW38164   4.126   0.567   4.816  0.2499 -0.0865  0.3781
 8843SOL    HW138165   4.129   0.484   4.864  1.4277  0.5368  1.3599
 8843SOL    HW238166   4.064   0.548   4.745 -0.3492  1.4509  0.5033
 8844SOL     OW38167   2.622   4.048   7.652 -0.0528 -0.5020  0.3783
 8844SOL    HW138168   2.591   4.137   7.638  2.0936  0.4204  1.5141
 8844SOL    HW238169   2.694   4.046   7.589 -1.5136  0.4513 -1.2979
 8845SOL     OW38170   1.456   2.258   2.552  0.4347  0.7048 -0.0584
 8845SOL    HW138171   1.435   2.262   2.459 -0.0701  3.2629  0.1665
 8845SOL    HW238172   1.548   2.232   2.541 -1.0960 -4.7011 -0.1276
 8846SOL     OW38173   2.357   3.490   3.972  0.2364 -0.1599  0.5807
 8846SOL    HW138174   2.270   3.525   3.953 -0.2542 -0.7919  1.6492
 8846SOL    HW238175   2.372   3.429   3.900  2.3266  1.2235 -0.1775
 8847SOL     OW38176   3.655   3.130   5.533 -0.0001  0.2684 -0.2196
 8847SOL    HW138177   3.640   3.045   5.574  0.4648 -0.4338 -1.5030
 8847SOL    HW238178   3.683   3.094   5.449 -0.2470 -0.3929 -0.0149
 8848SOL     OW38179   3.873   1.927   3.927 -0.3391  0.5110  0.0143
 8848SOL    HW138180   3.842   1.876   3.852 -2.1210  1.3711  0.1663
 8848SOL    HW238181   3.847   1.862   3.992 -1.2221  0.5473 -0.3054
 8849SOL     OW38182   3.025   1.141   2.916 -0.1272 -0.2283  0.3513
 8849SOL    HW138183   3.092   1.137   2.848 -0.3821 -0.3249  0.1062
 8849SOL    HW238184   3.066   1.199   2.980  0.2361  2.0874 -2.0075
 8850SOL     OW38185   4.233   1.979   3.582  0.4557 -0.2412  0.2016
 8850SOL    HW138186   4.287   1.905   3.610  2.8185  1.0386 -0.9561
 8850SOL    HW238187   4.187   1.999   3.663 -0.5945  0.6880 -0.6287
 8851SOL     OW38188   3.180   1.296   2.159 -0.2161 -0.5192  0.1486
 8851SOL    HW138189   3.203   1.208   2.188 -3.6314 -1.5533 -0.3122
 8851SOL    HW238190   3.213   1.297   2.068  0.5496 -1.3135  0.4186
 8852SOL     OW38191   2.572   3.342   6.214  0.0857  1.0082 -0.4864
 8852SOL    HW138192   2.661   3.311   6.232  0.0038  1.8510  1.3274
 8852SOL    HW238193   2.581   3.432   6.243 -0.3025  0.7813  0.3338
 8853SOL     OW38194   4.105   4.077   9.510  0.1815 -0.0009 -0.0582
 8853SOL    HW138195   4.015   4.080   9.541  0.6919 -0.0756  1.4801
 8853SOL    HW238196   4.110   4.157   9.457 -0.5511 -2.8295 -4.3333
 8854SOL     OW38197   1.998   3.410   5.682  0.5788 -0.3563  0.3068
 8854SOL    HW138198   1.929   3.346   5.703 -1.1234  0.7672 -1.8793
 8854SOL    HW238199   2.030   3.369   5.601 -0.7454 -1.4955  0.3650
 8855SOL     OW38200   1.706   3.800  17.282 -0.5440 -0.3580  0.7320
 8855SOL    HW138201   1.771   3.863  17.249 -0.4553 -0.5344  0.5745
 8855SOL    HW238202   1.630   3.858  17.291 -0.0399  0.5258 -0.7126
 8856SOL     OW38203   3.379   3.951  10.252 -0.1589  0.6108 -0.0107
 8856SOL    HW138204   3.361   4.043  10.236 -4.1501  0.0644  1.4422
 8856SOL    HW238205   3.354   3.915  10.166 -1.5843  1.6159 -0.0040
 8857SOL     OW38206   1.912   0.370  17.004  0.1618 -0.0466  0.1529
 8857SOL    HW138207   1.817   0.386  17.002 -0.2880 -2.5667  2.3602
 8857SOL    HW238208   1.917   0.275  17.010 -0.4200 -0.0755  0.2273
 8858SOL     OW38209   4.283   4.049   6.759  0.6908 -0.3245 -0.0894
 8858SOL    HW138210   4.205   4.093   6.794  1.1948  0.3968  0.1349
 8858SOL    HW238211   4.293   3.980   6.824 -2.0253  0.9923  1.7140
 8859SOL     OW38212   3.803   1.474   9.386  0.3568 -0.7909  0.3323
 8859SOL    HW138213   3.745   1.545   9.416 -0.2212 -0.8300 -0.7029
 8859SOL    HW238214   3.884   1.521   9.407 -0.5105  1.4582 -1.2710
 8860SOL     OW38215   2.278   4.612   3.935 -0.4749  0.6018  0.2935
 8860SOL    HW138216   2.313   4.571   4.014  0.6376  1.0867  0.0549
 8860SOL    HW238217   2.321   4.697   3.930 -0.3218  0.4423 -0.9622
 8861SOL     OW38218   2.711   1.327   2.260 -0.1461  0.2549 -0.2036
 8861SOL    HW138219   2.754   1.405   2.225 -2.3647  1.3903 -0.3861
 8861SOL    HW238220   2.779   1.263   2.239  1.0235  1.4493 -0.0360
 8862SOL     OW38221   3.793   3.607   7.944  0.5113  0.0438 -0.2805
 8862SOL    HW138222   3.863   3.545   7.923 -1.1264 -1.7613 -0.3804
 8862SOL    HW238223   3.813   3.615   8.037  0.0486 -1.2092 -0.0758
 8863SOL     OW38224   3.647   4.065   5.811 -0.1532  0.1552  0.0855
 8863SOL    HW138225   3.608   3.988   5.770  0.4475  0.3187 -0.7924
 8863SOL    HW238226   3.654   4.126   5.738 -1.7053  0.1260 -0.0893
 8864SOL     OW38227   3.227   3.124   8.115  0.5878 -0.0388 -0.0281
 8864SOL    HW138228   3.230   3.028   8.110 -2.0551 -0.2401  2.4230
 8864SOL    HW238229   3.143   3.152   8.078 -0.2395 -1.4624  0.7678
 8865SOL     OW38230   0.125   1.371   9.215 -0.2810  0.7626 -0.9647
 8865SOL    HW138231   0.104   1.463   9.198 -1.8062  0.3880 -1.0290
 8865SOL    HW238232   0.212   1.364   9.176 -0.4652 -1.3313 -1.0068
 8866SOL     OW38233   2.947   4.570  14.527  0.4717 -0.7447 -0.2450
 8866SOL    HW138234   2.872   4.513  14.543  1.1996 -1.4238  0.7130
 8866SOL    HW238235   3.012   4.505  14.497  0.0703 -1.0005 -0.5592
 8867SOL     OW38236   1.588   4.428   7.052  0.1217 -0.2964  0.2153
 8867SOL    HW138237   1.676   4.398   7.076  0.3982  1.1542  1.0198
 8867SOL    HW238238   1.552   4.389   7.132 -0.2698  2.3941  1.3442
 8868SOL     OW38239   0.199   3.979   1.942 -0.2857 -0.5698 -0.1366
 8868SOL    HW138240   0.198   4.061   1.893  1.5523  0.5962  1.7703
 8868SOL    HW238241   0.113   3.947   1.915 -0.8968  1.2665 -0.3593
 8869SOL     OW38242   4.400   3.666   7.132  0.8267  0.1252  0.2334
 8869SOL    HW138243   4.473   3.634   7.079  0.2198 -2.1508  0.7750
 8869SOL    HW238244   4.323   3.620   7.099 -0.9550  1.4645  2.4458
 8870SOL     OW38245   2.428   4.050   5.221 -0.0999  0.4010  0.5509
 8870SOL    HW138246   2.348   4.000   5.240  1.1096 -1.8687 -0.3704
 8870SOL    HW238247   2.451   4.101   5.299  1.3578 -0.9871  1.0045
 8871SOL     OW38248   2.952   2.064   4.958  0.6020 -0.4302 -0.6222
 8871SOL    HW138249   2.928   2.128   4.890  0.2477 -0.2616 -0.3362
 8871SOL    HW238250   3.032   2.018   4.930  0.3241 -1.4042  0.1958
 8872SOL     OW38251   1.336   0.108   4.236 -0.2720  0.0905  0.4943
 8872SOL    HW138252   1.417   0.067   4.266  0.1245  0.0891 -0.5668
 8872SOL    HW238253   1.355   0.127   4.144 -2.4056 -0.2094 -0.0120
 8873SOL     OW38254   0.265   3.255  14.742 -0.0566 -0.2845  0.3285
 8873SOL    HW138255   0.312   3.254  14.826  1.9431  0.9727 -0.7596
 8873SOL    HW238256   0.179   3.224  14.771 -0.7865  1.1894 -0.2703
 8874SOL     OW38257   0.863   3.651   4.900 -0.7345 -0.1526 -0.3410
 8874SOL    HW138258   0.807   3.575   4.883  0.8306 -1.4520  0.3500
 8874SOL    HW238259   0.793   3.711   4.927  0.1792 -0.2341  2.1023
 8875SOL     OW38260   1.088   3.245   8.202  0.1912  0.1305  0.8665
 8875SOL    HW138261   1.109   3.338   8.201 -1.1755  0.4286  0.8755
 8875SOL    HW238262   1.167   3.212   8.245  0.1263  0.2269  1.0575
 8876SOL     OW38263   3.598   2.252  12.847 -0.1586 -0.3499 -0.3615
 8876SOL    HW138264   3.591   2.169  12.801 -0.7759 -0.4482 -0.0880
 8876SOL    HW238265   3.631   2.216  12.929  2.6890 -1.4913 -2.0075
 8877SOL     OW38266   2.537   2.047   0.215 -0.3219  0.2894 -0.0430
 8877SOL    HW138267   2.483   2.126   0.218 -1.3432 -0.2318 -4.2979
 8877SOL    HW238268   2.511   2.018   0.302 -0.6049  1.4065  0.2480
 8878SOL     OW38269   2.205   1.998   8.471  0.4063  0.3803 -0.0669
 8878SOL    HW138270   2.253   2.073   8.434  0.8035  0.7792  1.2675
 8878SOL    HW238271   2.248   1.980   8.554 -1.0998  2.0140  1.0806
 8879SOL     OW38272   4.150   0.109   1.053  0.2828 -0.3957  0.0224
 8879SOL    HW138273   4.168   0.162   0.976  2.1574  2.4069  2.3623
 8879SOL    HW238274   4.168   0.165   1.129 -3.5481  0.0199  0.6650
 8880SOL     OW38275   4.609   2.796   3.814  0.5087  0.2873 -0.5936
 8880SOL    HW138276   4.562   2.730   3.763 -0.7503  0.8345 -0.1229
 8880SOL    HW238277   4.544   2.865   3.801  0.0473  0.1122  0.7922
 8881SOL     OW38278   0.344   3.153  13.812  0.5886 -0.5420 -0.0991
 8881SOL    HW138279   0.406   3.113  13.874 -0.0986 -0.7137  0.4746
 8881SOL    HW238280   0.404   3.207  13.761  1.4847  1.1036  2.6988
 8882SOL     OW38281   1.625   1.826   7.686 -0.0622 -0.1428  0.2469
 8882SOL    HW138282   1.657   1.739   7.711 -1.7734 -0.5416  1.1338
 8882SOL    HW238283   1.637   1.871   7.770 -0.4282 -1.9565  1.2785
 8883SOL     OW38284   3.443   4.162   1.780  1.1725 -0.7528  0.2433
 8883SOL    HW138285   3.453   4.071   1.751  1.1664 -0.5978 -0.2565
 8883SOL    HW238286   3.434   4.207   1.696 -2.4706 -4.2258 -1.1964
 8884SOL     OW38287   1.915   1.002   2.237  0.3154  0.2766 -0.1696
 8884SOL    HW138288   1.994   1.009   2.291 -0.2904 -0.4900  0.7922
 8884SOL    HW238289   1.934   0.938   2.168  0.0682 -0.0185  0.0389
 8885SOL     OW38290   4.233   4.172   4.171  0.0528 -0.0203  0.1341
 8885SOL    HW138291   4.217   4.161   4.077  0.4701 -0.4657  0.1192
 8885SOL    HW238292   4.277   4.257   4.174  0.4721 -0.2445  0.3058
 8886SOL     OW38293   0.738   1.390   2.982 -0.0666 -0.1968  0.4691
 8886SOL    HW138294   0.775   1.306   2.956  1.4139  0.3072  0.9013
 8886SOL    HW238295   0.758   1.398   3.075  0.1104 -0.7240  0.4746
 8887SOL     OW38296   2.438   0.095  13.364  0.3514  0.3856 -0.7684
 8887SOL    HW138297   2.363   0.043  13.338 -2.0181  2.1429  2.5317
 8887SOL    HW238298   2.481   0.032  13.422 -0.2804 -2.2873 -3.2370
 8888SOL     OW38299   3.613   1.960   7.403 -0.4132 -0.4610 -0.1527
 8888SOL    HW138300   3.678   1.897   7.435 -1.8077 -1.6332  0.3834
 8888SOL    HW238301   3.597   1.931   7.313  2.5954  0.6840 -1.0637
 8889SOL     OW38302   1.324   4.416   5.219 -0.7469 -0.1580  0.0003
 8889SOL    HW138303   1.255   4.432   5.283 -0.4102 -1.3474  0.6652
 8889SOL    HW238304   1.383   4.368   5.278 -1.7428  0.5715  1.5992
 8890SOL     OW38305   4.253   2.134  13.356 -0.2332  0.2489 -0.7612
 8890SOL    HW138306   4.345   2.132  13.328 -0.1063  0.3604 -0.3550
 8890SOL    HW238307   4.227   2.223  13.331  1.1456  1.0329  0.5135
 8891SOL     OW38308   1.456   3.483  15.725  0.3287  0.1981 -0.5938
 8891SOL    HW138309   1.425   3.546  15.661  0.0115  1.5282  0.8594
 8891SOL    HW238310   1.542   3.518  15.747 -1.0830  3.9463 -1.1142
 8892SOL     OW38311   4.488   1.002  12.626  0.2630  0.2627 -0.4152
 8892SOL    HW138312   4.540   0.943  12.681 -2.4868 -0.3356  1.5409
 8892SOL    HW238313   4.470   0.955  12.545  0.3060 -1.3889  0.5358
 8893SOL     OW38314   3.938   3.570   2.429  0.0605 -0.4316  0.0752
 8893SOL    HW138315   4.006   3.637   2.428  0.9494 -1.3647 -1.8469
 8893SOL    HW238316   3.857   3.611   2.460 -0.3541  0.5967 -2.3154
 8894SOL     OW38317   4.556   1.796   7.895  0.1365 -0.4988  0.1390
 8894SOL    HW138318   4.583   1.774   7.984  1.7051 -2.1924 -0.7657
 8894SOL    HW238319   4.642   1.820   7.859 -0.3612 -1.4766 -1.7115
 8895SOL     OW38320   1.561   1.982   8.266 -0.2319  0.3432  0.5857
 8895SOL    HW138321   1.604   2.038   8.202 -4.3179  1.2170 -1.3995
 8895SOL    HW238322   1.510   2.047   8.314 -0.7606 -0.8420  1.6400
 8896SOL     OW38323   3.048   3.828   9.031  0.2077  0.0749  0.1169
 8896SOL    HW138324   3.026   3.908   9.079 -0.5810  0.7272 -1.3282
 8896SOL    HW238325   2.982   3.839   8.962 -1.3080 -1.7753  1.2964
 8897SOL     OW38326   2.348   0.574   0.742 -0.1110 -0.4799  0.6117
 8897SOL    HW138327   2.352   0.541   0.832 -2.1284 -1.2706  0.4335
 8897SOL    HW238328   2.255   0.592   0.732  0.6392  1.4437 -2.5800
 8898SOL     OW38329   3.829   0.640   8.127  0.4826 -0.4484 -0.0353
 8898SOL    HW138330   3.809   0.602   8.041 -0.0938  0.0917 -0.1359
 8898SOL    HW238331   3.782   0.585   8.190  0.1390  1.5937  1.4615
 8899SOL     OW38332   0.972   4.010   7.648  0.4601 -0.2017 -0.3362
 8899SOL    HW138333   1.037   3.947   7.679  1.7440  0.8629 -0.8600
 8899SOL    HW238334   0.987   4.029   7.555 -3.7620 -0.3218 -1.0254
 8900SOL     OW38335   4.729   4.597  10.983 -0.4353 -0.2962 -0.2589
 8900SOL    HW138336   0.009   4.691  10.978 -0.1159 -0.1964  2.5368
 8900SOL    HW238337   4.636   4.583  10.964 -0.6868  1.7057 -0.4463
 8901SOL     OW38338   0.029   0.243  15.775 -0.1354 -0.2599 -0.0268
 8901SOL    HW138339   0.109   0.233  15.723 -0.6641 -3.2113 -0.3010
 8901SOL    HW238340   4.701   0.254  15.705  0.4878 -1.6126 -0.8203
 8902SOL     OW38341   0.534   1.018  16.978 -0.3790  0.3524  0.1118
 8902SOL    HW138342   0.521   0.940  16.924 -1.7134  0.0721  0.8537
 8902SOL    HW238343   0.502   0.992  17.064  1.3523  1.2790  1.0275
 8903SOL     OW38344   0.945   4.054  12.330  0.2734 -0.4706 -0.1915
 8903SOL    HW138345   0.885   4.092  12.266  1.1649  3.1518  1.1300
 8903SOL    HW238346   1.005   3.998  12.281  0.3459 -2.7643  2.4994
 8904SOL     OW38347   3.567   0.213  11.075  0.1418  0.2010  0.2914
 8904SOL    HW138348   3.576   0.249  11.164 -0.8681 -2.1823  1.3600
 8904SOL    HW238349   3.648   0.238  11.031  0.2268 -0.2793  0.1737
 8905SOL     OW38350   1.402   1.664   2.052 -0.1130 -0.3277 -0.3947
 8905SOL    HW138351   1.478   1.721   2.037 -0.2421 -0.1738 -0.4622
 8905SOL    HW238352   1.442   1.579   2.071  1.3091  0.2826 -0.6592
 8906SOL     OW38353   4.192   4.503   3.987  0.2708 -0.1051  0.2129
 8906SOL    HW138354   4.152   4.469   3.907 -0.3185  2.6961 -0.6785
 8906SOL    HW238355   4.114   4.517   4.041  1.7170 -1.6758  2.6978
 8907SOL     OW38356   2.552   3.049   1.663  0.0868  0.2956  0.3410
 8907SOL    HW138357   2.641   3.083   1.672  0.1333 -0.1072  1.4295
 8907SOL    HW238358   2.564   2.961   1.698 -0.8211  0.0850  0.1216
 8908SOL     OW38359   0.585   0.137  12.363  0.1586 -0.2172 -0.4329
 8908SOL    HW138360   0.582   0.212  12.304 -3.1411 -0.8595 -1.0783
 8908SOL    HW238361   0.512   0.159  12.421 -0.3441 -0.9799 -0.7801
 8909SOL     OW38362   3.830   2.592   6.126  0.1386  0.0052  0.1348
 8909SOL    HW138363   3.854   2.502   6.149  0.9007 -0.0083 -0.6958
 8909SOL    HW238364   3.887   2.641   6.186  2.0849 -0.9766 -0.8865
 8910SOL     OW38365   3.291   1.072  13.136 -0.6051  0.1133 -0.0246
 8910SOL    HW138366   3.362   1.036  13.083 -0.8387 -0.2090 -0.1160
 8910SOL    HW238367   3.265   0.997  13.189 -0.0432 -0.4273 -0.5190
 8911SOL     OW38368   0.064   3.922  13.638 -0.4789  0.1615  0.0772
 8911SOL    HW138369   0.152   3.958  13.636  0.2925 -1.6788  1.0319
 8911SOL    HW238370   0.085   3.829  13.644 -0.9187  0.0528 -0.1035
 8912SOL     OW38371   0.373   1.701   4.681 -0.2067 -0.0357  0.3842
 8912SOL    HW138372   0.295   1.750   4.655 -0.2788  0.8393  2.2612
 8912SOL    HW238373   0.390   1.635   4.614  1.3864  1.3468 -0.5705
 8913SOL     OW38374   1.123   1.281  17.622 -0.4574  0.5470  0.6839
 8913SOL    HW138375   1.090   1.277  17.712 -0.4698  0.2326  0.6671
 8913SOL    HW238376   1.204   1.234  17.639 -0.2439 -0.1357 -2.2088
 8914SOL     OW38377   0.392   4.175   0.789  0.1965 -0.3802 -0.2000
 8914SOL    HW138378   0.458   4.244   0.798 -0.7071  0.6496 -1.5591
 8914SOL    HW238379   0.387   4.152   0.882  0.2600  1.0670  0.1600
 8915SOL     OW38380   2.998   1.820   2.077  0.4184 -0.0567  0.1000
 8915SOL    HW138381   2.908   1.794   2.099 -0.1974 -0.0036 -2.3768
 8915SOL    HW238382   2.998   1.802   1.983 -3.1503  1.0276 -0.1145
 8916SOL     OW38383   4.625   0.960  16.826 -0.1687  0.4315 -0.6769
 8916SOL    HW138384   4.603   1.052  16.842 -1.0011  0.2347 -0.6588
 8916SOL    HW238385   4.710   0.968  16.783 -0.0630 -1.1023 -0.7739
 8917SOL     OW38386   3.477   1.153   0.994  0.3932 -0.3582 -1.0058
 8917SOL    HW138387   3.391   1.142   1.036  1.3637  0.5864  1.1859
 8917SOL    HW238388   3.482   1.077   0.935  0.1425 -0.9689 -0.2366
 8918SOL     OW38389   3.836   4.451   7.083  0.2875 -0.1446  0.1892
 8918SOL    HW138390   3.929   4.458   7.105  0.4085 -3.3863  0.6964
 8918SOL    HW238391   3.810   4.392   7.153 -1.1732  0.8489  0.4720
 8919SOL     OW38392   3.673   0.718   5.875 -0.0863 -0.2863  0.3839
 8919SOL    HW138393   3.768   0.709   5.876  0.1305  1.6992 -1.4135
 8919SOL    HW238394   3.646   0.633   5.911 -0.9362  0.3016  1.1347
 8920SOL     OW38395   2.513   4.479  15.334 -0.3087 -0.1265 -0.3053
 8920SOL    HW138396   2.466   4.446  15.410  1.0116 -0.0690  0.5323
 8920SOL    HW238397   2.477   4.565  15.312  1.0950  0.4943 -0.1595
 8921SOL     OW38398   0.447   4.386   7.371  0.3662 -0.1353  0.5372
 8921SOL    HW138399   0.461   4.293   7.356  0.3616  0.2990 -2.1212
 8921SOL    HW238400   0.432   4.399   7.465 -1.7108 -0.3808  0.2371
 8922SOL     OW38401   2.175   4.182   0.920 -0.9288 -0.9240  0.2581
 8922SOL    HW138402   2.122   4.121   0.869  0.3205 -1.5288 -0.3207
 8922SOL    HW238403   2.170   4.267   0.877  1.7644 -0.0035  1.7417
 8923SOL     OW38404   0.657   4.208   5.720 -0.2630 -0.1575  0.3441
 8923SOL    HW138405   0.614   4.131   5.682 -0.7197  0.3462 -0.1673
 8923SOL    HW238406   0.600   4.277   5.686  0.7647  1.3143  1.6039
 8924SOL     OW38407   4.440   0.418   2.290 -0.5166  0.1084  0.0486
 8924SOL    HW138408   4.350   0.388   2.301 -0.8528  0.4497 -1.7314
 8924SOL    HW238409   4.447   0.427   2.195 -0.4551 -1.7958 -0.1404
 8925SOL     OW38410   3.728   0.251   9.326 -0.1438 -0.0426 -0.1901
 8925SOL    HW138411   3.791   0.252   9.398 -1.0653  0.6567  0.6088
 8925SOL    HW238412   3.773   0.236   9.243 -1.7387  0.8308 -1.1966
 8926SOL     OW38413   2.439   3.545  11.889  0.3095  0.2783  0.6121
 8926SOL    HW138414   2.435   3.601  11.967  0.3800  1.1988 -0.0415
 8926SOL    HW238415   2.352   3.508  11.877  1.0993 -1.4818  0.4177
 8927SOL     OW38416   1.974   1.690   1.691 -0.5977 -0.2112  0.1657
 8927SOL    HW138417   2.044   1.709   1.754 -0.1517 -2.2813  0.2983
 8927SOL    HW238418   2.026   1.709   1.613  0.5651  0.3632  1.0787
 8928SOL     OW38419   1.466   2.963   4.700 -0.0945 -0.2469 -0.7714
 8928SOL    HW138420   1.390   3.017   4.681 -0.2486 -0.4318 -0.6797
 8928SOL    HW238421   1.457   2.904   4.624 -1.0920  0.0296 -0.8682
 8929SOL     OW38422   4.695   2.693   9.848 -0.1693  0.2696 -0.1385
 8929SOL    HW138423   4.608   2.654   9.858 -0.2959  0.9287  1.3462
 8929SOL    HW238424   4.699   2.729   9.760 -0.8742 -0.6590 -0.5420
 8930SOL     OW38425   0.067   2.819   7.468 -0.1141  0.8780  0.2668
 8930SOL    HW138426   0.162   2.827   7.478 -0.1432  0.1977  1.0977
 8930SOL    HW238427   0.055   2.725   7.484  0.0130  0.6351 -1.0966
 8931SOL     OW38428   2.064   2.445   5.769 -0.2732 -0.1071  0.2257
 8931SOL    HW138429   2.070   2.451   5.674  1.0723  0.0280  0.3109
 8931SOL    HW238430   2.018   2.524   5.799  0.6308  0.3467  0.4195
 8932SOL     OW38431   1.279   2.213   6.913  0.0802  0.2077  0.4102
 8932SOL    HW138432   1.273   2.174   6.826  3.0359  1.4032 -0.3257
 8932SOL    HW238433   1.349   2.159   6.950 -0.1078 -1.3283 -1.4598
 8933SOL     OW38434   3.755   3.976  11.759  0.4073 -0.5712  0.0554
 8933SOL    HW138435   3.701   4.055  11.755  1.7255  0.3485  0.1902
 8933SOL    HW238436   3.773   3.974  11.852  1.0685  0.8797 -0.0302
 8934SOL     OW38437   1.731   0.048   7.047 -0.3061 -0.2413 -0.4794
 8934SOL    HW138438   1.759   4.711   6.990  1.5167 -1.7575  2.3480
 8934SOL    HW238439   1.784   0.032   7.125 -1.7687  0.2551  0.6262
 8935SOL     OW38440   4.530   0.500   8.541 -0.0322 -0.0249  0.4834
 8935SOL    HW138441   4.624   0.493   8.561 -0.4791 -3.7076  1.2713
 8935SOL    HW238442   4.509   0.593   8.551  1.0080  0.4344 -1.5127
 8936SOL     OW38443   1.318   4.517   0.175  0.2963  0.1296  0.4380
 8936SOL    HW138444   1.271   4.449   0.224  0.3232 -2.0890 -2.6189
 8936SOL    HW238445   1.242   4.561   0.137  0.1895 -0.3671  0.0729
 8937SOL     OW38446   1.386   2.435  13.732  0.1340 -0.2651 -0.0120
 8937SOL    HW138447   1.307   2.385  13.753  0.4715 -0.6278  0.4091
 8937SOL    HW238448   1.384   2.511  13.790 -0.2513 -0.3679  0.1093
 8938SOL     OW38449   1.207   1.659   7.619  0.3512 -0.2613  0.0203
 8938SOL    HW138450   1.276   1.634   7.681  0.9024 -1.3980 -1.0433
 8938SOL    HW238451   1.251   1.694   7.541 -0.4503  0.7752  0.0328
 8939SOL     OW38452   1.473   4.188   1.002 -0.1089 -0.3218 -0.1618
 8939SOL    HW138453   1.459   4.250   0.931  1.9368 -1.1886 -1.3385
 8939SOL    HW238454   1.507   4.249   1.067  2.2994 -0.6924 -1.0528
 8940SOL     OW38455   3.567   4.531   0.870 -0.0205  0.3460  0.1518
 8940SOL    HW138456   3.583   4.609   0.925 -3.3833 -0.6540  2.5504
 8940SOL    HW238457   3.481   4.517   0.909  0.5892 -2.0507  0.6497
 8941SOL     OW38458   0.933   0.771   5.201  0.3049  0.0488  0.1782
 8941SOL    HW138459   0.871   0.773   5.274 -1.1926 -3.3412 -1.0270
 8941SOL    HW238460   0.992   0.697   5.215  0.3026  0.3723  1.8795
 8942SOL     OW38461   0.427   3.235   6.912 -0.2192 -0.3798 -0.5836
 8942SOL    HW138462   0.481   3.162   6.942 -0.4499 -0.6850 -0.8990
 8942SOL    HW238463   0.348   3.216   6.962  0.1412 -0.4281 -0.0293
 8943SOL     OW38464   4.512   2.917   2.911  0.5162  0.8168  0.4215
 8943SOL    HW138465   4.473   2.833   2.935 -1.4643  1.3800 -0.8151
 8943SOL    HW238466   4.449   2.985   2.937 -0.9548  0.7711 -3.0604
 8944SOL     OW38467   4.541   3.507   9.104 -0.0177  0.6531 -0.0191
 8944SOL    HW138468   4.470   3.476   9.160 -0.4319 -0.3448 -1.0967
 8944SOL    HW238469   4.486   3.559   9.045  1.5906  1.5446 -0.7626
 8945SOL     OW38470   4.635   1.410   3.795  0.1169 -0.2916 -0.3164
 8945SOL    HW138471   4.540   1.397   3.803  0.4079 -0.8376  2.2053
 8945SOL    HW238472   4.641   1.479   3.728  1.9462 -0.5671 -0.4332
 8946SOL     OW38473   0.311   3.693   4.557  0.1023 -0.1779 -0.4098
 8946SOL    HW138474   0.395   3.662   4.591  0.6118  0.6317 -0.9354
 8946SOL    HW238475   0.289   3.773   4.606  1.1793 -0.8995  1.2588
 8947SOL     OW38476   3.976   2.910   9.949 -0.1646 -0.2211  0.0154
 8947SOL    HW138477   3.916   2.951   9.888  1.9680  2.4308 -0.2910
 8947SOL    HW238478   4.014   2.843   9.893 -0.1797 -0.0475 -0.1991
 8948SOL     OW38479   4.254   3.296   1.110 -0.4099  0.5651  0.7084
 8948SOL    HW138480   4.216   3.231   1.169  1.0056 -0.9153 -0.0295
 8948SOL    HW238481   4.276   3.248   1.031 -2.0120 -0.0838  0.6635
 8949SOL     OW38482   2.653   4.433   0.293  0.0087  0.7486  0.2163
 8949SOL    HW138483   2.572   4.437   0.342  0.1464 -1.9508  0.6929
 8949SOL    HW238484   2.699   4.362   0.339  1.3491  0.0739 -2.1493
 8950SOL     OW38485   1.541   2.734   1.908  0.3963  0.1537 -0.9287
 8950SOL    HW138486   1.462   2.785   1.923  0.8675  0.7800 -0.5471
 8950SOL    HW238487   1.542   2.691   1.994  0.3859  0.5054 -0.7500
 8951SOL     OW38488   2.267   1.257   6.550 -0.3665  0.0294 -0.3359
 8951SOL    HW138489   2.226   1.335   6.589 -1.9714 -0.8397 -0.2859
 8951SOL    HW238490   2.209   1.250   6.474  3.1061 -1.5217 -2.8286
 8952SOL     OW38491   4.055   3.917   5.920 -0.2035 -0.3867  0.4392
 8952SOL    HW138492   3.983   3.975   5.945 -0.1303 -1.8677  4.0652
 8952SOL    HW238493   4.012   3.870   5.849  0.0185  2.0419 -1.3033
 8953SOL     OW38494   0.324   1.584   6.675 -0.8700  0.0461 -0.1037
 8953SOL    HW138495   0.381   1.637   6.619 -0.5109  1.1344  1.2968
 8953SOL    HW238496   0.362   1.595   6.762  1.7409  1.5884 -1.4607
 8954SOL     OW38497   1.785   0.189  11.024 -0.0635  0.6155 -0.0030
 8954SOL    HW138498   1.761   0.221  11.111  0.9595 -1.6397  1.1145
 8954SOL    HW238499   1.783   0.272  10.977  1.2789  1.3806  1.2638
 8955SOL     OW38500   4.011   0.910   9.511  0.4483 -0.5507 -0.2162
 8955SOL    HW138501   3.986   0.825   9.474 -1.6022 -0.3066  0.6012
 8955SOL    HW238502   4.010   0.957   9.428  0.9962  0.5334  0.3840
 8956SOL     OW38503   3.771   1.919  11.794 -0.0797 -0.2417  0.1271
 8956SOL    HW138504   3.716   1.981  11.745 -0.9051 -2.6702 -2.0334
 8956SOL    HW238505   3.703   1.868  11.838  0.0139 -1.5368 -1.2248
 8957SOL     OW38506   1.394   1.894  12.877 -0.0170  0.3566 -0.7244
 8957SOL    HW138507   1.331   1.946  12.927  1.1032  0.1162  0.9555
 8957SOL    HW238508   1.409   1.956  12.806 -2.6497  0.3777 -1.2460
 8958SOL     OW38509   3.212   2.812   4.688  0.5082 -0.0048  0.6345
 8958SOL    HW138510   3.129   2.860   4.681  1.1345  0.8667 -0.7831
 8958SOL    HW238511   3.191   2.729   4.647  0.7357  1.7358 -3.0181
 8959SOL     OW38512   1.183   4.450   0.552  0.7324 -0.4121 -0.4710
 8959SOL    HW138513   1.109   4.512   0.550  1.1089  0.0928  1.0762
 8959SOL    HW238514   1.250   4.504   0.594  0.3996 -3.0215  3.4194
 8960SOL     OW38515   2.787   2.291   3.893 -0.0311  0.0973 -0.4398
 8960SOL    HW138516   2.779   2.338   3.976  0.8201 -0.4302 -0.0574
 8960SOL    HW238517   2.745   2.348   3.828 -0.3385  2.0898  1.4957
 8961SOL     OW38518   3.879   3.145  15.752  0.4839 -0.2118 -0.3468
 8961SOL    HW138519   3.959   3.157  15.700  0.8546 -0.8456  0.0673
 8961SOL    HW238520   3.901   3.055  15.775  0.2781 -0.4657 -1.1468
 8962SOL     OW38521   4.289   3.807   3.985  0.2543  0.2089 -0.5812
 8962SOL    HW138522   4.289   3.803   4.081 -0.2303  0.0232 -0.5915
 8962SOL    HW238523   4.232   3.880   3.962  0.5720  0.0908 -1.7320
 8963SOL     OW38524   1.282   0.858   7.756  0.1149 -0.1669  0.8467
 8963SOL    HW138525   1.227   0.805   7.813  0.5197 -1.6499 -0.1303
 8963SOL    HW238526   1.370   0.849   7.794  0.4596  1.4945  0.4587
 8964SOL     OW38527   3.143   0.113  15.542 -0.2260 -0.0975  0.3295
 8964SOL    HW138528   3.117   0.071  15.624  1.6763  0.9724  1.4892
 8964SOL    HW238529   3.074   0.179  15.546 -2.3009 -2.1959 -0.5406
 8965SOL     OW38530   3.424   0.409   1.415  0.4322 -0.2294 -1.0393
 8965SOL    HW138531   3.356   0.375   1.473  1.6266  2.9595  2.1836
 8965SOL    HW238532   3.458   0.483   1.464  1.8865 -1.3870 -0.3064
 8966SOL     OW38533   2.627   0.079   8.512  0.0282 -0.3618 -0.3417
 8966SOL    HW138534   2.688   0.020   8.555  0.6646  1.6183  1.4710
 8966SOL    HW238535   2.548   0.069   8.565  0.2008 -0.4019 -0.0935
 8967SOL     OW38536   3.939   3.574   5.962 -0.3356  0.1325 -0.0219
 8967SOL    HW138537   3.940   3.529   5.878 -1.2989 -0.2700  0.1807
 8967SOL    HW238538   3.964   3.660   5.928 -0.6580 -0.1216 -0.9085
 8968SOL     OW38539   1.685   2.224   7.867  0.7027 -0.0059  0.1092
 8968SOL    HW138540   1.637   2.289   7.918  0.6645  0.6568 -0.7735
 8968SOL    HW238541   1.688   2.257   7.777  1.3650 -0.8771 -0.1913
 8969SOL     OW38542   4.092   1.519   5.876  0.5158 -0.1485 -0.2838
 8969SOL    HW138543   4.137   1.460   5.815 -1.3165 -0.7949 -1.0077
 8969SOL    HW238544   4.061   1.462   5.946 -0.8890 -0.1783 -0.9182
 8970SOL     OW38545   0.251   0.499  16.044 -0.0563 -0.5356  0.5599
 8970SOL    HW138546   0.255   0.573  15.983 -0.9755  0.4228  1.6623
 8970SOL    HW238547   0.160   0.489  16.072 -0.1425 -0.7709  0.2075
 8971SOL     OW38548   1.149   0.018   5.799 -0.2888 -0.1574  0.2427
 8971SOL    HW138549   1.147   4.665   5.835 -1.4102 -0.3208 -0.2316
 8971SOL    HW238550   1.067   0.046   5.840 -0.2949 -1.5783  1.1958
 8972SOL     OW38551   1.015   2.094   4.047 -0.2564  0.2838 -0.2999
 8972SOL    HW138552   1.004   2.000   4.063  0.0103  0.6146  1.7858
 8972SOL    HW238553   1.098   2.083   4.000 -0.7832  2.0987 -1.6293
 8973SOL     OW38554   3.927   2.428   2.590  0.0957  0.2835  0.3574
 8973SOL    HW138555   3.942   2.380   2.671 -0.4275  0.5570  0.6195
 8973SOL    HW238556   3.963   2.516   2.601  4.1927 -1.1163 -2.0554
 8974SOL     OW38557   2.668   2.420  10.432  0.3184  0.8857 -0.2766
 8974SOL    HW138558   2.633   2.340  10.470  0.6589 -0.2432 -2.3940
 8974SOL    HW238559   2.718   2.464  10.501  1.9088 -0.1080 -0.7994
 8975SOL     OW38560   0.180   1.470  11.361 -1.1538  0.1204 -0.2188
 8975SOL    HW138561   0.193   1.375  11.362 -0.9848  0.1356 -0.7887
 8975SOL    HW238562   0.129   1.484  11.441 -1.0918 -1.0776  0.0271
 8976SOL     OW38563   2.847   4.549   5.948  0.1338  0.0799  0.4334
 8976SOL    HW138564   2.840   4.490   6.023 -1.6081 -0.2105  0.0501
 8976SOL    HW238565   2.779   4.610   5.976  0.5559 -0.3005  2.2750
 8977SOL     OW38566   3.648   0.336   5.105  0.3447 -0.2944 -0.5127
 8977SOL    HW138567   3.738   0.356   5.080  0.3989 -1.2181 -1.0500
 8977SOL    HW238568   3.625   0.268   5.042 -0.9469 -0.1674 -0.1786
 8978SOL     OW38569   4.205   1.939  10.579 -0.0075 -0.7251 -0.5208
 8978SOL    HW138570   4.211   1.848  10.609 -0.9926 -0.0336  1.8042
 8978SOL    HW238571   4.111   1.945  10.567 -0.2900  0.0074  2.0190
 8979SOL     OW38572   1.250   4.223   9.724 -0.7755  0.0728 -0.2211
 8979SOL    HW138573   1.298   4.141   9.734  1.2713  1.2766 -0.0550
 8979SOL    HW238574   1.174   4.192   9.773 -0.1751 -1.1060 -0.0487
 8980SOL     OW38575   2.816   4.396  10.775 -0.4467 -0.7516 -0.2164
 8980SOL    HW138576   2.885   4.458  10.753  0.2124 -1.4665 -0.1782
 8980SOL    HW238577   2.791   4.407  10.867  0.0935 -2.5513  0.1546
 8981SOL     OW38578   4.651   1.150  15.549  0.1751  0.3678  0.3038
 8981SOL    HW138579   4.649   1.142  15.454  1.1813  0.3216  0.2886
 8981SOL    HW238580   4.571   1.201  15.565  0.7154  1.0039  1.0023
 8982SOL     OW38581   3.423   3.670   8.685 -0.2697  0.4818  0.3936
 8982SOL    HW138582   3.505   3.706   8.719 -0.1532 -1.2719  1.9918
 8982SOL    HW238583   3.361   3.694   8.753  0.5165  0.2617  1.1911
 8983SOL     OW38584   1.211   4.269  17.169  0.3759 -0.7132 -0.0743
 8983SOL    HW138585   1.225   4.271  17.075  1.6969 -0.0821  0.1283
 8983SOL    HW238586   1.118   4.263  17.187  0.5916  0.7514  1.5388
 8984SOL     OW38587   2.754   3.307   1.936 -0.2957 -0.0589 -0.3824
 8984SOL    HW138588   2.838   3.353   1.940 -0.1771 -0.5026  2.2713
 8984SOL    HW238589   2.736   3.296   1.843  0.6857 -1.4991 -0.4110
 8985SOL     OW38590   2.584   4.409   6.235 -0.4707 -0.1597  0.2002
 8985SOL    HW138591   2.573   4.503   6.220 -0.3175  0.0082  1.1663
 8985SOL    HW238592   2.678   4.413   6.252 -0.3202 -0.5019 -0.5517
 8986SOL     OW38593   3.051   1.937  16.402 -0.4042 -0.6852 -0.0147
 8986SOL    HW138594   3.144   1.953  16.422 -0.5461 -2.0780  1.6907
 8986SOL    HW238595   3.012   1.917  16.487  0.6398  0.1579  0.6642
 8987SOL     OW38596   0.091   3.500  16.374 -0.1111 -0.0949  0.3727
 8987SOL    HW138597   0.162   3.565  16.380 -1.1700  1.0848  0.1148
 8987SOL    HW238598   0.070   3.490  16.467  3.2352 -2.8480  0.8237
 8988SOL     OW38599   2.183   3.225   6.365  0.2931  0.2987  0.5236
 8988SOL    HW138600   2.092   3.224   6.336 -0.0820 -0.4463  1.7360
 8988SOL    HW238601   2.158   3.267   6.447  0.6704  3.0474 -0.7792
 8989SOL     OW38602   0.275   1.347   3.365 -0.0012  0.2855 -0.2521
 8989SOL    HW138603   0.341   1.394   3.313  2.0585 -1.5567  0.7097
 8989SOL    HW238604   0.327   1.289   3.420  0.0413  1.5281  1.0141
 8990SOL     OW38605   1.302   3.604  14.447 -0.0299 -0.1507 -0.8438
 8990SOL    HW138606   1.245   3.586  14.373  0.3247  0.3971 -1.2471
 8990SOL    HW238607   1.234   3.588  14.513 -1.0773  2.4090 -1.3059
 8991SOL     OW38608   4.639   1.830   9.080 -0.1177  0.0356 -0.0583
 8991SOL    HW138609   4.728   1.860   9.098  0.5395 -1.3097 -1.1317
 8991SOL    HW238610   4.593   1.905   9.041  0.7076 -0.3807 -1.8420
 8992SOL     OW38611   3.419   1.231  12.253 -0.0791 -0.5605 -0.5856
 8992SOL    HW138612   3.330   1.254  12.228 -0.2625  0.4328  0.9911
 8992SOL    HW238613   3.417   1.144  12.292  0.1140  0.1640  1.0552
 8993SOL     OW38614   2.809   0.477   2.788  0.7423  0.2862  0.4767
 8993SOL    HW138615   2.864   0.416   2.838 -0.7572 -1.8638 -0.4943
 8993SOL    HW238616   2.869   0.543   2.754 -1.1054  2.3996  1.3165
 8994SOL     OW38617   2.318   1.820  14.091 -0.0221  0.3917  0.1005
 8994SOL    HW138618   2.302   1.849  14.181  0.4319  1.2067 -0.0821
 8994SOL    HW238619   2.257   1.869  14.037 -0.2356 -0.2967 -0.2808
 8995SOL     OW38620   0.020   0.577   3.152  0.4379  0.4673  0.3700
 8995SOL    HW138621   0.016   0.566   3.057 -2.2262 -3.8335  0.9916
 8995SOL    HW238622   0.096   0.523   3.173  0.5940  1.4214  2.3281
 8996SOL     OW38623   4.491   0.804   2.244 -0.0912 -0.2072 -0.3673
 8996SOL    HW138624   4.487   0.746   2.167 -0.1524 -1.2479  0.4196
 8996SOL    HW238625   4.585   0.793   2.255  0.0715  1.4385 -0.1313
 8997SOL     OW38626   2.230   2.000   5.580 -0.4205 -0.0977  0.4608
 8997SOL    HW138627   2.151   1.947   5.591 -0.0710 -0.8144 -0.4324
 8997SOL    HW238628   2.190   2.087   5.581  0.6361  0.4257 -0.9129
 8998SOL     OW38629   3.212   0.756   1.864  0.2634 -0.2765 -0.3121
 8998SOL    HW138630   3.214   0.682   1.925  0.6679  0.4721  0.5872
 8998SOL    HW238631   3.297   0.740   1.824  1.3221 -0.2550  1.9084
 8999SOL     OW38632   3.018   3.594   5.449 -0.1670 -0.0590  0.6482
 8999SOL    HW138633   3.093   3.535   5.441 -0.0771  0.3689 -1.7526
 8999SOL    HW238634   2.953   3.533   5.483 -0.9105 -0.0478 -0.7541
 9000SOL     OW38635   3.420   3.763   2.203  0.1238 -0.0386 -0.3956
 9000SOL    HW138636   3.329   3.769   2.233  0.2852  0.1898  0.0516
 9000SOL    HW238637   3.412   3.747   2.109  0.0879  0.0086 -0.4006
 9001SOL     OW38638   4.717   0.187   6.357  0.4300 -0.3402  0.0698
 9001SOL    HW138639   4.731   0.260   6.417  1.9957  0.6372 -1.4689
 9001SOL    HW238640   4.675   0.123   6.414  1.5833 -0.3457  0.9151
 9002SOL     OW38641   2.862   0.648   3.597 -0.0532  0.0794  0.3549
 9002SOL    HW138642   2.869   0.638   3.502 -0.5292 -1.2776  0.4673
 9002SOL    HW238643   2.945   0.693   3.611  0.9331 -1.0585 -1.8664
 9003SOL     OW38644   1.732   1.048   6.225  0.9258 -0.3303 -0.5822
 9003SOL    HW138645   1.740   1.006   6.310  0.7237 -1.0096 -0.8965
 9003SOL    HW238646   1.684   1.128   6.246 -1.2142 -1.9679  0.6434
 9004SOL     OW38647   1.082   0.345   8.473  0.0282 -0.6166 -0.5269
 9004SOL    HW138648   1.055   0.414   8.413 -1.6373 -1.4076 -0.6882
 9004SOL    HW238649   0.994   0.319   8.501  0.1113  0.0533  0.3842
 9005SOL     OW38650   2.949   1.779   8.078  0.6020 -0.3386  0.3471
 9005SOL    HW138651   2.969   1.750   7.989  0.1716  1.3265 -0.2955
 9005SOL    HW238652   2.959   1.696   8.125  1.7966  0.3599  1.3343
 9006SOL     OW38653   1.081   2.099   9.974 -0.0404 -0.4609 -0.2164
 9006SOL    HW138654   1.146   2.073   9.909  0.3422 -0.6977  0.2700
 9006SOL    HW238655   1.117   2.179  10.011  1.2594 -1.2744  0.2904
 9007SOL     OW38656   2.260   3.104   3.394 -0.0603 -0.4324 -0.7451
 9007SOL    HW138657   2.168   3.123   3.413 -0.2342 -0.9677 -1.0758
 9007SOL    HW238658   2.258   3.139   3.305  1.6808 -1.0890 -1.0266
 9008SOL     OW38659   2.414   1.747   8.461 -0.2102  0.1061 -0.6883
 9008SOL    HW138660   2.450   1.835   8.449 -2.8513  1.1126 -1.1441
 9008SOL    HW238661   2.340   1.747   8.400 -0.7018  1.5585 -0.0856
 9009SOL     OW38662   2.904   2.419  13.845  0.6308  0.0511 -0.4607
 9009SOL    HW138663   2.840   2.408  13.915  0.7720  0.6353 -0.2438
 9009SOL    HW238664   2.938   2.330  13.837 -2.1708 -1.0001 -0.7022
 9010SOL     OW38665   0.327   1.189   7.916 -0.1596 -0.2983 -0.5857
 9010SOL    HW138666   0.238   1.223   7.912  0.0110  0.3872  1.6453
 9010SOL    HW238667   0.312   1.098   7.889 -1.9948 -0.2703  0.3272
 9011SOL     OW38668   4.512   1.149   6.052 -0.2976  0.8081  0.3216
 9011SOL    HW138669   4.531   1.234   6.090 -1.4327  0.9572  0.5642
 9011SOL    HW238670   4.501   1.085   6.123  3.8042  0.4495  0.6223
 9012SOL     OW38671   0.774   2.132   5.215 -0.0150 -0.3656  0.5344
 9012SOL    HW138672   0.860   2.103   5.185 -0.0930  0.4949 -0.5328
 9012SOL    HW238673   0.719   2.115   5.138  0.0663 -1.7297  0.7882
 9013SOL     OW38674   2.241   1.848   5.266 -0.6815  0.4014 -0.0235
 9013SOL    HW138675   2.218   1.761   5.234  1.1937 -0.3487  0.6838
 9013SOL    HW238676   2.301   1.824   5.336  0.1434 -1.1472 -1.2748
 9014SOL     OW38677   3.379   1.737   2.535  0.3795  0.3162  0.2887
 9014SOL    HW138678   3.357   1.828   2.517 -1.9379 -0.0398  1.2959
 9014SOL    HW238679   3.437   1.716   2.461  0.7956 -3.0991  1.5698
 9015SOL     OW38680   2.168   4.319   6.115 -0.2143  0.3151 -0.0323
 9015SOL    HW138681   2.127   4.274   6.042  2.8330 -1.1938 -0.8192
 9015SOL    HW238682   2.246   4.264   6.119 -1.1684 -1.1184 -1.0111
 9016SOL     OW38683   2.110   4.605   3.186  0.4769 -0.6677 -0.3167
 9016SOL    HW138684   2.043   4.657   3.141  1.2807 -1.0365 -1.9091
 9016SOL    HW238685   2.083   4.627   3.276  0.5903  1.1385 -0.7199
 9017SOL     OW38686   2.563   2.736   8.245 -0.7193  0.0877 -0.1467
 9017SOL    HW138687   2.541   2.680   8.170  0.0182 -3.1831  2.0462
 9017SOL    HW238688   2.482   2.738   8.297  0.7281  0.0979  2.1302
 9018SOL     OW38689   4.233   4.191  12.913 -0.8277 -0.0052 -0.1656
 9018SOL    HW138690   4.250   4.250  12.986 -0.9379 -0.5048  0.2630
 9018SOL    HW238691   4.241   4.249  12.837 -1.4537  0.0450 -0.1941
 9019SOL     OW38692   2.828   0.941   1.783  0.3045  0.1221  0.0662
 9019SOL    HW138693   2.826   0.967   1.691 -3.0627  3.0662  0.9688
 9019SOL    HW238694   2.767   1.005   1.820  0.2473 -0.5945  1.2035
 9020SOL     OW38695   2.925   4.043   3.094 -0.3891  0.1106 -0.0109
 9020SOL    HW138696   2.981   3.971   3.122 -0.3590 -0.5986 -1.9618
 9020SOL    HW238697   2.844   3.995   3.082 -0.1341  0.0296 -1.3740
 9021SOL     OW38698   1.161   0.056   7.766  0.3379  0.8656  0.3150
 9021SOL    HW138699   1.109   4.716   7.792 -1.5719  1.4776 -1.7318
 9021SOL    HW238700   1.138   0.054   7.673 -0.4503 -1.7239  0.5582
 9022SOL     OW38701   3.726   4.695   3.557 -0.0229 -0.3025 -0.0603
 9022SOL    HW138702   3.812   4.715   3.595  1.1162 -1.1431 -2.2480
 9022SOL    HW238703   3.717   4.600   3.571 -2.0183 -0.1881 -0.6385
 9023SOL     OW38704   2.562   2.729   2.272  0.5386  0.4853 -0.1257
 9023SOL    HW138705   2.500   2.744   2.201 -1.7427  1.2747  2.0181
 9023SOL    HW238706   2.571   2.634   2.280 -0.2055  0.4996  0.8638
 9024SOL     OW38707   0.216   1.619   7.854 -0.2859 -0.2440 -0.1141
 9024SOL    HW138708   0.162   1.695   7.874  0.8451  0.8022 -1.0140
 9024SOL    HW238709   0.220   1.562   7.930 -1.4209  1.1486  0.9779
 9025SOL     OW38710   1.137   2.976   7.250 -0.3985  0.3433  1.3152
 9025SOL    HW138711   1.144   2.937   7.337 -1.1259 -0.8847  0.8210
 9025SOL    HW238712   1.177   2.905   7.201 -0.1992  2.3962 -1.4946
 9026SOL     OW38713   4.353   0.979   4.957  0.8450  0.0177 -0.0438
 9026SOL    HW138714   4.406   0.906   4.988  0.7110 -1.2414 -2.7837
 9026SOL    HW238715   4.359   1.038   5.033 -2.4704  2.0382 -1.3481
 9027SOL     OW38716   0.795   0.478   4.201 -0.4494 -0.0104 -0.4106
 9027SOL    HW138717   0.867   0.439   4.250 -2.1079  0.2184  2.2547
 9027SOL    HW238718   0.769   0.405   4.145  2.0053  0.8700 -2.6954
 9028SOL     OW38719   3.667   0.873   7.219 -0.0252  0.2092 -0.0372
 9028SOL    HW138720   3.738   0.891   7.281 -1.3040  0.8770  1.2414
 9028SOL    HW238721   3.624   0.958   7.223 -1.2966 -0.4002 -0.8538
 9029SOL     OW38722   2.643   2.171   7.197  0.1235  0.5319 -0.1595
 9029SOL    HW138723   2.707   2.214   7.254  3.4108 -1.7978 -2.0755
 9029SOL    HW238724   2.605   2.254   7.167 -0.5816  1.1217  2.3799
 9030SOL     OW38725   4.522   0.972   1.955  0.4177 -0.5531  0.6091
 9030SOL    HW138726   4.544   1.023   1.877 -2.2254 -1.2950 -0.6042
 9030SOL    HW238727   4.537   0.882   1.926  0.7149  0.1886 -1.5432
 9031SOL     OW38728   3.426   3.077   3.210 -0.3827  0.5368  0.2262
 9031SOL    HW138729   3.510   3.047   3.174 -1.0762 -0.2216 -0.7797
 9031SOL    HW238730   3.376   3.000   3.235  0.5662  0.3796  1.6245
 9032SOL     OW38731   1.126   1.349   6.713 -0.0547 -0.2210 -0.1574
 9032SOL    HW138732   1.032   1.347   6.729 -0.1568  1.1698 -0.5302
 9032SOL    HW238733   1.129   1.393   6.628  0.6320  0.6588  0.3255
 9033SOL     OW38734   0.124   0.284  15.032  0.6890 -0.4353 -0.2601
 9033SOL    HW138735   0.213   0.265  15.060  0.2222 -2.4723 -0.1993
 9033SOL    HW238736   0.080   0.229  15.096 -0.3492  1.6160  0.8187
 9034SOL     OW38737   0.900   1.321   2.707 -0.2274  0.3593 -0.5846
 9034SOL    HW138738   0.993   1.303   2.715 -0.2291  1.4885  1.7666
 9034SOL    HW238739   0.863   1.287   2.788  1.1968  0.6237  0.1668
 9035SOL     OW38740   1.517   3.846   6.391 -0.4186 -0.0213 -0.7645
 9035SOL    HW138741   1.583   3.915   6.380 -0.0496  0.0264  1.5785
 9035SOL    HW238742   1.547   3.799   6.470  1.5958  0.0082 -1.5010
 9036SOL     OW38743   3.719   2.881   2.509 -0.1607  0.2733 -0.2203
 9036SOL    HW138744   3.730   2.976   2.511  0.8041  0.1605 -0.1431
 9036SOL    HW238745   3.624   2.873   2.499  0.0646 -1.0989 -1.3249
 9037SOL     OW38746   1.169   1.129   4.307 -0.1361  0.1426  0.2555
 9037SOL    HW138747   1.116   1.094   4.379  1.2774 -0.1754  1.1384
 9037SOL    HW238748   1.229   1.056   4.292 -0.1295 -0.1780  1.8723
 9038SOL     OW38749   2.932   2.664  13.733  0.3963 -0.2937 -0.2210
 9038SOL    HW138750   2.838   2.683  13.735  0.3831 -0.4225  0.3552
 9038SOL    HW238751   2.933   2.572  13.760  2.6009  0.2861  1.7235
 9039SOL     OW38752   0.880   0.732  15.872  0.1145  0.0050 -0.4323
 9039SOL    HW138753   0.938   0.771  15.807  0.1754 -0.3990 -0.6235
 9039SOL    HW238754   0.914   0.642  15.871 -0.6468 -0.2875 -0.1935
 9040SOL     OW38755   1.929   0.274   2.844  0.3765 -0.0159 -0.2633
 9040SOL    HW138756   2.013   0.299   2.883  1.1406  0.2086 -2.0749
 9040SOL    HW238757   1.947   0.241   2.756 -0.0239 -3.1532  0.8277
 9041SOL     OW38758   1.692   3.208   0.549 -0.5376 -0.2457  0.2019
 9041SOL    HW138759   1.680   3.155   0.628  0.6255 -0.4468  0.2416
 9041SOL    HW238760   1.626   3.275   0.564 -1.4639 -1.2789  0.7982
 9042SOL     OW38761   3.174   2.142   7.200  0.5011 -0.3482  0.0794
 9042SOL    HW138762   3.221   2.062   7.174  4.6452  2.7569 -2.0429
 9042SOL    HW238763   3.239   2.198   7.243  0.0172  1.6383 -1.7984
 9043SOL     OW38764   3.650   2.280   3.603  0.2628 -0.0369  0.0382
 9043SOL    HW138765   3.619   2.353   3.657  0.1149  0.0897 -0.2201
 9043SOL    HW238766   3.739   2.277   3.639  0.9538  2.6506 -1.4881
 9044SOL     OW38767   0.975   2.433   3.485 -0.1058 -0.6398 -0.1352
 9044SOL    HW138768   0.879   2.435   3.483 -0.0432  0.5580 -2.8766
 9044SOL    HW238769   0.987   2.396   3.398  3.8520  0.4143 -0.0606
 9045SOL     OW38770   1.688   1.829  10.150 -0.3528  0.0274  0.0280
 9045SOL    HW138771   1.766   1.775  10.157  0.0181  0.5980  0.2966
 9045SOL    HW238772   1.616   1.772  10.177 -0.7845 -0.4085 -2.0120
 9046SOL     OW38773   0.751   2.832   4.715  0.2537 -0.2938  0.1296
 9046SOL    HW138774   0.664   2.834   4.675  0.0009 -0.7031  0.6580
 9046SOL    HW238775   0.805   2.859   4.641  0.3034  2.0221  1.0145
 9047SOL     OW38776   2.807   1.726  12.534 -0.4102 -0.3650  0.0257
 9047SOL    HW138777   2.713   1.709  12.529 -0.1098 -1.3270 -2.0383
 9047SOL    HW238778   2.837   1.655  12.478 -0.0157  0.9055 -1.3755
 9048SOL     OW38779   4.441   1.083  14.685 -0.0745  0.5551  0.0796
 9048SOL    HW138780   4.482   1.004  14.720 -0.0589  1.0662  1.2200
 9048SOL    HW238781   4.518   1.134  14.663  1.3496 -1.2271  0.8981
 9049SOL     OW38782   4.349   0.347   4.885  0.1895 -0.4795  0.1043
 9049SOL    HW138783   4.255   0.329   4.883  0.8292 -3.8440  0.6747
 9049SOL    HW238784   4.369   0.345   4.979 -2.0023 -1.3302  0.5440
 9050SOL     OW38785   1.036   0.007   4.984 -0.0559 -0.1087  0.0940
 9050SOL    HW138786   1.080   4.658   4.999  0.7118  0.2403 -0.1850
 9050SOL    HW238787   1.100   0.058   4.934  0.8494 -0.1146  1.2543
 9051SOL     OW38788   0.533   3.566   6.241  0.2501 -0.2375 -0.1541
 9051SOL    HW138789   0.532   3.493   6.302  1.1335 -0.9423 -0.9705
 9051SOL    HW238790   0.521   3.643   6.297  3.4139 -0.3121  0.6275
 9052SOL     OW38791   0.346   4.602   1.791 -0.2771 -0.0112  0.1562
 9052SOL    HW138792   0.357   4.650   1.874 -0.4312  0.1248  0.0989
 9052SOL    HW238793   0.439   4.600   1.768 -0.9433  2.4285 -2.6807
 9053SOL     OW38794   2.128   2.773  17.081 -0.3982  0.5443 -0.8966
 9053SOL    HW138795   2.147   2.728  17.163 -0.8458  0.5691 -0.7769
 9053SOL    HW238796   2.066   2.844  17.102  0.2872  0.3512  1.8613
 9054SOL     OW38797   2.718   3.535   6.457  0.3373 -0.0564  0.4265
 9054SOL    HW138798   2.691   3.451   6.495  2.1280 -0.5048  0.7107
 9054SOL    HW238799   2.808   3.544   6.489  0.8437  0.9852 -1.2969
 9055SOL     OW38800   4.492   1.042  14.227  0.0178 -0.4186 -0.5921
 9055SOL    HW138801   4.583   1.054  14.253  0.1967  0.7018 -1.7117
 9055SOL    HW238802   4.461   0.996  14.306 -0.9687  0.1653 -0.6311
 9056SOL     OW38803   3.055   2.764  15.075 -0.6254 -0.1511  0.0983
 9056SOL    HW138804   3.144   2.734  15.055 -0.0186  0.8083  1.3893
 9056SOL    HW238805   3.028   2.683  15.120 -1.5815  1.0626  1.7084
 9057SOL     OW38806   4.007   3.603   4.754  0.3504  0.0132  0.2438
 9057SOL    HW138807   4.041   3.643   4.674 -3.3741  1.2982 -0.7061
 9057SOL    HW238808   4.074   3.646   4.808  0.5853 -0.2729  0.1785
 9058SOL     OW38809   2.439   0.976   8.463 -0.5385  0.2934  0.0338
 9058SOL    HW138810   2.526   1.008   8.488 -1.8644  1.3994  3.2745
 9058SOL    HW238811   2.415   1.037   8.394 -1.7589 -1.2247 -0.8752
 9059SOL     OW38812   1.600   4.429   2.909 -0.3933 -0.2673 -0.3576
 9059SOL    HW138813   1.600   4.507   2.964 -1.5278 -1.2085  0.9639
 9059SOL    HW238814   1.695   4.417   2.904 -0.3508  0.2411 -0.8004
 9060SOL     OW38815   0.539   3.324  15.173  0.8066  0.9284  0.1191
 9060SOL    HW138816   0.633   3.341  15.176  0.6452  2.1274 -2.0019
 9060SOL    HW238817   0.491   3.379  15.235 -0.6088 -0.0534 -0.0988
 9061SOL     OW38818   3.054   0.986  16.296 -0.8636 -0.4298  0.4687
 9061SOL    HW138819   3.129   0.964  16.240 -0.5771  0.9470  0.3114
 9061SOL    HW238820   3.052   0.922  16.367  2.4915 -1.0618 -0.0079
 9062SOL     OW38821   0.386   0.398   1.315  0.4195 -0.4963  0.6392
 9062SOL    HW138822   0.384   0.338   1.241  0.7555 -0.5620  0.6801
 9062SOL    HW238823   0.423   0.337   1.379 -1.1937 -0.2915  1.7574
 9063SOL     OW38824   2.846   4.439   5.598 -0.2028  0.8669 -0.1381
 9063SOL    HW138825   2.797   4.518   5.620  1.0452  0.6553  3.4236
 9063SOL    HW238826   2.810   4.423   5.511 -0.4307  1.6337 -0.1835
 9064SOL     OW38827   1.158   3.597  11.987 -0.2919  0.5675  0.1909
 9064SOL    HW138828   1.200   3.608  11.902 -0.5355 -1.3942 -0.1774
 9064SOL    HW238829   1.227   3.558  12.040 -0.3725  0.2185  0.0415
 9065SOL     OW38830   3.949   3.336   4.255  0.1278 -0.5758  0.0574
 9065SOL    HW138831   3.940   3.344   4.161 -1.3267  0.1670  0.2669
 9065SOL    HW238832   3.863   3.307   4.285  0.7845 -3.6182 -0.9266
 9066SOL     OW38833   1.095   2.917   5.394  0.2365 -0.0395 -0.0953
 9066SOL    HW138834   1.142   2.948   5.317  0.9995 -0.6199  0.1290
 9066SOL    HW238835   1.158   2.861   5.440  0.6706  2.4452  2.3890
 9067SOL     OW38836   3.454   4.563   3.145 -0.4061 -0.1739 -0.4120
 9067SOL    HW138837   3.422   4.473   3.154 -0.9825  0.2201  1.4504
 9067SOL    HW238838   3.521   4.573   3.213 -0.9686 -3.1474  0.5926
 9068SOL     OW38839   0.354   3.694   1.938  0.0056 -0.0294  0.2488
 9068SOL    HW138840   0.364   3.660   2.028 -3.0900 -0.2812  0.4920
 9068SOL    HW238841   0.366   3.789   1.937 -2.2606  0.2328 -1.3292
 9069SOL     OW38842   0.720   4.556  16.650  0.2382 -0.3102 -0.4527
 9069SOL    HW138843   0.643   4.516  16.610  0.5320 -0.5734 -0.7489
 9069SOL    HW238844   0.696   4.643  16.683  0.9012  0.1831 -1.2798
 9070SOL     OW38845   0.062   4.665   5.783 -0.5648 -0.4183  0.1915
 9070SOL    HW138846   0.065   4.734   5.716 -0.4437 -0.1647  0.4541
 9070SOL    HW238847   4.726   4.611   5.751  1.1122 -2.0282 -0.8572
 9071SOL     OW38848   2.806   0.864   6.108 -0.4346 -0.0517 -0.2257
 9071SOL    HW138849   2.765   0.875   6.194 -0.8397  0.5074 -0.4879
 9071SOL    HW238850   2.875   0.804   6.134 -1.4399 -1.7974 -1.5741
 9072SOL     OW38851   3.557   4.726   2.944  0.6383  0.2020 -0.6011
 9072SOL    HW138852   3.646   4.695   2.958  1.3945  1.7230 -2.0493
 9072SOL    HW238853   3.507   4.681   3.012  0.7531  1.5555  0.3810
 9073SOL     OW38854   3.100   2.653   7.287  0.1695 -0.4771  0.3992
 9073SOL    HW138855   3.106   2.568   7.244 -0.4612  0.4278 -1.4779
 9073SOL    HW238856   3.108   2.626   7.379  1.2771  0.2895  0.5340
 9074SOL     OW38857   1.741   1.517   1.116  0.0452  0.3113 -0.2737
 9074SOL    HW138858   1.659   1.488   1.156 -0.4854 -0.2168 -1.7281
 9074SOL    HW238859   1.712   1.503   1.026  0.8346  0.7308 -0.5983
 9075SOL     OW38860   2.263   0.600  14.781 -0.3580  0.4710  0.2400
 9075SOL    HW138861   2.181   0.616  14.733 -0.3769  2.7779  1.0224
 9075SOL    HW238862   2.269   0.669  14.847 -3.8978  1.0999 -0.0470
 9076SOL     OW38863   0.614   3.391   7.240  0.4642 -0.0016  0.6141
 9076SOL    HW138864   0.657   3.308   7.261  0.8309 -0.2416 -1.0814
 9076SOL    HW238865   0.557   3.401   7.317 -1.4270  0.8596 -0.8971
 9077SOL     OW38866   3.045   3.100   3.219 -0.8269  0.1501 -0.2341
 9077SOL    HW138867   3.081   3.107   3.307  1.1446  1.0280 -1.0902
 9077SOL    HW238868   3.013   3.190   3.214 -2.3385 -0.3786  0.0404
 9078SOL     OW38869   4.040   1.855  10.959  0.4817 -0.0455  0.3747
 9078SOL    HW138870   3.947   1.876  10.948  0.5950  0.4036  0.2529
 9078SOL    HW238871   4.046   1.830  11.051  0.6074  0.3591  0.4806
 9079SOL     OW38872   2.058   2.249   3.372 -0.2930  0.2051  0.1079
 9079SOL    HW138873   2.013   2.325   3.334  0.9897  1.4862  1.1137
 9079SOL    HW238874   2.052   2.190   3.297 -2.3762  2.1626 -1.2660
 9080SOL     OW38875   1.508   3.611   7.082  0.2541  0.2345  0.3344
 9080SOL    HW138876   1.448   3.626   7.009  2.1351  0.5216 -1.1586
 9080SOL    HW238877   1.495   3.516   7.083 -2.6230  0.6171  1.6524
 9081SOL     OW38878   1.008   2.122   6.476  0.0326 -0.2923  0.3848
 9081SOL    HW138879   0.934   2.093   6.423 -0.7320  2.4006 -0.0408
 9081SOL    HW238880   1.028   2.048   6.533  2.1347  0.3964  0.5286
 9082SOL     OW38881   4.077   1.752  11.202  0.3624 -0.2802 -0.1114
 9082SOL    HW138882   4.150   1.693  11.222  1.1861  0.4249 -1.0857
 9082SOL    HW238883   4.081   1.801  11.285  1.0922 -0.2799 -0.1453
 9083SOL     OW38884   2.841   0.994  17.441  0.0156 -0.1615 -0.2920
 9083SOL    HW138885   2.812   1.060  17.505  0.9973 -1.5456  1.5933
 9083SOL    HW238886   2.780   0.922  17.460  2.0951 -1.3602  1.8719
 9084SOL     OW38887   1.691   4.469   5.780 -0.4932  0.2839  0.3325
 9084SOL    HW138888   1.711   4.517   5.700  0.8834 -1.6403 -0.4965
 9084SOL    HW238889   1.622   4.411   5.748 -0.2615  0.5983 -0.7319
 9085SOL     OW38890   0.287   4.503   5.525  0.2048  0.1021  0.2932
 9085SOL    HW138891   0.312   4.482   5.435  0.9782  0.6617  0.3750
 9085SOL    HW238892   0.261   4.593   5.506 -1.0855 -0.3955 -0.2644
 9086SOL     OW38893   0.275   0.443  11.293  0.2090  0.1770 -0.0461
 9086SOL    HW138894   0.241   0.433  11.204 -0.2780  0.0656  0.1535
 9086SOL    HW238895   0.192   0.465  11.334  0.9710  0.7546  1.1884
 9087SOL     OW38896   3.068   0.484  14.909 -0.0386  0.6047  0.2873
 9087SOL    HW138897   3.025   0.402  14.887 -2.1142  1.7204  0.1798
 9087SOL    HW238898   3.095   0.470  15.000  2.4687  1.0646 -0.3973
 9088SOL     OW38899   0.542   0.413   6.440  0.0483  0.3514 -0.4203
 9088SOL    HW138900   0.562   0.321   6.419 -0.6302  0.7499 -2.7867
 9088SOL    HW238901   0.611   0.453   6.387  0.0166  0.6497 -0.2318
 9089SOL     OW38902   1.424   0.943   0.650  0.0214  0.0580 -0.7673
 9089SOL    HW138903   1.466   1.028   0.657 -1.5160  0.4866  3.2356
 9089SOL    HW238904   1.331   0.963   0.662  0.1165  0.1836 -0.2465
 9090SOL     OW38905   3.109   1.535  13.022 -0.7977  0.0806  0.3780
 9090SOL    HW138906   3.182   1.565  13.076  0.8645  1.3579 -2.5596
 9090SOL    HW238907   3.089   1.457  13.073 -1.7478  0.5559  0.7258
 9091SOL     OW38908   4.183   0.997   2.726 -0.1350  0.4913  0.0315
 9091SOL    HW138909   4.117   1.043   2.778 -0.8686  0.1112 -0.5537
 9091SOL    HW238910   4.196   1.069   2.664 -0.5229  0.6587  0.1450
 9092SOL     OW38911   0.721   2.729   7.650  0.0214 -0.7343  0.0082
 9092SOL    HW138912   0.811   2.763   7.649  0.3766 -1.6698  0.0709
 9092SOL    HW238913   0.671   2.809   7.661  1.3165  0.2027 -0.7997
 9093SOL     OW38914   3.154   0.129   6.775 -0.0378 -0.1644 -0.0304
 9093SOL    HW138915   3.156   0.169   6.862  2.3563 -0.2520 -0.0240
 9093SOL    HW238916   3.201   0.047   6.794  1.0341  0.4653  0.0417
 9094SOL     OW38917   0.566   1.321   9.352 -0.1459  0.2128  0.3656
 9094SOL    HW138918   0.619   1.318   9.431  0.9155 -1.5767 -0.3987
 9094SOL    HW238919   0.645   1.343   9.301 -0.5030 -1.1337 -0.7731
 9095SOL     OW38920   1.580   0.906   5.293  0.0832 -0.1064 -0.0990
 9095SOL    HW138921   1.552   0.847   5.363  3.0310 -1.3003  0.0486
 9095SOL    HW238922   1.675   0.903   5.305  0.3785 -1.8104 -2.8432
 9096SOL     OW38923   2.917   1.770   3.662 -0.4456  0.0865 -0.2004
 9096SOL    HW138924   2.988   1.738   3.606  1.0705  0.1211  1.6768
 9096SOL    HW238925   2.912   1.693   3.718 -0.6692 -0.8156 -1.4663
 9097SOL     OW38926   1.288   4.509  17.308  0.0223  0.3353  0.2616
 9097SOL    HW138927   1.331   4.554  17.235 -0.3820  0.3793  0.0529
 9097SOL    HW238928   1.229   4.454  17.256 -1.0219 -0.1660  1.9758
 9098SOL     OW38929   4.507   3.979   6.617  0.2674  0.1608  0.3716
 9098SOL    HW138930   4.424   4.000   6.659 -0.1870  1.0787 -0.9765
 9098SOL    HW238931   4.467   3.938   6.541  1.3111  1.1009 -0.6823
 9099SOL     OW38932   2.691   2.171   8.336  0.6600  0.0675  0.1232
 9099SOL    HW138933   2.676   2.253   8.288  2.0980 -0.3989 -1.1357
 9099SOL    HW238934   2.693   2.207   8.425 -0.3554 -0.3935  0.3352
 9100SOL     OW38935   4.217   2.625   4.903 -0.0583 -0.2155 -0.1135
 9100SOL    HW138936   4.137   2.593   4.861  0.8418 -2.3396 -0.2044
 9100SOL    HW238937   4.200   2.606   4.995  0.3502 -2.0499 -0.4276
 9101SOL     OW38938   2.755   3.699   4.269 -0.1636  0.1553  0.0928
 9101SOL    HW138939   2.772   3.773   4.327  2.2044  0.1885 -0.6671
 9101SOL    HW238940   2.757   3.744   4.185  0.1769  0.2419  0.1482
 9102SOL     OW38941   2.439   3.819  12.996 -0.4101 -0.0689  0.0648
 9102SOL    HW138942   2.444   3.898  12.942  0.2007  1.1219  1.8763
 9102SOL    HW238943   2.532   3.796  12.991 -0.6234 -0.9368  0.0650
 9103SOL     OW38944   2.367   0.277   3.925 -0.3263  0.4294  0.2395
 9103SOL    HW138945   2.380   0.220   4.000  1.8956  0.3043 -0.2402
 9103SOL    HW238946   2.300   0.335   3.962  1.2305  1.3143  1.6238
 9104SOL     OW38947   4.298   1.434   7.400  0.1488 -0.1055  0.3612
 9104SOL    HW138948   4.244   1.501   7.359  1.8333 -1.0336 -3.4393
 9104SOL    HW238949   4.303   1.474   7.486  2.2291  1.3592 -0.4408
 9105SOL     OW38950   2.826   0.994   1.501  0.6645  0.3968  0.7882
 9105SOL    HW138951   2.890   0.965   1.437  0.8836 -0.9786  1.6424
 9105SOL    HW238952   2.775   1.065   1.461 -0.0265  0.2971  1.4777
 9106SOL     OW38953   3.558   3.288  12.563  0.2571  0.7684  0.6281
 9106SOL    HW138954   3.626   3.304  12.498 -0.2349 -0.3899 -0.1749
 9106SOL    HW238955   3.589   3.207  12.602  3.4334  1.3510 -0.7366
 9107SOL     OW38956   2.001   4.294   5.464  0.8460  0.5324 -0.0189
 9107SOL    HW138957   1.965   4.207   5.482 -0.5839  1.0682 -0.3105
 9107SOL    HW238958   2.086   4.289   5.421  1.3254  1.1479  0.8548
 9108SOL     OW38959   0.923   0.488  13.691 -0.3522  0.5959  0.4020
 9108SOL    HW138960   0.898   0.472  13.782 -3.0135  1.9358 -0.0798
 9108SOL    HW238961   1.018   0.501  13.697 -0.1361 -1.5354  1.4667
 9109SOL     OW38962   1.039   2.640   9.053  0.1796  0.2873  0.1952
 9109SOL    HW138963   1.114   2.621   9.109  1.4752  0.5073 -1.4534
 9109SOL    HW238964   0.984   2.684   9.117 -2.7529 -1.7678 -0.8976
 9110SOL     OW38965   3.319   0.492   7.530  0.1476 -0.1216  0.2193
 9110SOL    HW138966   3.410   0.497   7.500  0.2963  0.1980  0.7265
 9110SOL    HW238967   3.269   0.509   7.450  0.5117  0.0578  0.0265
 9111SOL     OW38968   2.155   3.328   1.960 -0.0877 -0.0782  0.0224
 9111SOL    HW138969   2.139   3.269   1.887 -0.3759  0.2449 -0.1747
 9111SOL    HW238970   2.127   3.278   2.037  2.6271  1.0466  1.7258
 9112SOL     OW38971   2.021   2.346   7.515 -0.4794 -0.3804  0.1246
 9112SOL    HW138972   2.053   2.298   7.591 -0.9089  0.6399  0.9390
 9112SOL    HW238973   1.980   2.418   7.563  1.4492  2.3728 -2.3013
 9113SOL     OW38974   0.464   1.235   5.826 -0.2064  0.0230 -0.4536
 9113SOL    HW138975   0.515   1.158   5.851  1.6014  0.7863 -1.7822
 9113SOL    HW238976   0.380   1.189   5.831 -0.4144  0.5340  0.7427
 9114SOL     OW38977   0.929   2.659  16.160  0.1173  0.3489  0.2530
 9114SOL    HW138978   0.997   2.705  16.110 -0.5839  0.1142 -0.9208
 9114SOL    HW238979   0.852   2.683  16.109  0.7818  1.2839 -0.3026
 9115SOL     OW38980   0.731   3.246  11.481  0.4549 -0.2722  0.6013
 9115SOL    HW138981   0.778   3.269  11.400  3.1008  0.9179  2.4516
 9115SOL    HW238982   0.649   3.216  11.444  0.4929  0.4356 -0.0685
 9116SOL     OW38983   0.956   1.647   2.551  0.4646 -0.2885  0.0928
 9116SOL    HW138984   0.916   1.685   2.473  0.5370 -0.0214  0.1867
 9116SOL    HW238985   0.880   1.639   2.609 -0.5714 -0.9443 -1.3670
 9117SOL     OW38986   4.175   4.360   2.052  0.0635 -0.0359  0.6095
 9117SOL    HW138987   4.158   4.283   2.106 -0.5751 -0.8516 -0.7728
 9117SOL    HW238988   4.197   4.422   2.122  1.8829  0.3031 -0.2580
 9118SOL     OW38989   2.380   1.596   1.519 -0.0514  0.5914  0.2430
 9118SOL    HW138990   2.313   1.664   1.518  0.0720  0.6891 -3.9430
 9118SOL    HW238991   2.344   1.541   1.449 -0.7216  2.3308 -0.7815
 9119SOL     OW38992   2.264   2.286   8.046  0.0131 -0.2127  0.2530
 9119SOL    HW138993   2.174   2.286   8.078 -0.6132  1.8531 -1.4985
 9119SOL    HW238994   2.257   2.348   7.974 -4.3210 -1.0067 -0.0227
 9120SOL     OW38995   2.617   1.389   7.634 -0.3369  0.6083 -0.1634
 9120SOL    HW138996   2.712   1.385   7.644 -0.1654  0.6746 -1.7270
 9120SOL    HW238997   2.607   1.368   7.541  1.9443 -0.3189 -0.1808
 9121SOL     OW38998   0.049   3.550   8.043  0.2530 -0.1354 -0.0488
 9121SOL    HW138999   0.033   3.508   8.128 -0.1161  0.3682  0.1309
 9121SOL    HW239000   0.126   3.505   8.007  1.7060  1.0598  1.5176
 9122SOL     OW39001   4.558   1.544   6.538  0.4461  0.1677 -0.9875
 9122SOL    HW139002   4.574   1.453   6.513 -4.1894 -0.0277 -3.2022
 9122SOL    HW239003   4.643   1.576   6.568  0.7250  2.2374 -3.9250
 9123SOL     OW39004   0.661   2.700   6.629  0.1189  0.2441  0.6120
 9123SOL    HW139005   0.744   2.735   6.595 -0.4978 -0.4030 -1.5789
 9123SOL    HW239006   0.632   2.650   6.552 -0.4570  0.8989  0.4099
 9124SOL     OW39007   1.041   4.374  12.788 -0.6100 -0.2399  0.0468
 9124SOL    HW139008   1.083   4.460  12.785 -0.4119 -0.4337 -3.2854
 9124SOL    HW239009   0.978   4.388  12.717 -2.6229  2.0767  2.2922
 9125SOL     OW39010   2.285   4.574  15.546  0.0940 -0.3695 -0.7272
 9125SOL    HW139011   2.226   4.510  15.505  0.2724 -3.4538  3.8753
 9125SOL    HW239012   2.301   4.550  15.637 -0.6578  2.3984  0.1120
 9126SOL     OW39013   2.409   0.745   1.968  0.0956  0.1021 -0.0509
 9126SOL    HW139014   2.408   0.674   2.031  3.6395  0.4595  0.4280
 9126SOL    HW239015   2.469   0.711   1.902  0.1405 -0.6347  0.3716
 9127SOL     OW39016   4.274   2.636  13.216  0.2967  0.1545  0.2628
 9127SOL    HW139017   4.325   2.714  13.197  0.2194  0.2400  0.4041
 9127SOL    HW239018   4.209   2.644  13.146  0.9542  1.6175 -0.1565
 9128SOL     OW39019   0.445   4.030   7.478  0.1470  1.1589 -0.6355
 9128SOL    HW139020   0.461   3.987   7.562 -2.8464  1.0328 -0.1263
 9128SOL    HW239021   0.350   4.032   7.471 -0.0625 -0.4803  1.7003
 9129SOL     OW39022   1.309   4.320   2.144 -0.2128 -0.2618 -0.4337
 9129SOL    HW139023   1.251   4.395   2.160 -0.5748 -0.4836 -0.7151
 9129SOL    HW239024   1.257   4.258   2.093 -2.5524 -0.3876  2.0655
 9130SOL     OW39025   4.522   2.600   6.218 -0.8849  0.1165  0.2368
 9130SOL    HW139026   4.528   2.657   6.295  1.2360 -0.1679  0.2805
 9130SOL    HW239027   4.609   2.560   6.208 -0.2546  1.5862 -0.1546
 9131SOL     OW39028   3.132   4.300   3.922 -0.1083 -0.2452  0.1785
 9131SOL    HW139029   3.059   4.359   3.942 -2.6361 -3.0229 -0.9540
 9131SOL    HW239030   3.088   4.227   3.878 -0.6377  0.7600 -0.9674
 9132SOL     OW39031   3.303   0.056   3.139  0.0329 -0.3593 -0.1853
 9132SOL    HW139032   3.353   4.712   3.159  1.1237  0.1176 -1.0079
 9132SOL    HW239033   3.360   0.126   3.171 -2.0430  2.1930 -2.1211
 9133SOL     OW39034   1.206   0.827  12.507  0.8793  0.2990 -0.0024
 9133SOL    HW139035   1.175   0.836  12.417 -1.6944 -2.6935  0.5856
 9133SOL    HW239036   1.203   0.914  12.546  0.4647  0.0886  0.4404
 9134SOL     OW39037   2.964   2.995   5.976 -0.2234  0.2271  0.4296
 9134SOL    HW139038   2.880   2.961   6.005 -1.2824  0.4407 -2.3574
 9134SOL    HW239039   2.966   2.964   5.885 -0.3410  0.0377  0.4923
 9135SOL     OW39040   2.479   0.715   7.171  0.3742  0.2866  0.1240
 9135SOL    HW139041   2.536   0.767   7.114  1.0599  0.9758  1.4100
 9135SOL    HW239042   2.439   0.652   7.112  0.2119  0.1374  0.3923
 9136SOL     OW39043   2.417   4.520   6.974 -0.2882  1.0309 -0.6206
 9136SOL    HW139044   2.376   4.466   7.042 -0.6174  2.3126  0.1997
 9136SOL    HW239045   2.355   4.521   6.902 -1.1375 -0.2293  0.0978
 9137SOL     OW39046   0.705   3.818  12.952 -0.3714  0.5622  0.3346
 9137SOL    HW139047   0.748   3.821  12.867  0.4677 -1.8367  0.6505
 9137SOL    HW239048   0.638   3.886  12.948  1.1471  1.9405 -1.2324
 9138SOL     OW39049   1.399   2.150  15.878  0.8337 -0.2119 -0.6134
 9138SOL    HW139050   1.363   2.237  15.897 -1.1065 -0.8803 -1.1549
 9138SOL    HW239051   1.345   2.132  15.801  1.6612 -3.2556 -0.4769
 9139SOL     OW39052   0.248   3.172   6.200  0.4768  0.0596  0.0471
 9139SOL    HW139053   0.226   3.165   6.107 -0.9096  2.9263  0.1827
 9139SOL    HW239054   0.219   3.259   6.227  1.0226  0.1104  0.4686
 9140SOL     OW39055   2.104   0.778   8.818  0.9172  0.1514  0.5140
 9140SOL    HW139056   2.057   0.858   8.839  2.7301  1.5512 -0.7709
 9140SOL    HW239057   2.170   0.809   8.756 -0.0410  0.8056 -0.1776
 9141SOL     OW39058   4.598   3.587   4.287 -0.4181  0.8389 -0.2964
 9141SOL    HW139059   4.600   3.618   4.377  0.8457  1.4961 -0.5493
 9141SOL    HW239060   4.549   3.506   4.304 -0.6475  1.2186  0.8017
 9142SOL     OW39061   0.813   0.144   1.155 -0.3635 -0.1358 -0.1267
 9142SOL    HW139062   0.802   0.227   1.200 -1.8918  0.4919 -1.6553
 9142SOL    HW239063   0.835   0.084   1.226 -0.2780  1.2215  0.9757
 9143SOL     OW39064   0.979   1.826   4.030 -0.1875 -1.3578  0.1051
 9143SOL    HW139065   0.968   1.732   4.041 -0.3650 -1.1010  2.1313
 9143SOL    HW239066   1.030   1.826   3.949 -2.2940 -1.1841 -1.2144
 9144SOL     OW39067   2.390   0.043   7.207  0.2751  0.5311 -0.0985
 9144SOL    HW139068   2.375   4.716   7.277 -1.3292  1.4649  0.3848
 9144SOL    HW239069   2.486   0.036   7.215  0.2558 -0.1139 -0.4681
 9145SOL     OW39070   3.087   0.471   4.994 -0.5986  0.2124 -0.5202
 9145SOL    HW139071   3.169   0.427   5.015 -1.0330 -0.0698  0.5888
 9145SOL    HW239072   3.043   0.451   5.077  0.0421 -2.9790 -0.9496
 9146SOL     OW39073   3.185   1.511   4.803 -0.6136  0.4049 -0.3697
 9146SOL    HW139074   3.179   1.463   4.721 -0.9103  1.3720 -0.9189
 9146SOL    HW239075   3.206   1.441   4.864 -0.2804  0.8139 -0.0073
 9147SOL     OW39076   3.145   1.121   6.061  0.0175  0.0648 -0.8188
 9147SOL    HW139077   3.080   1.185   6.032 -1.3001 -0.6246  0.6386
 9147SOL    HW239078   3.150   1.066   5.984 -0.5252  1.7051 -2.0349
 9148SOL     OW39079   3.372   1.716   7.643  0.1123  0.2921  0.2164
 9148SOL    HW139080   3.362   1.786   7.579 -1.0152  0.4720  0.5863
 9148SOL    HW239081   3.341   1.762   7.721  1.6801 -0.7992  1.4763
 9149SOL     OW39082   2.852   0.246   5.894  0.3612  0.4673 -0.0238
 9149SOL    HW139083   2.835   0.212   5.806 -0.8469 -0.2737  0.4880
 9149SOL    HW239084   2.883   0.332   5.867 -0.3909  0.7756  0.0860
 9150SOL     OW39085   0.149   2.499   6.924 -0.1912  0.1284  0.0289
 9150SOL    HW139086   0.172   2.407   6.910  1.6946  0.8205 -1.4333
 9150SOL    HW239087   0.055   2.485   6.938  0.4676 -1.6659  2.6237
 9151SOL     OW39088   1.463   1.419  13.963 -0.3831 -0.2475  0.4055
 9151SOL    HW139089   1.544   1.464  13.989 -1.4283  0.0923  3.0611
 9151SOL    HW239090   1.476   1.380  13.877  0.6322  1.4770 -0.2378
 9152SOL     OW39091   1.839   3.709  17.046  0.7763 -0.1091 -0.0167
 9152SOL    HW139092   1.863   3.801  17.056 -4.3367  1.1598  1.0439
 9152SOL    HW239093   1.744   3.706  17.059  0.7133  0.7426 -0.2487
 9153SOL     OW39094   3.067   0.768   6.517 -0.6480 -0.9445  0.8781
 9153SOL    HW139095   3.160   0.785   6.534 -1.0070 -0.3808  2.2299
 9153SOL    HW239096   3.046   0.713   6.592 -1.6855 -1.8307 -0.0473
 9154SOL     OW39097   4.491   2.171   1.843  0.2728 -0.0519 -0.0879
 9154SOL    HW139098   4.555   2.129   1.786 -1.9009 -1.9410 -1.1266
 9154SOL    HW239099   4.422   2.190   1.780 -0.0595 -1.5673 -0.1756
 9155SOL     OW39100   3.896   3.274   6.247  0.1423 -0.0647  0.4553
 9155SOL    HW139101   3.835   3.229   6.189  0.7178  2.0720 -1.7742
 9155SOL    HW239102   3.880   3.235   6.334  1.4390  1.4087  1.3609
 9156SOL     OW39103   4.399   0.221   7.989 -0.4276 -0.2860  0.4584
 9156SOL    HW139104   4.337   0.192   7.921  0.7466  2.4138 -1.7864
 9156SOL    HW239105   4.342   0.245   8.061 -0.6869 -2.5440  1.0173
 9157SOL     OW39106   4.174   2.592   5.150 -0.0741 -0.2714  0.1881
 9157SOL    HW139107   4.098   2.535   5.157 -0.1743 -0.0163  1.2101
 9157SOL    HW239108   4.233   2.531   5.195  0.7765  0.8978  0.6554
 9158SOL     OW39109   3.150   0.225  16.226 -0.1690 -0.0682  0.2420
 9158SOL    HW139110   3.191   0.270  16.300  0.4513  0.5179 -0.4538
 9158SOL    HW239111   3.211   0.152  16.214 -0.9550 -0.7814  0.5525
 9159SOL     OW39112   3.508   0.504  14.978 -0.5250  0.0267  0.0031
 9159SOL    HW139113   3.443   0.511  15.048  0.9968 -0.3046  1.4480
 9159SOL    HW239114   3.485   0.572  14.915  0.7303 -0.7103 -1.2406
 9160SOL     OW39115   3.529   1.515  13.012  0.2145  0.0014  0.5994
 9160SOL    HW139116   3.499   1.424  13.003  2.4964 -0.4479 -2.3970
 9160SOL    HW239117   3.456   1.557  13.057  1.0246  1.2631  0.7243
 9161SOL     OW39118   3.943   0.574   6.032  0.7281  0.1363 -0.0113
 9161SOL    HW139119   3.984   0.609   5.953 -0.6005 -0.7142 -1.0619
 9161SOL    HW239120   3.848   0.581   6.023  0.6933 -0.8860 -0.4215
 9162SOL     OW39121   1.438   2.615  12.254  0.3574 -0.5267  0.3045
 9162SOL    HW139122   1.511   2.585  12.200  1.0670  1.3819  0.1916
 9162SOL    HW239123   1.457   2.580  12.341  1.4966  0.2859  0.3870
 9163SOL     OW39124   1.570   4.096   6.056 -0.6387  0.2114  0.3103
 9163SOL    HW139125   1.528   4.074   5.973 -0.1850  1.2636 -0.1878
 9163SOL    HW239126   1.508   4.047   6.111 -1.9242  0.2494 -1.1096
 9164SOL     OW39127   2.385   0.442   2.914  0.3373  1.1211 -0.5785
 9164SOL    HW139128   2.395   0.356   2.873  0.0474  0.5347  0.5846
 9164SOL    HW239129   2.435   0.501   2.857  0.7674 -1.7848 -3.1839
 9165SOL     OW39130   1.275   2.814   3.664  0.3682  0.6725  0.6863
 9165SOL    HW139131   1.213   2.808   3.590  1.1053 -0.2073  0.1472
 9165SOL    HW239132   1.209   2.830   3.731 -0.1025 -0.5492  0.5115
 9166SOL     OW39133   0.763   2.354   6.641  0.8109 -0.0802  0.2819
 9166SOL    HW139134   0.690   2.311   6.598  0.0583  0.4722  0.9907
 9166SOL    HW239135   0.729   2.366   6.730 -0.2480 -0.0111 -0.1377
 9167SOL     OW39136   1.936   3.836   8.568  0.1921 -0.4852  0.4552
 9167SOL    HW139137   1.967   3.886   8.643 -1.8743  3.4382 -1.3141
 9167SOL    HW239138   1.970   3.893   8.499 -0.7161  0.8641  1.1359
 9168SOL     OW39139   3.506   1.287   7.515 -0.4362  0.2304 -0.2970
 9168SOL    HW139140   3.546   1.225   7.454 -1.0266 -1.1138  0.6930
 9168SOL    HW239141   3.437   1.316   7.454 -0.9381 -1.0328 -0.3170
 9169SOL     OW39142   2.447   3.679   6.895 -0.4645  0.2374 -0.5867
 9169SOL    HW139143   2.488   3.602   6.856  0.3998  0.3596  0.0919
 9169SOL    HW239144   2.485   3.745   6.838 -1.1588  0.4663 -0.7888
 9170SOL     OW39145   3.485   0.100   8.316 -0.3544 -0.8062 -0.7377
 9170SOL    HW139146   3.428   0.060   8.250 -2.5261 -1.4109  1.5039
 9170SOL    HW239147   3.430   0.165   8.359 -1.3954 -1.8242 -0.5264
 9171SOL     OW39148   1.463   0.580  10.251 -0.0576 -0.1311 -0.2346
 9171SOL    HW139149   1.541   0.527  10.267 -0.0248 -0.1121 -0.3284
 9171SOL    HW239150   1.394   0.522  10.284 -0.4937 -0.3818 -1.5799
 9172SOL     OW39151   0.236   2.876   4.712 -0.1763  0.3888 -0.4799
 9172SOL    HW139152   0.176   2.864   4.786  0.9990  2.0480  0.7413
 9172SOL    HW239153   0.248   2.971   4.711  0.3151  0.3539  1.8668
 9173SOL     OW39154   2.065   3.126  15.636  0.7374 -0.1248  0.5515
 9173SOL    HW139155   2.126   3.184  15.590  0.8874 -0.7306 -0.0141
 9173SOL    HW239156   2.104   3.133  15.723  0.5317 -2.1946  0.8026
 9174SOL     OW39157   4.401   0.425   2.609  0.3278 -0.0873  0.6149
 9174SOL    HW139158   4.322   0.395   2.655 -1.0865  2.5015 -0.1569
 9174SOL    HW239159   4.424   0.341   2.569  0.4042 -0.7362  2.0203
 9175SOL     OW39160   1.408   4.442   8.097  0.0859 -0.1720  0.1950
 9175SOL    HW139161   1.397   4.431   8.003  0.1727 -1.6045  0.3558
 9175SOL    HW239162   1.319   4.473   8.115 -0.4138 -0.2773 -2.1454
 9176SOL     OW39163   3.753   3.329   7.261  0.1214 -0.3751  0.1797
 9176SOL    HW139164   3.787   3.240   7.254  0.6170 -0.0320 -1.8556
 9176SOL    HW239165   3.676   3.311   7.316  0.2332 -2.1987 -0.2493
 9177SOL     OW39166   3.000   0.468   8.241  0.0649 -0.3289 -1.1010
 9177SOL    HW139167   2.934   0.434   8.180 -0.3128 -0.9442 -0.3395
 9177SOL    HW239168   3.078   0.414   8.229 -0.7441 -1.4752 -1.2048
 9178SOL     OW39169   1.756   1.871   3.890  0.0526 -0.3996  0.3199
 9178SOL    HW139170   1.690   1.804   3.910  0.4817 -0.2528  2.1962
 9178SOL    HW239171   1.705   1.896   3.813 -1.2302 -0.9438  0.9981
 9179SOL     OW39172   2.472   3.195   3.529  0.4839 -0.1693  0.2790
 9179SOL    HW139173   2.543   3.144   3.490  0.0591  0.2799 -1.0551
 9179SOL    HW239174   2.391   3.161   3.491  0.1200  0.2934  0.6342
 9180SOL     OW39175   4.076   4.693   7.388  0.1672  0.1286  0.1734
 9180SOL    HW139176   4.035   4.704   7.474  0.9052  2.7395  0.1898
 9180SOL    HW239177   4.153   0.015   7.380 -0.7057  1.0687 -1.4758
 9181SOL     OW39178   4.627   2.333   6.060  0.0455 -0.2718 -0.2674
 9181SOL    HW139179   4.564   2.356   5.991 -1.2733  1.2903  1.4811
 9181SOL    HW239180   4.578   2.273   6.116 -0.3724  0.3140 -0.0085
 9182SOL     OW39181   3.086   3.947  16.021  0.1855 -0.0326 -0.1604
 9182SOL    HW139182   3.167   3.982  16.058  0.9090 -0.2045 -1.5862
 9182SOL    HW239183   3.037   3.939  16.103  1.3409  2.1738  0.7461
 9183SOL     OW39184   2.640   4.156   6.527  0.1306  0.0885  0.7601
 9183SOL    HW139185   2.573   4.099   6.565  0.0001 -1.9025 -2.3899
 9183SOL    HW239186   2.577   4.218   6.490 -0.5987  0.7452  3.1415
 9184SOL     OW39187   1.193   4.480  11.573  0.3334 -0.7952  0.3640
 9184SOL    HW139188   1.189   4.516  11.484  0.9764 -0.4093  0.4880
 9184SOL    HW239189   1.282   4.507  11.598  0.6321 -1.7772  0.3318
 9185SOL     OW39190   2.340   3.517   9.009 -0.5115  0.5730  0.5534
 9185SOL    HW139191   2.385   3.596   9.040  3.2733 -1.5256  0.4423
 9185SOL    HW239192   2.411   3.469   8.966 -3.0862  0.1269 -3.1439
 9186SOL     OW39193   1.806   2.077   5.008  0.7750 -0.7477  0.2421
 9186SOL    HW139194   1.731   2.135   5.023  2.2531  0.9912  0.9186
 9186SOL    HW239195   1.816   2.032   5.092 -0.2286 -0.6069  0.4450
 9187SOL     OW39196   1.198   2.509   5.823 -0.0186 -0.2209  0.3964
 9187SOL    HW139197   1.178   2.458   5.902 -0.7167 -0.3458  0.1406
 9187SOL    HW239198   1.293   2.513   5.831 -0.0047  0.1302  0.0366
 9188SOL     OW39199   1.740   1.571   7.721 -0.1417 -0.9672 -0.5573
 9188SOL    HW139200   1.797   1.565   7.798  0.0197 -1.8277 -0.7449
 9188SOL    HW239201   1.809   1.566   7.655  2.9927  1.0351  2.5817
 9189SOL     OW39202   4.300   4.043   3.112 -0.0566 -0.0774  0.2326
 9189SOL    HW139203   4.219   4.057   3.062  0.2161  0.2073 -0.1348
 9189SOL    HW239204   4.364   4.058   3.041 -2.5757  1.5413 -1.7054
 9190SOL     OW39205   0.561   4.069   6.929 -0.4402  0.0173 -0.0707
 9190SOL    HW139206   0.519   4.135   6.984 -1.5886 -1.1698  0.4979
 9190SOL    HW239207   0.568   4.127   6.853 -1.7037  1.7451  1.1285
 9191SOL     OW39208   0.831   0.383  10.686  0.0023  0.3812  0.2397
 9191SOL    HW139209   0.842   0.289  10.671 -2.7096 -0.2859  2.5496
 9191SOL    HW239210   0.736   0.396  10.678  0.2034  1.5789 -0.3540
 9192SOL     OW39211   4.323   2.928   1.551  0.3195  0.7489 -0.0525
 9192SOL    HW139212   4.357   2.843   1.576  0.6027  0.7235 -0.5190
 9192SOL    HW239213   4.261   2.941   1.623  0.6923 -0.1385  0.4233
 9193SOL     OW39214   3.437   4.269  10.614 -0.0809  0.4163  0.4103
 9193SOL    HW139215   3.413   4.298  10.526  1.6853 -1.1217 -0.5720
 9193SOL    HW239216   3.372   4.201  10.631 -0.9668  0.9433 -0.8690
 9194SOL     OW39217   4.387   2.035   5.819  0.0181  0.1943 -0.0515
 9194SOL    HW139218   4.359   1.960   5.767  0.7063 -1.7179  2.3340
 9194SOL    HW239219   4.385   2.107   5.755  0.0614 -0.9952 -1.3750
 9195SOL     OW39220   2.404   3.386  14.706  0.3702 -0.0949 -0.0810
 9195SOL    HW139221   2.329   3.402  14.649  0.4978  1.1590  0.1197
 9195SOL    HW239222   2.478   3.405  14.648  1.4427  0.3701  1.4446
 9196SOL     OW39223   0.561   3.728   5.785  0.2923  0.4313  0.1051
 9196SOL    HW139224   0.587   3.653   5.839  2.0413  0.3537 -0.8536
 9196SOL    HW239225   0.582   3.675   5.708  2.4962 -0.3284  1.2131
 9197SOL     OW39226   3.439   0.852  13.409 -0.1146  0.1588 -0.2093
 9197SOL    HW139227   3.484   0.928  13.372 -0.3885  0.0875 -0.6952
 9197SOL    HW239228   3.374   0.852  13.339 -0.3861  0.5264  0.0416
 9198SOL     OW39229   4.459   1.904  15.727 -0.0321 -0.2143  0.1681
 9198SOL    HW139230   4.516   1.915  15.803 -0.8053  0.2372  0.6705
 9198SOL    HW239231   4.525   1.868  15.667  0.2168  0.4835  0.0250
 9199SOL     OW39232   0.714   1.116   3.717  0.2395  0.7672 -0.4342
 9199SOL    HW139233   0.701   1.116   3.812 -3.5074 -0.4307 -0.9443
 9199SOL    HW239234   0.637   1.066   3.690  0.4452 -0.4234  1.1830
 9200SOL     OW39235   0.776   0.429   6.308 -0.3928 -0.1885 -0.4454
 9200SOL    HW139236   0.802   0.516   6.338  0.0058 -1.0898  1.8404
 9200SOL    HW239237   0.852   0.374   6.329 -0.3449  0.0350 -0.0205
 9201SOL     OW39238   0.864   3.390  10.072  0.1817 -0.3634 -0.1329
 9201SOL    HW139239   0.868   3.414  10.165 -1.7702 -0.3395 -0.0599
 9201SOL    HW239240   0.921   3.458  10.036 -1.3970  0.6273 -0.7695
 9202SOL     OW39241   1.385   4.544   4.322  0.5032  0.7057 -0.3742
 9202SOL    HW139242   1.300   4.586   4.338 -0.3864 -0.5293 -1.8129
 9202SOL    HW239243   1.438   4.614   4.285  1.7084  0.9973  1.8533
 9203SOL     OW39244   2.571   0.435  14.666  0.2338 -0.5913 -0.0579
 9203SOL    HW139245   2.551   0.381  14.589 -0.3229 -0.7421  0.2009
 9203SOL    HW239246   2.549   0.524  14.638 -1.3949 -0.3582  2.0477
 9204SOL     OW39247   1.200   3.417   9.967  0.5115  0.0505  0.0148
 9204SOL    HW139248   1.160   3.415   9.880 -0.1201 -2.4470  0.3664
 9204SOL    HW239249   1.195   3.327   9.999  2.3150 -0.4868 -1.2000
 9205SOL     OW39250   0.480   0.632   3.921 -0.5678  0.4850 -0.1935
 9205SOL    HW139251   0.396   0.674   3.902 -1.9576 -1.0263  2.5879
 9205SOL    HW239252   0.516   0.679   3.995  0.8690  1.7725 -1.7120
 9206SOL     OW39253   0.701   0.080   7.468  0.1094 -0.0516  0.3378
 9206SOL    HW139254   0.729   0.169   7.491  0.8438 -0.6544  1.7951
 9206SOL    HW239255   0.756   0.072   7.390  1.1795  0.8666  0.9964
 9207SOL     OW39256   0.646   3.410   9.640 -0.9896 -0.1052 -0.2592
 9207SOL    HW139257   0.656   3.410   9.735 -0.1143 -2.4643 -0.3538
 9207SOL    HW239258   0.729   3.455   9.627 -0.6641 -0.2384  1.4708
 9208SOL     OW39259   3.263   0.447   2.717 -0.3813 -0.1152 -0.1158
 9208SOL    HW139260   3.249   0.476   2.627  0.8041  0.4482 -0.1260
 9208SOL    HW239261   3.320   0.370   2.705  1.1593  1.4092 -2.6067
 9209SOL     OW39262   1.171   3.297   8.957  0.3850 -0.2158 -0.7999
 9209SOL    HW139263   1.149   3.203   8.955 -1.3411  0.2279 -2.1376
 9209SOL    HW239264   1.122   3.327   9.033 -0.0376  0.8362 -1.4895
 9210SOL     OW39265   3.447   0.645   8.053 -0.0699 -0.3743  0.1741
 9210SOL    HW139266   3.405   0.655   8.138  2.9623  0.5753  1.5498
 9210SOL    HW239267   3.441   0.734   8.019 -0.8635 -0.3425  0.4076
 9211SOL     OW39268   3.280   1.775   0.170 -0.0997 -0.1202  0.3619
 9211SOL    HW139269   3.305   1.711   0.236  0.8410 -0.4005 -0.2635
 9211SOL    HW239270   3.328   1.738   0.096  2.3862  0.1747  1.8359
 9212SOL     OW39271   0.334   1.392   7.643 -0.2880  0.1678 -0.6852
 9212SOL    HW139272   0.290   1.456   7.699 -0.1516  0.2618 -0.6872
 9212SOL    HW239273   0.426   1.388   7.671 -0.4041  1.6222 -0.0741
 9213SOL     OW39274   2.404   1.247  14.873 -0.3266 -0.7421 -0.3916
 9213SOL    HW139275   2.316   1.211  14.858  0.0187 -1.0603 -1.6615
 9213SOL    HW239276   2.393   1.300  14.952  1.1295  0.4465 -0.9881
 9214SOL     OW39277   0.957   3.732  12.310 -0.2811 -0.5495 -0.1154
 9214SOL    HW139278   1.041   3.778  12.299  0.9403 -2.6412  0.4024
 9214SOL    HW239279   0.949   3.685  12.227 -0.6897  0.0278 -0.4064
 9215SOL     OW39280   0.566   4.427   4.796  0.1878 -0.0873  0.1101
 9215SOL    HW139281   0.603   4.424   4.884  0.1295  0.7168  0.1631
 9215SOL    HW239282   0.614   4.507   4.773  0.4488 -0.4768 -0.7023
 9216SOL     OW39283   2.850   3.833   1.465  0.0647 -0.6699  0.0302
 9216SOL    HW139284   2.757   3.815   1.484 -0.1245  2.0199  1.7433
 9216SOL    HW239285   2.886   3.837   1.554  0.4920 -0.2421 -0.1682
 9217SOL     OW39286   4.103   4.328   1.804 -0.6547 -0.3001 -0.1068
 9217SOL    HW139287   4.139   4.240   1.793 -0.7737 -0.5324  1.2741
 9217SOL    HW239288   4.106   4.344   1.898 -0.6930  1.3876 -0.3960
 9218SOL     OW39289   2.575   1.911  13.209 -0.1455  0.1783 -0.1432
 9218SOL    HW139290   2.498   1.860  13.185 -1.3001  1.9040 -0.0536
 9218SOL    HW239291   2.585   1.881  13.299 -1.7438  2.0356  0.6323
 9219SOL     OW39292   4.664   3.587   8.808  0.0194  0.5759 -0.3458
 9219SOL    HW139293   4.703   3.608   8.893 -0.9332  0.4388  0.1201
 9219SOL    HW239294   4.573   3.605   8.830 -0.5606 -2.5475 -0.2134
 9220SOL     OW39295   0.005   2.288  17.523  0.2252 -0.2050  0.5885
 9220SOL    HW139296   0.073   2.321  17.581  2.1284 -1.0827 -1.1277
 9220SOL    HW239297   0.051   2.300  17.439  1.0455  0.6860  1.1655
 9221SOL     OW39298   3.217   3.778   9.305 -0.0003  0.2481 -0.1476
 9221SOL    HW139299   3.266   3.813   9.380 -0.6734 -0.7739  0.7667
 9221SOL    HW239300   3.231   3.839   9.233 -1.5490  1.9422  0.9818
 9222SOL     OW39301   4.431   0.583   7.277 -0.1596  0.4147  0.3180
 9222SOL    HW139302   4.353   0.547   7.235  1.2164 -0.8321 -1.1597
 9222SOL    HW239303   4.468   0.625   7.199 -0.9091 -0.3349 -0.4338
 9223SOL     OW39304   1.583   4.038   0.793  0.0554  0.2266  0.3064
 9223SOL    HW139305   1.576   4.067   0.884 -1.8089 -0.0569  0.2555
 9223SOL    HW239306   1.491   4.037   0.767 -0.3128 -2.4835  1.7805
 9224SOL     OW39307   0.428   3.272  16.643 -0.1421  0.5264  0.0446
 9224SOL    HW139308   0.361   3.258  16.710  1.1710  0.8460  1.4284
 9224SOL    HW239309   0.392   3.232  16.564 -0.3912  1.7998 -0.4978
 9225SOL     OW39310   2.878   2.445   1.279 -0.3988 -0.0145 -0.0720
 9225SOL    HW139311   2.816   2.486   1.218  0.8436  0.3462 -1.0828
 9225SOL    HW239312   2.818   2.375   1.305  0.2811 -1.8022 -3.2644
 9226SOL     OW39313   3.637   1.379  17.634  0.6588 -0.0130 -0.0112
 9226SOL    HW139314   3.655   1.471  17.617  0.3505  0.5449  2.5840
 9226SOL    HW239315   3.642   1.355  17.542 -0.3082 -1.6155  0.3472
 9227SOL     OW39316   2.542   2.521   3.785  0.0111  0.2381 -0.4286
 9227SOL    HW139317   2.516   2.429   3.781 -1.4054  0.5977  0.5897
 9227SOL    HW239318   2.519   2.536   3.877 -0.8163  1.1617 -0.7870
 9228SOL     OW39319   1.918   1.506   7.484 -0.5206  0.0166 -0.5158
 9228SOL    HW139320   1.996   1.471   7.441  0.0870  1.6940 -0.8057
 9228SOL    HW239321   1.870   1.424   7.488  0.3512 -0.5588 -1.7180
 9229SOL     OW39322   3.353   1.565   5.124 -0.0046 -0.0684 -0.1555
 9229SOL    HW139323   3.258   1.551   5.126  0.1054 -0.7449  0.2510
 9229SOL    HW239324   3.374   1.490   5.179  0.4817  0.5013  0.4295
 9230SOL     OW39325   1.066   1.701  14.333  0.5140  0.4578 -0.7717
 9230SOL    HW139326   1.073   1.795  14.319  0.9434  0.6217  0.4906
 9230SOL    HW239327   1.014   1.665  14.262  2.7190  1.4348 -2.8632
 9231SOL     OW39328   3.831   3.960   2.920 -0.0290 -0.1611 -0.5041
 9231SOL    HW139329   3.913   3.999   2.950 -0.5694  0.0988  0.6304
 9231SOL    HW239330   3.825   3.892   2.986  1.0196  0.6205  0.3852
 9232SOL     OW39331   1.796   4.212   2.829 -0.2326 -0.5073  0.3925
 9232SOL    HW139332   1.828   4.135   2.876 -0.5476 -0.1091  1.2473
 9232SOL    HW239333   1.702   4.198   2.817  0.0410  0.2972 -2.5926
 9233SOL     OW39334   1.170   1.515  11.113 -0.1462 -0.8443 -0.1207
 9233SOL    HW139335   1.216   1.593  11.145 -0.1308 -0.2077 -1.7476
 9233SOL    HW239336   1.097   1.559  11.070  1.0179  0.7266 -0.5031
 9234SOL     OW39337   4.609   1.031   9.979  0.0259 -0.4095  0.1103
 9234SOL    HW139338   4.590   0.984   9.897  0.2486 -2.4801  1.2390
 9234SOL    HW239339   4.625   1.117   9.940 -1.7172 -0.0488  0.1678
 9235SOL     OW39340   2.722   0.254  15.326 -0.0694 -0.0214  0.2367
 9235SOL    HW139341   2.684   0.229  15.242 -0.1086  0.6762  0.0475
 9235SOL    HW239342   2.728   0.347  15.305  0.4175  0.0052  0.5092
 9236SOL     OW39343   1.320   1.687   4.831  0.3791 -0.0538  0.0683
 9236SOL    HW139344   1.400   1.718   4.788 -0.2842  0.9675 -0.4342
 9236SOL    HW239345   1.278   1.645   4.756  1.0362  1.3738 -1.0966
 9237SOL     OW39346   4.477   4.000  15.964 -0.5700  0.2335  0.2705
 9237SOL    HW139347   4.397   3.948  15.963  0.5464 -1.4053 -1.7003
 9237SOL    HW239348   4.447   4.089  15.948  1.1710  0.2867 -2.5425
 9238SOL     OW39349   0.782   1.587  12.167 -0.7668  0.5530 -0.1625
 9238SOL    HW139350   0.776   1.496  12.195  1.7547  0.3736 -0.2189
 9238SOL    HW239351   0.689   1.597  12.145 -0.4124 -0.1200 -1.9021
 9239SOL     OW39352   0.072   0.825   2.676 -0.0309 -0.0030 -0.5134
 9239SOL    HW139353   0.155   0.783   2.702  1.1261  2.8508  0.3383
 9239SOL    HW239354   0.113   0.908   2.652  1.0532 -0.9782 -2.0621
 9240SOL     OW39355   3.967   2.982   8.575  0.0479  0.0612  0.5363
 9240SOL    HW139356   3.915   3.033   8.513  2.1824  1.5857 -0.0220
 9240SOL    HW239357   4.002   2.914   8.517  1.5262 -0.3501  1.9254
 9241SOL     OW39358   3.924   1.221   8.249 -0.4312 -0.2499 -0.3212
 9241SOL    HW139359   3.880   1.304   8.232  1.1996  0.7181  0.1975
 9241SOL    HW239360   3.861   1.164   8.204 -1.0657 -0.1154  0.3933
 9242SOL     OW39361   3.783   1.213   3.461  0.0115  0.1030  0.1658
 9242SOL    HW139362   3.687   1.211   3.454  0.0965 -2.6432 -0.1151
 9242SOL    HW239363   3.802   1.121   3.480  0.4215  0.0374 -0.5955
 9243SOL     OW39364   2.071   3.500   1.343  0.1621  0.5153  0.1303
 9243SOL    HW139365   2.053   3.515   1.250  0.5430  0.1876  0.0053
 9243SOL    HW239366   2.160   3.533   1.346  0.8741 -1.5272  1.5853
 9244SOL     OW39367   4.031   1.596  15.844  0.0295  0.0248  0.1580
 9244SOL    HW139368   3.956   1.650  15.868  0.1429  1.0019 -1.6655
 9244SOL    HW239369   4.095   1.660  15.812  0.7724 -1.8094 -2.0419
 9245SOL     OW39370   0.581   1.200   4.654  0.1196  0.3637 -0.3352
 9245SOL    HW139371   0.664   1.189   4.701  0.1586  3.4442  0.3208
 9245SOL    HW239372   0.592   1.162   4.567  0.3681 -0.0487 -0.1215
 9246SOL     OW39373   2.976   4.480   7.645 -0.1494  0.8633  0.5230
 9246SOL    HW139374   2.976   4.407   7.708 -1.1874 -0.5747 -1.1484
 9246SOL    HW239375   3.051   4.529   7.679  2.6589 -2.7258 -0.4914
 9247SOL     OW39376   1.000   0.675   7.545 -0.9216  0.7551 -0.3197
 9247SOL    HW139377   1.020   0.594   7.498 -0.1639 -0.2966  1.8114
 9247SOL    HW239378   1.067   0.687   7.613 -1.5751  2.2043  0.0576
 9248SOL     OW39379   3.689   3.893   8.219 -0.2825 -0.5357 -0.2263
 9248SOL    HW139380   3.639   3.974   8.209 -1.4924 -1.5501 -2.6035
 9248SOL    HW239381   3.730   3.887   8.133 -0.9391 -2.6700 -0.4070
 9249SOL     OW39382   0.269   2.114   3.111 -0.4689  0.5051 -0.7187
 9249SOL    HW139383   0.212   2.042   3.083 -1.8238  1.0465  0.6780
 9249SOL    HW239384   0.323   2.060   3.168 -0.7584  2.9340  1.8561
 9250SOL     OW39385   4.245   2.856   4.722  0.4534  0.3994  0.2744
 9250SOL    HW139386   4.269   2.802   4.798  2.7275  2.9345  1.3634
 9250SOL    HW239387   4.156   2.824   4.708  0.6446  0.5428 -1.2357
 9251SOL     OW39388   1.581   3.964   5.049 -0.1255  0.4528  0.3080
 9251SOL    HW139389   1.512   4.027   5.070  1.0280  1.1691  1.9271
 9251SOL    HW239390   1.616   4.001   4.968 -2.5174 -0.9632 -1.3869
 9252SOL     OW39391   2.821   4.286   7.269  0.4892  0.4288 -0.2870
 9252SOL    HW139392   2.873   4.227   7.214  0.0462  1.0967 -1.4214
 9252SOL    HW239393   2.738   4.261   7.228 -0.7827 -0.2025  2.6786
 9253SOL     OW39394   1.320   0.150   7.350  0.2908  0.0875 -0.2711
 9253SOL    HW139395   1.292   0.203   7.276 -1.0648  0.4728  0.5337
 9253SOL    HW239396   1.411   0.178   7.361  0.5459 -0.2667 -1.4003
 9254SOL     OW39397   0.152   2.583   3.402  1.1727  0.1299  0.2098
 9254SOL    HW139398   0.154   2.501   3.353 -0.4281  0.6348 -0.6927
 9254SOL    HW239399   0.228   2.625   3.360  0.3459  1.1547 -0.2737
 9255SOL     OW39400   3.293   4.730  16.204 -0.0633  0.0299 -0.3428
 9255SOL    HW139401   3.325   0.003  16.294  1.1423 -1.3051 -0.6438
 9255SOL    HW239402   3.234   4.656  16.215 -0.4218  0.3667  0.0368
 9256SOL     OW39403   3.851   4.601   2.351  0.3677  0.3891 -0.2665
 9256SOL    HW139404   3.850   4.516   2.395 -0.6845  0.6928  0.2956
 9256SOL    HW239405   3.756   4.610   2.341  0.2564  1.0882  1.4220
 9257SOL     OW39406   0.695   0.693   5.042 -0.2751  0.1653 -0.0859
 9257SOL    HW139407   0.684   0.626   5.110  1.4914 -0.6675 -0.6004
 9257SOL    HW239408   0.684   0.766   5.102 -1.2445 -0.3457  0.3569
 9258SOL     OW39409   0.930   4.157   3.363 -0.4211 -0.1176 -0.3134
 9258SOL    HW139410   0.860   4.112   3.316  0.3969 -1.0963 -0.6055
 9258SOL    HW239411   0.967   4.204   3.288 -1.4665 -0.1322 -0.8309
 9259SOL     OW39412   3.812   0.414   1.689 -0.1992  0.1608 -0.0078
 9259SOL    HW139413   3.719   0.403   1.705  0.0494  0.6051  1.7429
 9259SOL    HW239414   3.831   0.329   1.729  1.0778  1.0306  1.2432
 9260SOL     OW39415   0.988   2.340   6.780  0.7297  0.0635 -0.1135
 9260SOL    HW139416   0.907   2.333   6.729  0.6214  0.8470 -0.0530
 9260SOL    HW239417   0.960   2.311   6.866  0.5675 -0.8014 -0.4567
 9261SOL     OW39418   1.486   0.354   5.604 -0.0114  0.1873 -0.4833
 9261SOL    HW139419   1.503   0.429   5.661 -2.1606  0.1167  0.2510
 9261SOL    HW239420   1.423   0.307   5.659  0.7505  0.6639  0.8179
 9262SOL     OW39421   3.260   1.457  13.344 -0.0001 -0.5248  0.2398
 9262SOL    HW139422   3.196   1.437  13.412  0.5145  0.9657  1.1352
 9262SOL    HW239423   3.224   1.405  13.271 -0.3431  2.2949 -1.5964
 9263SOL     OW39424   1.781   1.510   1.691 -0.8535 -0.4373  0.3286
 9263SOL    HW139425   1.834   1.589   1.700 -2.6562  0.8392 -0.2570
 9263SOL    HW239426   1.813   1.479   1.606 -2.6829  3.1432 -1.6376
 9264SOL     OW39427   2.341   3.027   1.944  0.2521  0.0511 -0.3302
 9264SOL    HW139428   2.424   3.044   1.989  1.8642 -0.7452 -3.0153
 9264SOL    HW239429   2.371   3.012   1.854  0.9811  1.1258 -0.2643
 9265SOL     OW39430   1.050   4.180  15.785 -0.1404  0.3657 -0.1766
 9265SOL    HW139431   1.047   4.267  15.825 -2.5261  0.8098 -1.2685
 9265SOL    HW239432   1.085   4.211  15.701 -0.2089  0.8229 -0.0374
 9266SOL     OW39433   1.008   0.294   4.271  0.4123 -0.2115 -0.3682
 9266SOL    HW139434   1.080   0.260   4.324  1.8761  0.0811 -2.2179
 9266SOL    HW239435   1.062   0.329   4.201  0.1926  0.5459 -0.1599
 9267SOL     OW39436   2.940   4.678   3.842 -0.1034 -0.0303  0.1822
 9267SOL    HW139437   2.879   0.006   3.878 -0.4061 -0.8907  1.1998
 9267SOL    HW239438   3.025   4.706   3.878  0.7789 -0.8173 -1.2726
 9268SOL     OW39439   4.267   2.337   2.293 -0.0900 -0.4423 -0.3849
 9268SOL    HW139440   4.272   2.305   2.203  0.7404 -0.0329 -0.4812
 9268SOL    HW239441   4.178   2.317   2.323  0.6104 -0.0766  1.9425
 9269SOL     OW39442   0.885   0.378   6.737  0.1964  0.0918  0.1932
 9269SOL    HW139443   0.824   0.379   6.663  0.7362 -0.0090 -0.2507
 9269SOL    HW239444   0.850   0.457   6.777 -1.0844 -0.0033 -0.7455
 9270SOL     OW39445   0.727   2.633   2.025  0.3996  0.3113 -0.6090
 9270SOL    HW139446   0.705   2.723   2.050  0.6377 -0.3467  1.9701
 9270SOL    HW239447   0.735   2.597   2.113 -1.3812  0.1581 -0.5124
 9271SOL     OW39448   4.536   0.675  16.681 -0.1126 -0.0723 -0.0625
 9271SOL    HW139449   4.509   0.744  16.742  0.0745  0.4273 -0.5489
 9271SOL    HW239450   4.580   0.720  16.609 -1.1119  0.4818 -0.3335
 9272SOL     OW39451   3.679   3.063  12.618  0.5397  0.0487  0.1863
 9272SOL    HW139452   3.664   2.972  12.643  0.8459  0.3839  1.5689
 9272SOL    HW239453   3.765   3.052  12.576  0.6715 -2.0232  1.0008
 9273SOL     OW39454   1.275   1.894   4.500 -0.3071  0.1204 -0.1137
 9273SOL    HW139455   1.367   1.901   4.475 -0.0475  2.8368  1.5839
 9273SOL    HW239456   1.277   1.819   4.559  0.0283 -1.1378 -1.7333
 9274SOL     OW39457   1.363   0.452   0.321  0.2194  0.3290  0.5508
 9274SOL    HW139458   1.393   0.389   0.256 -1.1510  0.2575 -0.0253
 9274SOL    HW239459   1.308   0.514   0.272  0.7602 -0.4301 -1.0048
 9275SOL     OW39460   4.279   3.746  12.166 -0.1338  0.3247 -0.2046
 9275SOL    HW139461   4.302   3.656  12.187 -0.3564  0.4908  0.7475
 9275SOL    HW239462   4.319   3.785  12.244 -1.0543  1.2098 -0.1719
 9276SOL     OW39463   4.588   3.115   7.862  0.0863  0.1270  0.3756
 9276SOL    HW139464   4.590   3.052   7.790  1.0686  0.7205 -0.1106
 9276SOL    HW239465   4.593   3.193   7.806 -1.0277  0.7332  1.1249
 9277SOL     OW39466   0.721   0.352   7.531 -0.6008 -0.3564  0.1686
 9277SOL    HW139467   0.816   0.366   7.534 -0.5248 -1.2895  2.0007
 9277SOL    HW239468   0.704   0.445   7.519  0.6226 -0.3446 -1.3520
 9278SOL     OW39469   2.769   3.902   8.699  0.3847 -0.2365  0.3707
 9278SOL    HW139470   2.690   3.897   8.752 -0.5881  0.4651 -0.9874
 9278SOL    HW239471   2.812   3.823   8.732 -1.4481 -1.1976  0.4471
 9279SOL     OW39472   2.839   2.456   9.222 -0.0508  0.5456 -0.1042
 9279SOL    HW139473   2.870   2.534   9.269 -2.1816  0.9347  0.6659
 9279SOL    HW239474   2.899   2.449   9.147  0.2513 -1.4117  0.3164
 9280SOL     OW39475   2.260   0.879   8.091 -0.6546 -0.0584  0.3098
 9280SOL    HW139476   2.345   0.856   8.053 -1.1678 -2.6781  0.7012
 9280SOL    HW239477   2.262   0.820   8.167 -2.2722 -0.5121 -0.0065
 9281SOL     OW39478   2.351   0.419   5.893 -0.6899 -0.5404  0.2546
 9281SOL    HW139479   2.303   0.500   5.879 -2.5568 -1.5586  0.8374
 9281SOL    HW239480   2.439   0.455   5.903 -1.4035  1.3518 -0.3098
 9282SOL     OW39481   2.493   3.027   9.010 -0.2523  0.0466  0.1727
 9282SOL    HW139482   2.573   2.976   9.026 -0.8338 -0.4111  1.5596
 9282SOL    HW239483   2.510   3.110   9.055  1.1511 -0.4840  0.6027
 9283SOL     OW39484   1.612   1.673   5.462 -0.1938 -0.2745 -0.2815
 9283SOL    HW139485   1.546   1.688   5.395 -1.2026  0.8201  0.9707
 9283SOL    HW239486   1.603   1.749   5.520 -2.1656  0.3911 -1.4813
 9284SOL     OW39487   2.387   0.925  14.634  0.8172  0.3832 -0.1431
 9284SOL    HW139488   2.341   0.983  14.694  2.5906  0.5230  1.0837
 9284SOL    HW239489   2.394   0.972  14.551 -1.1135 -1.2006 -1.2023
 9285SOL     OW39490   0.904   4.001   8.631  0.0190  0.0730 -0.1345
 9285SOL    HW139491   0.887   4.062   8.703 -1.7080  0.7245 -1.0921
 9285SOL    HW239492   0.951   3.933   8.680 -0.8246  0.7169  1.5624
 9286SOL     OW39493   2.862   0.684   2.190  0.1491  0.1282  0.1111
 9286SOL    HW139494   2.908   0.767   2.176  1.1083 -0.4056  0.1556
 9286SOL    HW239495   2.912   0.639   2.258  1.6547 -0.4388 -1.3694
 9287SOL     OW39496   2.674   4.213   5.093  0.0599 -0.1807  0.2457
 9287SOL    HW139497   2.622   4.276   5.044 -0.7392  0.0169  1.3626
 9287SOL    HW239498   2.600   4.165   5.129  0.3994 -0.5735  0.4269
 9288SOL     OW39499   3.592   1.133   7.737  0.5319 -0.4670  0.0011
 9288SOL    HW139500   3.516   1.075   7.733  0.8129 -0.8213 -0.1706
 9288SOL    HW239501   3.563   1.205   7.681 -0.9055 -0.1060  1.2008
 9289SOL     OW39502   3.840   0.310   8.772 -0.6881  0.3486 -0.5826
 9289SOL    HW139503   3.746   0.303   8.753 -0.5371  0.2528 -1.2833
 9289SOL    HW239504   3.879   0.367   8.705  1.0883 -0.1386  0.0399
 9290SOL     OW39505   2.215   2.913  12.580 -0.5632 -0.0052  0.5037
 9290SOL    HW139506   2.132   2.920  12.534  0.1800 -0.8133 -0.9563
 9290SOL    HW239507   2.201   2.834  12.633  1.1046 -2.3525 -2.5716
 9291SOL     OW39508   4.710   3.626   7.483  0.2951 -0.1312 -0.3780
 9291SOL    HW139509   4.636   3.685   7.472  0.1159 -0.7866 -2.7003
 9291SOL    HW239510   4.711   3.612   7.577  1.0181  0.4328 -0.3003
 9292SOL     OW39511   2.755   0.128   3.892  0.3993  0.8746 -0.3003
 9292SOL    HW139512   2.783   0.187   3.962 -0.2490  0.5430  0.2384
 9292SOL    HW239513   2.706   0.191   3.840  1.5583  0.4844 -1.8485
 9293SOL     OW39514   2.945   4.316   5.806  0.0366 -0.6714  0.4215
 9293SOL    HW139515   2.926   4.362   5.724  1.7508 -0.7849 -0.0343
 9293SOL    HW239516   2.912   4.387   5.861 -0.1518  0.4355 -1.1043
 9294SOL     OW39517   2.666   0.275   3.117  0.6110 -0.1480 -0.2174
 9294SOL    HW139518   2.607   0.343   3.149 -0.0584  0.0066 -1.7871
 9294SOL    HW239519   2.720   0.246   3.190  0.3378  0.9815  0.4237
 9295SOL     OW39520   1.829   1.445   9.488  0.3191  0.4170  0.5139
 9295SOL    HW139521   1.846   1.529   9.446 -2.8341  0.2755 -0.9654
 9295SOL    HW239522   1.872   1.458   9.573  0.6354 -0.2576  0.4571
 9296SOL     OW39523   0.764   1.681  11.358 -0.0770  1.0153  0.2891
 9296SOL    HW139524   0.799   1.716  11.276 -0.0767  0.3060 -0.0172
 9296SOL    HW239525   0.767   1.754  11.420  0.1563  0.8075  0.5189
 9297SOL     OW39526   0.927   2.517   6.489 -0.1707  0.1482  0.1317
 9297SOL    HW139527   0.883   2.468   6.559 -0.2470  1.2431  0.8555
 9297SOL    HW239528   0.935   2.608   6.518 -0.0258  0.4604 -0.8871
 9298SOL     OW39529   2.266   1.872   6.533 -0.1774 -0.1901  0.2510
 9298SOL    HW139530   2.322   1.943   6.564 -1.1509  0.5505  0.3028
 9298SOL    HW239531   2.198   1.872   6.600 -1.9972  1.8496 -1.6082
 9299SOL     OW39532   1.738   4.244   1.119  0.5371  0.0872  0.1362
 9299SOL    HW139533   1.785   4.162   1.137  1.2978  0.0878 -1.9090
 9299SOL    HW239534   1.666   4.241   1.182  2.9157  1.0447  2.9392
 9300SOL     OW39535   2.601   3.078   4.992  0.4310  0.3331  0.0639
 9300SOL    HW139536   2.561   3.148   4.941  0.1125 -1.7919 -2.5523
 9300SOL    HW239537   2.646   3.026   4.926  0.2306 -0.1288  0.2863
 9301SOL     OW39538   3.155   1.034   6.344 -0.4244  0.2635 -0.0893
 9301SOL    HW139539   3.141   0.942   6.322 -0.3852  0.1431  0.3919
 9301SOL    HW239540   3.100   1.081   6.281  0.1850 -1.0610 -1.6149
 9302SOL     OW39541   4.203   2.750   6.586 -0.1947 -0.4782  0.2090
 9302SOL    HW139542   4.126   2.794   6.621  1.4402  0.2178  2.8670
 9302SOL    HW239543   4.248   2.828   6.556 -1.3103  0.0055 -0.1939
 9303SOL     OW39544   0.252   1.215   6.362 -0.2195  0.5209  0.1309
 9303SOL    HW139545   0.280   1.250   6.446 -2.7167  1.1255  0.7051
 9303SOL    HW239546   0.222   1.296   6.321  1.1107  0.3510 -1.1886
 9304SOL     OW39547   3.581   1.470   2.254  0.5364  0.1914  0.0879
 9304SOL    HW139548   3.667   1.430   2.242  0.4510  0.8742 -2.7991
 9304SOL    HW239549   3.517   1.401   2.237  0.5182  0.0597  0.6707
 9305SOL     OW39550   0.451   4.304  14.213 -0.2350  0.0083  0.1033
 9305SOL    HW139551   0.366   4.330  14.177 -1.7896 -1.0245  3.0314
 9305SOL    HW239552   0.497   4.309  14.130 -0.3294  2.7681  0.2128
 9306SOL     OW39553   1.880   1.057   7.918  0.0126 -0.0707 -0.3726
 9306SOL    HW139554   1.813   0.990   7.910 -2.1962  2.2025 -0.5830
 9306SOL    HW239555   1.824   1.121   7.961 -0.7017 -1.0348  0.1181
 9307SOL     OW39556   3.990   2.334  15.131  0.3704 -0.4841  0.0613
 9307SOL    HW139557   3.929   2.336  15.057 -0.5513 -0.6075  0.8034
 9307SOL    HW239558   4.074   2.338  15.086  0.8477  3.4108  1.3273
 9308SOL     OW39559   4.035   2.199  10.317  0.0514  0.2686 -0.1746
 9308SOL    HW139560   4.072   2.244  10.393  0.8537  1.7229 -1.4302
 9308SOL    HW239561   4.008   2.117  10.359  2.7271 -0.5358  0.0089
 9309SOL     OW39562   3.613   3.737   9.481 -0.2546 -0.3264 -0.5659
 9309SOL    HW139563   3.634   3.772   9.395  0.6157 -1.2640 -0.7399
 9309SOL    HW239564   3.573   3.655   9.452  0.3056 -0.6844 -0.3261
 9310SOL     OW39565   0.270   4.689  17.244 -0.2253  0.3032 -0.0525
 9310SOL    HW139566   0.198   0.001  17.202  0.0620 -0.6379 -1.6125
 9310SOL    HW239567   0.302   0.015  17.310  0.4172  0.7298 -0.7692
 9311SOL     OW39568   4.662   2.249   7.166  0.0411  0.3365  0.4194
 9311SOL    HW139569   4.625   2.218   7.248  3.3488 -0.8480  1.4467
 9311SOL    HW239570   4.586   2.260   7.108  0.0049  1.4157  0.6562
 9312SOL     OW39571   4.172   0.136   8.727  0.1686  0.4061  0.1868
 9312SOL    HW139572   4.201   0.221   8.693 -1.4854  0.7708 -0.3606
 9312SOL    HW239573   4.131   0.160   8.810  1.1187 -0.8631  1.0321
 9313SOL     OW39574   2.260   3.817  13.600 -0.2471 -0.6253 -0.3695
 9313SOL    HW139575   2.326   3.886  13.604 -1.6734  0.6663  0.8204
 9313SOL    HW239576   2.184   3.875  13.594  0.2243  0.1407  1.3560
 9314SOL     OW39577   4.402   1.103   0.587 -0.6065 -0.0071  0.4071
 9314SOL    HW139578   4.425   1.119   0.678  3.5134  0.2190 -0.6701
 9314SOL    HW239579   4.316   1.065   0.603 -1.3157  1.1723 -0.5279
 9315SOL     OW39580   3.992   2.716   2.658  0.7186  0.0769 -0.0729
 9315SOL    HW139581   3.920   2.751   2.710 -1.6867 -3.6501 -0.9489
 9315SOL    HW239582   4.062   2.773   2.692  0.7072  1.7973 -2.9444
 9316SOL     OW39583   1.900   0.440  12.864  0.1396  0.0818  0.5839
 9316SOL    HW139584   1.838   0.423  12.935  0.5749 -1.2265  0.6613
 9316SOL    HW239585   1.895   0.356  12.818 -0.5135 -0.4287  1.5943
 9317SOL     OW39586   2.316   3.316  10.147 -0.7533 -0.5407 -0.1555
 9317SOL    HW139587   2.287   3.365  10.071  0.2379  0.7562  0.3034
 9317SOL    HW239588   2.327   3.383  10.214  1.9396 -2.4050  1.2935
 9318SOL     OW39589   0.661   4.564   2.269 -0.1826 -0.1686 -0.0676
 9318SOL    HW139590   0.724   4.494   2.285  0.2398 -0.0169 -1.0234
 9318SOL    HW239591   0.705   4.633   2.319  1.4942 -0.6641 -0.8274
 9319SOL     OW39592   0.432   4.515   6.788 -0.2149  0.0323  0.0507
 9319SOL    HW139593   0.386   4.444   6.743 -3.7726  1.9419  0.7103
 9319SOL    HW239594   0.497   4.465   6.838 -0.5420  1.9831  2.3857
 9320SOL     OW39595   2.311   0.712   6.022 -0.1682 -0.7011  0.3201
 9320SOL    HW139596   2.406   0.711   6.035 -0.3984 -0.0034  2.0859
 9320SOL    HW239597   2.267   0.734   6.104  1.0696 -2.9226  1.5847
 9321SOL     OW39598   1.624   3.046   9.235 -0.3266  0.6673  0.4822
 9321SOL    HW139599   1.604   2.976   9.172 -0.9396  0.3303  1.0519
 9321SOL    HW239600   1.595   3.120   9.181  1.3186  1.5872  0.8694
 9322SOL     OW39601   0.893   3.821   7.409 -0.3822 -0.6385 -0.6952
 9322SOL    HW139602   0.882   3.914   7.386  1.3098 -0.3544 -0.3731
 9322SOL    HW239603   0.809   3.797   7.446  0.3834 -1.8869  0.2364
 9323SOL     OW39604   4.685   1.899  15.287 -0.6167 -0.5870  0.6335
 9323SOL    HW139605   4.717   1.912  15.376 -1.1760 -0.3307  0.8025
 9323SOL    HW239606   4.628   1.823  15.300  0.9135 -1.2933  3.1543
 9324SOL     OW39607   4.713   2.793  14.595  0.1472  0.4020 -0.8009
 9324SOL    HW139608   4.619   2.776  14.591 -0.1043  1.1829  1.8881
 9324SOL    HW239609   0.014   2.708  14.621 -0.3843  0.6297  0.6968
 9325SOL     OW39610   0.667   2.325   7.989 -0.3098 -0.1082  0.4427
 9325SOL    HW139611   0.642   2.303   8.079 -0.7567  1.3395  0.6745
 9325SOL    HW239612   0.712   2.409   7.996  0.8156 -0.6384 -0.3343
 9326SOL     OW39613   2.320   1.860  10.770  0.3293 -0.1284 -0.4725
 9326SOL    HW139614   2.367   1.872  10.852  1.9309  2.1562 -1.7513
 9326SOL    HW239615   2.261   1.788  10.794  0.2137  0.5526  1.2555
 9327SOL     OW39616   3.235   4.438   8.900 -1.2213  0.1459 -0.2101
 9327SOL    HW139617   3.214   4.479   8.984  2.4409 -1.9541  1.6949
 9327SOL    HW239618   3.270   4.509   8.846  0.1788 -0.4982 -0.1244
 9328SOL     OW39619   3.402   2.094   7.975  0.5601  0.5466  0.3815
 9328SOL    HW139620   3.390   2.144   8.056  1.0472  1.3507 -0.0347
 9328SOL    HW239621   3.332   2.118   7.914  0.5737 -0.2272  0.0646
 9329SOL     OW39622   3.888   4.531  16.867 -0.3516  0.6874  0.7944
 9329SOL    HW139623   3.921   4.541  16.777  1.9925 -2.3336  1.3062
 9329SOL    HW239624   3.926   4.447  16.893 -0.4999 -0.1864 -1.7575
 9330SOL     OW39625   3.741   2.560   3.267  0.1905 -0.0290  0.7002
 9330SOL    HW139626   3.815   2.573   3.206 -1.0989  0.0320 -0.8538
 9330SOL    HW239627   3.770   2.598   3.350 -1.1027  0.4664  0.9205
 9331SOL     OW39628   0.679   2.360   5.893  0.8116  0.0510  0.5136
 9331SOL    HW139629   0.736   2.362   5.817 -0.4913  0.9227 -0.4386
 9331SOL    HW239630   0.682   2.274   5.936 -1.6925  0.6151  1.8712
 9332SOL     OW39631   2.617   4.162   3.636 -0.1269  0.5791  0.4761
 9332SOL    HW139632   2.569   4.223   3.692 -1.9394  0.5310 -1.0398
 9332SOL    HW239633   2.681   4.218   3.592 -0.3697  0.4601 -0.0248
 9333SOL     OW39634   3.425   3.838   1.940  0.1530 -0.2170 -0.1614
 9333SOL    HW139635   3.517   3.850   1.964 -0.1744 -0.2106  1.0803
 9333SOL    HW239636   3.441   3.822   1.847 -0.8646 -0.5469 -0.2772
 9334SOL     OW39637   2.834   2.046  16.253  0.4499  0.1182 -0.1060
 9334SOL    HW139638   2.885   2.063  16.174  0.2924  0.7198 -0.0762
 9334SOL    HW239639   2.905   2.002  16.302  0.5691 -0.6295 -0.9405
 9335SOL     OW39640   3.959   2.475   1.660 -0.3530 -0.3544  0.0297
 9335SOL    HW139641   3.999   2.552   1.621 -0.1322 -0.7923 -0.6216
 9335SOL    HW239642   3.985   2.484   1.752 -2.3605 -2.5519  0.8245
 9336SOL     OW39643   4.332   1.354   2.276 -0.2887 -0.2682  0.1912
 9336SOL    HW139644   4.412   1.363   2.327  0.2984 -0.3556 -0.7286
 9336SOL    HW239645   4.361   1.291   2.211 -2.5131 -0.8954 -0.1924
 9337SOL     OW39646   3.466   1.840   3.920 -0.1394 -0.1187  0.6577
 9337SOL    HW139647   3.510   1.886   3.849 -1.5954 -0.4427 -0.4482
 9337SOL    HW239648   3.442   1.770   3.859 -0.7353  0.0379  0.7102
 9338SOL     OW39649   1.314   2.237   9.190 -0.0322  0.3202 -0.3078
 9338SOL    HW139650   1.305   2.188   9.108  2.7072 -0.3706 -0.1784
 9338SOL    HW239651   1.396   2.196   9.217  0.3630  0.7780 -0.8076
 9339SOL     OW39652   3.707   1.947  16.714 -0.1148 -0.3610 -0.3487
 9339SOL    HW139653   3.800   1.969  16.723  0.1188 -0.9584 -1.3360
 9339SOL    HW239654   3.697   1.932  16.620 -1.9440  1.1073 -0.3996
 9340SOL     OW39655   0.234   3.890   2.212 -0.7480 -0.1657 -0.2298
 9340SOL    HW139656   0.201   3.800   2.207 -2.6847  0.4782  0.7022
 9340SOL    HW239657   0.245   3.919   2.122 -0.6301  0.2646 -0.0762
 9341SOL     OW39658   0.413   1.313   6.564 -0.3308  0.2017 -0.2101
 9341SOL    HW139659   0.474   1.335   6.495  0.5012  0.7230  0.6854
 9341SOL    HW239660   0.423   1.384   6.628  3.2114  0.5391 -1.1931
 9342SOL     OW39661   0.038   2.426   0.338  0.5067  0.0948  0.2182
 9342SOL    HW139662   4.712   2.434   0.411 -1.3026  1.8866 -1.5182
 9342SOL    HW239663   0.042   2.330   0.332  0.4909  0.1659 -0.8577
 9343SOL     OW39664   3.430   3.345   3.555  0.2290 -0.3777  0.5062
 9343SOL    HW139665   3.507   3.302   3.595 -0.2162 -0.1912  1.5766
 9343SOL    HW239666   3.394   3.401   3.624  1.6350  2.5133 -1.1466
 9344SOL     OW39667   0.520   1.078   1.956 -0.3986 -0.0749  0.4177
 9344SOL    HW139668   0.436   1.081   2.003 -0.4207 -1.6540  0.4945
 9344SOL    HW239669   0.586   1.071   2.025  2.6852  1.9471 -2.3610
 9345SOL     OW39670   1.470   4.714  11.189 -0.4072  0.5648 -0.1798
 9345SOL    HW139671   1.424   4.708  11.272 -0.6895  1.2471 -0.2805
 9345SOL    HW239672   1.560   4.685  11.205 -1.4012 -1.0390  2.4615
 9346SOL     OW39673   3.903   1.953   8.701 -0.1536  0.5618 -0.4210
 9346SOL    HW139674   3.909   1.899   8.780  0.5270 -0.0560 -0.9000
 9346SOL    HW239675   3.815   1.991   8.701 -1.2394 -1.9970  1.9023
 9347SOL     OW39676   3.317   3.306   3.305 -0.1331  0.6741  0.1717
 9347SOL    HW139677   3.332   3.218   3.269 -1.0063 -0.0461  1.5434
 9347SOL    HW239678   3.341   3.291   3.397  0.5552  1.6143  0.1436
 9348SOL     OW39679   0.887   2.959   4.020  0.2020 -0.2883 -0.6614
 9348SOL    HW139680   0.849   3.046   4.031  1.5087  0.3226 -0.9091
 9348SOL    HW239681   0.968   2.975   3.971  0.2571 -2.6445 -1.3367
 9349SOL     OW39682   1.327   2.604   8.444 -0.4253  0.8742  0.0041
 9349SOL    HW139683   1.382   2.590   8.521  1.3717  0.3696 -1.3648
 9349SOL    HW239684   1.286   2.688   8.465 -0.5389  1.0189 -0.7803
 9350SOL     OW39685   4.341   1.500   8.473 -0.2376 -0.0882 -0.0135
 9350SOL    HW139686   4.421   1.524   8.520 -0.8435  2.0916 -0.1028
 9350SOL    HW239687   4.319   1.414   8.509 -0.0233 -1.1771 -2.4634
 9351SOL     OW39688   2.639   4.402   3.810  0.0275  0.1979  0.0141
 9351SOL    HW139689   2.695   4.339   3.855 -1.2364 -1.2204 -0.3536
 9351SOL    HW239690   2.656   4.486   3.852 -1.6933 -0.0554  1.1958
 9352SOL     OW39691   0.563   0.044   8.334 -0.1643  0.6979  0.2423
 9352SOL    HW139692   0.522   0.117   8.381 -2.1219  0.4443 -1.0945
 9352SOL    HW239693   0.515   0.047   8.251 -0.1302  0.1320  0.2061
 9353SOL     OW39694   2.695   3.554   2.788  0.3333  0.2894 -0.0746
 9353SOL    HW139695   2.623   3.594   2.739  0.1506  0.8505  0.6534
 9353SOL    HW239696   2.704   3.598   2.872 -1.1736  0.3263  0.0707
 9354SOL     OW39697   1.025   4.437   6.824 -0.0223  0.0448  0.7016
 9354SOL    HW139698   0.969   4.428   6.747  2.2519 -0.6470 -0.8546
 9354SOL    HW239699   1.004   4.529   6.841 -1.3666 -0.1699  0.1637
 9355SOL     OW39700   1.248   4.612   3.742 -0.3337 -0.7052  0.2966
 9355SOL    HW139701   1.203   4.538   3.784  1.9693 -0.3656  3.3394
 9355SOL    HW239702   1.170   4.660   3.715  1.0134 -0.4384 -3.0129
 9356SOL     OW39703   1.183   1.269   2.757 -0.4441 -0.2314  0.2101
 9356SOL    HW139704   1.200   1.176   2.740 -0.1916 -0.2799  0.7247
 9356SOL    HW239705   1.263   1.299   2.713 -0.3947 -0.4208  0.1688
 9357SOL     OW39706   0.417   2.352  11.631 -0.4807 -0.0646  0.3326
 9357SOL    HW139707   0.417   2.306  11.714  2.5821 -0.7032  0.0040
 9357SOL    HW239708   0.450   2.438  11.659  0.4749  0.6558 -2.8855
 9358SOL     OW39709   4.265   2.679   9.689  0.4006 -0.1020 -0.0130
 9358SOL    HW139710   4.304   2.763   9.713 -0.1339  0.6196 -1.6920
 9358SOL    HW239711   4.226   2.647   9.771  1.7477 -0.7503  0.3660
 9359SOL     OW39712   3.998   4.591   1.778 -1.0028  0.1459 -0.1297
 9359SOL    HW139713   4.036   4.504   1.787  0.6528  0.8656 -0.1297
 9359SOL    HW239714   3.968   4.600   1.869  1.0018  0.0738  0.5191
 9360SOL     OW39715   4.369   2.972  14.828 -0.0484 -0.3796 -0.1623
 9360SOL    HW139716   4.296   2.917  14.858  0.4505 -0.5656  0.7188
 9360SOL    HW239717   4.391   2.920  14.752  1.1035 -0.3052  0.1312
 9361SOL     OW39718   1.626   4.634   7.406 -0.4842 -0.1998  0.5777
 9361SOL    HW139719   1.539   4.596   7.411 -0.0931 -1.1767 -0.1131
 9361SOL    HW239720   1.602   4.727   7.409 -0.7460 -0.3465  2.9264
 9362SOL     OW39721   3.240   3.936  11.464 -0.2890  0.2973 -0.1199
 9362SOL    HW139722   3.299   3.885  11.519  2.4543 -0.4190 -3.7462
 9362SOL    HW239723   3.162   3.895  11.501 -0.8169  1.0907 -0.3511
 9363SOL     OW39724   4.060   1.435   1.331 -0.5868 -0.6254 -0.3640
 9363SOL    HW139725   4.001   1.371   1.292  0.1576 -1.3164 -0.3503
 9363SOL    HW239726   3.991   1.475   1.384 -0.5669 -2.4781  1.0427
 9364SOL     OW39727   3.402   3.854  17.710 -0.9845  0.5882  0.0994
 9364SOL    HW139728   3.493   3.850  17.741 -0.4121  2.8684 -1.2820
 9364SOL    HW239729   3.373   3.795   0.038  0.2335 -0.3319 -0.1736
 9365SOL     OW39730   1.543   3.549   8.091  0.1788 -0.1038 -0.0962
 9365SOL    HW139731   1.504   3.631   8.121  0.3137 -0.6427  1.5969
 9365SOL    HW239732   1.632   3.556   8.126  0.6085 -0.5615 -1.1031
 9366SOL     OW39733   0.464   1.727   8.297 -0.1523 -0.3028 -0.2168
 9366SOL    HW139734   0.547   1.738   8.343  0.6974 -0.4934 -1.7118
 9366SOL    HW239735   0.411   1.705   8.373  0.1661  1.6556  0.5758
 9367SOL     OW39736   0.934   3.086   7.067 -0.4874 -0.6838 -0.1816
 9367SOL    HW139737   0.999   3.059   7.132  0.0580 -0.7911 -0.7678
 9367SOL    HW239738   0.987   3.095   6.988 -1.0882  1.4208 -0.3549
 9368SOL     OW39739   4.305   2.055   6.091  0.3896  0.1370  0.0477
 9368SOL    HW139740   4.379   2.032   6.148  1.4528  0.6948 -1.1222
 9368SOL    HW239741   4.350   2.064   6.007  1.0508  2.6854  0.6778
 9369SOL     OW39742   4.666   3.048   3.625  0.2648 -0.3970  0.6461
 9369SOL    HW139743   4.721   2.970   3.612  0.8386  0.8060 -4.0901
 9369SOL    HW239744   4.683   3.094   3.543 -0.2210 -1.4866 -0.0706
 9370SOL     OW39745   2.303   3.887   2.312 -0.3084  0.4212  0.0608
 9370SOL    HW139746   2.363   3.826   2.355 -0.6834 -0.0407 -0.0668
 9370SOL    HW239747   2.230   3.895   2.373  0.0750  0.3663  0.5287
 9371SOL     OW39748   3.478   1.255   2.889 -0.3717 -0.4416  0.5110
 9371SOL    HW139749   3.394   1.210   2.902 -0.7844 -0.3123 -1.7764
 9371SOL    HW239750   3.450   1.326   2.832 -0.4469  0.1213  1.2584
 9372SOL     OW39751   2.616   2.022   4.732  0.0046 -0.4459  0.7904
 9372SOL    HW139752   2.605   1.945   4.788  0.6844 -2.4494 -1.7955
 9372SOL    HW239753   2.535   2.013   4.683  1.1490 -0.3114 -1.1483
 9373SOL     OW39754   4.009   2.594   7.930  0.5443  0.0276 -0.1283
 9373SOL    HW139755   4.090   2.642   7.910  0.0316  2.2714  3.1559
 9373SOL    HW239756   3.988   2.572   7.839  2.8299 -1.9150 -0.1815
 9374SOL     OW39757   2.869   3.672   2.367 -0.1885  0.2312  0.1935
 9374SOL    HW139758   2.912   3.756   2.378  2.0055 -0.8831  0.0852
 9374SOL    HW239759   2.933   3.612   2.406 -0.2862  0.4176  0.6317
 9375SOL     OW39760   0.042   2.873   4.914 -0.2958  0.0506  0.5410
 9375SOL    HW139761   0.039   2.944   4.978 -0.9977 -0.4724  1.0954
 9375SOL    HW239762   4.689   2.868   4.878 -0.1378 -0.0977  0.1707
 9376SOL     OW39763   2.798   1.703   2.360 -0.3544  0.3208  0.5333
 9376SOL    HW139764   2.890   1.684   2.378 -1.2142 -1.3825  3.2100
 9376SOL    HW239765   2.798   1.785   2.410 -1.4342 -0.8504  2.4618
 9377SOL     OW39766   1.991   1.947   9.428 -0.0275 -0.2013 -0.6229
 9377SOL    HW139767   2.016   1.868   9.476  0.6067  0.7423  0.6195
 9377SOL    HW239768   2.074   1.975   9.388  0.7210  0.5407  1.3862
 9378SOL     OW39769   0.784   1.836   8.705  0.0109  0.2531  0.0302
 9378SOL    HW139770   0.716   1.902   8.717 -0.1068  0.4728 -1.7427
 9378SOL    HW239771   0.800   1.791   8.788 -1.0625  0.2381  0.2334
 9379SOL     OW39772   3.186   4.577   2.810  1.3884  0.0094  0.7147
 9379SOL    HW139773   3.177   4.529   2.892 -0.3321  1.4921  1.3965
 9379SOL    HW239774   3.173   4.665   2.845  0.5358 -0.1506  0.8005
 9380SOL     OW39775   0.235   3.840  12.631  0.0766  0.2320  0.4421
 9380SOL    HW139776   0.256   3.858  12.723  0.7947  1.6056  0.0045
 9380SOL    HW239777   0.312   3.790  12.604 -0.4378 -0.5418  0.4071
 9381SOL     OW39778   1.893   4.255  14.185 -0.2716 -0.2363  0.4557
 9381SOL    HW139779   1.975   4.283  14.144 -0.1105 -0.6743  0.4829
 9381SOL    HW239780   1.850   4.240  14.101 -1.1697 -0.7499  1.0027
 9382SOL     OW39781   2.407   1.798   3.238 -0.2544 -0.4825 -0.3284
 9382SOL    HW139782   2.350   1.871   3.213  0.7367  1.6841  3.6921
 9382SOL    HW239783   2.393   1.740   3.164  2.2040 -0.8911 -0.4585
 9383SOL     OW39784   4.426   3.219   9.768  0.1811  0.0162 -0.0168
 9383SOL    HW139785   4.498   3.280   9.783 -1.3539  1.7122  0.5245
 9383SOL    HW239786   4.420   3.165   9.846 -1.4549  1.6413  0.9734
 9384SOL     OW39787   3.994   2.842   6.918  0.0114  0.1102 -0.5032
 9384SOL    HW139788   4.069   2.825   6.975 -0.4323  0.7833  0.2822
 9384SOL    HW239789   3.994   2.938   6.915 -1.9820  0.1325  0.8469
 9385SOL     OW39790   1.953   4.124   8.493 -0.7030  0.2273 -0.1643
 9385SOL    HW139791   1.939   4.216   8.467  0.4933  0.1402 -1.0768
 9385SOL    HW239792   1.906   4.121   8.577 -0.4472 -1.2612 -0.0813
 9386SOL     OW39793   2.506   3.404   1.610 -0.5609 -0.6476  0.5244
 9386SOL    HW139794   2.480   3.452   1.689 -1.8146  0.8618 -0.7842
 9386SOL    HW239795   2.430   3.347   1.596 -0.9145  0.3753 -1.7357
 9387SOL     OW39796   2.285   2.491   0.353  0.1955 -0.7673  0.6519
 9387SOL    HW139797   2.334   2.418   0.317 -0.5958 -0.8961 -0.1635
 9387SOL    HW239798   2.348   2.554   0.388  0.3309  1.9051 -4.3861
 9388SOL     OW39799   1.481   2.829   3.005 -0.1477 -0.2534 -0.0926
 9388SOL    HW139800   1.401   2.784   2.977 -0.4928 -0.1492  0.7001
 9388SOL    HW239801   1.548   2.764   3.024  0.0146 -0.2632 -0.7160
 9389SOL     OW39802   3.048   0.592   5.974 -0.4797  0.0496 -0.2238
 9389SOL    HW139803   3.052   0.537   6.053  0.4702  1.2356  0.5590
 9389SOL    HW239804   3.142   0.593   5.957 -0.3459  0.0017  0.4934
 9390SOL     OW39805   0.039   4.500   6.425 -0.2790 -0.3651 -0.5581
 9390SOL    HW139806   4.681   4.488   6.418 -0.2701 -0.8776  0.2532
 9390SOL    HW239807   0.045   4.564   6.354 -2.1449  0.5757  0.1562
 9391SOL     OW39808   2.303   2.434   8.525  0.1752 -0.5460 -0.2464
 9391SOL    HW139809   2.311   2.387   8.441  0.9493 -0.1806 -0.3780
 9391SOL    HW239810   2.244   2.381   8.578  1.5720 -0.4367  1.4049
 9392SOL     OW39811   4.518   4.423   6.439  0.5287  0.0183  0.4582
 9392SOL    HW139812   4.452   4.453   6.377 -0.1701 -0.5939  0.9022
 9392SOL    HW239813   4.458   4.375   6.496  0.4916 -0.3974  0.0644
 9393SOL     OW39814   0.180   3.329  13.655  0.2312  0.2207 -0.8747
 9393SOL    HW139815   0.122   3.382  13.710  1.7936  1.5733 -0.5152
 9393SOL    HW239816   0.211   3.266  13.721 -3.1101  2.1878  2.5579
 9394SOL     OW39817   4.048   3.268  13.992  0.4609 -0.0151 -0.2199
 9394SOL    HW139818   4.106   3.319  14.049  1.1241 -3.0161  1.7880
 9394SOL    HW239819   4.116   3.231  13.935  0.7601 -2.0237  1.4337
 9395SOL     OW39820   3.142   1.935   4.815  0.0317  0.1481 -0.2029
 9395SOL    HW139821   3.218   1.877   4.806 -1.4096 -1.9262  0.8752
 9395SOL    HW239822   3.071   1.886   4.774  1.1008 -1.6956  0.1078
 9396SOL     OW39823   1.873   1.642   2.731  0.1367 -0.1949  0.6758
 9396SOL    HW139824   1.905   1.651   2.820  2.7114 -0.2181 -0.2484
 9396SOL    HW239825   1.804   1.577   2.740 -2.6719  2.1877 -3.2913
 9397SOL     OW39826   1.868   4.034   5.551  0.0080 -0.2749  0.4554
 9397SOL    HW139827   1.785   3.997   5.522 -0.6146  0.5886  1.1880
 9397SOL    HW239828   1.878   3.999   5.639 -0.3859  0.0268  0.6162
 9398SOL     OW39829   1.861   3.320   6.731 -0.1482  0.5193 -0.0363
 9398SOL    HW139830   1.852   3.414   6.745 -1.4347  0.3999 -0.0704
 9398SOL    HW239831   1.836   3.285   6.817  0.0589 -0.1937 -0.2659
 9399SOL     OW39832   0.087   1.546   5.172  0.0458  0.2839 -0.7242
 9399SOL    HW139833   0.056   1.459   5.149  0.8397 -0.3102  0.4519
 9399SOL    HW239834   0.127   1.536   5.259  0.3711  1.0562 -0.7806
 9400SOL     OW39835   2.153   2.496   3.632 -0.2236  0.3502  0.1053
 9400SOL    HW139836   2.096   2.531   3.564 -0.8415 -1.3398 -0.2663
 9400SOL    HW239837   2.194   2.575   3.667 -2.3925  0.6677  1.9355
 9401SOL     OW39838   4.018   0.624  16.871  0.1689 -0.3471 -0.5320
 9401SOL    HW139839   4.032   0.707  16.826  2.1187  0.4683  1.5823
 9401SOL    HW239840   4.052   0.563  16.805  0.9994 -1.9135  1.3495
 9402SOL     OW39841   2.798   3.263  12.338  0.6453  0.1771 -0.7520
 9402SOL    HW139842   2.801   3.190  12.275  0.2792  0.4903 -1.1376
 9402SOL    HW239843   2.705   3.272  12.359  1.0570 -0.5701  1.3239
 9403SOL     OW39844   2.344   2.678   2.721  0.2592 -0.3749  0.2318
 9403SOL    HW139845   2.263   2.714   2.684  0.3253  0.1119  0.5527
 9403SOL    HW239846   2.400   2.712   2.651 -0.8297 -0.7660 -0.8220
 9404SOL     OW39847   1.603   3.552  14.188 -0.1375 -0.2067  0.3830
 9404SOL    HW139848   1.624   3.637  14.150 -0.1880  0.0180  0.8573
 9404SOL    HW239849   1.579   3.507  14.107 -1.1984  0.4347  0.3376
 9405SOL     OW39850   2.392   3.023  11.605  0.6267 -0.2344  0.2692
 9405SOL    HW139851   2.478   3.061  11.585  0.9251  0.3027  2.6165
 9405SOL    HW239852   2.337   3.053  11.533  2.0741  1.6598 -0.0501
 9406SOL     OW39853   1.163   1.068  12.597 -0.1592 -0.0482 -0.0147
 9406SOL    HW139854   1.145   1.040  12.687  1.6418 -0.9050  0.0880
 9406SOL    HW239855   1.080   1.111  12.578 -1.0563 -1.9272 -0.3205
 9407SOL     OW39856   4.057   1.852   6.957  0.0650  0.0170 -0.0199
 9407SOL    HW139857   3.964   1.849   6.978  0.3070  0.9532  1.1959
 9407SOL    HW239858   4.071   1.790   6.886  0.5914 -1.3211  1.2514
 9408SOL     OW39859   4.586   1.886  13.434 -0.5409 -0.4507 -0.7447
 9408SOL    HW139860   4.581   1.889  13.339 -0.8305  0.0561 -0.7154
 9408SOL    HW239861   4.607   1.978  13.445 -0.5122 -0.4575 -0.7436
 9409SOL     OW39862   1.867   3.016  15.498 -0.0663 -0.3193  0.2140
 9409SOL    HW139863   1.941   3.050  15.548  1.4247 -1.0170 -1.5387
 9409SOL    HW239864   1.802   3.074  15.539  0.3074  0.8207 -0.7877
 9410SOL     OW39865   0.862   0.647   3.806 -0.1624  0.2424  0.9022
 9410SOL    HW139866   0.858   0.697   3.888  2.7832  0.7752  0.7413
 9410SOL    HW239867   0.801   0.574   3.812 -0.1003  0.0750 -0.6117
 9411SOL     OW39868   3.261   1.515   8.107  0.1298  0.5108  0.1070
 9411SOL    HW139869   3.291   1.538   8.196 -2.7661  2.1503  0.6541
 9411SOL    HW239870   3.342   1.477   8.074  1.8488  2.1823  2.3598
 9412SOL     OW39871   2.307   0.113   2.035 -0.4841  0.2367  0.1064
 9412SOL    HW139872   2.329   0.055   1.962  1.0744 -0.0459  0.7899
 9412SOL    HW239873   2.221   0.149   2.014 -1.3810 -3.3194 -2.4117
 9413SOL     OW39874   2.624   0.890   3.816 -0.6988  0.3621 -0.2801
 9413SOL    HW139875   2.632   0.854   3.728  2.6756  2.0962 -0.6876
 9413SOL    HW239876   2.637   0.984   3.803 -0.2803  0.2228 -0.8815
 9414SOL     OW39877   2.668   1.923   3.618 -0.1097 -0.2623 -0.2773
 9414SOL    HW139878   2.737   1.863   3.646 -0.1893  0.0910  0.6785
 9414SOL    HW239879   2.721   1.996   3.586 -0.5736  0.1047 -0.1986
 9415SOL     OW39880   1.653   3.132   6.003 -0.6759  0.2206  0.4998
 9415SOL    HW139881   1.574   3.186   6.000  0.7265  2.2394 -0.0240
 9415SOL    HW239882   1.666   3.122   5.909 -0.2576  0.2550  0.5529
 9416SOL     OW39883   2.514   1.745   9.127 -0.4878  0.2517  0.9752
 9416SOL    HW139884   2.597   1.699   9.109 -0.0540  2.0202 -1.5033
 9416SOL    HW239885   2.552   1.811   9.185  0.9150  1.1316 -0.9440
 9417SOL     OW39886   2.105   2.686   7.392 -0.3928 -0.0660  0.4487
 9417SOL    HW139887   2.074   2.772   7.363 -0.4675 -0.4824 -0.7305
 9417SOL    HW239888   2.069   2.624   7.328  0.7643 -0.1089 -0.1522
 9418SOL     OW39889   4.582   0.635  17.253  0.0875 -0.1050 -0.3945
 9418SOL    HW139890   4.531   0.712  17.226  1.4841  0.4809 -1.3966
 9418SOL    HW239891   4.535   0.612  17.333  2.8122  2.5831  1.9463
 9419SOL     OW39892   0.830   1.820   1.406  0.5871  0.2564  0.1293
 9419SOL    HW139893   0.900   1.818   1.471 -0.2874 -1.5317  1.0089
 9419SOL    HW239894   0.812   1.729   1.383  1.5857 -0.1881  1.1174
 9420SOL     OW39895   0.179   1.884  15.994  0.0670 -0.2505 -0.0752
 9420SOL    HW139896   0.182   1.978  15.979  0.1330  0.1034  2.0940
 9420SOL    HW239897   0.205   1.880  16.086 -3.1200 -0.2293  0.8346
 9421SOL     OW39898   0.901   0.768   0.259 -0.0054  0.0933  0.3238
 9421SOL    HW139899   0.842   0.843   0.270 -1.8463 -1.4556  1.0729
 9421SOL    HW239900   0.869   0.727   0.179 -0.7272  1.2447  0.0305
 9422SOL     OW39901   0.931   4.233   3.095  0.3000  0.0852  0.0407
 9422SOL    HW139902   1.013   4.186   3.084  1.1694  1.3517  1.1263
 9422SOL    HW239903   0.924   4.305   3.032  0.0492  1.4967  1.6978
 9423SOL     OW39904   0.987   4.657   0.554  0.6405  0.2655 -0.6166
 9423SOL    HW139905   0.944   4.649   0.469 -1.8558 -0.6099  0.7412
 9423SOL    HW239906   0.930   4.723   0.594  0.7281 -1.0387  1.6702
 9424SOL     OW39907   1.206   2.994   5.153  0.2894  0.6734  0.1394
 9424SOL    HW139908   1.195   2.939   5.076 -1.3044  0.3685  0.6041
 9424SOL    HW239909   1.184   3.081   5.121  2.5953  1.5042  0.7776
 9425SOL     OW39910   1.339   1.023   3.500 -0.9880  0.4760 -0.1822
 9425SOL    HW139911   1.292   0.947   3.465  1.5297 -1.5058  0.7583
 9425SOL    HW239912   1.341   1.008   3.594 -0.3442 -2.3540 -0.6502
 9426SOL     OW39913   4.633   1.719   0.064 -0.2351  0.2125 -0.2241
 9426SOL    HW139914   4.634   1.632   0.103  0.0387 -0.4500 -1.7005
 9426SOL    HW239915   4.657   1.776   0.137 -0.4989  0.3543 -0.2484
 9427SOL     OW39916   2.140   1.318   5.614  0.4182 -0.0683 -0.1302
 9427SOL    HW139917   2.211   1.264   5.649  0.3742 -0.3765 -0.5122
 9427SOL    HW239918   2.080   1.246   5.591  3.3412 -2.0271 -1.6414
 9428SOL     OW39919   4.300   0.817  16.663  0.0670  0.1145  0.0915
 9428SOL    HW139920   4.245   0.747  16.698  0.3808  1.0362  2.4213
 9428SOL    HW239921   4.325   0.793  16.573  0.9578 -0.1725  0.4192
 9429SOL     OW39922   2.311   0.801   3.046  0.5331  0.1749 -0.2628
 9429SOL    HW139923   2.259   0.860   3.102 -0.5956 -0.0863 -1.0316
 9429SOL    HW239924   2.336   0.752   3.124  3.8914 -2.7289 -3.1950
 9430SOL     OW39925   3.017   3.373   8.188 -0.1485  0.0509 -0.1938
 9430SOL    HW139926   3.011   3.449   8.129  1.9144  0.1549 -0.2476
 9430SOL    HW239927   3.011   3.411   8.275  0.2682  0.7849 -0.4862
 9431SOL     OW39928   2.188   1.209   4.391 -0.2470  0.3251 -0.2800
 9431SOL    HW139929   2.108   1.181   4.435 -1.0229 -0.1675 -1.9986
 9431SOL    HW239930   2.162   1.288   4.344 -0.0247  0.3927 -0.2898
 9432SOL     OW39931   0.261   2.481  14.287 -0.1785 -0.6375  0.2412
 9432SOL    HW139932   0.281   2.574  14.286 -3.6169  0.0744  1.0037
 9432SOL    HW239933   0.307   2.445  14.210  1.7492  0.7972  0.7158
 9433SOL     OW39934   0.829   2.874   2.557 -0.1432  0.0098  0.3955
 9433SOL    HW139935   0.862   2.943   2.500 -0.4149 -1.4694 -1.5388
 9433SOL    HW239936   0.741   2.879   2.520  0.6206 -0.2211 -1.4423
 9434SOL     OW39937   0.530   4.444   5.644 -0.1571 -0.8935  0.1566
 9434SOL    HW139938   0.565   4.522   5.600  0.2740  0.3897  2.7531
 9434SOL    HW239939   0.439   4.471   5.630 -0.4320 -1.4995  0.7985
 9435SOL     OW39940   4.009   0.874   5.472 -0.5196 -0.9592 -0.6247
 9435SOL    HW139941   4.049   0.891   5.387  0.9805  1.8956  0.6816
 9435SOL    HW239942   3.964   0.957   5.484  2.7686  0.6366  0.4682
 9436SOL     OW39943   0.866   3.162   3.635 -0.0111 -0.0327  0.1202
 9436SOL    HW139944   0.808   3.192   3.565 -2.2091  0.0256  1.9920
 9436SOL    HW239945   0.803   3.108   3.682 -0.3073  0.0373 -0.1977
 9437SOL     OW39946   4.688   2.317   5.247 -0.3305  0.1364 -0.3633
 9437SOL    HW139947   0.019   2.368   5.202  1.8170 -2.1289  0.2683
 9437SOL    HW239948   4.687   2.363   5.331  0.1945  2.2878 -1.5569
 9438SOL     OW39949   1.707   2.869  11.319  0.2007  0.0323 -0.0348
 9438SOL    HW139950   1.647   2.922  11.371 -0.8189 -0.3006 -0.8819
 9438SOL    HW239951   1.789   2.919  11.320 -1.0007  1.9576  2.3863
 9439SOL     OW39952   3.484   1.284   7.102 -0.1038  0.1382  0.3602
 9439SOL    HW139953   3.411   1.269   7.042  1.5694 -0.9744 -1.3726
 9439SOL    HW239954   3.559   1.304   7.045  0.0871  0.8610  0.8624
 9440SOL     OW39955   1.954   4.717   6.533  0.9933  0.4178 -0.3595
 9440SOL    HW139956   1.974   0.006   6.623 -1.8126  1.7152 -0.0737
 9440SOL    HW239957   1.975   0.052   6.472  1.8701 -0.0208 -0.5617
 9441SOL     OW39958   1.117   1.981   7.127  0.8955  0.1617  0.4417
 9441SOL    HW139959   1.123   1.999   7.220 -0.2478 -1.9321  0.9250
 9441SOL    HW239960   1.147   1.891   7.128  0.3336 -0.0367 -0.2341
 9442SOL     OW39961   2.901   4.415  17.611  0.1401 -0.0672 -0.1724
 9442SOL    HW139962   2.983   4.440  17.568  0.9839  2.0838  2.6992
 9442SOL    HW239963   2.914   4.464  17.692  0.1968 -0.3915  0.0145
 9443SOL     OW39964   2.447   2.010   9.446 -0.1729 -0.0570  0.1833
 9443SOL    HW139965   2.470   1.922   9.476 -2.4902 -0.8917 -0.5226
 9443SOL    HW239966   2.468   2.068   9.520 -2.2606 -1.2852  1.7254
 9444SOL     OW39967   0.777   1.242   6.300 -0.4533  0.4531 -0.2093
 9444SOL    HW139968   0.797   1.196   6.218  0.1267 -1.0731  0.8109
 9444SOL    HW239969   0.696   1.287   6.276 -0.3084 -0.0527 -1.6415
 9445SOL     OW39970   0.828   0.982   3.289 -0.2655 -0.4860  0.1168
 9445SOL    HW139971   0.801   1.063   3.334  1.1389  0.9886 -1.6904
 9445SOL    HW239972   0.749   0.964   3.239  0.6572 -2.5563 -0.5865
 9446SOL     OW39973   0.266   4.219  12.112  0.6026 -0.2594 -0.0398
 9446SOL    HW139974   0.242   4.134  12.075  1.0322 -1.1014  1.6056
 9446SOL    HW239975   0.298   4.192  12.198  0.2259  0.7653  0.4292
 9447SOL     OW39976   1.818   4.625   9.115 -0.0221 -0.0474  0.0600
 9447SOL    HW139977   1.910   4.622   9.142  0.6645 -0.6268 -2.3871
 9447SOL    HW239978   1.777   4.617   9.201  1.3600  2.1603  0.9279
 9448SOL     OW39979   4.667   2.077   6.219  0.8356  0.1738  0.3063
 9448SOL    HW139980   4.663   1.985   6.245 -0.3390 -0.0709 -0.7616
 9448SOL    HW239981   4.697   2.063   6.129 -0.2451 -0.2293  0.0031
 9449SOL     OW39982   0.175   0.002   8.187  0.2936 -0.3886  0.2827
 9449SOL    HW139983   0.141   0.055   8.116 -0.9007  0.5408  1.5437
 9449SOL    HW239984   0.118   4.660   8.185 -1.9837  1.2269  2.5509
 9450SOL     OW39985   1.737   0.793   4.397 -0.3693 -0.2589 -0.5699
 9450SOL    HW139986   1.744   0.805   4.492  0.6794  0.4653 -0.7390
 9450SOL    HW239987   1.827   0.814   4.371 -0.0395 -1.2009 -0.1744
 9451SOL     OW39988   1.652   1.043   8.229  0.2825 -0.7982 -0.3377
 9451SOL    HW139989   1.591   1.112   8.203  0.6303 -1.0968 -1.9278
 9451SOL    HW239990   1.726   1.103   8.224  0.2729 -0.8603 -1.1954
 9452SOL     OW39991   4.661   1.547  12.380  0.3303 -0.3472  0.2801
 9452SOL    HW139992   4.714   1.623  12.355 -0.6820  0.2207 -0.1272
 9452SOL    HW239993   4.715   1.478  12.340  1.3419  0.2134  0.6677
 9453SOL     OW39994   3.346   3.939   2.548 -0.3205  0.3505  0.5805
 9453SOL    HW139995   3.307   3.872   2.491  2.1976 -0.2584 -0.3879
 9453SOL    HW239996   3.428   3.951   2.501 -1.6791 -0.7272 -2.1119
 9454SOL     OW39997   0.749   3.538  11.261 -1.0364 -0.0719 -0.2435
 9454SOL    HW139998   0.686   3.572  11.325 -1.1513 -1.4687  0.4016
 9454SOL    HW239999   0.824   3.596  11.270  0.6019 -2.1541 -0.4628
 9455SOL     OW40000   4.434   1.871   6.448 -0.0909  0.0258 -0.4649
 9455SOL    HW140001   4.428   1.799   6.386 -2.0151 -0.2778  0.0792
 9455SOL    HW240002   4.397   1.951   6.409  0.1145 -0.4412 -1.6259
 9456SOL     OW40003   0.012   1.020  15.763 -0.4296 -0.0422  0.2219
 9456SOL    HW140004   4.669   1.054  15.804 -1.1912 -1.9356  0.3126
 9456SOL    HW240005   0.004   1.075  15.685  0.5215  0.5756  0.5612
 9457SOL     OW40006   1.377   3.313   1.644 -0.2878 -0.4235 -0.0062
 9457SOL    HW140007   1.466   3.348   1.642 -1.5561  2.8757  0.6923
 9457SOL    HW240008   1.329   3.375   1.588  2.4091  0.5477 -1.2608
 9458SOL     OW40009   4.085   3.236  11.072  0.0516 -0.2029  0.0778
 9458SOL    HW140010   4.136   3.241  10.991  2.0745  0.7331  1.4035
 9458SOL    HW240011   4.119   3.161  11.121  0.7172 -0.8216 -1.3334
 9459SOL     OW40012   0.324   1.941   2.364  0.5126 -0.0365 -0.3220
 9459SOL    HW140013   0.391   1.996   2.325  0.2464  1.2969  1.0981
 9459SOL    HW240014   0.363   1.921   2.449  0.1808  0.5728 -0.0236
 9460SOL     OW40015   3.738   4.255   1.897  0.1409 -0.1256 -0.0288
 9460SOL    HW140016   3.653   4.213   1.886  0.0853  0.4893 -1.9776
 9460SOL    HW240017   3.713   4.338   1.856  0.2198  0.7806  1.7475
 9461SOL     OW40018   1.424   2.074   1.347  0.1258 -0.9495  0.1356
 9461SOL    HW140019   1.390   2.145   1.292  0.4202 -0.3417  0.7387
 9461SOL    HW240020   1.515   2.097   1.327 -0.8374  3.5727  1.0322
 9462SOL     OW40021   3.086   0.924   3.233 -0.4135  0.1447 -0.4539
 9462SOL    HW140022   3.071   0.836   3.266 -0.2242 -0.8101 -2.9449
 9462SOL    HW240023   2.998   0.940   3.200 -1.1906 -0.9969  1.0332
 9463SOL     OW40024   2.983   3.659  14.925 -0.6402 -0.3746  0.7003
 9463SOL    HW140025   3.040   3.597  14.970 -0.7404  0.4916  1.9988
 9463SOL    HW240026   3.024   3.671  14.840  0.1964 -2.1059  0.8606
 9464SOL     OW40027   1.728   0.373  12.607  0.3010 -0.1442 -0.3666
 9464SOL    HW140028   1.756   0.447  12.660 -0.6966  0.8653 -1.2510
 9464SOL    HW240029   1.750   0.400  12.518  0.5243 -0.6110 -0.4531
 9465SOL     OW40030   0.840   4.208   2.055  0.3103  0.0334  0.2385
 9465SOL    HW140031   0.839   4.225   1.961 -1.8446 -0.4441  0.1942
 9465SOL    HW240032   0.880   4.121   2.054 -1.8350 -0.9273 -1.3562
 9466SOL     OW40033   1.502   1.479  12.874 -0.7347 -0.4899  0.3665
 9466SOL    HW140034   1.510   1.535  12.951 -1.0671  0.5777 -0.3804
 9466SOL    HW240035   1.504   1.545  12.805  0.9581  1.4315  2.2417
 9467SOL     OW40036   0.974   2.544  10.791 -0.0062  0.2674  0.2065
 9467SOL    HW140037   0.983   2.449  10.784 -1.2181  0.0229  1.9230
 9467SOL    HW240038   1.001   2.561  10.882 -0.5270  1.3370  0.1698
 9468SOL     OW40039   0.110   2.185   2.313  0.0135  0.1496 -0.4567
 9468SOL    HW140040   0.087   2.254   2.376 -0.8166 -0.4005 -0.1545
 9468SOL    HW240041   0.046   2.116   2.333  1.4723 -1.0548  0.0077
 9469SOL     OW40042   2.161   1.325   2.845  0.5395 -0.0327  0.0474
 9469SOL    HW140043   2.145   1.283   2.761 -0.4363  0.2328  0.1059
 9469SOL    HW240044   2.202   1.258   2.899 -1.7546 -1.4054  0.0856
 9470SOL     OW40045   1.880   4.294   7.758  0.1935 -0.2792  0.6294
 9470SOL    HW140046   1.848   4.383   7.770  0.3848 -0.1624  0.2693
 9470SOL    HW240047   1.815   4.253   7.701 -0.3958  2.2367 -0.4907
 9471SOL     OW40048   2.006   3.017   4.770 -0.3918  0.0595  0.0128
 9471SOL    HW140049   2.036   3.094   4.819 -0.9365  0.5185 -0.3746
 9471SOL    HW240050   1.911   3.017   4.771 -0.4057  2.5968 -0.3905
 9472SOL     OW40051   3.965   0.457   2.418 -0.1233  0.1401 -0.2368
 9472SOL    HW140052   4.025   0.530   2.400  0.9207 -0.7518 -0.3647
 9472SOL    HW240053   3.917   0.499   2.490  0.8638 -0.9497  1.0560
 9473SOL     OW40054   3.939   1.046  13.878 -0.4561 -0.1844  0.6429
 9473SOL    HW140055   4.026   1.057  13.918 -0.6019  0.3031  0.8220
 9473SOL    HW240056   3.957   0.990  13.802 -0.0260 -1.4576  1.6817
 9474SOL     OW40057   0.008   1.231   0.960  0.2076 -0.0284  0.2830
 9474SOL    HW140058   0.089   1.279   0.943  0.9111 -1.5903 -0.7862
 9474SOL    HW240059   0.005   1.246   1.054 -2.9054  1.3328 -0.0542
 9475SOL     OW40060   3.590   2.970   6.352  0.1862 -0.1093  0.3261
 9475SOL    HW140061   3.684   2.970   6.369  0.3191 -2.7630 -0.5527
 9475SOL    HW240062   3.565   3.014   6.434 -1.9105  2.2030 -1.5430
 9476SOL     OW40063   2.453   3.137   6.315 -0.2126 -0.0069 -0.1513
 9476SOL    HW140064   2.501   3.197   6.259 -1.3596  0.4349 -0.6501
 9476SOL    HW240065   2.363   3.162   6.297 -0.8350 -1.9715  0.2002
 9477SOL     OW40066   1.251   3.695   8.626  0.2602 -0.1583  0.0314
 9477SOL    HW140067   1.318   3.642   8.668  0.3385  0.0581  0.1774
 9477SOL    HW240068   1.291   3.764   8.573 -0.9916  0.6574  0.1401
 9478SOL     OW40069   0.193   0.031   5.469 -0.1984 -0.0805  0.0014
 9478SOL    HW140070   0.245   0.063   5.395 -1.1499  1.0493 -0.1781
 9478SOL    HW240071   0.234   0.083   5.538 -1.5358  1.7087 -0.5606
 9479SOL     OW40072   0.952   1.552   4.512 -0.3221  0.2707 -0.6117
 9479SOL    HW140073   0.983   1.637   4.479  1.0137 -0.5810 -1.5961
 9479SOL    HW240074   0.912   1.581   4.594  2.6304  1.3958  0.4569
 9480SOL     OW40075   0.959   1.630   3.445  0.0744  0.0051 -0.6506
 9480SOL    HW140076   0.874   1.627   3.489  0.6807  0.1287  0.5255
 9480SOL    HW240077   1.000   1.552   3.483  0.6929  0.6258 -0.0520
 9481SOL     OW40078   2.405   1.246  17.653 -0.1951 -0.2873 -0.5184
 9481SOL    HW140079   2.327   1.270  17.704  0.9661  2.1971  0.1187
 9481SOL    HW240080   2.361   1.254  17.568 -0.9842  0.2757 -0.0633
 9482SOL     OW40081   3.150   3.777  11.866  0.2302  0.1068  0.1400
 9482SOL    HW140082   3.226   3.835  11.864  0.1640  0.1565 -0.7686
 9482SOL    HW240083   3.114   3.778  11.955  1.1555  0.2827  0.5088
 9483SOL     OW40084   1.108   2.864   4.334  0.7110 -0.2549 -0.3110
 9483SOL    HW140085   1.014   2.871   4.321  0.5305  0.3146  1.4021
 9483SOL    HW240086   1.123   2.769   4.330 -0.1284 -0.3530 -1.2725
 9484SOL     OW40087   1.728   2.625   9.192 -0.3004  0.5026 -0.4534
 9484SOL    HW140088   1.703   2.677   9.268  2.3184  0.2332  0.6090
 9484SOL    HW240089   1.805   2.669   9.154  0.5262  1.4015  2.2594
 9485SOL     OW40090   0.037   1.622   6.681 -0.1811  0.0992  0.0900
 9485SOL    HW140091   0.129   1.619   6.706 -0.0703 -2.2948 -0.6529
 9485SOL    HW240092   0.002   1.554   6.738  2.0448  1.8071  3.4431
 9486SOL     OW40093   3.429   0.350   8.415  0.4058  0.2927 -0.2531
 9486SOL    HW140094   3.368   0.387   8.351  0.1853  1.1992  0.4685
 9486SOL    HW240095   3.373   0.348   8.493  0.2865 -0.1448 -0.3465
 9487SOL     OW40096   1.403   0.256   0.113  0.5756  0.4912  0.7511
 9487SOL    HW140097   1.472   0.200   0.078 -0.7367 -1.0446  0.6154
 9487SOL    HW240098   1.341   0.189   0.143  1.8842 -0.8434  0.5071
 9488SOL     OW40099   4.363   1.905  16.279 -0.0943  0.0568 -0.2568
 9488SOL    HW140100   4.275   1.929  16.250 -0.2674 -0.6446 -0.3313
 9488SOL    HW240101   4.334   1.845  16.348  1.3940  0.0605  0.3825
 9489SOL     OW40102   1.870   3.993  17.204  0.5119  0.5304  0.2546
 9489SOL    HW140103   1.857   4.032  17.290 -1.0726  0.0012  0.2598
 9489SOL    HW240104   1.931   4.056  17.166  0.8499  0.1643  0.1815
 9490SOL     OW40105   0.677   2.994   7.782  0.3597  0.0901 -0.5207
 9490SOL    HW140106   0.593   3.000   7.828 -0.0056 -1.1428 -1.0225
 9490SOL    HW240107   0.686   3.088   7.766  0.3413  0.4000  1.3029
 9491SOL     OW40108   2.373   3.588  13.690  0.5535  0.0938 -0.0205
 9491SOL    HW140109   2.375   3.604  13.784  1.6611 -1.3308  0.2059
 9491SOL    HW240110   2.357   3.677  13.659  2.5809  0.6312  0.4824
 9492SOL     OW40111   3.174   1.195   3.387 -0.0415  0.9586  0.2471
 9492SOL    HW140112   3.148   1.110   3.351  1.3921  0.2104  0.9760
 9492SOL    HW240113   3.266   1.179   3.407 -0.1797  0.5117  0.5385
 9493SOL     OW40114   3.674   1.831   6.627 -0.2369 -0.3893  0.2946
 9493SOL    HW140115   3.599   1.891   6.627 -0.2868 -0.4499  1.4211
 9493SOL    HW240116   3.752   1.884   6.639  0.9774 -1.6970 -1.8537
 9494SOL     OW40117   3.424   1.964  14.761  0.7247  0.2141 -0.2008
 9494SOL    HW140118   3.397   1.985  14.671  2.6747  1.2736 -0.5195
 9494SOL    HW240119   3.361   2.003  14.822 -0.2646  0.0232 -1.0880
 9495SOL     OW40120   4.045   0.361   3.501 -0.9572 -0.4621 -0.2784
 9495SOL    HW140121   4.065   0.454   3.496  0.0244 -0.5193  2.6073
 9495SOL    HW240122   4.080   0.341   3.588 -1.7424  0.1362  0.1741
 9496SOL     OW40123   4.715   2.831   8.163 -0.4678  0.2808  0.2995
 9496SOL    HW140124   0.034   2.785   8.100  0.6559  1.5013  0.3746
 9496SOL    HW240125   0.046   2.863   8.224  0.4664 -1.2274  0.0588
 9497SOL     OW40126   3.350   3.277   3.011  0.2707 -0.4577 -0.5780
 9497SOL    HW140127   3.384   3.210   3.070 -0.6048  0.7539  1.2898
 9497SOL    HW240128   3.396   3.249   2.931  3.2199  1.1070  0.5702
 9498SOL     OW40129   3.006   0.853   2.592 -0.5810  0.1238 -0.6418
 9498SOL    HW140130   3.015   0.946   2.611 -2.8489  0.3401 -0.6752
 9498SOL    HW240131   2.916   0.846   2.560 -0.6293  1.1896 -0.7373
 9499SOL     OW40132   2.087   2.794   8.793  0.2982 -0.2096 -0.1628
 9499SOL    HW140133   2.120   2.863   8.852 -0.3810  0.9918 -1.1749
 9499SOL    HW240134   2.149   2.725   8.815  1.2401  0.6022 -0.2791
 9500SOL     OW40135   1.138   3.149   3.309  0.3207 -0.4244 -0.2871
 9500SOL    HW140136   1.108   3.236   3.282  2.4107  0.3018 -0.2952
 9500SOL    HW240137   1.233   3.157   3.307  0.3763 -0.8196  0.5291
 9501SOL     OW40138   4.000   1.946   8.406  0.9502  0.2810 -0.5762
 9501SOL    HW140139   3.969   1.922   8.493  1.6139  3.0865  0.4335
 9501SOL    HW240140   4.012   1.861   8.363 -0.0202 -0.6847  1.0921
 9502SOL     OW40141   3.135   2.364   8.742 -0.3753  0.3025 -0.4773
 9502SOL    HW140142   3.102   2.452   8.721 -1.9855 -0.2553 -0.3400
 9502SOL    HW240143   3.066   2.304   8.714 -0.1407  0.1883 -0.8078
 9503SOL     OW40144   4.129   4.724   5.102  1.0972 -0.2754 -0.0473
 9503SOL    HW140145   4.162   0.021   5.185 -1.2157  2.3839 -0.2039
 9503SOL    HW240146   4.213   4.692   5.068  1.1378  0.1508 -0.3483
 9504SOL     OW40147   3.375   3.854   9.539  0.3605  0.2846  0.4988
 9504SOL    HW140148   3.395   3.864   9.632 -0.9312 -1.1397  0.9209
 9504SOL    HW240149   3.464   3.829   9.517  0.3607 -0.6521  1.5451
 9505SOL     OW40150   1.877   2.349   9.927  0.0997 -0.1645 -0.1048
 9505SOL    HW140151   1.888   2.428   9.979  1.9103 -0.4707 -0.0153
 9505SOL    HW240152   1.874   2.391   9.841 -0.4383 -0.0126 -0.0129
 9506SOL     OW40153   4.572   3.209  13.902  0.4738  0.2975 -0.0232
 9506SOL    HW140154   4.529   3.191  13.818  1.7679  0.8114 -0.7963
 9506SOL    HW240155   4.498   3.210  13.963 -0.6942 -1.6894 -1.3968
 9507SOL     OW40156   2.492   3.994   3.286 -0.1973 -0.2331  0.7444
 9507SOL    HW140157   2.581   3.984   3.253 -0.2083  1.9571  0.0478
 9507SOL    HW240158   2.478   4.089   3.284 -0.7790 -0.3292  0.1570
 9508SOL     OW40159   1.695   2.147   3.961 -0.6631 -0.2664  0.2228
 9508SOL    HW140160   1.756   2.204   3.915 -0.4613 -2.0299 -1.6430
 9508SOL    HW240161   1.714   2.064   3.918  1.8825  0.4089  0.0555
 9509SOL     OW40162   1.817   4.128   1.811 -0.2536 -0.0262  0.2062
 9509SOL    HW140163   1.735   4.117   1.858 -0.1105  1.9494  0.9528
 9509SOL    HW240164   1.852   4.041   1.792 -0.3443 -0.0632  0.2107
 9510SOL     OW40165   1.679   0.579   5.788 -0.4794 -0.8471  0.2615
 9510SOL    HW140166   1.738   0.512   5.755 -2.2817 -1.2066 -2.2150
 9510SOL    HW240167   1.702   0.646   5.724  0.4651 -2.0089 -0.6057
 9511SOL     OW40168   3.590   0.470  14.548  0.1673  0.8425 -0.1417
 9511SOL    HW140169   3.647   0.510  14.482 -0.1298  0.1321 -0.8135
 9511SOL    HW240170   3.505   0.469  14.505 -0.0658  1.7772  0.2736
 9512SOL     OW40171   3.339   3.475   9.900  0.0714  0.1469 -0.1384
 9512SOL    HW140172   3.291   3.448   9.978 -2.5978 -0.8687 -2.1732
 9512SOL    HW240173   3.303   3.410   9.840 -0.4374  2.2681 -2.1278
 9513SOL     OW40174   1.051   0.089   7.465 -0.3732  0.5301 -0.1061
 9513SOL    HW140175   1.127   0.120   7.414  0.3946 -2.1696 -0.6259
 9513SOL    HW240176   0.995   0.074   7.389 -0.9438 -1.5868  0.7478
 9514SOL     OW40177   4.226   0.653   5.074  0.3512  0.3609 -0.4090
 9514SOL    HW140178   4.191   0.619   4.992 -1.8274 -0.7304  0.9815
 9514SOL    HW240179   4.144   0.688   5.109  0.8755  0.4907  0.6867
 9515SOL     OW40180   2.201   4.045   8.403  0.1759  0.6758 -0.0483
 9515SOL    HW140181   2.190   4.092   8.320  1.7487  0.7843 -0.2031
 9515SOL    HW240182   2.124   4.081   8.447  1.6042 -0.5993  3.4089
 9516SOL     OW40183   0.331   3.163   4.708  0.0731 -0.6029  0.3988
 9516SOL    HW140184   0.240   3.188   4.693 -0.0250  0.1067  2.1758
 9516SOL    HW240185   0.365   3.242   4.752 -0.5538 -0.8499  1.3298
 9517SOL     OW40186   0.737   3.866  12.382  0.7122 -0.4248 -0.1599
 9517SOL    HW140187   0.790   3.788  12.366 -0.2559 -0.8240 -1.4813
 9517SOL    HW240188   0.797   3.941  12.385  1.5207 -1.0206 -1.4207
 9518SOL     OW40189   0.114   3.944   8.407 -0.0504 -0.3527  0.2739
 9518SOL    HW140190   0.078   3.986   8.485 -0.8281 -0.7947  0.1525
 9518SOL    HW240191   0.041   3.900   8.365 -0.6309  0.4180  0.4831
 9519SOL     OW40192   1.259   1.581   3.723 -0.2185  0.0852  0.2302
 9519SOL    HW140193   1.174   1.554   3.757 -1.0859  0.7595 -1.3928
 9519SOL    HW240194   1.234   1.666   3.686  1.4687  1.2329  1.7537
 9520SOL     OW40195   3.800   1.213  16.502  0.3075 -0.2644  0.8176
 9520SOL    HW140196   3.822   1.291  16.553  1.3599 -0.7681  1.1225
 9520SOL    HW240197   3.848   1.144  16.547  0.1315 -0.4499  0.7183
 9521SOL     OW40198   3.109   2.317   4.421  0.0157 -0.6865 -0.4911
 9521SOL    HW140199   3.136   2.250   4.484  1.5727  0.9304  0.5627
 9521SOL    HW240200   3.142   2.274   4.341 -2.0092 -0.6918 -1.3344
 9522SOL     OW40201   3.228   3.266  13.894  0.3158  0.4408  0.4124
 9522SOL    HW140202   3.272   3.323  13.830  1.5304  0.6055  1.3847
 9522SOL    HW240203   3.173   3.337  13.927  0.1340 -0.2455  1.5739
 9523SOL     OW40204   3.985   2.730  13.035  0.1313 -0.5956 -0.8464
 9523SOL    HW140205   4.069   2.700  13.001 -0.1178 -0.0878 -1.9134
 9523SOL    HW240206   3.926   2.659  13.011 -0.7179 -0.0256 -0.4792
 9524SOL     OW40207   0.758   4.370  10.637  0.2810  0.0487 -0.0028
 9524SOL    HW140208   0.804   4.313  10.575 -0.7516 -0.9201  0.1122
 9524SOL    HW240209   0.670   4.346  10.609  0.3026 -0.6350  0.4981
 9525SOL     OW40210   3.572   0.314   8.990  0.0534 -0.4336  0.4174
 9525SOL    HW140211   3.628   0.384   8.955 -0.9191 -0.7260 -1.7645
 9525SOL    HW240212   3.540   0.346   9.074 -1.1656 -0.5079 -0.0328
 9526SOL     OW40213   1.162   3.887  12.203 -0.6611  0.6538 -0.2887
 9526SOL    HW140214   1.230   3.827  12.172 -0.0634  1.1890 -0.0327
 9526SOL    HW240215   1.191   3.960  12.148 -3.9275  0.8707 -1.7150
 9527SOL     OW40216   0.961   2.829   5.939  0.2965  0.8316 -0.5796
 9527SOL    HW140217   0.948   2.782   6.021  0.0394  0.2440 -0.9577
 9527SOL    HW240218   0.932   2.768   5.872  0.5712  0.3293 -0.2408
 9528SOL     OW40219   0.576   3.216   4.503 -0.2903  0.1045  0.0872
 9528SOL    HW140220   0.535   3.248   4.422 -0.4150  0.5481  0.3259
 9528SOL    HW240221   0.496   3.203   4.554  1.0129  0.6966  2.2555
 9529SOL     OW40222   2.659   4.619   6.880 -0.0066  0.6344 -0.2388
 9529SOL    HW140223   2.622   4.702   6.849 -1.0259  0.6802  1.1089
 9529SOL    HW240224   2.584   4.575   6.920 -1.4250  1.2311 -2.2434
 9530SOL     OW40225   0.710   3.489   8.862  0.6897 -0.6961  0.4056
 9530SOL    HW140226   0.621   3.513   8.884  0.1946 -0.6537 -1.6438
 9530SOL    HW240227   0.710   3.394   8.875  0.3806 -0.6430  0.7928
 9531SOL     OW40228   0.807   0.235   3.672 -0.1753 -0.0112  0.1150
 9531SOL    HW140229   0.814   0.218   3.578 -2.2597 -0.5889  0.0613
 9531SOL    HW240230   0.728   0.289   3.668 -0.3832 -0.4045 -1.1171
 9532SOL     OW40231   1.891   0.314   3.627  0.3231  0.3377  0.1180
 9532SOL    HW140232   1.815   0.368   3.652 -0.2151 -1.3378  2.0845
 9532SOL    HW240233   1.910   0.262   3.705 -0.1978  0.9249  0.6352
 9533SOL     OW40234   3.973   0.208   9.157  0.7507  0.0127  0.3173
 9533SOL    HW140235   4.016   0.222   9.073  0.5787 -2.0177 -0.1147
 9533SOL    HW240236   4.016   0.124   9.177  0.8279 -0.2159 -0.7781
 9534SOL     OW40237   1.393   2.182   8.395  0.1025 -0.2973  0.0329
 9534SOL    HW140238   1.317   2.159   8.340 -2.6431 -0.6796  4.0094
 9534SOL    HW240239   1.348   2.174   8.479 -2.2694  1.1575 -1.1019
 9535SOL     OW40240   0.873   2.158   2.505  0.4691  0.1096 -0.0392
 9535SOL    HW140241   0.958   2.114   2.498  0.2257 -0.2664 -0.6993
 9535SOL    HW240242   0.904   2.245   2.530 -1.9255  0.3915  1.8898
 9536SOL     OW40243   0.709   1.840   9.478 -0.4469  0.6277  0.1987
 9536SOL    HW140244   0.798   1.851   9.510 -0.1794  0.7937 -0.5934
 9536SOL    HW240245   0.682   1.761   9.524  1.4917 -0.4748 -0.5749
 9537SOL     OW40246   1.770   3.789   3.159  0.1012 -0.5750  0.0642
 9537SOL    HW140247   1.772   3.776   3.254  0.2629 -0.6975  0.0443
 9537SOL    HW240248   1.808   3.704   3.136  2.3723  0.0264  1.5506
 9538SOL     OW40249   4.380   0.995   3.948 -0.5032  0.2024  0.8172
 9538SOL    HW140250   4.452   1.033   3.999  0.0829  0.3169 -0.0943
 9538SOL    HW240251   4.300   1.040   3.974 -0.9867 -0.6393  0.7671
 9539SOL     OW40252   1.041   3.715   7.607 -0.1014 -0.0004 -0.1535
 9539SOL    HW140253   0.990   3.739   7.530 -0.5913 -0.5667 -0.0024
 9539SOL    HW240254   1.004   3.636   7.646  0.5553  0.4372  1.3777
 9540SOL     OW40255   4.296   0.987   2.299  0.3646  0.4483  0.4833
 9540SOL    HW140256   4.353   0.914   2.274  1.6268  1.0573  1.5290
 9540SOL    HW240257   4.334   1.054   2.242 -1.2139  1.7010  0.8954
 9541SOL     OW40258   2.641   4.616   4.252  0.4982 -0.4490  0.3294
 9541SOL    HW140259   2.719   4.590   4.300 -0.5507 -2.4799  0.9236
 9541SOL    HW240260   2.579   4.585   4.318 -0.1212 -0.6959 -0.3641
 9542SOL     OW40261   2.330   3.298   4.835  0.2097 -0.5478 -0.0951
 9542SOL    HW140262   2.236   3.317   4.835  0.6392  1.5652  1.7353
 9542SOL    HW240263   2.348   3.390   4.850  1.0865 -0.7984  0.4200
 9543SOL     OW40264   3.900   0.384  12.435  0.3625  0.5697  0.2548
 9543SOL    HW140265   3.908   0.358  12.526  0.3805  1.5414  0.5269
 9543SOL    HW240266   3.847   0.462  12.448  0.3809  0.7186 -0.5401
 9544SOL     OW40267   1.954   4.305  17.518  0.1872  0.0336 -0.4039
 9544SOL    HW140268   1.897   4.233  17.493 -1.0331  0.1350  2.1104
 9544SOL    HW240269   2.037   4.261  17.537 -0.1270  0.5036  2.1183
 9545SOL     OW40270   1.888   2.262   3.829  0.1154  0.1088  0.4466
 9545SOL    HW140271   1.961   2.252   3.890 -0.8973 -1.0614  1.4391
 9545SOL    HW240272   1.917   2.216   3.750  3.5285  0.4423  1.4965
 9546SOL     OW40273   1.398   3.007  16.198 -0.0224 -0.2389  0.1059
 9546SOL    HW140274   1.480   2.958  16.196 -0.7748 -1.3895 -1.6651
 9546SOL    HW240275   1.380   3.013  16.104 -0.9761 -1.3815  0.2214
 9547SOL     OW40276   2.756   3.766  16.422  0.4843 -0.2462 -0.3294
 9547SOL    HW140277   2.743   3.843  16.479  0.6323 -0.9699  0.6866
 9547SOL    HW240278   2.693   3.705  16.459 -2.3548  0.6029 -3.8032
 9548SOL     OW40279   0.004   4.524  11.980 -0.2278  0.1537  0.1439
 9548SOL    HW140280   4.645   4.535  11.974 -0.2258  0.5064  0.7094
 9548SOL    HW240281   0.035   4.455  11.921 -0.5740  0.0907  0.0378
 9549SOL     OW40282   4.229   0.884  17.357 -0.5029 -0.7304 -0.3600
 9549SOL    HW140283   4.223   0.881  17.453  2.0750 -1.0655 -0.2249
 9549SOL    HW240284   4.194   0.795  17.358 -3.1084  0.2671 -1.3791
 9550SOL     OW40285   0.493   0.419  16.532 -0.3729  0.6634  0.1740
 9550SOL    HW140286   0.562   0.452  16.590 -2.0763 -1.4954  3.4180
 9550SOL    HW240287   0.446   0.497  16.504 -0.9893 -0.0945 -0.8781
 9551SOL     OW40288   3.325   0.478  15.186  0.4194  0.6417 -0.3285
 9551SOL    HW140289   3.367   0.422  15.251 -1.7233 -0.1681  0.3377
 9551SOL    HW240290   3.236   0.446  15.197  2.0383 -3.7894 -0.1052
 9552SOL     OW40291   2.481   3.367  11.687  0.0416  0.0092 -0.1431
 9552SOL    HW140292   2.501   3.429  11.757 -1.3803 -0.7213  0.8949
 9552SOL    HW240293   2.426   3.415  11.625 -0.7251 -1.3262 -0.4748
 9553SOL     OW40294   2.975   3.420   9.825 -0.1977  0.3975  0.2351
 9553SOL    HW140295   2.916   3.426   9.900 -1.0586 -0.8125 -0.3283
 9553SOL    HW240296   3.046   3.374   9.868  0.7150  0.1942 -1.4712
 9554SOL     OW40297   0.837   2.819   8.027 -0.1486  0.7491 -0.1597
 9554SOL    HW140298   0.871   2.870   7.953 -0.4089  0.7017 -0.3091
 9554SOL    HW240299   0.909   2.830   8.089 -2.1173  0.6406  2.1455
 9555SOL     OW40300   0.366   2.647   6.982  0.6766 -0.4488 -0.1314
 9555SOL    HW140301   0.365   2.671   6.889  2.1630  2.7724  0.6873
 9555SOL    HW240302   0.279   2.608   6.993 -0.2125  0.9301 -2.2858
 9556SOL     OW40303   2.748   4.055   5.781 -0.3794  0.3849 -0.8211
 9556SOL    HW140304   2.674   4.113   5.764 -1.2187 -0.5863 -0.4964
 9556SOL    HW240305   2.816   4.121   5.767 -0.7899  0.6802 -1.4248
 9557SOL     OW40306   2.413   4.119   5.512 -0.0490 -0.0289 -0.1516
 9557SOL    HW140307   2.320   4.107   5.530  0.0306  1.7746  1.4753
 9557SOL    HW240308   2.448   4.151   5.595 -0.4800  0.9311 -0.3387
 9558SOL     OW40309   0.019   0.776   0.812  0.1416  0.5404  0.5967
 9558SOL    HW140310   0.032   0.838   0.883 -2.2373  0.1004  1.4342
 9558SOL    HW240311   0.066   0.698   0.843  0.7886  0.6807 -0.0361
 9559SOL     OW40312   0.581   1.885   1.475 -0.1235  0.2435  0.2816
 9559SOL    HW140313   0.654   1.864   1.418  0.2068  1.5322  0.2250
 9559SOL    HW240314   0.621   1.859   1.558 -0.9872 -0.5960  0.4332
 9560SOL     OW40315   1.227   2.736   7.156 -0.2647 -0.3383 -0.1375
 9560SOL    HW140316   1.262   2.673   7.093 -1.0536  0.4716 -1.3890
 9560SOL    HW240317   1.136   2.743   7.127 -0.1427 -1.3844 -0.7712
 9561SOL     OW40318   3.850   3.906   4.114 -0.1802  0.1485 -0.6755
 9561SOL    HW140319   3.919   3.941   4.057  0.6068  1.0319  0.8300
 9561SOL    HW240320   3.768   3.914   4.065  0.6919  1.6113 -1.9062
 9562SOL     OW40321   0.760   3.975   7.798  0.4619  0.2888 -0.0802
 9562SOL    HW140322   0.806   3.964   7.881  0.0779 -0.3415  0.0456
 9562SOL    HW240323   0.840   3.990   7.748  0.4105  0.5072 -0.0974
 9563SOL     OW40324   4.417   2.713   0.884 -0.3118  0.1815 -0.2005
 9563SOL    HW140325   4.512   2.711   0.874 -0.2602 -1.1579  0.5251
 9563SOL    HW240326   4.410   2.795   0.933 -2.8160  0.7462 -1.4845
 9564SOL     OW40327   1.406   3.439   8.954  0.9603  0.5280 -0.6733
 9564SOL    HW140328   1.421   3.446   8.860 -1.7422 -0.7448 -1.2022
 9564SOL    HW240329   1.317   3.403   8.958  1.9384 -1.8894 -0.6617
 9565SOL     OW40330   2.309   0.615   9.575 -0.2522  0.7460  0.3369
 9565SOL    HW140331   2.380   0.665   9.535  0.9785 -1.3295 -0.0935
 9565SOL    HW240332   2.343   0.528   9.554 -3.3036 -0.4103  0.1379
 9566SOL     OW40333   0.036   3.487  11.658  0.3512  0.0813 -0.6284
 9566SOL    HW140334   0.095   3.557  11.684  2.1942 -2.4685  2.0256
 9566SOL    HW240335   4.711   3.538  11.604 -0.0043  0.1549 -0.1547
 9567SOL     OW40336   3.069   4.247   3.234 -0.4155 -0.3589  0.4935
 9567SOL    HW140337   3.073   4.188   3.309 -1.8226  0.4719  1.2231
 9567SOL    HW240338   3.017   4.189   3.178 -0.5537 -0.1777  0.4321
 9568SOL     OW40339   3.750   1.805   7.859 -0.7338  0.3403  0.3720
 9568SOL    HW140340   3.738   1.899   7.843 -0.3679  0.4061  0.4611
 9568SOL    HW240341   3.815   1.805   7.930  0.9300 -0.2554 -1.1418
 9569SOL     OW40342   0.884   4.353   8.213  0.2631  0.7297 -0.0944
 9569SOL    HW140343   0.842   4.284   8.163 -2.7237  2.8685 -0.5115
 9569SOL    HW240344   0.811   4.415   8.211 -0.5631 -0.2586 -0.3544
   4.73572   4.73572  17.74156
