Membrane in water
40344
    1TMC1    C1    1   4.107   0.544  12.115  0.6381 -0.3238 -0.6967
    1TMC1    C2    2   4.064   0.542  11.983 -0.3677  0.0445  0.2674
    1TMC1    C3    3   4.141   0.634  11.904  0.9633 -0.6616  0.6151
    1TMC1    C4    4   4.210   0.618  12.166  0.5451 -0.2313 -0.3005
    1TMC1    C5    5   4.282   0.693  12.082 -0.0133  0.4723 -1.0301
    1TMC1    C6    6   4.250   0.705  11.951 -0.4229  0.2028  0.2891
    1TMC1     C    7   4.039   0.460  12.211  0.1527  0.0445 -0.2520
    1TMC1     O    8   3.945   0.394  12.156 -0.0900  0.0193 -0.4969
    1TMC1     H    9   3.976   0.494  11.940 -1.1287  0.4910  1.3320
    1TMC1    H1   10   4.230   0.613  12.272 -0.4261 -0.6156 -0.1351
    1TMC1    H2   11   4.305   0.766  11.881 -0.3554  1.1279  1.1537
    1TMC1    C7   12   4.386   0.766  12.139 -0.0469  1.1740  0.5660
    1TMC1    C8   13   4.074   0.678  11.783  0.1521  0.0584 -0.1194
    1TMC1    O1   14   4.458   0.743  12.232  0.7708  0.3092 -0.3140
    1TMC1    O2   15   3.999   0.613  11.714 -0.6836  0.0021  0.1322
    1TMC1    O3   16   4.394   0.878  12.065 -0.1725 -0.5418 -0.0938
    1TMC1    H3   17   4.316   0.898  12.009  0.1662  2.2924  0.4185
    1TMC1    O5   18   4.069   0.815  11.790 -0.4745  0.0596 -0.3479
    1TMC1    H5   19   4.129   0.860  11.854 -1.4097  0.2638  0.3841
    2MPD2     C   20   3.933   0.187  12.628  0.3273 -0.0159  0.7474
    2MPD2    C1   21   3.876   0.181  12.501  0.7135 -0.1914 -0.2950
    2MPD2    C2   22   3.918   0.268  12.405 -0.2006 -0.4020 -0.1661
    2MPD2    C3   23   4.014   0.364  12.437 -1.1890  0.1647 -0.1175
    2MPD2    C4   24   4.055   0.375  12.564  0.2407 -0.4823  0.3286
    2MPD2    C5   25   4.012   0.295  12.662  0.1706 -1.1101 -0.2474
    2MPD2     H   26   3.874   0.266  12.306 -0.0266  0.8984 -0.2811
    2MPD2    H1   27   4.131   0.449  12.587  1.2529 -0.8011 -1.9989
    2MPD2    H2   28   3.907   0.121  12.710  0.9880 -0.8829  0.2593
    2MPD2    H3   29   4.052   0.302  12.762  1.8426 -2.3731 -0.8227
    2MPD2     N   30   4.070   0.456  12.343 -0.1955 -0.3078  0.6355
    2MPD2    H5   31   4.134   0.527  12.379 -0.5671  1.9616 -3.1957
    2MPD2    N1   32   3.788   0.076  12.471  0.6877  0.0313  0.0045
    2MPD2    H7   33   3.758   0.064  12.374  1.4687  2.6142 -0.5522
    3TMC1    C1   34   3.459   0.627  10.878 -0.3377 -0.6923 -0.3467
    3TMC1    C2   35   3.464   0.554  10.765  0.1338  0.2337  0.1461
    3TMC1    C3   36   3.586   0.517  10.719 -0.1508  0.5440 -0.0106
    3TMC1    C4   37   3.569   0.665  10.950  0.9829 -0.3159  0.4751
    3TMC1    C5   38   3.681   0.624  10.897 -0.1098 -0.8468  0.6736
    3TMC1    C6   39   3.698   0.558  10.778  0.6917 -0.1889  0.0688
    3TMC1     C   40   3.331   0.617  10.953  0.4360  0.3532 -0.2453
    3TMC1     O   41   3.267   0.511  10.930 -0.1821  0.5981 -0.1250
    3TMC1     H   42   3.371   0.536  10.712 -0.5698 -1.8611  2.0764
    3TMC1    H1   43   3.572   0.711  11.048 -0.0814  0.7371  0.0108
    3TMC1    H2   44   3.793   0.526  10.739 -0.0794 -1.1262 -1.0273
    3TMC1    C7   45   3.798   0.650  10.971  0.0964  0.8489 -0.5887
    3TMC1    C8   46   3.607   0.444  10.601  0.2288 -0.3115 -0.9152
    3TMC1    O1   47   3.899   0.596  10.947 -0.3110  0.2739 -0.5779
    3TMC1    O2   48   3.693   0.469  10.517  0.1494 -0.0761 -0.0130
    3TMC1    O3   49   3.792   0.783  11.001  0.3358  0.2913 -0.3488
    3TMC1    H3   50   3.704   0.824  11.016  0.2768 -0.6747  1.9579
    3TMC1    O5   51   3.508   0.352  10.589 -0.2706  0.2225 -0.7093
    3TMC1    H5   52   3.452   0.346  10.669  2.0704  0.3883  0.9410
    4MPD2     C   53   2.999   0.788  11.300 -0.4404  0.2172 -0.2859
    4MPD2    C1   54   3.091   0.886  11.282  0.1282 -0.3987 -0.0508
    4MPD2    C2   55   3.200   0.855  11.209  0.0705 -0.2788  0.2749
    4MPD2    C3   56   3.213   0.736  11.135  0.1362 -0.0222  0.1996
    4MPD2    C4   57   3.109   0.647  11.141  0.1214  0.0437 -0.3250
    4MPD2    C5   58   3.012   0.670  11.230  0.5999  0.0878 -0.9686
    4MPD2     H   59   3.285   0.922  11.203  0.0668 -0.5614 -2.7439
    4MPD2    H1   60   3.112   0.551  11.092 -1.2273  0.1656 -0.6267
    4MPD2    H2   61   2.914   0.800  11.367 -0.6985  0.3430 -0.6357
    4MPD2    H3   62   2.937   0.592  11.245  0.5810  0.1512 -0.7300
    4MPD2     N   63   3.325   0.712  11.054 -0.2378 -0.4611  0.4717
    4MPD2    H5   64   3.403   0.777  11.059 -1.8330  1.6756 -2.2582
    4MPD2    N1   65   3.097   1.011  11.352 -0.9657  0.3590 -0.1811
    4MPD2    H7   66   3.166   1.075  11.313 -1.0476 -1.4804 -3.3499
    5TCq1    O1   67   4.109   2.647  12.083  0.3449  0.2124 -0.0520
    5TCq1    C1   68   4.094   2.547  11.999  0.2965  0.1288 -0.1309
    5TCq1    O2   69   4.184   2.524  11.916 -0.1030 -0.0053 -0.1679
    5TCq1    C2   70   3.953   2.533  11.973 -0.1858  0.9131 -1.1126
    5TCq1    C3   71   3.869   2.543  12.075 -0.1006  0.9853 -0.2174
    5TCq1    C4   72   3.741   2.551  12.057 -0.3719  0.9932  0.2475
    5TCq1    C5   73   3.688   2.546  11.929 -0.1252 -0.1227  0.1120
    5TCq1    C6   74   3.778   2.510  11.831  0.6980 -0.1576 -0.4123
    5TCq1    C7   75   3.909   2.501  11.853  0.2226 -0.2507  0.1289
    5TCq1    C8   76   3.724   2.486  11.698 -0.4279 -0.3833  0.3251
    5TCq1    O4   77   3.783   2.399  11.635  0.0359  0.2761  0.5195
    5TCq1    C9   78   3.653   2.572  12.164 -0.4581  0.0537 -0.3698
    5TCq1    O5   79   3.533   2.539  12.150  0.1872  0.0082  0.2940
    5TCq1    O6   80   3.705   2.607  12.274  0.0418 -0.3693 -0.1188
    5TCq1    H1   81   4.025   2.677  12.124  0.4907 -0.9060  1.0397
    5TCq1    H2   82   3.911   2.542  12.175 -1.3376 -2.6453  0.2721
    5TCq1    H3   83   3.581   2.553  11.917 -0.2249  1.1979  1.7340
    5TCq1    H4   84   3.986   2.503  11.777 -2.4680 -0.2699 -2.5604
    6MPD2     C   85   3.443   2.657  11.535  0.0758 -0.3304  0.2356
    6MPD2    C1   86   3.550   2.570  11.546 -0.1624  0.1385  0.4914
    6MPD2    C2   87   3.592   2.504  11.436 -0.1215 -0.2343 -0.1757
    6MPD2    C3   88   3.531   2.529  11.315 -0.8159  0.2333 -0.5224
    6MPD2    C4   89   3.437   2.626  11.307  0.3562  0.0777  0.5424
    6MPD2    C5   90   3.392   2.690  11.412  0.5614  0.3367  0.7208
    6MPD2     H   91   3.676   2.435  11.433  0.1043  0.0705 -0.9017
    6MPD2    H1   92   3.381   2.650  11.218 -0.3002 -1.8256  0.4500
    6MPD2    H2   93   3.412   2.718  11.619  0.5450  2.3266 -1.5515
    6MPD2    H3   94   3.312   2.762  11.395 -0.5572 -1.9679 -3.8941
    6MPD2     N   95   3.574   2.455  11.206 -0.2637 -0.0522  0.0474
    6MPD2    H5   96   3.646   2.384  11.216  0.2857  0.0549 -3.0080
    6MPD2    N1   97   3.622   2.568  11.665 -0.3347  0.7947  0.0337
    6MPD2    H7   98   3.592   2.631  11.738 -2.4174 -1.3992  1.0430
    7TCq1    O1   99   1.667   2.109  13.342 -0.6387  0.0578 -0.2461
    7TCq1    C1  100   1.554   2.183  13.360  0.0704 -0.8950  0.6180
    7TCq1    O2  101   1.546   2.305  13.366  0.5443  0.5324 -0.1656
    7TCq1    C2  102   1.447   2.092  13.413 -0.1795 -0.2103  0.3243
    7TCq1    C3  103   1.359   2.150  13.493 -0.1046  0.0289  0.0559
    7TCq1    C4  104   1.242   2.082  13.517  0.0336  0.3385 -0.5542
    7TCq1    C5  105   1.209   1.968  13.454  0.5626 -0.1063 -0.0059
    7TCq1    C6  106   1.303   1.909  13.374  0.3896  0.0555  0.2692
    7TCq1    C7  107   1.420   1.973  13.350 -1.1139 -0.1371 -0.1264
    7TCq1    C8  108   1.284   1.770  13.338  0.1991 -1.0358  0.3325
    7TCq1    O4  109   1.381   1.705  13.316 -0.1967  0.0627  0.4890
    7TCq1    C9  110   1.150   2.142  13.605  0.0522 -0.2348 -0.0856
    7TCq1    O5  111   1.157   2.262  13.630  0.4098  0.9619 -0.0712
    7TCq1    O6  112   1.069   2.061  13.658  0.1269 -0.1285 -0.4382
    7TCq1    H1  113   1.662   2.016  13.371 -2.3356  0.1110 -0.3803
    7TCq1    H2  114   1.386   2.240  13.548 -0.4278  2.3175 -3.5545
    7TCq1    H3  115   1.119   1.916  13.485 -1.1638  1.4954 -2.3794
    7TCq1    H4  116   1.496   1.929  13.286  0.5899  1.3819  0.8537
    8MPD2     C  117   0.950   1.401  13.261  0.4804  0.7651  0.6974
    8MPD2    C1  118   1.081   1.394  13.302  0.3526 -0.0150 -0.3162
    8MPD2    C2  119   1.148   1.517  13.318  0.3238  1.0136  0.1484
    8MPD2    C3  120   1.087   1.636  13.279  0.3296  0.2414 -0.8703
    8MPD2    C4  121   0.962   1.634  13.240 -0.2703 -0.2304  0.2126
    8MPD2    C5  122   0.887   1.516  13.226 -0.9419 -0.0430  0.6742
    8MPD2     H  123   1.248   1.516  13.359  0.2598 -0.5809  0.2595
    8MPD2    H1  124   0.910   1.728  13.222  1.2897  0.1588 -2.3051
    8MPD2    H2  125   0.900   1.305  13.267 -0.4379  1.1035 -1.5729
    8MPD2    H3  126   0.780   1.512  13.206 -0.9960 -0.3669  1.0344
    8MPD2     N  127   1.155   1.756  13.299  0.3983  0.7674  0.1744
    8MPD2    H5  128   1.096   1.838  13.291  1.4286  1.5086  0.3057
    8MPD2    N1  129   1.147   1.269  13.350 -0.0917 -0.2937  0.1430
    8MPD2    H7  130   1.094   1.183  13.361 -1.5129  0.3175 -2.1248
    9TMC1    C1  131   4.192   0.817  10.808  0.3644 -0.6462 -0.6609
    9TMC1    C2  132   4.061   0.829  10.770 -0.5303 -0.2151 -1.1533
    9TMC1    C3  133   4.005   0.749  10.680 -0.1619 -0.5203 -0.4845
    9TMC1    C4  134   4.274   0.722  10.743  0.2839 -0.2915  1.4132
    9TMC1    C5  135   4.217   0.647  10.645  1.1033  0.2435 -0.4761
    9TMC1    C6  136   4.087   0.662  10.610 -0.1515  0.3779 -0.1663
    9TMC1     C  137   4.235   0.868  10.935  0.7421 -0.1646 -0.2508
    9TMC1     O  138   4.354   0.879  10.967  0.6428 -0.6966 -0.2344
    9TMC1     H  139   3.989   0.888  10.825  0.2423  0.6402 -1.0535
    9TMC1    H1  140   4.365   0.687  10.790  1.7109  2.6927  0.8371
    9TMC1    H2  141   4.035   0.618  10.526  0.9169 -0.4542 -0.3961
    9TMC1    C7  142   4.286   0.529  10.593  0.1641 -0.2142 -0.7608
    9TMC1    C8  143   3.898   0.820  10.614 -0.0659  0.1692  0.3377
    9TMC1    O1  144   4.295   0.490  10.477  0.0884 -0.0242  0.3822
    9TMC1    O2  145   3.811   0.880  10.673  0.3041 -0.2731 -0.2803
    9TMC1    O3  146   4.354   0.477  10.692 -0.5123  0.5634  0.2949
    9TMC1    H3  147   4.330   0.492  10.786  1.4004 -0.5379  0.9828
    9TMC1    O5  148   3.961   0.875  10.509  0.2629 -0.1008  0.3255
    9TMC1    H5  149   4.050   0.844  10.485 -0.1388 -1.5836  0.7414
   10MPD2     C  150   4.215   1.005  11.194 -0.0902 -0.0956 -0.5404
   10MPD2    C1  151   4.126   0.911  11.151  0.4462  0.4837 -0.3727
   10MPD2    C2  152   4.029   0.868  11.235  0.1171 -0.0445  0.0458
   10MPD2    C3  153   4.011   0.917  11.365  0.6603 -0.0785  0.2801
   10MPD2    C4  154   4.098   1.020  11.401  0.1614  0.9637  0.4766
   10MPD2    C5  155   4.208   1.060  11.321 -0.5702  0.2520 -0.2735
   10MPD2     H  156   3.960   0.794  11.196 -0.0127 -0.3915  0.9480
   10MPD2    H1  157   4.098   1.064  11.500  1.2117  0.6668  0.6105
   10MPD2    H2  158   4.290   1.049  11.130  0.8064 -0.0792  0.5169
   10MPD2    H3  159   4.280   1.131  11.358 -0.2632 -0.1783 -0.0468
   10MPD2     N  160   3.908   0.879  11.452 -0.4186 -0.2968  0.0037
   10MPD2    H5  161   3.913   0.921  11.545  2.4812  1.5401 -0.9597
   10MPD2    N1  162   4.127   0.860  11.023 -0.4834  0.2135  0.5433
   10MPD2    H7  163   4.050   0.802  10.988 -0.4627  1.1770 -1.1238
   11TCq1    O1  164   4.212   1.162  13.492  0.0299 -0.1144  0.1020
   11TCq1    C1  165   4.305   1.172  13.400  0.1451 -0.9685  0.2960
   11TCq1    O2  166   4.272   1.222  13.290  0.0071 -0.2746 -0.0061
   11TCq1    C2  167   4.427   1.193  13.479 -0.3017 -0.0954 -0.0818
   11TCq1    C3  168   4.517   1.275  13.425  0.1371  0.0312  0.7786
   11TCq1    C4  169   4.648   1.259  13.468  0.3929 -0.2148 -0.3438
   11TCq1    C5  170   4.686   1.169  13.557  0.5806  0.0710 -0.0966
   11TCq1    C6  171   4.587   1.092  13.610  0.2118  0.3573 -0.7857
   11TCq1    C7  172   4.455   1.109  13.581 -0.5463 -0.1660  0.1333
   11TCq1    C8  173   4.626   0.998  13.712  0.6052 -0.5697  0.8245
   11TCq1    O4  174   4.732   1.022  13.766 -0.2805 -0.1195 -0.5695
   11TCq1    C9  175   0.016   1.320  13.398 -0.1586  0.3945  0.1878
   11TCq1    O5  176   4.719   1.388  13.302 -0.0057 -0.1733  0.1842
   11TCq1    O6  177   0.140   1.306  13.437  0.7906 -0.2929 -0.0626
   11TCq1    H1  178   4.240   1.162  13.586 -1.9528  0.6800  0.7009
   11TCq1    H2  179   4.493   1.344  13.345  1.0888  0.3844  0.7949
   11TCq1    H3  180   0.053   1.147  13.578  1.0033  1.7564 -0.4071
   11TCq1    H4  181   4.377   1.047  13.622  0.8815 -1.3997  0.9534
   12MPD2     C  182   4.681   0.783  13.904  0.3566  0.8710 -0.2095
   12MPD2    C1  183   4.574   0.782  13.817 -0.2584  0.4483 -0.0767
   12MPD2    C2  184   4.476   0.687  13.823 -0.3382  0.9046 -0.5263
   12MPD2    C3  185   4.501   0.577  13.908 -0.3977 -0.1820 -0.3617
   12MPD2    C4  186   4.602   0.574  13.997  0.3282  0.3492  0.3618
   12MPD2    C5  187   4.689   0.683  13.995  0.6710  0.3250 -0.3114
   12MPD2     H  188   4.390   0.695  13.758 -0.3619 -0.5451 -0.6670
   12MPD2    H1  189   4.629   0.490  14.060  1.5577  0.3531 -0.1504
   12MPD2    H2  190   0.027   0.853  13.905  0.3343  0.8893  1.4502
   12MPD2    H3  191   0.043   0.678  14.055  0.8853 -1.9540 -0.8395
   12MPD2     N  192   4.428   0.456  13.902  0.2302  0.4712 -0.2336
   12MPD2    H5  193   4.446   0.380  13.967 -0.8319  0.8306  0.4749
   12MPD2    N1  194   4.546   0.888  13.726  0.1029 -0.5603 -0.0861
   12MPD2    H7  195   4.458   0.890  13.674  1.2267  0.1344 -1.9642
   13TCq1    O1  196   4.303   0.605  11.624  0.3750 -0.1631 -0.2622
   13TCq1    C1  197   4.330   0.659  11.500  0.1667 -0.7435  0.0377
   13TCq1    O2  198   4.378   0.767  11.482 -0.0117 -0.1639  0.3771
   13TCq1    C2  199   4.268   0.575  11.394 -0.1323  0.9018  0.0939
   13TCq1    C3  200   4.323   0.579  11.273  0.2958 -0.5139 -0.5950
   13TCq1    C4  201   4.263   0.520  11.165  0.5642 -0.7484 -0.3139
   13TCq1    C5  202   4.143   0.462  11.176 -0.2867  0.9344  0.0875
   13TCq1    C6  203   4.083   0.467  11.302  0.0788 -0.3018  0.3335
   13TCq1    C7  204   4.141   0.522  11.413  0.3541  0.0666  0.4488
   13TCq1    C8  205   3.944   0.421  11.308  0.7595 -0.1937 -0.1301
   13TCq1    O4  206   3.893   0.408  11.421 -0.0732 -0.4101  0.8933
   13TCq1    C9  207   4.323   0.522  11.035 -0.0221 -0.4231 -0.3514
   13TCq1    O5  208   4.444   0.558  11.026  0.6188  0.1697 -0.3118
   13TCq1    O6  209   4.258   0.480  10.940 -0.3974 -0.6082  0.2057
   13TCq1    H1  210   4.264   0.515  11.626 -2.0234  0.8955  0.3999
   13TCq1    H2  211   4.426   0.611  11.268  0.5605 -1.2425  0.3428
   13TCq1    H3  212   4.096   0.415  11.091  0.5021 -0.3203  0.3450
   13TCq1    H4  213   4.090   0.526  11.509  0.9137  0.3472  0.7325
   14MPD2     C  214   3.725   0.293  11.041  0.3704  0.6434  0.4793
   14MPD2    C1  215   3.756   0.345  11.168  0.7614 -0.1680 -0.6945
   14MPD2    C2  216   3.653   0.365  11.257 -0.1554  0.0600  0.1545
   14MPD2    C3  217   3.519   0.344  11.207 -0.7432 -0.6467 -0.4490
   14MPD2    C4  218   3.496   0.306  11.080 -0.3730  0.2643 -0.6584
   14MPD2    C5  219   3.592   0.279  10.994  0.1796  0.2855  0.1013
   14MPD2     H  220   3.663   0.406  11.356 -0.6851 -0.8043  0.5710
   14MPD2    H1  221   3.399   0.296  11.033 -0.0636  0.5440 -1.3509
   14MPD2    H2  222   3.800   0.284  10.963 -0.3961 -0.0619 -0.1702
   14MPD2    H3  223   3.576   0.240  10.894  0.0601 -1.8679  0.9606
   14MPD2     N  224   3.417   0.378  11.295 -0.0310 -0.5281 -0.6243
   14MPD2    H5  225   3.443   0.408  11.388 -2.7137 -0.1152 -0.0237
   14MPD2    N1  226   3.888   0.388  11.190 -0.2703 -0.2929 -0.5222
   14MPD2    H7  227   3.952   0.383  11.111  1.7725  1.2608  1.0265
   15TCq1    O1  228   0.750   4.384   2.018  0.2599 -0.6521  0.1507
   15TCq1    C1  229   0.716   4.289   2.104 -0.0487  0.5742 -0.8735
   15TCq1    O2  230   0.637   4.303   2.196  0.3483 -1.0255  0.3167
   15TCq1    C2  231   0.812   4.182   2.105 -0.2888  0.9826  0.5415
   15TCq1    C3  232   0.837   4.137   2.229 -0.0274 -0.3282 -0.1863
   15TCq1    C4  233   0.929   4.043   2.234  0.5168 -0.4991  0.7662
   15TCq1    C5  234   0.993   3.990   2.118 -0.0588  0.0743 -0.2250
   15TCq1    C6  235   0.950   4.025   1.999  1.0203  0.7362 -0.7913
   15TCq1    C7  236   0.864   4.125   1.991  0.2423  0.0472 -0.4544
   15TCq1    C8  237   1.026   3.969   1.882 -0.2006  0.4871  0.2768
   15TCq1    O4  238   1.131   3.902   1.893  0.3803  0.1660  0.0755
   15TCq1    C9  239   0.974   3.997   2.359  0.2443  0.1940 -0.7075
   15TCq1    O5  240   0.956   4.067   2.463 -0.0595 -0.0995 -0.1417
   15TCq1    O6  241   1.038   3.889   2.358 -0.9629 -0.1058  0.0746
   15TCq1    H1  242   0.822   4.362   1.956  1.6659 -0.3126  1.6731
   15TCq1    H2  243   0.799   4.178   2.322 -0.0061  1.2916 -0.9063
   15TCq1    H3  244   1.062   3.907   2.127  0.8255  0.6391 -1.8150
   15TCq1    H4  245   0.829   4.156   1.894 -0.4241  0.3909 -0.1045
   16MPD2     C  246   0.941   4.028   1.531 -0.6792 -0.0185 -0.2436
   16MPD2    C1  247   1.009   3.969   1.639  0.8168  0.7190  0.2103
   16MPD2    C2  248   1.112   3.884   1.605  0.3419  0.4722  0.6749
   16MPD2    C3  249   1.154   3.853   1.479  0.8212 -0.1348 -0.8498
   16MPD2    C4  250   1.080   3.910   1.377 -0.0721 -0.2842  0.0935
   16MPD2    C5  251   0.977   4.000   1.404  0.2268 -0.0496  0.1398
   16MPD2     H  252   1.178   3.851   1.684  0.2345 -2.1006 -0.3223
   16MPD2    H1  253   1.110   3.886   1.276 -0.6430 -1.9193  0.3047
   16MPD2    H2  254   0.851   4.086   1.550 -0.1674  0.0685  1.9606
   16MPD2    H3  255   0.926   4.048   1.322  1.3356  2.0674  0.6923
   16MPD2     N  256   1.277   3.783   1.454  0.0358 -0.8553 -0.2929
   16MPD2    H5  257   1.340   3.767   1.532  0.8889 -2.0097 -1.2209
   16MPD2    N1  258   0.961   4.001   1.767 -0.3557  0.2545 -0.0552
   16MPD2    H7  259   0.868   4.043   1.762 -0.8907 -1.0617 -1.0867
   17TMC1    C1  260   2.734   4.408   9.881 -0.1855 -0.6018 -0.1429
   17TMC1    C2  261   2.794   4.307   9.964 -0.3558  0.3639  0.1586
   17TMC1    C3  262   2.723   4.201   9.997 -0.7934  0.3463  0.0048
   17TMC1    C4  263   2.613   4.384   9.821 -0.6950  1.0269  0.9433
   17TMC1    C5  264   2.544   4.272   9.855 -0.2167 -0.1169  0.9193
   17TMC1    C6  265   2.597   4.184   9.947  0.2292  0.7695 -0.2233
   17TMC1     C  266   2.821   4.497   9.805 -0.1704 -0.3221  0.0439
   17TMC1     O  267   2.796   4.516   9.685 -0.4900 -0.7361  0.6371
   17TMC1     H  268   2.895   4.318  10.001 -0.5359 -1.4535  1.2121
   17TMC1    H1  269   2.572   4.449   9.744  0.3388  1.8885  1.1123
   17TMC1    H2  270   2.536   4.098   9.974  1.4026 -0.0957 -0.3129
   17TMC1    C7  271   2.427   4.236   9.782  0.2782  0.8625  0.3079
   17TMC1    C8  272   2.747   4.133  10.121  0.2137  0.1251 -0.0334
   17TMC1    O1  273   2.416   4.127   9.729 -0.8694 -0.1550  0.5194
   17TMC1    O2  274   2.695   4.026  10.144 -0.2757 -0.0782 -0.3305
   17TMC1    O3  275   2.363   4.349   9.740 -0.1135 -0.7057  0.2916
   17TMC1    H3  276   2.380   4.434   9.788  0.1880  0.8623 -2.6075
   17TMC1    O5  277   2.844   4.187  10.189  0.0719 -0.4795  0.4284
   17TMC1    H5  278   2.871   4.129  10.262  0.7225 -0.2937  0.3397
   18MPD2     C  279   3.043   4.675   9.723  0.5291 -0.4712 -0.1354
   18MPD2    C1  280   3.024   4.627   9.849 -0.6137  0.0489  0.5497
   18MPD2    C2  281   3.121   4.650   9.943 -0.1609  0.6744 -0.0945
   18MPD2    C3  282   3.235   4.725   9.914 -0.1339  0.7264 -0.4939
   18MPD2    C4  283   3.248   0.032   9.781  0.7946 -0.0313 -0.7153
   18MPD2    C5  284   3.152   0.013   9.687  0.2173 -0.8179 -0.0786
   18MPD2     H  285   3.115   4.607  10.043 -1.2338 -0.5702 -0.6868
   18MPD2    H1  286   3.339   0.083   9.752  1.2621  0.8263  2.2709
   18MPD2    H2  287   2.978   4.653   9.639  0.5235  2.7840 -0.9744
   18MPD2    H3  288   3.175   0.046   9.586  0.5499  1.2485  0.6570
   18MPD2     N  289   3.330   0.030  10.011 -0.0023 -0.2556 -0.4316
   18MPD2    H5  290   3.403   0.088   9.971  0.4042 -2.0148 -2.1855
   18MPD2    N1  291   2.925   4.535   9.886  0.4614 -0.1877  0.0722
   18MPD2    H7  292   2.927   4.504   9.982 -1.6308  0.3353  0.2669
   19TMC2    C1  293   0.883   0.488  14.206 -0.0262 -0.2405  0.2593
   19TMC2    C2  294   0.860   0.560  14.088 -0.2782 -0.0772 -0.4500
   19TMC2    C3  295   0.739   0.547  14.030  0.1440  0.5368 -0.6722
   19TMC2    C4  296   0.792   0.395  14.261  0.3547 -0.2737  0.1223
   19TMC2    C5  297   0.671   0.378  14.192 -0.0306  0.4396 -0.7635
   19TMC2    C6  298   0.649   0.452  14.074  0.0298  0.0306  0.1892
   19TMC2     C  299   1.014   0.509  14.268  0.4961  0.4118  0.2530
   19TMC2     O  300   1.100   0.538  14.187  0.4782 -0.8058  0.3223
   19TMC2     H  301   0.935   0.626  14.047 -1.2918  1.1524 -0.2950
   19TMC2    H1  302   0.806   0.332  14.348 -1.1136 -0.8560 -0.0570
   19TMC2    H2  303   0.564   0.431  14.010  0.7050 -0.3329 -0.5901
   19TMC2    C7  304   0.567   0.280  14.233 -0.3607  0.2325  0.0496
   19TMC2    C8  305   0.723   0.588  13.893 -0.3209 -0.0536 -0.0100
   19TMC2    O1  306   0.611   0.177  14.281 -0.1944 -0.3300 -0.1431
   19TMC2    O2  307   0.820   0.618  13.824 -0.3652  0.0056 -0.7846
   19TMC2    O5  308   0.602   0.654  13.878  0.1847  0.2361  0.0813
   19TMC2    H5  309   0.538   0.628  13.949 -1.2159  2.3221 -0.4311
   20MPD2     C  310   1.231   0.574  14.455 -0.3171  0.2363 -0.4229
   20MPD2    C1  311   1.116   0.509  14.503  0.1068 -0.1432 -0.8377
   20MPD2    C2  312   1.112   0.470  14.631 -0.3247 -0.4191 -0.5747
   20MPD2    C3  313   1.218   0.497  14.716  0.1123 -0.1726 -0.0796
   20MPD2    C4  314   1.329   0.570  14.669 -0.7388 -0.0475  0.4541
   20MPD2    C5  315   1.334   0.598  14.533  0.6042 -0.0067 -0.5830
   20MPD2     H  316   1.019   0.434  14.674 -0.6369 -1.6582 -2.2828
   20MPD2    H1  317   1.414   0.587  14.734 -0.2974 -0.7697  0.0647
   20MPD2    H2  318   1.250   0.600  14.351  1.1523 -0.8525 -0.4260
   20MPD2    H3  319   1.430   0.630  14.494  0.8468  1.2067  0.9942
   20MPD2     N  320   1.217   0.454  14.853  0.0688  0.4473 -0.5829
   20MPD2    H5  321   1.288   0.501  14.908 -0.5967  0.6767  0.0696
   20MPD2    N1  322   1.008   0.485  14.412 -0.5686  0.0209 -1.0329
   20MPD2    H7  323   0.923   0.441  14.446 -0.4526 -0.8078 -1.8079
   21TMC2    C1  324   3.030   0.712  14.710 -0.9773  0.6661  0.0553
   21TMC2    C2  325   3.117   0.622  14.774  0.6735 -0.0790 -0.0654
   21TMC2    C3  326   3.082   0.581  14.899  0.3675  0.2483 -0.0147
   21TMC2    C4  327   2.923   0.776  14.770  0.4048  0.3490  0.5118
   21TMC2    C5  328   2.913   0.744  14.902  0.2612 -0.2092 -0.0824
   21TMC2    C6  329   2.989   0.654  14.970  0.3617 -0.2100 -0.2664
   21TMC2     C  330   3.086   0.773  14.590  0.7959  0.2483 -0.0550
   21TMC2     O  331   3.200   0.734  14.559  0.0049 -0.1067 -0.0475
   21TMC2     H  332   3.178   0.550  14.720  1.1145 -0.8167  1.3912
   21TMC2    H1  333   2.879   0.864  14.724  1.9002  0.2794 -1.0528
   21TMC2    H2  334   2.962   0.627  15.071  1.5360  0.8623  0.3417
   21TMC2    C7  335   2.831   0.832  14.984 -0.4778 -0.5746  0.3229
   21TMC2    C8  336   3.176   0.495  14.968 -0.1502  0.5721  0.4178
   21TMC2    O1  337   2.832   0.807  15.108 -0.0418  0.4896 -0.1717
   21TMC2    O2  338   3.280   0.450  14.914 -0.1506  0.0970  0.4770
   21TMC2    O5  339   3.111   0.432  15.071 -0.3949 -0.3116  0.3060
   21TMC2    H5  340   3.025   0.476  15.087 -1.0819 -1.9387  1.1021
   22MPD2     C  341   3.147   1.233  14.387 -1.2725 -0.6341  0.4643
   22MPD2    C1  342   3.239   1.138  14.428 -0.0061 -0.6030  0.5988
   22MPD2    C2  343   3.192   1.017  14.476  0.0619  1.4255  0.6998
   22MPD2    C3  344   3.061   0.991  14.485 -0.4960  0.7780  0.4440
   22MPD2    C4  345   2.969   1.090  14.443  0.3687 -0.6045 -0.4823
   22MPD2    C5  346   3.010   1.205  14.386 -0.0757 -0.1601 -0.7722
   22MPD2     H  347   3.261   0.942  14.513 -2.3377 -0.2279  1.8439
   22MPD2    H1  348   2.865   1.065  14.455 -0.4534  3.0007 -0.1317
   22MPD2    H2  349   3.180   1.328  14.347 -2.2473 -0.4647  0.0841
   22MPD2    H3  350   2.947   1.287  14.353 -1.3623 -0.9760 -0.3596
   22MPD2     N  351   3.010   0.873  14.541  0.5770 -0.6277 -0.2495
   22MPD2    H5  352   2.909   0.869  14.554  0.5127 -0.5062 -0.7133
   22MPD2    N1  353   3.374   1.178  14.442  0.9369  0.2826  0.1000
   22MPD2    H7  354   3.434   1.098  14.462  0.7710 -0.2100 -1.3836
   23TMC2    C1  355   0.128   1.795  14.215 -0.2537  0.0130  0.6045
   23TMC2    C2  356   0.157   1.870  14.104 -0.7202  0.2774 -0.3092
   23TMC2    C3  357   0.061   1.868  14.011  1.1937 -0.3634  0.3328
   23TMC2    C4  358   0.008   1.738  14.235 -0.3176 -0.1443 -0.3836
   23TMC2    C5  359   4.650   1.744  14.138 -0.0430 -0.6952 -0.0139
   23TMC2    C6  360   4.674   1.816  14.023 -0.1770 -0.5390 -0.8656
   23TMC2     C  361   0.211   1.788  14.329 -0.3707  0.6750 -0.2963
   23TMC2     O  362   0.192   1.698  14.413 -0.9788 -0.2764  0.2492
   23TMC2     H  363   0.256   1.906  14.077 -0.7958  1.7274  1.3069
   23TMC2    H1  364   4.731   1.665  14.314 -0.3706  0.0547 -0.2095
   23TMC2    H2  365   4.602   1.818  13.943 -0.0366 -0.2444 -0.9854
   23TMC2    C7  366   4.535   1.652  14.155  0.3154  0.4369  0.5263
   23TMC2    C8  367   0.086   1.945  13.890 -0.1080  1.2255 -0.0712
   23TMC2    O1  368   4.556   1.554  14.224  0.6554 -0.0243  0.7950
   23TMC2    O2  369   0.198   1.971  13.846  0.4176  0.0982 -0.0318
   23TMC2    O5  370   4.725   2.031  13.890  0.6566 -0.4819  0.0265
   23TMC2    H5  371   4.667   2.021  13.969  0.1790 -1.2893 -0.4371
   24MPD2     C  372   0.517   2.038  14.659  0.3949  0.0118 -0.7989
   24MPD2    C1  373   0.437   1.930  14.678  0.4449 -0.1299  0.0936
   24MPD2    C2  374   0.369   1.876  14.568 -0.2440  0.5525 -0.9534
   24MPD2    C3  375   0.371   1.933  14.448  0.5122  0.0972  0.5379
   24MPD2    C4  376   0.445   2.047  14.433 -0.3836  0.1774 -0.1963
   24MPD2    C5  377   0.507   2.100  14.541  0.5867  0.6399  0.0507
   24MPD2     H  378   0.306   1.788  14.576  0.6328  0.1075  0.9369
   24MPD2    H1  379   0.456   2.087  14.333 -2.0762 -1.8587 -1.1949
   24MPD2    H2  380   0.566   2.090  14.741  0.3879 -0.8464 -0.2430
   24MPD2    H3  381   0.561   2.193  14.527 -0.8455  0.9242 -3.4710
   24MPD2     N  382   0.295   1.898  14.335  0.0307 -0.2413  0.1503
   24MPD2    H5  383   0.292   1.965  14.259  0.0459 -1.1870 -0.6782
   24MPD2    N1  384   0.438   1.859  14.802 -0.1593 -0.5668  0.0903
   24MPD2    H7  385   0.495   1.896  14.877  1.5134 -1.1416 -0.8965
   25TMC2    C1  386   3.929   3.742  11.820 -0.0219  0.1953 -0.2761
   25TMC2    C2  387   4.020   3.822  11.879 -0.7324 -0.2644 -0.1298
   25TMC2    C3  388   4.020   3.821  12.014 -0.4771  0.2360  0.2681
   25TMC2    C4  389   3.830   3.676  11.894 -0.5591 -1.0714  0.1964
   25TMC2    C5  390   3.848   3.675  12.030  0.0719  0.5334 -0.2870
   25TMC2    C6  391   3.943   3.750  12.091 -0.0315  0.0487 -0.0532
   25TMC2     C  392   3.925   3.738  11.673 -0.3951 -0.2854 -0.2881
   25TMC2     O  393   4.013   3.798  11.614  0.2985 -0.5033  0.1974
   25TMC2     H  394   4.100   3.874  11.827  1.2052 -2.6889  0.4446
   25TMC2    H1  395   3.752   3.619  11.845 -0.5857 -0.5717 -0.3397
   25TMC2    H2  396   3.939   3.756  12.199  1.1252 -1.7544  0.0898
   25TMC2    C7  397   3.736   3.642  12.118  0.2881 -0.1591  0.5422
   25TMC2    C8  398   4.101   3.925  12.075 -0.1073  0.0468  0.3587
   25TMC2    O1  399   3.731   3.700  12.229  0.7903  0.3757  0.3029
   25TMC2    O2  400   4.171   3.999  12.007  0.0731  0.2928 -0.1362
   25TMC2    O5  401   4.134   3.886  12.202  0.0480  0.4685  0.6742
   25TMC2    H5  402   4.210   3.941  12.230  0.6745  0.4304 -0.9381
   26MPD2     C  403   3.827   3.569  11.198  0.8627 -0.4848  0.5479
   26MPD2    C1  404   3.749   3.494  11.284 -0.1130 -0.0245 -0.4038
   26MPD2    C2  405   3.751   3.530  11.420  0.4180 -0.7179 -0.1183
   26MPD2    C3  406   3.824   3.636  11.472  0.2081  0.1829  0.4065
   26MPD2    C4  407   3.898   3.711  11.374  0.2392 -1.2657  0.0874
   26MPD2    C5  408   3.889   3.683  11.242 -0.0673 -0.2511 -0.0003
   26MPD2     H  409   3.679   3.481  11.484  1.6739 -1.9882  0.3516
   26MPD2    H1  410   3.969   3.791  11.391  1.1940 -2.0692 -0.1768
   26MPD2    H2  411   3.828   3.544  11.093 -1.4057  0.9883  0.1827
   26MPD2    H3  412   3.936   3.743  11.166 -0.4966  0.7381  0.5089
   26MPD2     N  413   3.831   3.655  11.613 -0.2265 -0.2957  0.1012
   26MPD2    H5  414   3.774   3.594  11.671 -0.6388 -1.4981 -1.5577
   26MPD2    N1  415   3.667   3.403  11.216  0.3635 -0.0546 -0.0499
   26MPD2    H7  416   3.686   3.405  11.116  0.2091  0.5265 -0.0729
   27TMC2    C1  417   2.504   1.319  12.231  0.3673  0.0257 -0.0574
   27TMC2    C2  418   2.605   1.383  12.160 -0.6797 -0.2556  0.9459
   27TMC2    C3  419   2.727   1.385  12.224 -0.5537  0.3481  0.8627
   27TMC2    C4  420   2.527   1.226  12.333 -0.8703 -0.4249 -0.5537
   27TMC2    C5  421   2.656   1.222  12.385  0.2713 -0.0541  0.9989
   27TMC2    C6  422   2.752   1.308  12.340 -1.1049 -0.2909 -0.3218
   27TMC2     C  423   2.379   1.310  12.163 -0.2430 -0.3996 -0.2078
   27TMC2     O  424   2.367   1.335  12.043  0.1128 -0.3519  0.2870
   27TMC2     H  425   2.572   1.447  12.078 -2.4009 -0.5233  1.4431
   27TMC2    H1  426   2.454   1.154  12.367 -1.1286  0.2941  0.4372
   27TMC2    H2  427   2.853   1.293  12.375 -1.6603 -2.6021  0.2478
   27TMC2    C7  428   2.658   1.212  12.531 -0.2933  0.5260  0.0193
   27TMC2    C8  429   2.833   1.466  12.174 -0.0383 -0.8186  0.7335
   27TMC2    O1  430   2.577   1.130  12.570  0.1114 -0.3789 -0.2598
   27TMC2    O2  431   2.879   1.473  12.061  0.0628  0.3885 -0.2470
   27TMC2    O5  432   2.819   1.572  12.254  0.0226  0.1287 -0.0725
   27TMC2    H5  433   2.756   1.558  12.328  0.4089 -2.2550 -0.1976
   28MPD2     C  434   1.878   1.383  12.179 -0.6661 -0.9970  0.1773
   28MPD2    C1  435   1.924   1.384  12.312  0.5188 -0.0290  0.1681
   28MPD2    C2  436   2.057   1.350  12.336 -0.1168  0.7396  0.1514
   28MPD2    C3  437   2.140   1.334  12.227  0.8771 -0.5156  0.2576
   28MPD2    C4  438   2.087   1.325  12.100  0.2116 -0.0377 -0.2630
   28MPD2    C5  439   1.953   1.340  12.077 -0.5468  0.2059  0.1023
   28MPD2     H  440   2.093   1.345  12.438 -0.6159  0.1786  0.3069
   28MPD2    H1  441   2.150   1.304  12.014  1.6143 -3.4420  1.5962
   28MPD2    H2  442   1.774   1.402  12.155 -0.2888  0.0903 -0.5798
   28MPD2    H3  443   1.906   1.322  11.981 -2.0571  0.8770  0.7021
   28MPD2     N  444   2.277   1.323  12.256 -1.0568  0.1005  0.1509
   28MPD2    H5  445   2.302   1.315  12.354  0.6318 -1.1779 -0.3773
   28MPD2    N1  446   1.824   1.410  12.414  0.6607 -0.1671 -0.0318
   28MPD2    H7  447   1.729   1.427  12.384  1.0164 -0.4680 -1.3307
   29TMC2    C1  448   1.508   3.785  14.702 -0.0431 -0.7235  0.3896
   29TMC2    C2  449   1.488   3.764  14.835 -0.1021 -0.3093 -0.3660
   29TMC2    C3  450   1.493   3.874  14.924 -0.0725 -0.1925  0.0681
   29TMC2    C4  451   1.528   3.903  14.654 -0.0093  0.2769  0.5112
   29TMC2    C5  452   1.551   4.009  14.734 -0.2157 -1.3452  0.2086
   29TMC2    C6  453   1.530   3.996  14.875 -0.5615  0.4844  1.1294
   29TMC2     C  454   1.512   3.667  14.614  0.8022 -0.5005  0.0639
   29TMC2     O  455   1.544   3.563  14.671  0.0405 -0.4694  0.0446
   29TMC2     H  456   1.488   3.664  14.876  0.7219 -0.0187  0.3567
   29TMC2    H1  457   1.544   3.917  14.547 -2.3174 -0.9613  0.0129
   29TMC2    H2  458   1.532   4.086  14.935 -2.6473 -0.2252  2.2669
   29TMC2    C7  459   1.614   4.126  14.684  1.0568  0.3846  0.4213
   29TMC2    C8  460   1.474   3.850  15.065  0.5529  0.1905 -0.0694
   29TMC2    O1  461   1.596   4.149  14.565 -0.8007  0.0603 -0.2328
   29TMC2    O2  462   1.533   3.913  15.150 -0.0520  0.2532  0.8685
   29TMC2    O5  463   1.361   3.775  15.083 -0.1785 -0.5452 -0.2357
   29TMC2    H5  464   1.318   3.746  15.000 -0.8910 -0.0875 -0.0231
   30MPD2     C  465   1.430   3.415  14.171  0.3762  0.5430 -0.0489
   30MPD2    C1  466   1.507   3.382  14.286  1.0750  0.3464  0.4772
   30MPD2    C2  467   1.527   3.478  14.386  0.4322 -0.4951 -0.5111
   30MPD2    C3  468   1.464   3.598  14.387 -1.2526  0.2732  0.7840
   30MPD2    C4  469   1.397   3.634  14.274  0.0503 -0.3086  0.1047
   30MPD2    C5  470   1.374   3.544  14.172  0.5777 -0.4000  0.5450
   30MPD2     H  471   1.591   3.458  14.471 -0.2725  2.6790  0.7325
   30MPD2    H1  472   1.347   3.728  14.250 -0.9959 -0.5187  1.4814
   30MPD2    H2  473   1.426   3.355  14.081  1.0720 -0.6605  0.7272
   30MPD2    H3  474   1.318   3.583  14.087 -0.3004 -1.2168  0.7469
   30MPD2     N  475   1.477   3.699  14.486 -0.1674 -0.2850 -0.6360
   30MPD2    H5  476   1.433   3.789  14.468 -1.2649 -1.0572 -1.8481
   30MPD2    N1  477   1.576   3.263  14.300  0.2651 -0.6895 -0.7494
   30MPD2    H7  478   1.646   3.251  14.373 -2.1328 -0.1858  1.6097
   31TMC2    C1  479   4.120   2.688  15.475  0.3858  0.0992  0.3914
   31TMC2    C2  480   3.995   2.647  15.465 -0.7807  0.8145  0.7694
   31TMC2    C3  481   3.935   2.589  15.571 -0.5219  0.1254 -1.6076
   31TMC2    C4  482   4.195   2.659  15.587 -0.1248  0.5350 -0.1429
   31TMC2    C5  483   4.134   2.596  15.689 -0.4034 -0.8903  1.2445
   31TMC2    C6  484   4.008   2.557  15.688 -0.2434  0.4287  0.2559
   31TMC2     C  485   4.170   2.749  15.348 -0.0339 -0.6089 -0.0316
   31TMC2     O  486   4.094   2.821  15.287  0.0026 -0.6177  0.1398
   31TMC2     H  487   3.942   2.684  15.379  2.0290  0.4920 -1.1070
   31TMC2    H1  488   4.301   2.684  15.589  0.0221 -0.0803 -0.1920
   31TMC2    H2  489   3.954   2.520  15.774  1.3444 -0.9929  0.6357
   31TMC2    C7  490   4.199   2.585  15.815 -0.4177 -0.2708 -0.0036
   31TMC2    C8  491   3.808   2.642  15.599  0.3097  0.0791  0.6838
   31TMC2    O1  492   4.160   2.498  15.892  0.4486 -0.7264  0.3298
   31TMC2    O2  493   3.773   2.679  15.706  0.0487 -0.1129  0.5426
   31TMC2    O5  494   3.729   2.645  15.490 -0.1228  0.1468 -0.4395
   31TMC2    H5  495   3.764   2.594  15.415  1.4874  0.5232  0.0572
   32MPD2     C  496   4.544   2.773  15.004  0.8568  0.4944  0.2358
   32MPD2    C1  497   4.424   2.847  15.010 -0.4763 -0.2310  0.1004
   32MPD2    C2  498   4.347   2.824  15.122 -0.4736  0.2948 -0.4243
   32MPD2    C3  499   4.379   2.732  15.215 -0.0259  0.3584  0.6525
   32MPD2    C4  500   4.497   2.664  15.199  0.6093 -0.3414 -0.2686
   32MPD2    C5  501   4.577   2.687  15.096 -0.2127  1.0385  0.4723
   32MPD2     H  502   4.258   2.886  15.131 -0.3585  0.1917  1.4446
   32MPD2    H1  503   4.526   2.587  15.269 -0.7053 -0.3949  0.2305
   32MPD2    H2  504   4.608   2.778  14.917 -0.9967 -1.2526 -1.2171
   32MPD2    H3  505   4.666   2.626  15.089 -0.8092  0.2385 -0.2127
   32MPD2     N  506   4.297   2.702  15.323  0.2093  0.4012  0.0123
   32MPD2    H5  507   4.331   2.628  15.382  2.0138  0.4620 -0.9697
   32MPD2    N1  508   4.394   2.937  14.905 -0.1696  0.1953  0.3253
   32MPD2    H7  509   4.469   2.953  14.839  0.4793  0.2397  1.0806
   33TMC2    C1  510   3.614   0.979   9.863 -0.2479  0.0321 -1.0242
   33TMC2    C2  511   3.508   0.980   9.782 -0.3238  0.2279  0.6305
   33TMC2    C3  512   3.504   1.077   9.685 -0.7984 -0.6519 -0.5319
   33TMC2    C4  513   3.690   1.089   9.884 -0.1474  0.3396 -0.1813
   33TMC2    C5  514   3.687   1.191   9.793 -0.0544 -0.3915 -0.2054
   33TMC2    C6  515   3.596   1.188   9.691  0.1378 -0.3272  0.0256
   33TMC2     C  516   3.644   0.855   9.936  0.2131  0.2461 -0.1523
   33TMC2     O  517   3.565   0.765   9.921  0.4027  0.6283 -0.4979
   33TMC2     H  518   3.435   0.900   9.788  2.6282 -2.3173  2.3842
   33TMC2    H1  519   3.781   1.094   9.941  1.3596 -2.7233 -2.3523
   33TMC2    H2  520   3.589   1.274   9.626  1.3694  1.5818  2.4412
   33TMC2    C7  521   3.783   1.294   9.803  0.1482  0.9150 -0.6108
   33TMC2    C8  522   3.389   1.098   9.611  0.1428 -0.5283 -0.5732
   33TMC2    O1  523   3.839   1.313   9.911 -0.7165 -0.0870  0.2424
   33TMC2    O2  524   3.304   1.019   9.577  0.1850 -0.3376 -0.5922
   33TMC2    O5  525   3.366   1.236   9.612 -0.1213 -0.9346 -0.0113
   33TMC2    H5  526   3.423   1.301   9.658 -1.8648 -0.7494  1.8442
   34MPD2     C  527   3.951   0.550  10.200  0.1101  0.0730  1.0008
   34MPD2    C1  528   3.827   0.532  10.154  0.1525 -0.6258  0.6485
   34MPD2    C2  529   3.766   0.633  10.086 -0.2049 -0.4922  0.1460
   34MPD2    C3  530   3.830   0.751  10.063 -0.6726  0.3465 -0.0232
   34MPD2    C4  531   3.967   0.761  10.093 -0.4394  0.3056 -0.0182
   34MPD2    C5  532   4.030   0.662  10.166 -0.1708 -0.4189 -0.5061
   34MPD2     H  533   3.661   0.617  10.061  0.0224 -0.3247 -0.8880
   34MPD2    H1  534   4.019   0.850  10.059 -0.0986  1.0698  2.5344
   34MPD2    H2  535   4.006   0.466  10.242 -1.0640 -0.6034  1.1866
   34MPD2    H3  536   4.132   0.669  10.202 -0.7503  2.0317  0.6380
   34MPD2     N  537   3.767   0.858  10.002 -0.6236  0.3726 -0.0544
   34MPD2    H5  538   3.818   0.946  10.007  2.2922 -1.5475  3.4587
   34MPD2    N1  539   3.757   0.413  10.194  0.3499  0.0486 -1.1702
   34MPD2    H7  540   3.820   0.347  10.239 -0.8552 -1.1640 -1.2339
   35TMC2    C1  541   0.778   1.494  11.483 -0.1912  0.2203 -1.0770
   35TMC2    C2  542   0.715   1.515  11.361 -0.2356  0.8682 -0.1220
   35TMC2    C3  543   0.579   1.507  11.362  0.6444  0.3700 -1.2579
   35TMC2    C4  544   0.704   1.456  11.594  0.7788 -0.3782 -0.4068
   35TMC2    C5  545   0.563   1.450  11.584 -0.0974 -0.5052 -0.1510
   35TMC2    C6  546   0.493   1.472  11.465 -0.1745 -0.3626  0.0059
   35TMC2     C  547   0.917   1.448  11.471  0.3097 -0.2712  0.3530
   35TMC2     O  548   0.974   1.497  11.373  0.4232 -0.2783 -0.1705
   35TMC2     H  549   0.773   1.557  11.280  1.1969  1.9305  1.4609
   35TMC2    H1  550   0.752   1.439  11.689  0.9519 -1.8226 -0.7538
   35TMC2    H2  551   0.390   1.462  11.434 -0.1618 -0.3488 -0.0412
   35TMC2    C7  552   0.495   1.381  11.690 -0.8014  0.1916  0.2629
   35TMC2    C8  553   0.503   1.534  11.236  0.5475  0.0338 -0.4415
   35TMC2    O1  554   0.553   1.297  11.764 -0.2483 -0.6737  0.0709
   35TMC2    O2  555   0.530   1.616  11.152 -0.0182 -0.2531  0.8493
   35TMC2    O5  556   0.440   1.414  11.203  0.2112 -0.0297 -0.5517
   35TMC2    H5  557   0.465   1.345  11.268  0.0065 -1.0892 -1.5906
   36MPD2     C  558   1.344   1.205  11.613  0.3167  0.0724 -0.4742
   36MPD2    C1  559   1.251   1.170  11.707 -0.4293 -0.0202  0.0659
   36MPD2    C2  560   1.119   1.221  11.690 -0.1170 -0.0116 -0.1549
   36MPD2    C3  561   1.087   1.302  11.579  0.1207 -0.0957 -0.2816
   36MPD2    C4  562   1.185   1.331  11.482  0.0462  0.2261  0.3594
   36MPD2    C5  563   1.319   1.288  11.509 -0.3879 -0.0214  0.0628
   36MPD2     H  564   1.038   1.196  11.757  1.1003 -0.6961  1.0657
   36MPD2    H1  565   1.163   1.391  11.395 -2.4363 -2.3252 -0.7513
   36MPD2    H2  566   1.446   1.171  11.629  0.3948 -0.5173 -2.2694
   36MPD2    H3  567   1.397   1.310  11.438 -0.4009 -2.6146 -0.7491
   36MPD2     N  568   0.960   1.356  11.565 -0.2115  0.2633 -0.1742
   36MPD2    H5  569   0.894   1.330  11.638  1.2045 -0.8330  0.7084
   36MPD2    N1  570   1.295   1.102  11.820  0.6192  0.2783  0.4656
   36MPD2    H7  571   1.396   1.110  11.827  0.7371 -0.2632 -0.6358
   37TMC2    C1  572   2.367   1.945  12.437 -0.4969  0.3056  0.1405
   37TMC2    C2  573   2.270   1.853  12.445 -0.9121  0.3405 -0.0273
   37TMC2    C3  574   2.265   1.762  12.345  0.2542 -0.1344 -0.5319
   37TMC2    C4  575   2.449   1.962  12.329 -0.0997 -0.5294 -0.3612
   37TMC2    C5  576   2.435   1.872  12.230  0.3201  0.3821 -0.8314
   37TMC2    C6  577   2.337   1.779  12.232 -0.0304 -0.3260 -0.0150
   37TMC2     C  578   2.442   1.962  12.561 -0.1039  0.2098 -0.4732
   37TMC2     O  579   2.377   1.945  12.662  0.3340 -0.2919 -0.4074
   37TMC2     H  580   2.205   1.853  12.531  0.2702  2.1430  0.8641
   37TMC2    H1  581   2.523   2.041  12.330 -1.1556  0.4660  1.0720
   37TMC2    H2  582   2.327   1.702  12.156 -3.3182  0.6434 -0.5366
   37TMC2    C7  583   2.556   1.863  12.155  0.1983  0.0829  0.1817
   37TMC2    C8  584   2.131   1.704  12.312 -0.4687  0.1273  0.0352
   37TMC2    O1  585   2.654   1.917  12.204 -0.1823  0.2832  0.2192
   37TMC2    O2  586   2.087   1.694  12.196  0.2375  0.1075 -0.0927
   37TMC2    O5  587   2.055   1.704  12.429  0.0633  0.1764  0.2461
   37TMC2    H5  588   2.110   1.702  12.511 -1.0397 -0.6586  0.9559
   38MPD2     C  589   2.859   1.830  12.826  0.3078  0.7723  0.4741
   38MPD2    C1  590   2.894   1.853  12.695 -0.0010  0.0345 -0.4577
   38MPD2    C2  591   2.803   1.895  12.601  0.0812  0.6192  0.0733
   38MPD2    C3  592   2.675   1.926  12.633 -0.3657 -0.0421 -1.0164
   38MPD2    C4  593   2.645   1.908  12.770 -0.7057 -0.2617  0.3017
   38MPD2    C5  594   2.726   1.861  12.866 -0.2728  0.3442  0.6705
   38MPD2     H  595   2.837   1.911  12.500 -0.0599 -1.5953 -0.3289
   38MPD2    H1  596   2.544   1.925  12.805 -1.7297 -2.9444 -1.4287
   38MPD2    H2  597   2.929   1.788  12.898  1.3393 -0.1548 -1.0866
   38MPD2    H3  598   2.705   1.854  12.972 -1.2489 -2.5588  0.2921
   38MPD2     N  599   2.577   1.952  12.538 -0.0976 -0.6873  0.2574
   38MPD2    H5  600   2.613   1.947  12.443  0.7942  0.4177  0.5384
   38MPD2    N1  601   3.025   1.832  12.648  0.2535  1.0088  0.1945
   38MPD2    H7  602   3.050   1.871  12.558 -0.5183  0.6007 -0.1998
   39TMC2    C1  603   1.981   3.635   1.789  0.3488 -0.4574  0.2266
   39TMC2    C2  604   1.961   3.664   1.924  0.0394  0.3288 -0.5259
   39TMC2    C3  605   2.051   3.743   1.984 -0.0414  0.1547 -0.4825
   39TMC2    C4  606   2.085   3.686   1.716  0.3432 -0.1250 -0.8829
   39TMC2    C5  607   2.179   3.757   1.789  0.3158 -0.3828  0.3467
   39TMC2    C6  608   2.157   3.797   1.917 -0.1728 -0.0920  0.0575
   39TMC2     C  609   1.888   3.546   1.725  0.7733 -0.0459 -0.3075
   39TMC2     O  610   1.786   3.536   1.795  0.6986  0.0204  0.2098
   39TMC2     H  611   1.902   3.595   1.984  0.7563 -0.0102 -0.2104
   39TMC2    H1  612   2.091   3.684   1.608 -0.9885 -3.0430 -0.9056
   39TMC2    H2  613   2.221   3.869   1.966 -0.8007  0.3078  0.2975
   39TMC2    C7  614   2.284   3.812   1.704 -0.0357  0.7522  0.0881
   39TMC2    C8  615   2.021   3.758   2.123 -0.0168  0.3220  0.0363
   39TMC2    O1  616   2.321   3.744   1.612  0.2508 -0.3914 -0.0151
   39TMC2    O2  617   1.930   3.709   2.187  0.3052 -0.5198  0.3233
   39TMC2    O5  618   2.140   3.787   2.180 -0.4485 -0.1244 -0.1387
   39TMC2    H5  619   2.224   3.775   2.131 -0.4965 -0.1875 -0.2048
   40MPD2     C  620   1.915   3.292   1.469 -0.2675 -0.1848  0.1814
   40MPD2    C1  621   1.852   3.368   1.561 -0.8963  0.4184 -0.1413
   40MPD2    C2  622   1.717   3.364   1.570 -0.3658 -0.7760  0.2052
   40MPD2    C3  623   1.644   3.283   1.477 -0.2023 -0.2217 -0.6507
   40MPD2    C4  624   1.708   3.215   1.375  0.2974  0.3514 -0.6311
   40MPD2    C5  625   1.846   3.213   1.374 -0.1349  0.1973  0.7057
   40MPD2     H  626   1.664   3.430   1.638  0.2956  0.5723 -0.5981
   40MPD2    H1  627   1.649   3.158   1.304 -2.4694  1.2563  0.9304
   40MPD2    H2  628   2.023   3.301   1.462 -0.4079  1.5017  0.2838
   40MPD2    H3  629   1.907   3.147   1.314  2.6251 -0.1442  3.8978
   40MPD2     N  630   1.509   3.280   1.463  0.0421  0.3705 -0.1227
   40MPD2    H5  631   1.476   3.220   1.388 -2.9842  0.5940  1.0061
   40MPD2    N1  632   1.934   3.461   1.627  0.1585  0.1446 -0.1455
   40MPD2    H7  633   2.033   3.466   1.608  0.3407  0.9759  1.0952
   41TMC2    C1  634   0.562   1.953  13.663  0.6970 -0.2235  0.6937
   41TMC2    C2  635   0.627   2.018  13.765  0.1705 -0.1412  0.5499
   41TMC2    C3  636   0.738   2.085  13.729  0.2660  0.8084  0.6139
   41TMC2    C4  637   0.613   1.954  13.532 -0.5119 -0.2408  0.1783
   41TMC2    C5  638   0.722   2.037  13.508  0.0906 -0.7441 -0.8742
   41TMC2    C6  639   0.783   2.109  13.604  0.9092  0.4289  0.1959
   41TMC2     C  640   0.466   1.853  13.693  0.2378  0.2148 -0.1483
   41TMC2     O  641   0.409   1.798  13.603  0.2312  0.2741  0.3328
   41TMC2     H  642   0.594   2.023  13.868  1.3590  0.0996  0.9230
   41TMC2    H1  643   0.558   1.903  13.453  2.0976 -1.1776 -1.0395
   41TMC2    H2  644   0.865   2.175  13.580  0.8839  1.0247  1.7389
   41TMC2    C7  645   0.803   2.001  13.388 -0.0476  0.2415  0.5723
   41TMC2    C8  646   0.819   2.136  13.840 -0.3501 -0.4796  0.9742
   41TMC2    O1  647   0.770   1.903  13.318 -0.2600 -0.2711  0.3470
   41TMC2    O2  648   0.752   2.153  13.945 -0.4191  0.0754  0.0135
   41TMC2    O5  649   0.912   2.044  13.848  0.1366 -0.3687 -0.8808
   41TMC2    H5  650   0.968   2.037  13.768  1.2497  0.7547 -0.2044
   42MPD2     C  651   0.391   1.580  13.824 -0.4312  0.3878 -0.5129
   42MPD2    C1  652   0.436   1.691  13.897 -0.1513  0.1804 -0.0064
   42MPD2    C2  653   0.441   1.691  14.034  0.6777  0.0235  0.6718
   42MPD2    C3  654   0.433   1.564  14.103 -0.0156 -0.5504  0.5841
   42MPD2    C4  655   0.394   1.455  14.033 -0.0342 -0.0299 -0.5797
   42MPD2    C5  656   0.377   1.466  13.896  0.2877 -0.0588 -0.0276
   42MPD2     H  657   0.459   1.777  14.097 -3.2771 -0.3883  2.3410
   42MPD2    H1  658   0.393   1.358  14.081  2.3390  1.1399  1.8379
   42MPD2    H2  659   0.384   1.577  13.716 -0.6034 -0.1542 -0.4838
   42MPD2    H3  660   0.344   1.381  13.837  0.2985 -1.2959  1.7321
   42MPD2     N  661   0.453   1.551  14.242 -0.2339  0.5727 -0.0222
   42MPD2    H5  662   0.429   1.462  14.284 -3.7107  1.8905  0.7772
   42MPD2    N1  663   0.471   1.817  13.830  0.3018  0.0137  0.3508
   42MPD2    H7  664   0.503   1.891  13.891 -0.3505  1.8548 -1.5300
   43TMC2    C1  665   2.342   4.726   0.906  0.3088  0.2089  0.1238
   43TMC2    C2  666   2.335   4.638   1.015 -0.0483 -0.3341 -0.7156
   43TMC2    C3  667   2.262   4.680   1.123  0.7422  0.6579 -0.4584
   43TMC2    C4  668   2.272   0.099   0.896 -0.2211 -0.1290 -0.4784
   43TMC2    C5  669   2.192   0.136   1.000  0.4377 -0.2245 -0.1272
   43TMC2    C6  670   2.193   0.065   1.122 -0.9585 -0.6963 -0.2837
   43TMC2     C  671   2.445   4.692   0.808  0.9782  0.1085 -0.7775
   43TMC2     O  672   2.543   4.623   0.838 -0.1791 -0.4565  0.1500
   43TMC2     H  673   2.388   4.544   1.009 -3.3177 -2.1858 -0.4848
   43TMC2    H1  674   2.288   0.179   0.824 -2.1487 -0.4228 -1.2397
   43TMC2    H2  675   2.126   0.098   1.201 -0.4338 -0.6103  0.1266
   43TMC2    C7  676   2.121   0.268   0.989 -0.8632  0.1147 -0.1873
   43TMC2    C8  677   2.279   4.617   1.252 -0.0093  0.3833  0.2192
   43TMC2    O1  678   2.102   0.319   0.879  1.5654  0.4201 -0.2129
   43TMC2    O2  679   2.339   4.510   1.264  0.3089 -0.2905  0.1652
   43TMC2    O5  680   2.302   4.721   1.332 -0.3457  0.1782  0.3730
   43TMC2    H5  681   2.241   0.060   1.326 -0.4929 -0.1869 -2.6032
   44MPD2     C  682   2.572   0.041   0.324 -0.7122  0.4468 -0.5159
   44MPD2    C1  683   2.647   4.713   0.421  0.3518 -0.0544  0.3792
   44MPD2    C2  684   2.586   4.691   0.543  1.2794  0.3485 -0.4632
   44MPD2    C3  685   2.457   0.006   0.566  0.6006 -0.6071  0.5604
   44MPD2    C4  686   2.382   0.068   0.468 -0.4475 -0.1518  0.6754
   44MPD2    C5  687   2.440   0.082   0.343 -0.2204  0.5215 -0.6083
   44MPD2     H  688   2.640   4.643   0.623 -1.1871  0.5370  1.3250
   44MPD2    H1  689   2.282   0.107   0.484  0.1229  1.9205 -0.8736
   44MPD2    H2  690   2.615   0.054   0.225  0.4584  1.5734  0.1392
   44MPD2    H3  691   2.389   0.131   0.261 -0.8439  2.0061  0.6747
   44MPD2     N  692   2.396   4.736   0.689 -0.3328 -0.2438 -0.5186
   44MPD2    H5  693   2.296   0.017   0.694  0.0366  1.7770 -0.3637
   44MPD2    N1  694   2.782   4.675   0.403  0.5954  0.3328 -0.5933
   44MPD2    H7  695   2.810   4.603   0.468  0.5756 -0.4848 -1.4964
   45TMC2    C1  696   3.065   1.434   9.713 -0.1707 -0.5566  0.8838
   45TMC2    C2  697   3.116   1.426   9.588  0.3802  0.1235  0.0999
   45TMC2    C3  698   3.182   1.532   9.537  1.1316 -0.1608 -0.7354
   45TMC2    C4  699   3.072   1.555   9.785  0.0483 -1.0447 -0.0569
   45TMC2    C5  700   3.116   1.667   9.720  0.9349 -0.6267  0.5413
   45TMC2    C6  701   3.185   1.652   9.602 -0.4976  0.1038 -0.6948
   45TMC2     C  702   2.991   1.316   9.761  0.0430 -0.0545  0.4488
   45TMC2     O  703   3.055   1.227   9.816 -0.3034  0.1948 -0.1314
   45TMC2     H  704   3.116   1.329   9.540 -0.0862 -0.4214  1.1788
   45TMC2    H1  705   3.022   1.565   9.880 -1.8672 -4.9001 -0.6612
   45TMC2    H2  706   3.241   1.736   9.563 -1.7007  0.5637 -1.4362
   45TMC2    C7  707   3.126   1.795   9.786  0.7724 -0.1495 -0.6125
   45TMC2    C8  708   3.302   1.512   9.449 -0.5447 -0.3566 -0.4469
   45TMC2    O1  709   3.157   1.803   9.905 -0.0334  0.1365  0.8095
   45TMC2    O2  710   3.397   1.589   9.439  0.1100 -0.6615  0.0031
   45TMC2    O5  711   3.256   1.435   9.356  0.2909  0.4856  0.5666
   45TMC2    H5  712   3.162   1.414   9.376  0.1990  0.9096  0.5642
   46MPD2     C  713   2.761   1.133   9.799 -0.0609  1.2581 -0.2865
   46MPD2    C1  714   2.747   1.267   9.768  0.5459 -0.1532  0.1663
   46MPD2    C2  715   2.627   1.318   9.723 -0.3981  0.3243  0.3977
   46MPD2    C3  716   2.523   1.229   9.699  0.4916 -0.1353  0.7127
   46MPD2    C4  717   2.536   1.102   9.737 -0.0474 -0.0253  0.4451
   46MPD2    C5  718   2.652   1.052   9.790 -0.0497 -0.8754  0.4211
   46MPD2     H  719   2.618   1.421   9.691 -2.9571 -0.0584 -0.0961
   46MPD2    H1  720   2.461   1.032   9.702 -1.5164  1.5616  0.4872
   46MPD2    H2  721   2.855   1.091   9.831 -1.0979 -0.9495 -0.1310
   46MPD2    H3  722   2.667   0.947   9.808 -2.9954 -1.4437 -0.3906
   46MPD2     N  723   2.417   1.279   9.623 -0.7372  0.2578  0.2310
   46MPD2    H5  724   2.430   1.376   9.596 -1.2630  0.5844  1.1465
   46MPD2    N1  725   2.861   1.349   9.744 -0.0354 -0.2959  0.3111
   46MPD2    H7  726   2.841   1.443   9.711  1.7346  0.0000  0.0654
   47TMC2    C1  727   0.942   2.555   9.656 -0.0994 -0.2434 -0.6676
   47TMC2    C2  728   1.032   2.491   9.575  0.4821 -0.2705 -0.4600
   47TMC2    C3  729   1.010   2.489   9.443 -0.1198  0.0449 -0.0057
   47TMC2    C4  730   0.826   2.606   9.608  0.3182 -0.2341 -0.0370
   47TMC2    C5  731   0.804   2.591   9.474  0.1734 -0.2983 -1.3279
   47TMC2    C6  732   0.894   2.537   9.389  0.2366  0.0354 -0.2903
   47TMC2     C  733   0.956   2.556   9.799 -0.9516  0.4010  0.1614
   47TMC2     O  734   0.904   2.643   9.866 -0.3960 -0.7006 -0.2194
   47TMC2     H  735   1.126   2.459   9.617 -0.2597 -0.8929  0.7223
   47TMC2    H1  736   0.756   2.661   9.671  0.6839 -1.5709  1.5472
   47TMC2    H2  737   0.869   2.529   9.283 -0.5451 -4.1308  0.2092
   47TMC2    C7  738   0.718   2.686   9.406 -0.0851 -0.2572 -0.0985
   47TMC2    C8  739   1.092   2.402   9.358 -0.2248 -0.0359  0.0737
   47TMC2    O1  740   0.750   2.712   9.289  0.3502  0.0137  0.0984
   47TMC2    O2  741   1.185   2.338   9.405 -0.0914  0.1226  0.0902
   47TMC2    O5  742   1.085   2.458   9.236  0.2385 -0.4713  0.3474
   47TMC2    H5  743   1.013   2.523   9.221 -0.6343 -0.7103  3.4152
   48MPD2     C  744   1.012   2.497  10.075  0.0149 -0.4676  0.0377
   48MPD2    C1  745   1.002   2.398   9.978 -0.6255  0.2005 -0.6117
   48MPD2    C2  746   1.000   2.262  10.022 -1.1068 -0.6762 -0.0568
   48MPD2    C3  747   1.007   2.232  10.160 -0.9559  0.2123 -0.2786
   48MPD2    C4  748   1.025   2.335  10.257 -0.1489 -0.3812  0.6493
   48MPD2    C5  749   1.028   2.463  10.207  1.0067  0.3411  0.1807
   48MPD2     H  750   0.981   2.182   9.951  1.6506 -0.0199 -1.5453
   48MPD2    H1  751   1.048   2.306  10.359 -0.7326  1.2950  1.2621
   48MPD2    H2  752   1.024   2.602  10.050  0.7798 -0.5423  0.0675
   48MPD2    H3  753   1.046   2.542  10.279 -0.5375  0.0756  0.8714
   48MPD2     N  754   1.005   2.094  10.201 -0.4872  0.2142 -0.0958
   48MPD2    H5  755   0.994   2.025  10.127 -1.4834  0.6965 -0.4005
   48MPD2    N1  756   0.992   2.428   9.840 -0.1567 -0.1125  0.0282
   48MPD2    H7  757   1.003   2.353   9.773  1.8108  0.0228  0.2046
   49TMC2    C1  758   2.894   3.795  10.480  0.5453  0.0535  0.4617
   49TMC2    C2  759   2.873   3.740  10.356  0.6330 -0.5435  0.6481
   49TMC2    C3  760   2.890   3.602  10.349 -0.1805  0.5125  0.5413
   49TMC2    C4  761   2.917   3.713  10.591 -0.0644  0.3475 -0.0108
   49TMC2    C5  762   2.936   3.580  10.574  0.3547 -0.1090  0.2692
   49TMC2    C6  763   2.923   3.521  10.451 -0.2980  0.4998  0.2510
   49TMC2     C  764   2.889   3.943  10.497  0.1629  0.2165  0.2079
   49TMC2     O  765   2.865   4.006  10.397 -0.0025  0.0078 -0.1962
   49TMC2     H  766   2.851   3.799  10.268  1.6289  1.3591  1.6976
   49TMC2    H1  767   2.946   3.750  10.688  0.0060 -0.7233  0.3746
   49TMC2    H2  768   2.937   3.414  10.441 -0.2120  0.2989  2.5588
   49TMC2    C7  769   2.959   3.488  10.682  0.5787  0.7926  0.7982
   49TMC2    C8  770   2.915   3.540  10.221 -0.3510  0.3895  0.0322
   49TMC2    O1  771   2.911   3.376  10.669 -0.1346  0.5025 -0.1527
   49TMC2    O2  772   3.010   3.461  10.206  0.6450 -0.0739 -0.1415
   49TMC2    O5  773   2.840   3.605  10.130  0.1879  0.0261 -0.0833
   49TMC2    H5  774   2.784   3.679  10.161  1.6118  1.2760 -0.5006
   50MPD2     C  775   2.917   4.221  10.592  0.2980  0.5726  0.6167
   50MPD2    C1  776   2.894   4.109  10.673  0.1826  0.1412 -0.9824
   50MPD2    C2  777   2.866   4.119  10.804 -0.1940  0.7220  0.2578
   50MPD2    C3  778   2.892   4.237  10.869 -0.1953 -0.3562  0.5459
   50MPD2    C4  779   2.932   4.350  10.799  0.2829 -0.1278  0.1518
   50MPD2    C5  780   2.948   4.339  10.659 -0.1216 -0.5677  0.6266
   50MPD2     H  781   2.835   4.035  10.864 -0.3890 -0.6478 -1.7599
   50MPD2    H1  782   2.965   4.443  10.843 -0.6481  0.5231 -0.5218
   50MPD2    H2  783   2.938   4.221  10.485  0.1002 -0.4357  0.5820
   50MPD2    H3  784   2.995   4.417  10.600 -3.0570  1.7599  1.3771
   50MPD2     N  785   2.871   4.255  11.006  0.0718 -0.0585  0.4913
   50MPD2    H5  786   2.860   4.344  11.055 -1.6855  0.4782 -0.9027
   50MPD2    N1  787   2.886   3.976  10.629 -0.9085  0.6630  0.1379
   50MPD2    H7  788   2.880   3.904  10.700  3.2488  0.7396  0.5580
   51TMC2    C1  789   3.014   3.986   1.137  0.3334  0.0967  0.5368
   51TMC2    C2  790   2.970   4.054   1.249 -0.0566  0.2202  0.5967
   51TMC2    C3  791   3.051   4.153   1.304 -0.1832 -0.4204 -0.1594
   51TMC2    C4  792   3.137   4.014   1.091  0.5642  0.7655  0.5304
   51TMC2    C5  793   3.216   4.107   1.152  0.4683  0.3174 -0.4093
   51TMC2    C6  794   3.184   4.170   1.266 -0.5142  0.5102  0.0496
   51TMC2     C  795   2.965   3.854   1.103 -0.0156  0.3480  0.4196
   51TMC2     O  796   3.016   3.808   1.000 -0.1163 -0.4489 -0.1803
   51TMC2     H  797   2.869   4.040   1.286 -0.3165 -1.3030 -0.6922
   51TMC2    H1  798   3.172   3.958   1.005  0.6191  0.4408  0.7613
   51TMC2    H2  799   3.257   4.236   1.312 -0.2704 -0.4650  1.0393
   51TMC2    C7  800   3.349   4.097   1.115  0.3742 -0.2171 -0.2794
   51TMC2    C8  801   3.003   4.210   1.430  0.2572  0.0896  0.2530
   51TMC2    O1  802   3.427   4.097   1.213  0.3586  0.1951  0.7607
   51TMC2    O2  803   3.068   4.215   1.531 -0.0569 -0.8563 -0.1772
   51TMC2    O5  804   2.874   4.242   1.409  0.0874 -1.2720 -0.2564
   51TMC2    H5  805   2.840   4.219   1.320  0.1828 -0.4222 -0.5030
   52MPD2     C  806   2.856   3.387   1.327 -0.9505 -0.1996  0.1747
   52MPD2    C1  807   2.933   3.425   1.224 -0.1023 -0.2314  1.0042
   52MPD2    C2  808   2.938   3.555   1.175  0.0709 -0.1984 -0.3660
   52MPD2    C3  809   2.887   3.659   1.246 -0.3782 -0.2759  0.7307
   52MPD2    C4  810   2.814   3.623   1.357  0.3260  0.2357  0.7324
   52MPD2    C5  811   2.797   3.492   1.393  0.5634  0.2614 -0.2729
   52MPD2     H  812   2.990   3.572   1.081 -1.4379 -0.1930 -1.2172
   52MPD2    H1  813   2.772   3.695   1.426 -1.2868  0.5571 -0.5890
   52MPD2    H2  814   2.843   3.290   1.373  1.2293 -0.5717  0.0031
   52MPD2    H3  815   2.732   3.469   1.476  0.9859  0.1321  0.0237
   52MPD2     N  816   2.914   3.796   1.212 -0.3262  0.1346  0.1048
   52MPD2    H5  817   2.888   3.856   1.290  1.3075  0.8314  0.1184
   52MPD2    N1  818   3.011   3.332   1.154 -0.1736  0.0293  0.1748
   52MPD2    H7  819   3.079   3.371   1.089  0.3348 -0.0932  0.6391
   53TMC2    C1  820   3.251   1.788  11.917 -0.0152  0.2136  0.1850
   53TMC2    C2  821   3.361   1.764  11.844  0.1782 -0.4334 -0.6940
   53TMC2    C3  822   3.484   1.797  11.906 -0.2354  0.0361 -0.9450
   53TMC2    C4  823   3.259   1.853  12.040  0.2159 -0.0347 -0.1023
   53TMC2    C5  824   3.380   1.878  12.099  0.1812  0.6283  0.3047
   53TMC2    C6  825   3.497   1.840  12.034  0.2432 -0.2510 -0.7131
   53TMC2     C  826   3.128   1.775  11.839 -0.2091  0.5038  1.0091
   53TMC2     O  827   3.147   1.786  11.715 -0.1313 -0.9105 -0.3381
   53TMC2     H  828   3.360   1.700  11.757  1.5376 -1.2238 -0.1331
   53TMC2    H1  829   3.168   1.887  12.090  0.8596 -1.5650  2.0872
   53TMC2    H2  830   3.584   1.897  12.062  0.6573  0.0334 -2.6188
   53TMC2    C7  831   3.380   1.956  12.224  0.0312 -0.3210  0.2751
   53TMC2    C8  832   3.596   1.714  11.859  0.8603 -0.2890  0.2063
   53TMC2    O1  833   3.288   2.031  12.251 -0.1294 -0.0810  0.5036
   53TMC2    O2  834   3.675   1.661  11.938 -0.7783  0.9079  0.0619
   53TMC2    O5  835   3.641   1.772  11.749  0.2324  0.1449 -0.3492
   53TMC2    H5  836   3.566   1.823  11.711  1.5168  2.1404 -0.2299
   54MPD2     C  837   2.846   1.776  11.742  0.1788 -0.7041 -0.2573
   54MPD2    C1  838   2.882   1.775  11.874  0.4569 -0.6259  0.4474
   54MPD2    C2  839   2.780   1.795  11.972 -0.8551 -0.3290 -0.3072
   54MPD2    C3  840   2.646   1.797  11.937 -0.0233 -0.2431  0.1058
   54MPD2    C4  841   2.613   1.793  11.806 -0.2376  0.5756  0.2493
   54MPD2    C5  842   2.713   1.777  11.710 -0.5384 -1.1631 -0.4492
   54MPD2     H  843   2.791   1.791  12.079  3.5294 -3.0488 -0.8794
   54MPD2    H1  844   2.513   1.811  11.768 -0.3768 -2.3962 -0.7767
   54MPD2    H2  845   2.918   1.765  11.662  0.3180  3.0626 -0.6557
   54MPD2    H3  846   2.690   1.775  11.604 -0.5355 -2.3751 -0.4246
   54MPD2     N  847   2.545   1.801  12.035 -0.4431  0.1586  0.2405
   54MPD2    H5  848   2.448   1.807  12.006 -0.3137  0.0255 -0.2096
   54MPD2    N1  849   3.017   1.781  11.921 -0.1576  0.2401 -0.0165
   54MPD2    H7  850   3.025   1.785  12.022 -0.2521  0.6621 -0.0283
   55TMC2    C1  851   0.526   4.302   0.536  0.2407 -0.1260  0.6606
   55TMC2    C2  852   0.486   4.242   0.416 -0.2776  0.1761  0.8882
   55TMC2    C3  853   0.450   4.112   0.424  0.3052  0.3262 -0.8773
   55TMC2    C4  854   0.532   4.245   0.659 -0.5681 -0.5240 -0.2106
   55TMC2    C5  855   0.508   4.106   0.657  0.4522 -0.0504 -0.4353
   55TMC2    C6  856   0.465   4.039   0.544 -0.1046  0.6978  0.4080
   55TMC2     C  857   0.516   4.445   0.541 -0.4922 -0.3579 -0.3779
   55TMC2     O  858   0.483   4.481   0.653  0.2649 -0.1009  0.5788
   55TMC2     H  859   0.485   4.298   0.323 -1.2110 -0.0821  0.7403
   55TMC2    H1  860   0.581   4.291   0.744 -2.4599  2.2007 -0.6147
   55TMC2    H2  861   0.434   3.936   0.534  1.2275  0.1267  2.1332
   55TMC2    C7  862   0.491   4.041   0.787  0.1234  0.7425 -0.5083
   55TMC2    C8  863   0.462   4.033   0.302 -0.9135  0.3471  0.3809
   55TMC2    O1  864   0.527   3.924   0.789  0.2569  0.0839  1.2540
   55TMC2    O2  865   0.469   3.908   0.306 -0.3036  0.9739  0.4884
   55TMC2    O5  866   0.456   4.102   0.187 -0.2294  0.6027  0.3804
   55TMC2    H5  867   0.446   4.199   0.192  0.6027  0.7002  0.1051
   56MPD2     C  868   0.487   4.675   0.269  0.0794 -0.1145  0.8393
   56MPD2    C1  869   0.484   4.638   0.398 -0.6829  0.7658 -0.1121
   56MPD2    C2  870   0.444   4.723   0.495 -0.4154  0.3683 -0.4834
   56MPD2    C3  871   0.409   0.119   0.457 -0.3083  0.1776  0.2687
   56MPD2    C4  872   0.422   0.157   0.325 -0.6869 -0.2076  0.6688
   56MPD2    C5  873   0.453   0.064   0.229 -0.7929  0.4586 -0.5673
   56MPD2     H  874   0.440   4.684   0.596  1.9817  0.6574 -0.2802
   56MPD2    H1  875   0.397   0.256   0.288  1.2951  0.4913  1.2368
   56MPD2    H2  876   0.509   4.598   0.196  1.3239  0.3150  0.7552
   56MPD2    H3  877   0.463   0.099   0.127  0.1400 -1.5344 -1.1740
   56MPD2     N  878   0.351   0.206   0.554 -0.2358 -0.4209 -0.4873
   56MPD2    H5  879   0.344   0.167   0.647 -0.3340 -1.7962 -1.0736
   56MPD2    N1  880   0.523   4.507   0.417 -0.0922 -0.3128  0.4259
   56MPD2    H7  881   0.550   4.452   0.335  0.5544 -0.4452  0.7221
   57TMC2    C1  882   3.556   0.241  13.603 -0.4882  0.6416  0.0779
   57TMC2    C2  883   3.539   0.123  13.528  0.1586 -0.2096  0.9523
   57TMC2    C3  884   3.645   0.089  13.443 -0.1591  0.5146  0.4125
   57TMC2    C4  885   3.667   0.312  13.599 -0.2849  1.0534 -0.1529
   57TMC2    C5  886   3.774   0.264  13.529  0.6598  0.0850 -0.3427
   57TMC2    C6  887   3.763   0.148  13.448 -0.8207  0.7041 -1.1841
   57TMC2     C  888   3.455   0.295  13.695  0.2297  0.2554  1.1648
   57TMC2     O  889   3.491   0.389  13.761 -0.1531  0.5764  0.9433
   57TMC2     H  890   3.447   0.066  13.539  1.3536 -2.0191  1.5051
   57TMC2    H1  891   3.685   0.405  13.652  3.5347  0.7874 -1.0246
   57TMC2    H2  892   3.838   0.112  13.378  0.0604 -2.7042  1.4996
   57TMC2    C7  893   3.900   0.344  13.522  0.9293 -0.1772  0.5081
   57TMC2    C8  894   3.641   4.698  13.385  0.1127 -0.1265 -0.5177
   57TMC2    O1  895   3.893   0.465  13.544  0.4337  0.7227  0.7345
   57TMC2    O2  896   3.737   4.623  13.387  0.3733 -0.1102 -0.0741
   57TMC2    O5  897   3.515   4.680  13.339 -0.8540 -0.4979 -0.1393
   57TMC2    H5  898   3.465   0.025  13.324 -1.2326 -0.8318 -0.6927
   58MPD2     C  899   2.994   0.338  13.934 -0.0730 -0.2288 -0.1835
   58MPD2    C1  900   3.116   0.410  13.948  0.3882 -0.1229  0.3187
   58MPD2    C2  901   3.225   0.375  13.867  0.6002 -0.5940  0.6071
   58MPD2    C3  902   3.218   0.277  13.774 -0.0880 -0.3302 -0.3392
   58MPD2    C4  903   3.104   0.207  13.766  0.6968 -0.2516  0.6745
   58MPD2    C5  904   2.990   0.239  13.837 -0.1718  0.3226 -0.7010
   58MPD2     H  905   3.308   0.444  13.860  1.4445 -1.4884  1.8133
   58MPD2    H1  906   3.094   0.116  13.708 -1.4865  0.9760 -0.8703
   58MPD2    H2  907   2.910   0.353  14.000 -0.7064 -0.6718 -0.8955
   58MPD2    H3  908   2.901   0.179  13.829 -0.9124  1.1739  1.0550
   58MPD2     N  909   3.331   0.241  13.689  0.4296  0.2097 -0.0132
   58MPD2    H5  910   3.325   0.166  13.621 -0.6763 -1.3319  1.7687
   58MPD2    N1  911   3.144   0.507  14.042 -0.0071 -0.1729  0.2412
   58MPD2    H7  912   3.241   0.536  14.041  0.6111 -2.2031  0.1285
   59TMC2    C1  913   1.396   0.598  13.147  0.2569 -0.2550  0.3986
   59TMC2    C2  914   1.396   0.499  13.238  0.4450  0.3382  0.1479
   59TMC2    C3  915   1.361   0.374  13.198  0.3827 -0.8111  0.0043
   59TMC2    C4  916   1.353   0.570  13.019 -0.0622 -0.2365 -0.2767
   59TMC2    C5  917   1.312   0.444  12.985  0.3686  0.8785  0.1829
   59TMC2    C6  918   1.317   0.340  13.075 -0.0589 -1.0973  0.4397
   59TMC2     C  919   1.428   0.735  13.187  0.8679  0.1477 -0.7318
   59TMC2     O  920   1.382   0.819  13.115 -0.1435  0.4341  0.3432
   59TMC2     H  921   1.424   0.527  13.339  2.2456 -2.0230  0.3122
   59TMC2    H1  922   1.349   0.660  12.959  2.4024  1.1656  1.6548
   59TMC2    H2  923   1.303   0.238  13.040  1.9223 -0.3253 -2.5756
   59TMC2    C7  924   1.233   0.424  12.867 -0.2293  1.3830 -0.4008
   59TMC2    C8  925   1.406   0.262  13.272 -0.2233 -0.1179  0.5260
   59TMC2    O1  926   1.156   0.329  12.865 -0.2649 -0.3243 -0.3414
   59TMC2    O2  927   1.362   0.148  13.272 -0.6326  0.1480  0.1097
   59TMC2    O5  928   1.519   0.306  13.337 -0.5583 -0.0277  0.2528
   59TMC2    H5  929   1.551   0.397  13.320 -1.3140  0.1600 -0.1508
   60MPD2     C  930   1.531   0.993  13.286 -0.2606 -0.0648  0.1257
   60MPD2    C1  931   1.563   0.869  13.338  0.0927 -0.2613 -0.4001
   60MPD2    C2  932   1.645   0.873  13.447  0.0140 -0.0691 -0.4984
   60MPD2    C3  933   1.701   0.993  13.503  0.1083  0.1992 -0.5702
   60MPD2    C4  934   1.660   1.111  13.448  0.1647 -0.5870  0.3931
   60MPD2    C5  935   1.583   1.104  13.338 -0.2369 -0.3694  0.0987
   60MPD2     H  936   1.662   0.777  13.494  0.2624 -1.1260 -2.7629
   60MPD2    H1  937   1.695   1.205  13.488  0.9095 -0.7881  0.2192
   60MPD2    H2  938   1.466   1.007  13.200 -0.5593  0.4318  0.4335
   60MPD2    H3  939   1.547   1.195  13.290  1.6355 -0.2535 -1.1135
   60MPD2     N  940   1.799   1.002  13.601  0.7054  0.4953  0.3837
   60MPD2    H5  941   1.805   1.094  13.644  1.0150  0.7088 -0.1222
   60MPD2    N1  942   1.511   0.745  13.291  0.7811 -0.1032  0.0829
   60MPD2    H7  943   1.558   0.660  13.323  1.9432 -0.1775 -1.8734
   61TMC2    C1  944   1.398   1.754  15.391 -0.1053 -0.1766 -0.3815
   61TMC2    C2  945   1.386   1.632  15.452  0.3215 -0.0879 -0.3250
   61TMC2    C3  946   1.269   1.622  15.522 -0.5314  0.9194  0.1159
   61TMC2    C4  947   1.320   1.863  15.413 -0.4072  0.5126  0.3153
   61TMC2    C5  948   1.204   1.852  15.487  0.3526 -0.8237 -0.0728
   61TMC2    C6  949   1.178   1.722  15.538 -0.1585  0.0064  0.4406
   61TMC2     C  950   1.504   1.759  15.292  0.0261 -0.2511  1.1486
   61TMC2     O  951   1.588   1.673  15.313 -0.1056 -0.4449  0.1079
   61TMC2     H  952   1.450   1.545  15.440 -2.9513 -2.3710 -1.0434
   61TMC2    H1  953   1.352   1.960  15.377 -1.6654  0.5634 -0.6929
   61TMC2    H2  954   1.089   1.695  15.593  0.7458  0.5974  2.2304
   61TMC2    C7  955   1.177   1.965  15.577  0.7582  0.5764  0.0582
   61TMC2    C8  956   1.241   1.486  15.578 -0.3434  0.2059 -0.1862
   61TMC2    O1  957   1.174   1.928  15.695  0.0616 -0.4725 -0.1119
   61TMC2    O2  958   1.156   1.466  15.667  0.6284 -0.1176 -0.2629
   61TMC2    O5  959   1.263   1.396  15.478 -0.3593  0.4805 -0.6225
   61TMC2    H5  960   1.304   1.436  15.398  0.4390  0.8169 -0.0493
   62MPD2     C  961   1.704   1.825  15.096 -0.2450  0.9444  0.5577
   62MPD2    C1  962   1.576   1.870  15.086  0.6555 -0.7101 -0.2714
   62MPD2    C2  963   1.533   1.953  14.978  0.3648 -0.3241 -0.0772
   62MPD2    C3  964   1.619   1.978  14.874  0.6564  0.3175 -0.4302
   62MPD2    C4  965   1.745   1.933  14.892 -0.2780  0.4247  0.7427
   62MPD2    C5  966   1.783   1.867  14.995 -0.3631 -0.8993 -0.6168
   62MPD2     H  967   1.426   1.973  14.979  0.1501 -1.4787 -0.2995
   62MPD2    H1  968   1.826   1.947  14.821 -1.1109  0.1331 -0.2773
   62MPD2    H2  969   1.746   1.770  15.179 -0.1396  0.5923  0.2701
   62MPD2    H3  970   1.881   1.820  14.992  0.6366  1.2991 -2.8445
   62MPD2     N  971   1.579   2.042  14.761 -0.3878 -0.3476  0.2792
   62MPD2    H5  972   1.478   2.056  14.756 -0.5575 -1.9734 -0.9716
   62MPD2    N1  973   1.476   1.833  15.181  0.4911 -0.0813 -0.0900
   62MPD2    H7  974   1.383   1.874  15.180  1.4808  2.1438 -1.6011
   63TMC2    C1  975   0.446   2.259  11.249  0.3938 -0.0512  0.6118
   63TMC2    C2  976   0.502   2.304  11.362  0.4795 -0.6063 -0.1183
   63TMC2    C3  977   0.626   2.368  11.357 -0.5084  0.6438 -0.2583
   63TMC2    C4  978   0.496   2.284  11.125 -0.1959  0.1793 -0.0478
   63TMC2    C5  979   0.611   2.363  11.123 -0.6670 -0.4856  0.6858
   63TMC2    C6  980   0.678   2.398  11.235  0.4674 -0.8616  0.3286
   63TMC2     C  981   0.320   2.185  11.269  0.1649 -0.5167  0.7917
   63TMC2     O  982   0.259   2.204  11.373 -0.3347 -1.1254  0.0186
   63TMC2     H  983   0.448   2.294  11.455  1.8056 -1.3906  0.5782
   63TMC2    H1  984   0.437   2.270  11.035 -1.2699 -4.5198  1.3885
   63TMC2    H2  985   0.760   2.468  11.243  0.0571 -0.3302 -0.1308
   63TMC2    C7  986   0.665   2.397  10.994  0.2419 -0.3426  0.0034
   63TMC2    C8  987   0.670   2.434  11.478  0.6576  0.0267 -0.1149
   63TMC2    O1  988   0.594   2.389  10.895 -0.0686 -0.0373  0.0322
   63TMC2    O2  989   0.785   2.456  11.498 -0.4936  0.1864 -0.3000
   63TMC2    O5  990   0.555   2.500  11.520 -0.1386 -0.4161  0.4126
   63TMC2    H5  991   0.472   2.490  11.470 -1.1414 -1.9832  2.3763
   64MPD2     C  992   4.655   1.935  11.071  0.2859  0.2227  0.2341
   64MPD2    C1  993   0.019   1.936  10.973  0.4341 -0.3406 -0.3787
   64MPD2    C2  994   0.134   1.999  11.006  0.1135  0.1918  0.3669
   64MPD2    C3  995   0.149   2.069  11.130  0.8566 -0.6687  0.2011
   64MPD2    C4  996   0.039   2.079  11.218  0.2576 -0.1440 -0.5995
   64MPD2    C5  997   4.666   2.012  11.185 -0.5478 -0.8606 -0.6814
   64MPD2     H  998   0.223   1.976  10.950  0.6144  0.7400  0.9444
   64MPD2    H1  999   0.055   2.122  11.317 -1.1543  2.6348 -1.5896
   64MPD2    H2 1000   4.558   1.889  11.056  1.3145 -1.3647 -1.6217
   64MPD2    H3 1001   4.589   2.007  11.261  1.1001 -2.6621  0.8808
   64MPD2     N 1002   0.283   2.116  11.158 -0.4731 -0.2127  0.1953
   64MPD2    H5 1003   0.361   2.096  11.096  0.5895 -0.2302  1.5504
   64MPD2    N1 1004   0.012   1.860  10.859 -0.3967 -0.4402 -0.0178
   64MPD2    H7 1005   0.097   1.853  10.803  1.4067 -2.1395  2.8950
   65TMC2    C1 1006   1.585   2.023  15.774 -0.2667  0.1944 -0.2297
   65TMC2    C2 1007   1.667   1.977  15.667 -0.4422  0.2946 -0.3063
   65TMC2    C3 1008   1.667   2.059  15.557 -0.2510 -0.2078  0.1311
   65TMC2    C4 1009   1.521   2.142  15.777 -0.6333  0.9722  0.5441
   65TMC2    C5 1010   1.523   2.209  15.657 -0.1018  0.6748 -0.1314
   65TMC2    C6 1011   1.599   2.179  15.554  0.4401  0.3533 -0.0409
   65TMC2     C 1012   1.553   1.915  15.871 -0.7014 -0.0232 -0.6091
   65TMC2     O 1013   1.500   1.959  15.967  0.1841 -0.0903  0.2408
   65TMC2     H 1014   1.743   1.901  15.680  0.1624  0.7198 -1.2942
   65TMC2    H1 1015   1.448   2.169  15.852  0.9166 -0.6740  2.6667
   65TMC2    H2 1016   1.585   2.240  15.465  2.4394  0.5467 -0.2155
   65TMC2    C7 1017   1.492   2.348  15.669 -0.2571 -0.3267  0.1162
   65TMC2    C8 1018   1.761   2.022  15.455 -0.3727 -0.9459  0.4039
   65TMC2    O1 1019   1.473   2.406  15.564 -0.1075 -0.2589 -0.3922
   65TMC2    O2 1020   1.768   1.911  15.403 -0.2627 -0.2148  0.6943
   65TMC2    O5 1021   1.796   2.131  15.395 -0.0120 -0.2891  0.3822
   65TMC2    H5 1022   1.802   2.207  15.458 -1.0415  1.7726 -1.9975
   66MPD2     C 1023   1.547   1.681  16.057  0.1081  0.5430  0.1905
   66MPD2    C1 1024   1.570   1.676  15.919  0.5188 -0.0199 -0.0319
   66MPD2    C2 1025   1.580   1.551  15.859  0.8227 -0.1255  0.3889
   66MPD2    C3 1026   1.554   1.434  15.930  0.4500  0.6044 -0.1271
   66MPD2    C4 1027   1.536   1.447  16.064 -0.4549 -0.4659 -0.3442
   66MPD2    C5 1028   1.533   1.566  16.127 -0.3010 -0.9913  0.4821
   66MPD2     H 1029   1.600   1.555  15.753  1.6320  3.4270  0.6786
   66MPD2    H1 1030   1.520   1.351  16.111 -0.1141 -1.5116 -2.3786
   66MPD2    H2 1031   1.558   1.776  16.108  1.2164  0.1645  0.6662
   66MPD2    H3 1032   1.527   1.574  16.235 -1.8978 -0.8259  0.3888
   66MPD2     N 1033   1.532   1.306  15.867 -0.6186 -0.1549  0.5672
   66MPD2    H5 1034   1.513   1.226  15.926  0.7484  1.1231  2.7595
   66MPD2    N1 1035   1.588   1.786  15.827 -0.1387  0.1140 -0.4570
   66MPD2    H7 1036   1.603   1.767  15.729 -1.9414 -0.7435 -0.5557
   67TMC2    C1 1037   1.773   1.087  14.510  0.1618  0.3746  0.4411
   67TMC2    C2 1038   1.707   1.207  14.510  0.4345 -0.2267 -0.2003
   67TMC2    C3 1039   1.753   1.311  14.596 -0.1216 -0.1147 -0.3446
   67TMC2    C4 1040   1.887   1.076  14.585  0.1769  0.2696  0.3345
   67TMC2    C5 1041   1.935   1.175  14.671 -0.3121  0.7962  0.2366
   67TMC2    C6 1042   1.860   1.294  14.678 -0.1967 -0.4203  0.7262
   67TMC2     C 1043   1.738   0.972  14.439  0.2975 -0.5774  0.1094
   67TMC2     O 1044   1.810   0.876  14.443 -0.5967 -0.0943 -0.0844
   67TMC2     H 1045   1.621   1.231  14.449 -0.6634  1.6552  2.0854
   67TMC2    H1 1046   1.929   0.978  14.608  1.2561  0.7936  0.6292
   67TMC2    H2 1047   1.890   1.370  14.750 -3.1514  0.9403  0.5037
   67TMC2    C7 1048   2.030   1.140  14.773 -0.1477  0.0315 -0.7693
   67TMC2    C8 1049   1.702   1.451  14.583  0.0249  0.3516 -0.6680
   67TMC2    O1 1050   2.100   1.042  14.748 -0.3642 -0.0010 -0.3398
   67TMC2    O2 1051   1.633   1.485  14.490  0.2861  0.1772 -0.4576
   67TMC2    O5 1052   1.695   1.514  14.708 -0.1566 -0.0163  0.2292
   67TMC2    H5 1053   1.768   1.495  14.770 -0.5968  1.7044  1.2471
   68MPD2     C 1054   1.612   0.780  14.252 -0.8248  0.2232  0.6379
   68MPD2    C1 1055   1.545   0.887  14.314  0.0819 -0.0507  0.3786
   68MPD2    C2 1056   1.409   0.913  14.294  0.2092  0.0733 -0.1355
   68MPD2    C3 1057   1.339   0.829  14.212 -0.9701  0.2301  0.1626
   68MPD2    C4 1058   1.408   0.715  14.159 -0.0468  0.2126 -0.5097
   68MPD2    C5 1059   1.539   0.689  14.177  0.9644 -0.1582 -0.3471
   68MPD2     H 1060   1.362   0.983  14.363  0.2916  0.7716 -0.7907
   68MPD2    H1 1061   1.355   0.646  14.094 -2.0132  3.1252 -2.0409
   68MPD2    H2 1062   1.719   0.764  14.259 -0.4476  2.5913  0.4510
   68MPD2    H3 1063   1.596   0.605  14.141  1.0228 -0.8018  1.2422
   68MPD2     N 1064   1.200   0.843  14.180 -0.0315  0.6720 -0.3116
   68MPD2    H5 1065   1.162   0.768  14.123  0.9029  0.7322 -1.0022
   68MPD2    N1 1066   1.615   0.987  14.384  0.7485 -0.5123  0.3447
   68MPD2    H7 1067   1.559   1.068  14.408 -0.1504 -0.8616 -0.5513
   69TMC2    C1 1068   3.813   2.298  12.707 -0.3925 -0.0286 -0.8304
   69TMC2    C2 1069   3.684   2.339  12.736 -0.2058  0.0692 -0.0405
   69TMC2    C3 1070   3.613   2.376  12.622 -0.3272  0.5922  0.0364
   69TMC2    C4 1071   3.859   2.282  12.581  0.5217  0.5751  0.3398
   69TMC2    C5 1072   3.778   2.310  12.477  0.3640  0.1218 -0.6573
   69TMC2    C6 1073   3.651   2.362  12.493  0.0017  0.4914  0.0076
   69TMC2     C 1074   3.871   2.207  12.797  0.9111 -0.1272  0.0951
   69TMC2     O 1075   3.800   2.146  12.880  0.0633 -0.3116  0.2451
   69TMC2     H 1076   3.644   2.338  12.837 -2.0939  0.8704 -0.7801
   69TMC2    H1 1077   3.962   2.252  12.572  0.4829  0.3547  0.6309
   69TMC2    H2 1078   3.601   2.417  12.414  2.3311 -0.3582 -2.0701
   69TMC2    C7 1079   3.826   2.275  12.346  0.3287  0.0116  0.2571
   69TMC2    C8 1080   3.484   2.427  12.647  0.0840  0.6487 -0.0184
   69TMC2    O1 1081   3.953   2.278  12.332 -0.1601  0.0196 -0.3176
   69TMC2    O2 1082   3.454   2.467  12.761  0.2560  0.0586  0.0717
   69TMC2    O5 1083   3.405   2.351  12.572  0.2709  0.0605  0.2758
   69TMC2    H5 1084   3.427   2.345  12.477  2.7164  4.3459  0.5561
   70MPD2     C 1085   4.229   2.128  12.850  0.3368  0.3002 -0.3881
   70MPD2    C1 1086   4.091   2.113  12.845 -0.3402  0.2651 -0.0783
   70MPD2    C2 1087   4.042   1.985  12.852  0.6524 -0.5569  0.5498
   70MPD2    C3 1088   4.126   1.872  12.867 -0.4785 -0.7523  0.6514
   70MPD2    C4 1089   4.262   1.899  12.885  0.0915 -0.5117  0.3594
   70MPD2    C5 1090   4.316   2.025  12.876  0.5443 -0.1163  0.0229
   70MPD2     H 1091   3.940   1.965  12.823  0.4287 -0.0928  1.0265
   70MPD2    H1 1092   4.333   1.819  12.903 -1.4334 -1.8203  0.5583
   70MPD2    H2 1093   4.275   2.226  12.842  0.3595  0.0876 -2.8539
   70MPD2    H3 1094   4.423   2.032  12.894  0.4472 -1.1425  1.0072
   70MPD2     N 1095   4.079   1.743  12.876  0.6812  1.2728  0.3565
   70MPD2    H5 1096   4.148   1.670  12.888 -0.9599 -0.0859  1.4505
   70MPD2    N1 1097   4.012   2.223  12.810  0.1022  0.0183 -0.7005
   70MPD2    H7 1098   4.062   2.304  12.774  1.4462  0.4463  2.1064
   71TMC2    C1 1099   1.051   2.703   1.762  0.3078  0.1552 -0.0869
   71TMC2    C2 1100   1.154   2.704   1.849 -0.2638  0.0723 -0.1471
   71TMC2    C3 1101   1.151   2.790   1.956  0.2006 -0.0253  0.2972
   71TMC2    C4 1102   0.945   2.781   1.785 -0.6169 -0.3178  0.1745
   71TMC2    C5 1103   0.942   2.863   1.895  0.1594  0.4759 -0.2116
   71TMC2    C6 1104   1.051   2.884   1.972  0.4403  0.4876  0.3836
   71TMC2     C 1105   1.083   2.672   1.622  0.2160 -0.0808 -0.0234
   71TMC2     O 1106   1.199   2.684   1.583 -0.0180  0.7192  0.3211
   71TMC2     H 1107   1.232   2.628   1.844 -0.4814 -0.0412 -2.1096
   71TMC2    H1 1108   0.865   2.781   1.711  0.6462  1.2381 -1.2100
   71TMC2    H2 1109   1.053   2.962   2.047  1.6563  2.0094 -1.2349
   71TMC2    C7 1110   0.814   2.889   1.948  0.2155  0.9548  0.7465
   71TMC2    C8 1111   1.267   2.809   2.039 -0.4515  0.1901 -0.3120
   71TMC2    O1 1112   0.808   2.903   2.069  0.5989  0.1339  0.4541
   71TMC2    O2 1113   1.351   2.720   2.056  0.0183  0.3805 -0.0924
   71TMC2    O5 1114   1.301   2.936   2.065  0.3469  0.2834 -0.5348
   71TMC2    H5 1115   1.275   3.006   2.001 -2.6291 -0.1440  0.2474
   72MPD2     C 1116   0.919   2.519   1.156  0.5600 -0.7118  0.9215
   72MPD2    C1 1117   1.040   2.566   1.189  0.2035  0.2162  0.3390
   72MPD2    C2 1118   1.063   2.598   1.325 -0.0223  0.1354 -0.9335
   72MPD2    C3 1119   0.960   2.580   1.416 -0.1241 -0.5002 -0.1174
   72MPD2    C4 1120   0.839   2.524   1.382 -0.2135 -0.0240  0.8772
   72MPD2    C5 1121   0.818   2.506   1.247 -0.2115  0.5353  0.4807
   72MPD2     H 1122   1.164   2.611   1.361  0.0977 -1.2243 -0.7796
   72MPD2    H1 1123   0.760   2.500   1.452 -0.2544 -3.3482 -0.3189
   72MPD2    H2 1124   0.905   2.493   1.051  2.4891  0.1213  0.4432
   72MPD2    H3 1125   0.720   2.483   1.208  0.0556  0.1298  0.0508
   72MPD2     N 1126   0.975   2.615   1.553  0.0072 -0.5130 -0.0563
   72MPD2    H5 1127   0.895   2.593   1.613 -0.1538  0.7083  0.1845
   72MPD2    N1 1128   1.147   2.593   1.094  0.0448  0.3333 -1.0471
   72MPD2    H7 1129   1.234   2.630   1.130 -1.2327  0.7253  1.6345
   73TMC2    C1 1130   1.076   4.399  15.072 -0.2378  0.1159 -0.3942
   73TMC2    C2 1131   1.131   4.320  15.170  0.1205 -0.2437 -0.2711
   73TMC2    C3 1132   1.250   4.373  15.220 -0.3358  0.1137  0.0077
   73TMC2    C4 1133   1.124   4.532  15.041  0.0554  0.0949 -0.0142
   73TMC2    C5 1134   1.234   4.577  15.098 -0.6051 -0.4507  0.0519
   73TMC2    C6 1135   1.306   4.490  15.186  0.2846 -0.5727 -0.0125
   73TMC2     C 1136   0.970   4.347  14.983  0.1922  0.2436 -0.3734
   73TMC2     O 1137   0.886   4.263  15.018  0.4933  0.1466 -0.1781
   73TMC2     H 1138   1.093   4.224  15.203 -0.7598  0.5731  1.0868
   73TMC2    H1 1139   1.052   4.600  14.995  0.2596  0.4475  0.1868
   73TMC2    H2 1140   1.400   4.528  15.223  0.8496 -0.0461 -2.0065
   73TMC2    C7 1141   1.323   4.681  15.036 -0.0110  0.0140 -0.1467
   73TMC2    C8 1142   1.339   4.293  15.296 -0.4274 -0.2923 -0.4418
   73TMC2    O1 1143   1.417   0.003  15.097 -0.3489 -0.1045  0.7247
   73TMC2    O2 1144   1.394   4.346  15.390 -0.0733 -0.8203 -0.0863
   73TMC2    O5 1145   1.385   4.195  15.210  0.1399  0.6441 -0.2803
   73TMC2    H5 1146   1.333   4.169  15.131 -3.5676  0.9845  2.0270
   74MPD2     C 1147   0.686   4.466  14.573  0.4160  0.5543 -0.0841
   74MPD2    C1 1148   0.806   4.524  14.561  0.4529  0.6236  0.1605
   74MPD2    C2 1149   0.907   4.489  14.647  0.3377 -0.2708  0.0719
   74MPD2    C3 1150   0.886   4.398  14.750 -0.9672 -0.4930 -0.3648
   74MPD2    C4 1151   0.763   4.340  14.761 -0.2753  0.3601  0.3030
   74MPD2    C5 1152   0.663   4.372  14.667 -0.2859  0.0115 -0.0918
   74MPD2     H 1153   1.009   4.521  14.634  0.7262 -1.8226 -0.7373
   74MPD2    H1 1154   0.736   4.264  14.834  0.3190  0.2665  0.4223
   74MPD2    H2 1155   0.606   4.501  14.509  1.0591 -1.0042 -1.7163
   74MPD2    H3 1156   0.562   4.332  14.658 -0.5390 -0.0320  3.1600
   74MPD2     N 1157   0.983   4.408  14.857 -0.4143  0.1593 -0.1333
   74MPD2    H5 1158   1.070   4.457  14.842  0.3601 -0.5930  1.8468
   74MPD2    N1 1159   0.829   4.604  14.447  0.6705 -0.8209 -0.5043
   74MPD2    H7 1160   0.764   4.609  14.370  0.8438 -2.5933 -0.7662
   75TMC2    C1 1161   0.991   0.938  14.158 -0.3013 -0.3427  0.2306
   75TMC2    C2 1162   0.878   0.950  14.231 -0.1582  0.1997 -0.1785
   75TMC2    C3 1163   0.758   0.933  14.167 -0.2976 -0.0106  0.3090
   75TMC2    C4 1164   0.990   0.924  14.024  0.3100  0.0472 -0.6112
   75TMC2    C5 1165   0.873   0.936  13.959  0.2426 -0.4418  0.1503
   75TMC2    C6 1166   0.754   0.932  14.030 -0.4601 -0.3343 -0.2001
   75TMC2     C 1167   1.120   0.948  14.223 -0.5658  0.6961  0.1686
   75TMC2     O 1168   1.141   1.026  14.315 -0.2285 -0.1768 -0.4334
   75TMC2     H 1169   0.877   0.957  14.339  4.0898 -1.7412 -0.0009
   75TMC2    H1 1170   1.088   0.921  13.976  0.2792 -1.9772 -0.5479
   75TMC2    H2 1171   0.664   0.909  13.973 -2.8162 -1.0849  3.8118
   75TMC2    C7 1172   0.880   0.919  13.811  0.1394 -0.4615  0.3468
   75TMC2    C8 1173   0.647   0.855  14.228  0.3215 -0.7573 -0.4523
   75TMC2    O1 1174   0.974   0.868  13.753 -0.0376  0.8369 -0.0007
   75TMC2    O2 1175   0.653   0.733  14.230  0.2227 -0.3693  0.3514
   75TMC2    O5 1176   0.540   0.911  14.167 -0.4254  0.1255  0.1065
   75TMC2    H5 1177   0.553   1.007  14.151  0.4825 -0.4857 -2.8549
   76TMC2    C1 1178   0.387   1.733  11.919  0.7856  0.0036  0.6429
   76TMC2    C2 1179   0.506   1.792  11.886 -0.2453  0.0029 -0.5043
   76TMC2    C3 1180   0.613   1.711  11.889  0.2347  0.3692  0.4425
   76TMC2    C4 1181   0.381   1.605  11.965  0.0126  0.1623  0.5937
   76TMC2    C5 1182   0.491   1.536  11.983  0.2623 -0.4343 -0.3748
   76TMC2    C6 1183   0.613   1.585  11.949  0.5518 -0.1562  0.1163
   76TMC2     C 1184   0.276   1.815  11.920  0.9705 -0.0806  0.5663
   76TMC2     O 1185   0.168   1.751  11.907  0.3274 -0.0640  0.4154
   76TMC2     H 1186   0.512   1.887  11.835  0.4662  1.0239  1.4619
   76TMC2    H1 1187   0.286   1.558  11.984 -0.3615 -0.1103 -1.9303
   76TMC2    H2 1188   0.700   1.522  11.964  0.7554  0.3977  1.2456
   76TMC2    C7 1189   0.492   1.422  12.078 -0.2196  0.6640  0.5234
   76TMC2    C8 1190   0.744   1.746  11.833 -0.4065 -0.2996  0.6605
   76TMC2    O1 1191   0.386   1.362  12.091 -0.0698  0.2622  0.8835
   76TMC2    O2 1192   0.817   1.657  11.793 -0.3843 -0.0748  0.0269
   76TMC2    O5 1193   0.796   1.842  11.908 -0.3588 -0.4295 -0.2037
   76TMC2    H5 1194   0.727   1.875  11.970 -0.0737  1.1892 -0.7412
   77MPD2     C 1195   0.063   2.271  12.005 -0.1964 -0.3403 -0.4681
   77MPD2    C1 1196   0.018   2.163  11.940  0.4706  0.2595  0.2680
   77MPD2    C2 1197   0.098   2.050  11.926  0.0603  0.3393  0.2378
   77MPD2    C3 1198   0.230   2.051  11.974  0.2497  0.1697  0.2894
   77MPD2    C4 1199   0.281   2.169  12.023 -0.7459  0.4348 -0.0912
   77MPD2    C5 1200   0.197   2.275  12.047  0.9078  0.4499 -0.0805
   77MPD2     H 1201   0.056   1.965  11.874 -1.2863  1.6987 -0.8998
   77MPD2    H1 1202   0.384   2.165  12.056 -0.8953 -0.3923  0.2626
   77MPD2    H2 1203   0.008   2.364  12.013 -1.6086 -1.3290  1.2758
   77MPD2    H3 1204   0.228   2.364  12.100 -1.3689  0.7107  0.8354
   77MPD2     N 1205   0.319   1.944  11.957  0.1036 -0.0132 -0.1733
   77MPD2    H5 1206   0.416   1.959  11.981  0.2573  2.7517 -2.5757
   77MPD2    N1 1207   4.630   2.163  11.882 -0.2490 -0.0893  0.0705
   77MPD2    H7 1208   4.573   2.239  11.917 -1.1405 -0.3526 -0.8034
   78TMC2    C1 1209   1.022   2.009   1.503 -0.4589 -0.1367 -0.0551
   78TMC2    C2 1210   0.949   2.005   1.390 -0.5582  0.5304 -0.2770
   78TMC2    C3 1211   0.937   2.122   1.316  0.0288 -0.2009  0.3029
   78TMC2    C4 1212   1.098   2.120   1.541  1.1239  0.8356  0.0536
   78TMC2    C5 1213   1.103   2.217   1.450 -0.2298 -0.2213  0.9847
   78TMC2    C6 1214   1.028   2.219   1.334 -0.0894  0.0697 -0.5801
   78TMC2     C 1215   1.032   1.887   1.594 -0.7102  0.1775  0.2708
   78TMC2     O 1216   1.101   1.906   1.690  0.0059 -0.3636  0.2388
   78TMC2     H 1217   0.873   1.928   1.381  0.1048  0.0042 -1.3810
   78TMC2    H1 1218   1.166   2.118   1.626 -1.3362  0.7982  2.0502
   78TMC2    H2 1219   1.044   2.301   1.265  0.1277  1.5258  1.2032
   78TMC2    C7 1220   1.233   2.286   1.433 -0.7261  0.2015  0.0870
   78TMC2    C8 1221   0.845   2.134   1.210  0.4378  0.4381 -0.2825
   78TMC2    O1 1222   1.285   2.271   1.322 -0.1088  0.3213 -0.1288
   78TMC2    O2 1223   0.882   2.186   1.106  0.1957 -0.2395 -0.2311
   78TMC2    O5 1224   0.722   2.155   1.267  0.0203 -0.2460  0.2940
   78TMC2    H5 1225   0.724   2.139   1.364 -0.3574 -0.8933  0.1932
   79MPD1     C 1226   1.093   1.372   1.604  0.5604  0.3102  0.1038
   79MPD1    C1 1227   1.152   1.467   1.681  1.0514 -0.1900  0.6244
   79MPD1    C2 1228   1.124   1.599   1.655 -1.0698 -0.2354  0.4711
   79MPD1    C3 1229   1.015   1.634   1.573 -0.2671 -0.0528  0.0411
   79MPD1    C4 1230   0.947   1.533   1.510 -0.0041 -0.4372  0.3332
   79MPD1    C5 1231   0.992   1.402   1.515 -0.0710 -0.0801  0.1235
   79MPD1     H 1232   1.186   1.673   1.704 -0.1376  0.7318 -2.1259
   79MPD1    H1 1233   0.872   1.558   1.436  2.3761 -0.5780 -2.1217
   79MPD1    H2 1234   1.121   1.267   1.606 -0.1498  0.1183  0.1099
   79MPD1    H3 1235   0.948   1.332   1.445 -1.3216 -0.3462  1.1779
   79MPD1     N 1236   0.983   1.767   1.541 -0.2343  0.3557  0.0002
   79MPD1    H5 1237   0.914   1.778   1.467  0.0907  0.2799 -0.3156
   79MPD1    N1 1238   1.262   1.431   1.760  0.4662  0.4768  1.0370
   79MPD1    H6 1239   1.299   1.505   1.818 -0.7739  2.2303 -0.4019
   79MPD1    H7 1240   1.245   1.347   1.815  0.7479 -0.0478  0.3208
   80TMC2    C1 1241   2.966   0.964  11.905  0.8442  0.4869  0.2699
   80TMC2    C2 1242   2.902   0.914  11.797  0.3709  0.3034  1.2658
   80TMC2    C3 1243   2.859   0.784  11.805 -0.1595  0.6045 -0.3398
   80TMC2    C4 1244   2.989   0.885  12.015 -0.4976 -0.0830  0.5070
   80TMC2    C5 1245   2.917   0.762  12.028  0.0430  0.2049  0.3195
   80TMC2    C6 1246   2.862   0.710  11.918  0.6488  0.3794  0.0548
   80TMC2     C 1247   3.033   1.093  11.885  0.0843  0.1030  1.3695
   80TMC2     O 1248   3.022   1.136  11.774 -0.0283 -0.5699 -0.0757
   80TMC2     H 1249   2.888   0.970  11.706  1.4347 -1.1282  0.2260
   80TMC2    H1 1250   3.051   0.923  12.094  0.6470  0.2860 -0.5677
   80TMC2    H2 1251   2.825   0.608  11.915  2.0601 -0.2365  2.9512
   80TMC2    C7 1252   2.926   0.679  12.142  0.0999  0.5403 -0.4930
   80TMC2    C8 1253   2.832   0.711  11.682  0.1920 -0.5184 -0.4982
   80TMC2    O1 1254   2.836   0.594  12.149 -0.0608 -0.2578  0.6859
   80TMC2    O2 1255   2.781   0.601  11.690 -0.6003  0.4274  0.0494
   80TMC2    O5 1256   2.936   0.747  11.606 -0.1415 -0.2782 -0.2766
   80TMC2    H5 1257   2.980   0.833  11.621 -0.0003 -0.8217  2.5774
   81MPD2     C 1258   3.233   1.310  11.883 -0.4963  0.1707 -0.2724
   81MPD2    C1 1259   3.165   1.273  11.999  0.5451 -0.2627  0.2986
   81MPD2    C2 1260   3.190   1.339  12.112  0.3260 -0.1058 -0.0740
   81MPD2    C3 1261   3.286   1.446  12.109  0.0680  0.5284 -0.7348
   81MPD2    C4 1262   3.361   1.468  11.998 -0.0588 -0.6038  0.2325
   81MPD2    C5 1263   3.336   1.397  11.889 -0.5881 -0.3023 -0.3449
   81MPD2     H 1264   3.123   1.323  12.196 -0.0144 -1.6787 -0.6441
   81MPD2    H1 1265   3.443   1.539  11.995 -1.6751  1.3232  1.3717
   81MPD2    H2 1266   3.229   1.254  11.789  0.2314  0.9234 -0.7511
   81MPD2    H3 1267   3.397   1.424  11.803  0.7208 -0.3515  0.5635
   81MPD2     N 1268   3.324   1.524  12.220 -0.0918 -0.5020 -0.2262
   81MPD2    H5 1269   3.413   1.573  12.226  0.4181 -1.5195  0.7730
   81MPD2    N1 1270   3.079   1.157  12.000 -0.0815  0.1827  0.1223
   81MPD2    H7 1271   3.050   1.113  12.087 -0.3743 -0.4041 -0.2749
   82TMC2    C1 1272   2.012   0.819  10.931  0.4665  0.1938  0.4964
   82TMC2    C2 1273   2.039   0.916  11.030 -0.8126  1.0993  0.3418
   82TMC2    C3 1274   2.038   0.883  11.163  0.0558 -0.0427 -0.3682
   82TMC2    C4 1275   1.971   0.697  10.970 -0.0777  0.2284  0.7547
   82TMC2    C5 1276   1.966   0.667  11.102 -0.3522  0.1778  0.2370
   82TMC2    C6 1277   2.002   0.760  11.200  0.0336 -0.3253  0.1233
   82TMC2     C 1278   1.966   0.869  10.803 -0.1313  0.5610 -0.3321
   82TMC2     O 1279   1.875   0.803  10.747  0.0022 -0.2060 -0.1661
   82TMC2     H 1280   2.065   1.020  11.014  1.5443  0.5039  0.2855
   82TMC2    H1 1281   1.959   0.620  10.895 -0.5247 -0.4796  1.5525
   82TMC2    H2 1282   2.004   0.726  11.303 -2.7377 -0.6992  0.0658
   82TMC2    C7 1283   1.896   0.552  11.145 -0.1106 -0.2719  0.1888
   82TMC2    C8 1284   1.996   0.993  11.251  0.5550  0.6277  0.0852
   82TMC2    O1 1285   1.914   0.516  11.263  0.4137 -0.4276  0.6642
   82TMC2    O2 1286   1.938   1.095  11.204 -0.5897  0.0175  0.1823
   82TMC2    O5 1287   1.966   0.935  11.368  0.9175 -0.6335  0.3442
   82TMC2    H5 1288   2.037   0.871  11.390  1.8345 -0.6493 -2.6623
   83MPD2     C 1289   1.869   1.286  10.510 -0.1356 -0.2908  0.5021
   83MPD2    C1 1290   1.802   1.167  10.521  0.4025  0.6576 -0.0528
   83MPD2    C2 1291   1.855   1.065  10.613  0.1692  0.4843  0.5947
   83MPD2    C3 1292   1.974   1.087  10.679 -0.1387  0.7568  0.1501
   83MPD2    C4 1293   2.044   1.200  10.651  0.6400  0.5023 -1.1312
   83MPD2    C5 1294   1.987   1.299  10.578  0.1181  0.0236  0.1646
   83MPD2     H 1295   1.792   0.979  10.632  2.0286 -1.2051 -0.9450
   83MPD2    H1 1296   2.143   1.212  10.692 -0.0025  2.4787 -0.1751
   83MPD2    H2 1297   1.828   1.362  10.446  1.2989 -0.6472 -0.8385
   83MPD2    H3 1298   2.040   1.390  10.554  0.1217  0.0619  0.3127
   83MPD2     N 1299   2.018   0.990  10.769  0.6024  0.4713  0.1631
   83MPD2    H5 1300   2.100   1.022  10.821  0.4361 -1.1735  1.4350
   83MPD2    N1 1301   1.689   1.146  10.436  0.4206  0.4180 -0.5437
   83MPD2    H7 1302   1.643   1.229  10.400  2.2100  1.2084 -1.0062
   84TMC2    C1 1303   2.793   4.381  11.377 -0.1774  0.0595 -0.5288
   84TMC2    C2 1304   2.844   4.313  11.481 -0.0018 -0.3916  0.5246
   84TMC2    C3 1305   2.891   4.193  11.453 -0.3480 -0.2822 -0.0040
   84TMC2    C4 1306   2.786   4.339  11.252  0.1044  0.2594 -0.0403
   84TMC2    C5 1307   2.822   4.206  11.233  0.1406 -0.9782 -0.1227
   84TMC2    C6 1308   2.862   4.125  11.339 -0.5651  0.9899  0.0747
   84TMC2     C 1309   2.787   4.523  11.404 -0.3298  0.2844 -0.8368
   84TMC2     O 1310   2.754   4.556  11.515  0.6192  0.0057  0.0457
   84TMC2     H 1311   2.861   4.363  11.576  1.9936 -1.9681  0.9937
   84TMC2    H1 1312   2.760   4.403  11.169 -0.1531 -0.0917 -0.2347
   84TMC2    H2 1313   2.890   4.021  11.328 -2.9464  0.3646 -0.1304
   84TMC2    C7 1314   2.847   4.154  11.101 -0.2648 -0.5016 -0.1422
   84TMC2    C8 1315   2.942   4.113  11.560 -0.1463 -0.0213 -0.4356
   84TMC2    O1 1316   2.831   4.036  11.092 -0.3628 -0.4518 -0.5073
   84TMC2    O2 1317   2.914   3.995  11.574  0.2909  0.6605 -0.3800
   84TMC2    O5 1318   3.014   4.185  11.655 -0.9890  0.0518 -0.9950
   84TMC2    H5 1319   3.050   4.267  11.614  0.5068  0.5050  1.2176
   85TMC2    C1 1320   4.053   3.124  15.925  0.6209  0.3174 -0.7590
   85TMC2    C2 1321   3.931   3.183  15.946 -0.5649  0.4059  0.2718
   85TMC2    C3 1322   3.908   3.314  15.915 -0.2293 -0.6663 -0.5235
   85TMC2    C4 1323   4.148   3.198  15.863 -0.5523  0.0912 -0.2692
   85TMC2    C5 1324   4.130   3.332  15.845  0.8340 -0.0673 -0.1393
   85TMC2    C6 1325   4.011   3.391  15.861  0.2643 -0.2182  0.3992
   85TMC2     C 1326   4.093   3.025  16.024  0.0044 -0.0154  0.6289
   85TMC2     O 1327   4.188   3.053  16.097 -0.0389  0.4299 -0.0641
   85TMC2     H 1328   3.866   3.119  16.004 -2.0159 -0.4811 -2.3508
   85TMC2    H1 1329   4.233   3.134  15.839  1.0688  0.7124  3.7391
   85TMC2    H2 1330   3.997   3.498  15.868 -0.7866 -0.4664  2.2233
   85TMC2    C7 1331   4.204   3.378  15.729 -0.4648  0.4536  0.0971
   85TMC2    C8 1332   3.772   3.379  15.938  0.1808 -0.0290 -0.0340
   85TMC2    O1 1333   4.277   3.293  15.684  0.0165  0.4215 -0.4622
   85TMC2    O2 1334   3.759   3.498  15.933  0.9155  0.3305 -0.1023
   85TMC2    O5 1335   3.679   3.298  15.992 -0.3390  0.4837 -0.0852
   85TMC2    H5 1336   3.691   3.201  16.000  0.9396  0.6305 -0.3023
   86MPD2     C 1337   3.958   2.637  16.331 -0.1649 -0.4201 -0.1768
   86MPD2    C1 1338   3.864   2.651  16.232  0.2752  0.2684 -0.5468
   86MPD2    C2 1339   3.879   2.745  16.139 -0.2012  0.2484  0.3923
   86MPD2    C3 1340   4.000   2.813  16.118  0.1449 -0.0700 -0.3249
   86MPD2    C4 1341   4.099   2.789  16.211  0.3970  0.5227 -0.0642
   86MPD2    C5 1342   4.072   2.711  16.324  0.5142 -0.5707  0.1425
   86MPD2     H 1343   3.789   2.777  16.088 -0.0200 -1.3674 -0.9307
   86MPD2    H1 1344   4.184   2.856  16.221  0.8494  0.1160 -1.2042
   86MPD2    H2 1345   3.960   2.556  16.403 -0.7767 -0.3087 -0.0398
   86MPD2    H3 1346   4.141   2.706  16.407  1.8785  0.7371 -0.9072
   86MPD2     N 1347   4.003   2.921  16.026  0.1638  0.4594 -1.0775
   86MPD2    H5 1348   3.933   2.925  15.953 -1.3776  1.2500  0.4651
   86MPD2    N1 1349   3.738   2.584  16.243  0.8293 -0.6268 -1.0184
   86MPD2    H7 1350   3.670   2.595  16.169 -1.0099 -2.9547  0.3449
   87TMC2    C1 1351   1.397   1.156   1.055  0.3121 -0.3755  0.1225
   87TMC2    C2 1352   1.351   1.066   1.155  0.1688 -0.1158 -0.1244
   87TMC2    C3 1353   1.311   1.110   1.269 -0.0682  0.1534 -0.5379
   87TMC2    C4 1354   1.387   1.292   1.086 -0.5944 -0.1089 -0.2539
   87TMC2    C5 1355   1.335   1.337   1.203  0.4725 -0.3854 -0.6300
   87TMC2    C6 1356   1.300   1.245   1.301  0.4186  0.2214 -0.0191
   87TMC2     C 1357   1.426   1.106   0.924  0.3337  0.9187 -0.1890
   87TMC2     O 1358   1.441   0.987   0.911 -0.0870 -0.0377 -0.4763
   87TMC2     H 1359   1.369   0.961   1.135  0.7208 -0.2658  1.1512
   87TMC2    H1 1360   1.408   1.364   1.007 -0.8453  0.4217  0.1607
   87TMC2    H2 1361   1.261   1.290   1.392  1.6844 -0.0790  0.6757
   87TMC2    C7 1362   1.297   1.477   1.203  0.2115 -0.2304  0.9288
   87TMC2    C8 1363   1.254   1.009   1.361  0.4034 -0.3525  0.0514
   87TMC2    O1 1364   1.246   1.524   1.101  0.0907 -0.3036  0.0907
   87TMC2    O2 1365   1.234   1.041   1.478  0.4658 -0.1841  1.1478
   87TMC2    O5 1366   1.164   0.951   1.275  0.3976 -0.4687 -0.1305
   87TMC2    H5 1367   1.175   0.996   1.188 -3.4783 -2.3818 -1.6128
   88MPD2     C 1368   1.412   1.730   1.452  0.0861  0.0738  0.3109
   88MPD2    C1 1369   1.352   1.686   1.333 -0.1843 -0.2332 -0.3781
   88MPD2    C2 1370   1.303   1.776   1.239  0.7815  0.6323 -0.0076
   88MPD2    C3 1371   1.309   1.908   1.268 -0.3172 -0.2520 -0.4626
   88MPD2    C4 1372   1.367   1.947   1.388 -0.0633 -0.0127  0.5568
   88MPD2    C5 1373   1.413   1.857   1.479 -0.0113 -0.1114  0.1402
   88MPD2     H 1374   1.273   1.733   1.144 -1.1324 -1.1483  1.4120
   88MPD2    H1 1375   1.379   2.052   1.412  0.1683 -0.7264  3.5573
   88MPD2    H2 1376   1.453   1.662   1.525 -0.8212  0.4983  1.2055
   88MPD2    H3 1377   1.453   1.895   1.573 -0.8229  0.7805  0.1265
   88MPD2     N 1378   1.256   2.008   1.186  0.0749  0.3828 -0.0011
   88MPD2    H5 1379   1.275   2.106   1.206 -0.6178  0.7019 -0.9242
   88MPD2    N1 1380   1.341   1.545   1.317 -0.2425 -0.3304  0.3328
   88MPD2    H7 1381   1.384   1.486   1.388 -0.0734 -0.9885 -0.3089
   89TMC2    C1 1382   2.524   4.608   1.652 -0.1969  0.0349 -0.1610
   89TMC2    C2 1383   2.472   4.626   1.780  0.0485  0.0246  0.0085
   89TMC2    C3 1384   2.421   0.007   1.813  0.5029 -0.0267  0.2601
   89TMC2    C4 1385   2.556   4.718   1.569 -0.6263  0.4521  1.0064
   89TMC2    C5 1386   2.490   0.097   1.603 -0.2529  0.4555  0.2223
   89TMC2    C6 1387   2.422   0.108   1.723 -0.0251 -0.9322 -0.0879
   89TMC2     C 1388   2.550   4.481   1.581  0.1241  0.0668 -0.0945
   89TMC2     O 1389   2.635   4.483   1.496  0.5817 -0.1906  0.2773
   89TMC2     H 1390   2.457   4.548   1.853 -0.7493  0.9367  0.8257
   89TMC2    H1 1391   2.581   4.702   1.465 -1.0834  1.0180  0.8086
   89TMC2    H2 1392   2.362   0.197   1.738  1.7240  0.1479  0.5102
   89TMC2    C7 1393   2.469   0.204   1.512  0.0991  0.8937 -0.7860
   89TMC2    C8 1394   2.359   0.018   1.942 -0.0502  0.4238  0.1758
   89TMC2    O1 1395   2.396   0.297   1.548  0.7080  0.0599  0.0821
   89TMC2    O2 1396   2.243   0.056   1.968 -0.0237  0.3989  0.1849
   89TMC2    O5 1397   2.447   4.724   2.034  0.0396 -0.0015  0.1384
   89TMC2    H5 1398   2.539   4.711   2.000 -0.4018  0.9566 -1.4511
   90MPD2     C 1399   2.476   3.975   1.560 -0.1304 -0.2942 -0.2453
   90MPD2    C1 1400   2.389   4.025   1.650 -0.1607 -0.4041 -0.1421
   90MPD2    C2 1401   2.377   4.163   1.670  0.2519  0.9423 -0.8215
   90MPD2    C3 1402   2.457   4.249   1.597 -0.1055  0.5481 -0.4178
   90MPD2    C4 1403   2.535   4.196   1.490  0.0775  0.3718  0.4118
   90MPD2    C5 1404   2.548   4.063   1.478 -0.7781  0.7550  0.5566
   90MPD2     H 1405   2.308   4.197   1.746  0.5086 -0.0349 -0.1552
   90MPD2    H1 1406   2.593   4.257   1.422  1.0464 -2.1829 -1.0533
   90MPD2    H2 1407   2.506   3.871   1.561  0.2004 -0.1860  0.7883
   90MPD2    H3 1408   2.614   4.017   1.405 -2.1456 -0.6345  0.1763
   90MPD2     N 1409   2.459   4.384   1.628 -0.5635 -0.5894 -0.6333
   90MPD2    H5 1410   2.383   4.420   1.685 -0.2232 -1.9687  0.6848
   90MPD2    N1 1411   2.311   3.946   1.733  0.4619  0.0756  0.2050
   90MPD2    H7 1412   2.264   3.993   1.810  0.0262 -0.0585  0.0240
   91TMC2    C1 1413   3.816   3.730  16.264 -0.0041 -0.3791 -0.1721
   91TMC2    C2 1414   3.875   3.751  16.388 -0.4051  0.2564  0.5359
   91TMC2    C3 1415   3.823   3.684  16.499 -0.2418  0.2257  0.1691
   91TMC2    C4 1416   3.707   3.653  16.251  0.0032  0.1389 -0.2499
   91TMC2    C5 1417   3.648   3.596  16.364  1.0555 -0.5505  0.3313
   91TMC2    C6 1418   3.710   3.610  16.484 -0.3337  1.0043 -0.0637
   91TMC2     C 1419   3.891   3.776  16.148 -0.1185  0.4071 -0.4113
   91TMC2     O 1420   3.834   3.830  16.058  0.0757 -0.0038  0.1315
   91TMC2     H 1421   3.962   3.816  16.392 -1.7800  2.0393  0.9608
   91TMC2    H1 1422   3.645   3.659  16.163 -0.4634  1.2030  0.1550
   91TMC2    H2 1423   3.677   3.550  16.568  0.1497  0.5841 -0.1718
   91TMC2    C7 1424   3.538   3.518  16.357  0.0457 -0.2628 -0.5360
   91TMC2    C8 1425   3.910   3.668  16.614 -0.1506 -0.4464  0.5873
   91TMC2    O1 1426   3.488   3.486  16.462  0.1081  0.5613  0.0140
   91TMC2    O2 1427   4.026   3.706  16.621  0.2793  0.1871 -0.1095
   91TMC2    O5 1428   3.843   3.618  16.719 -0.1226 -0.2509  0.5498
   91TMC2    H5 1429   3.745   3.613  16.713 -0.1264 -1.7082  1.9624
   92MPD2     C 1430   4.108   3.797  15.922 -0.1228  0.3074 -0.2993
   92MPD2    C1 1431   4.121   3.749  16.052 -0.2261  0.1586  0.0708
   92MPD2    C2 1432   4.241   3.693  16.085  0.1341 -0.0183  0.8527
   92MPD2    C3 1433   4.349   3.683  15.996 -0.5374  1.6384  0.1772
   92MPD2    C4 1434   4.336   3.744  15.875 -0.3717 -0.1214 -0.5704
   92MPD2    C5 1435   4.218   3.788  15.838 -0.2575  0.4262 -0.0754
   92MPD2     H 1436   4.252   3.635  16.176  2.9376  0.8090  1.0392
   92MPD2    H1 1437   4.416   3.733  15.803  1.5521  0.4098  1.4774
   92MPD2    H2 1438   4.018   3.841  15.880 -0.7721 -0.8147 -0.0909
   92MPD2    H3 1439   4.208   3.828  15.738 -2.6272  1.6445  0.6344
   92MPD2     N 1440   4.466   3.635  16.050  0.3822  0.1296  0.2460
   92MPD2    H5 1441   4.452   3.621  16.149 -0.8029  1.6787  0.3093
   92MPD2    N1 1442   4.023   3.735  16.150  0.0671 -0.0582  0.4907
   92MPD2    H7 1443   4.055   3.683  16.232  0.9715  1.8567  1.3522
   93TMC2    C1 1444   0.771   4.056  14.268 -0.1678  0.3817  0.4004
   93TMC2    C2 1445   0.705   4.044  14.387 -0.2215 -0.0225 -0.9558
   93TMC2    C3 1446   0.775   4.065  14.506  0.0084 -0.7698 -0.1894
   93TMC2    C4 1447   0.895   4.110  14.258 -0.8320 -0.4377 -0.4910
   93TMC2    C5 1448   0.959   4.137  14.377 -0.1603  0.5642 -0.4747
   93TMC2    C6 1449   0.910   4.099  14.504 -0.3691  0.0273  0.5999
   93TMC2     C 1450   0.720   4.000  14.148 -0.0011  0.6070  0.6597
   93TMC2     O 1451   0.801   3.966  14.065  0.2880 -0.2052 -0.2097
   93TMC2     H 1452   0.608   3.997  14.395  0.4638 -0.7754  2.6646
   93TMC2    H1 1453   0.941   4.135  14.163  0.5792  3.6225  1.2627
   93TMC2    H2 1454   0.964   4.126  14.594  1.8648 -1.4560 -0.2816
   93TMC2    C7 1455   1.087   4.202  14.373  0.4261 -0.0254  0.2042
   93TMC2    C8 1456   0.743   3.983  14.618 -0.1786  0.0386 -1.0455
   93TMC2    O1 1457   1.160   4.205  14.471 -0.1470  0.5730  0.2443
   93TMC2    O2 1458   0.831   3.952  14.693 -0.0884  0.1723  0.0960
   93TMC2    O5 1459   0.617   4.007  14.656 -0.0942  0.1732 -0.3699
   93TMC2    H5 1460   0.562   4.049  14.586  2.0992 -1.9498 -3.3560
   94MPD2     C 1461   0.554   3.927  13.902 -0.0102 -0.9085  0.3155
   94MPD2    C1 1462   0.504   3.990  14.020 -0.2974  0.5225 -0.1773
   94MPD2    C2 1463   0.373   4.018  14.021 -0.2127 -0.3727 -0.0743
   94MPD2    C3 1464   0.282   3.991  13.919  0.3921  0.1400 -0.6176
   94MPD2    C4 1465   0.335   3.942  13.805  0.2218  0.2115 -0.2566
   94MPD2    C5 1466   0.472   3.913  13.797 -0.3048  0.1088 -0.4201
   94MPD2     H 1467   0.336   4.059  14.114  1.3631 -1.1297  0.8920
   94MPD2    H1 1468   0.280   3.935  13.712 -0.3156  1.9086 -0.0630
   94MPD2    H2 1469   0.655   3.889  13.888  0.2633 -0.5298  1.2269
   94MPD2    H3 1470   0.508   3.883  13.699  0.3912 -0.7137  0.0920
   94MPD2     N 1471   0.139   3.997  13.934 -0.1392 -0.2324 -0.7361
   94MPD2    H5 1472   0.090   3.973  13.848  0.0315 -1.2034 -0.5684
   94MPD2    N1 1473   0.583   4.017  14.134  0.2430  0.6490  0.1084
   94MPD2    H7 1474   0.534   4.052  14.215  1.6734 -1.2322  1.7903
   95TMC2    C1 1475   0.986   0.920  16.501 -1.3201  0.2918 -0.5352
   95TMC2    C2 1476   1.020   1.030  16.567 -0.1557  0.1747 -0.1191
   95TMC2    C3 1477   1.018   1.019  16.699 -0.0212 -0.2867  0.3156
   95TMC2    C4 1478   0.974   0.801  16.568  0.0330 -0.1585 -0.0717
   95TMC2    C5 1479   0.981   0.793  16.701 -0.3797 -0.9174  0.2509
   95TMC2    C6 1480   1.003   0.905  16.771  0.3390  0.6853  0.6491
   95TMC2     C 1481   1.007   0.926  16.357 -0.0030  0.4573  0.8752
   95TMC2     O 1482   1.026   1.035  16.305  0.5364  0.0652  0.1080
   95TMC2     H 1483   1.026   1.125  16.516  1.4033 -0.0935 -0.4346
   95TMC2    H1 1484   0.964   0.705  16.518  1.3372  0.2670 -1.1570
   95TMC2    H2 1485   0.971   0.913  16.875 -1.7378 -0.9726  0.1463
   95TMC2    C7 1486   0.982   0.656  16.757  0.2810  0.9683  0.2331
   95TMC2    C8 1487   1.010   1.143  16.783  0.0817 -0.4171  0.8890
   95TMC2    O1 1488   0.981   0.562  16.684 -0.4587  0.7973  0.1011
   95TMC2    O2 1489   0.941   1.143  16.888 -0.5835  0.4357  0.0618
   95TMC2    O5 1490   1.084   1.244  16.736 -0.1261  0.1315 -0.1166
   95TMC2    H5 1491   1.141   1.229  16.658 -0.9090 -1.1567 -0.4339
   96MPD2     C 1492   1.060   0.702  15.901 -0.4396 -0.3057  0.3781
   96MPD2    C1 1493   1.062   0.838  15.934 -0.4623 -0.2875  0.5149
   96MPD2    C2 1494   1.053   0.874  16.066  0.8958  0.5592  0.4196
   96MPD2    C3 1495   1.023   0.774  16.158 -0.8267 -0.3145  0.5957
   96MPD2    C4 1496   1.006   0.641  16.113 -0.2475  0.6373  0.3088
   96MPD2    C5 1497   1.030   0.603  15.992 -0.1999  0.3879 -0.0860
   96MPD2     H 1498   1.053   0.980  16.091 -1.3071  0.4375  0.9364
   96MPD2    H1 1499   0.978   0.563  16.182 -1.2983  0.1619 -0.6655
   96MPD2    H2 1500   1.096   0.663  15.806 -0.2213  0.3436  0.1941
   96MPD2    H3 1501   1.029   0.502  15.954  0.1437  0.7589 -1.0728
   96MPD2     N 1502   1.000   0.805  16.300  0.1664 -0.1505  0.1007
   96MPD2    H5 1503   0.975   0.727  16.359 -2.3904 -0.3314 -1.2092
   96MPD2    N1 1504   1.095   0.912  15.820  0.2801  0.2593  0.7752
   96MPD2    H7 1505   1.126   0.861  15.738 -1.3267  0.3376  0.1339
   97TMC2    C1 1506   3.842   3.597   0.004  0.4317  0.5324  0.0608
   97TMC2    C2 1507   3.927   3.508  17.685 -0.5416  0.1104  0.0649
   97TMC2    C3 1508   4.029   3.556  17.604  0.2833  0.2898  1.0190
   97TMC2    C4 1509   3.857   3.732  17.729 -0.2250 -0.2015  0.2486
   97TMC2    C5 1510   3.967   3.769  17.652 -1.0663  0.5269 -0.4481
   97TMC2    C6 1511   4.050   3.689  17.587 -0.3012 -0.2854 -0.2485
   97TMC2     C 1512   3.724   3.548   0.076  0.0732  0.3484 -0.3855
   97TMC2     O 1513   3.692   3.432   0.059  0.1222  0.2426 -0.1733
   97TMC2     H 1514   3.912   3.401  17.690 -1.1527  0.1539 -0.8783
   97TMC2    H1 1515   3.798   3.807   0.034 -0.0798  0.1937 -0.1548
   97TMC2    H2 1516   4.130   3.716  17.519  0.2994  1.6522  1.2240
   97TMC2    C7 1517   4.003   3.916  17.656  0.3334  0.1792  0.3842
   97TMC2    C8 1518   4.127   3.463  17.550  0.4027  0.0607 -0.6391
   97TMC2    O1 1519   4.119   3.952  17.658 -0.1225 -0.3404  0.3561
   97TMC2    O2 1520   4.123   3.439  17.429 -0.0251 -0.3766 -0.3338
   97TMC2    O5 1521   4.235   3.519  17.607 -0.0563  0.1739 -0.3625
   97TMC2    H5 1522   4.221   3.562  17.694  1.1511  2.3992 -1.2522
   98MPD2     C 1523   3.369   3.631   0.425  0.2864 -0.4974 -0.9892
   98MPD2    C1 1524   3.387   3.517   0.346 -0.3408 -0.0713 -0.7494
   98MPD2    C2 1525   3.490   3.516   0.258  0.2240  0.1589 -0.1822
   98MPD2    C3 1526   3.572   3.630   0.243 -0.0509  0.0139 -0.5032
   98MPD2    C4 1527   3.546   3.735   0.322  0.4215 -0.4746 -0.7756
   98MPD2    C5 1528   3.453   3.737   0.419  0.1531  0.3717 -1.0465
   98MPD2     H 1529   3.514   3.420   0.213 -1.1741 -1.3294  2.2028
   98MPD2    H1 1530   3.602   3.827   0.312  3.0131 -1.8778  0.8166
   98MPD2    H2 1531   3.294   3.633   0.503  0.2267  1.0641 -1.0973
   98MPD2    H3 1532   3.442   3.820   0.487 -3.1897 -1.2355  0.3656
   98MPD2     N 1533   3.681   3.643   0.159  0.0839  0.3450  0.0086
   98MPD2    H5 1534   3.731   3.731   0.167  2.3971 -1.0207  0.7580
   98MPD2    N1 1535   3.310   3.403   0.376  0.3303  0.0892  0.8832
   98MPD2    H7 1536   3.252   3.418   0.458 -0.1549  0.7835  0.4058
   99TMC2    C1 1537   1.989   0.830   1.593  0.3622 -0.0465  0.0266
   99TMC2    C2 1538   2.126   0.839   1.608  0.3985  0.4143  0.2117
   99TMC2    C3 1539   2.181   0.886   1.723  0.1170 -0.0350 -0.2480
   99TMC2    C4 1540   1.906   0.863   1.698  0.3607  0.4283  0.2552
   99TMC2    C5 1541   1.960   0.911   1.815  0.6821  0.6919 -0.2375
   99TMC2    C6 1542   2.098   0.920   1.828  0.9337 -1.1806 -0.0076
   99TMC2     C 1543   1.925   0.761   1.485 -0.2488 -0.7515 -0.2687
   99TMC2     O 1544   1.822   0.807   1.440 -0.5358 -0.0902 -0.2549
   99TMC2     H 1545   2.194   0.825   1.524  1.4237 -2.0204  1.4409
   99TMC2    H1 1546   1.801   0.838   1.689  0.6991 -1.0342  0.4591
   99TMC2    H2 1547   2.139   0.926   1.928 -0.7834 -0.1399  0.6300
   99TMC2    C7 1548   1.881   0.919   1.933  0.2352 -0.5431  0.0801
   99TMC2    C8 1549   2.320   0.898   1.735 -0.9241  0.0184 -0.4876
   99TMC2    O1 1550   1.911   1.004   2.011 -0.8928 -0.2681 -0.0963
   99TMC2    O2 1551   2.400   0.833   1.673  0.3045 -0.4540  0.4862
   99TMC2    O5 1552   2.334   1.006   1.813  0.1975  0.8116 -0.0776
   99TMC2    H5 1553   2.250   1.057   1.820 -0.8821 -0.7481 -1.9480
  100MPD2     C 1554   1.934   0.702   1.191  0.3634  0.3641  0.5313
  100MPD2    C1 1555   2.003   0.627   1.286 -0.4450 -0.1464  0.0144
  100MPD2    C2 1556   2.071   0.512   1.253 -0.7498  0.1645  0.6303
  100MPD2    C3 1557   2.050   0.454   1.131 -0.2536 -0.7450  0.7684
  100MPD2    C4 1558   1.988   0.526   1.029 -0.1832  0.2043 -0.1446
  100MPD2    C5 1559   1.922   0.646   1.060 -0.2556 -0.0240 -0.5062
  100MPD2     H 1560   2.120   0.454   1.330  0.9173  0.0989 -0.4877
  100MPD2    H1 1561   1.973   0.488   0.929  0.6154  0.5342 -0.3925
  100MPD2    H2 1562   1.886   0.799   1.204 -0.3273  0.1546 -0.4349
  100MPD2    H3 1563   1.862   0.702   0.989  1.3520  0.1929 -1.6942
  100MPD2     N 1564   2.114   0.332   1.113  0.1631  0.2965 -0.1258
  100MPD2    H5 1565   2.161   0.284   1.189 -1.7237 -1.4914 -0.0600
  100MPD2    N1 1566   2.016   0.674   1.419  0.0979  0.0289 -0.2752
  100MPD2    H7 1567   2.089   0.628   1.473  1.0075 -0.5295 -1.9801
  101TMC2    C1 1568   2.886   1.085  13.243  0.0706 -0.3927 -0.8159
  101TMC2    C2 1569   2.891   1.030  13.123  0.2323 -0.1441 -0.0278
  101TMC2    C3 1570   2.951   1.101  13.023 -0.1454 -0.1106 -0.0983
  101TMC2    C4 1571   2.934   1.208  13.274  0.3084  0.0637 -0.2402
  101TMC2    C5 1572   2.991   1.284  13.175  0.0692  0.4778  0.3374
  101TMC2    C6 1573   3.006   1.228  13.051  0.3816 -0.4237 -0.6950
  101TMC2     C 1574   2.821   1.020  13.351  0.9715  0.6665  0.1534
  101TMC2     O 1575   2.777   1.095  13.437 -0.5399 -0.2560 -0.1703
  101TMC2     H 1576   2.858   0.929  13.102  1.1691 -0.4425 -0.0967
  101TMC2    H1 1577   2.940   1.241  13.377 -1.1618  1.0846 -0.4974
  101TMC2    H2 1578   3.037   1.282  12.963  1.8438  0.9150  0.6293
  101TMC2    C7 1579   3.020   1.423  13.198  0.5964 -0.6198  0.1876
  101TMC2    C8 1580   2.974   1.036  12.893 -0.5111  0.4693  0.5708
  101TMC2    O1 1581   3.108   1.482  13.139 -0.1127 -0.0791  0.7034
  101TMC2    O2 1582   3.009   1.096  12.793  0.4902 -0.7350 -0.1022
  101TMC2    O5 1583   3.029   0.919  12.926 -0.2056  0.0013 -0.0200
  101TMC2    H5 1584   3.015   0.876  13.013  0.7816 -0.0453  0.1103
  102MPD2     C 1585   2.713   0.675  13.373  0.6183 -0.5739 -0.0220
  102MPD2    C1 1586   2.722   0.803  13.412  0.4611  0.0895 -0.4673
  102MPD2    C2 1587   2.626   0.855  13.499 -0.2686  0.1368  0.1659
  102MPD2    C3 1588   2.535   0.777  13.561  0.7181 -0.0667  0.0168
  102MPD2    C4 1589   2.542   0.644  13.538 -0.5790 -0.0580  0.5623
  102MPD2    C5 1590   2.633   0.594  13.443 -0.2554 -0.2346  0.1004
  102MPD2     H 1591   2.619   0.962  13.517 -1.2503  0.1278 -0.1458
  102MPD2    H1 1592   2.483   0.570  13.592 -1.6344 -0.8509 -1.6997
  102MPD2    H2 1593   2.768   0.631  13.291 -0.3840 -0.3751 -0.8023
  102MPD2    H3 1594   2.624   0.490  13.414  0.4926 -0.3481  0.2778
  102MPD2     N 1595   2.442   0.838  13.654  0.1135 -0.7536  0.0036
  102MPD2    H5 1596   2.444   0.939  13.658 -1.1349 -0.8203  1.9053
  102MPD2    N1 1597   2.816   0.882  13.337 -0.0093 -0.7128 -0.3605
  102MPD2    H7 1598   2.873   0.830  13.272  1.9652  0.7415  0.2102
  103TMC2    C1 1599   0.935   1.541  12.708 -0.6558  0.3494 -0.3135
  103TMC2    C2 1600   1.037   1.459  12.758 -0.1015  0.5900 -0.0852
  103TMC2    C3 1601   1.118   1.511  12.858 -0.1363 -0.3580 -0.0420
  103TMC2    C4 1602   0.928   1.674  12.744 -0.2693  0.4705  0.1198
  103TMC2    C5 1603   1.026   1.725  12.825 -0.6408 -0.2368  0.0776
  103TMC2    C6 1604   1.126   1.647  12.884 -0.5638  0.0422 -0.4834
  103TMC2     C 1605   0.851   1.503  12.595 -0.3518  0.0761  0.2375
  103TMC2     O 1606   0.801   1.597  12.536 -0.1561 -0.0750  0.1276
  103TMC2     H 1607   1.030   1.355  12.728 -2.8342  1.0925 -1.1442
  103TMC2    H1 1608   0.846   1.736  12.710 -1.1243 -0.8918 -0.3190
  103TMC2    H2 1609   1.183   1.686  12.967  0.3302  0.6303 -1.3886
  103TMC2    C7 1610   0.974   1.840  12.897 -0.2798  0.6660  0.1116
  103TMC2    C8 1611   1.201   1.423  12.937 -0.8358  0.1135 -0.2614
  103TMC2    O1 1612   0.855   1.856  12.910 -0.0557 -0.4783 -0.1749
  103TMC2    O2 1613   1.304   1.453  12.998  0.2818 -0.8484  0.2994
  103TMC2    O5 1614   1.141   1.299  12.933 -0.2688 -0.8092 -0.6599
  103TMC2    H5 1615   1.058   1.299  12.882 -1.7833  1.9083  1.8590
  104MPD2     C 1616   0.692   1.186  12.485  0.7232 -0.3714  0.1153
  104MPD2    C1 1617   0.741   1.316  12.473  1.0680  0.1444  0.1828
  104MPD2    C2 1618   0.719   1.391  12.354  0.0446  0.3114  0.2973
  104MPD2    C3 1619   0.625   1.345  12.270 -0.1812  0.8951  0.6074
  104MPD2    C4 1620   0.560   1.226  12.287 -0.6140 -0.0062 -0.2714
  104MPD2    C5 1621   0.595   1.142  12.389  0.8191 -0.2829 -0.1159
  104MPD2     H 1622   0.766   1.486  12.331  2.1003 -0.3865  1.5606
  104MPD2    H1 1623   0.485   1.181  12.223 -2.8366  0.3177  2.1057
  104MPD2    H2 1624   0.716   1.129  12.574 -1.9368  0.4946  1.3908
  104MPD2    H3 1625   0.554   1.042  12.401  1.3358 -0.6574 -1.3675
  104MPD2     N 1626   0.604   1.426  12.159  0.1034  0.4990  0.3885
  104MPD2    H5 1627   0.670   1.500  12.135  0.1821  1.0580  2.3128
  104MPD2    N1 1628   0.821   1.369  12.581 -0.5705  0.5030 -0.4083
  104MPD2    H7 1629   0.846   1.299  12.649  0.6084  3.3131  2.0366
  105TMC2    C1 1630   1.958   0.677   0.267  0.2496 -0.4827 -0.1094
  105TMC2    C2 1631   1.991   0.617   0.385  0.2049 -0.3700  0.0524
  105TMC2    C3 1632   1.924   0.639   0.499  0.2640  0.6123  0.3925
  105TMC2    C4 1633   1.861   0.771   0.269  0.2372 -0.7352 -0.5771
  105TMC2    C5 1634   1.783   0.792   0.380 -0.8665 -0.3279 -0.1976
  105TMC2    C6 1635   1.812   0.721   0.498 -0.1082  0.4637  0.0449
  105TMC2     C 1636   1.990   0.601   0.144 -0.0948 -0.3771 -0.2467
  105TMC2     O 1637   1.991   0.479   0.156  0.4072  0.1038 -0.7365
  105TMC2     H 1638   2.064   0.538   0.376 -0.5572 -1.1961  1.0950
  105TMC2    H1 1639   1.834   0.818   0.174 -0.9141 -1.1533 -0.4525
  105TMC2    H2 1640   1.751   0.739   0.586 -0.8484 -1.3333 -0.1094
  105TMC2    C7 1641   1.712   0.914   0.382  0.1985  0.1545 -0.1100
  105TMC2    C8 1642   1.944   0.541   0.603  0.4336  0.2975 -0.0074
  105TMC2    O1 1643   1.671   0.958   0.273 -0.1404  0.2648 -0.9062
  105TMC2    O2 1644   1.987   0.426   0.579 -0.0728 -0.1704 -0.0888
  105TMC2    O5 1645   1.892   0.582   0.719  0.0204  0.3650  0.6323
  105TMC2    H5 1646   1.886   0.680   0.718 -2.2136  0.2049 -1.8486
  106MPD2     C 1647   2.213   0.582  17.425 -0.1819 -0.0801  0.3256
  106MPD2    C1 1648   2.169   0.709  17.444 -0.3346  0.5533 -0.2691
  106MPD2    C2 1649   2.105   0.737  17.560  0.6024 -0.5740  0.5191
  106MPD2    C3 1650   2.074   0.643  17.657 -0.2108 -0.5067  0.2741
  106MPD2    C4 1651   2.111   0.512  17.633 -0.0536  0.4381  0.6830
  106MPD2    C5 1652   2.189   0.489  17.518  0.3183  0.1866  0.1642
  106MPD2     H 1653   2.066   0.835  17.585 -0.4475 -0.9656  0.4497
  106MPD2    H1 1654   2.089   0.432  17.703  0.4784 -0.2467  0.0723
  106MPD2    H2 1655   2.253   0.544  17.332  0.5039  0.2414  0.4884
  106MPD2    H3 1656   2.208   0.387  17.486  1.0956  0.4539 -0.2435
  106MPD2     N 1657   2.016   0.686   0.037  0.0846 -0.3367 -0.1921
  106MPD2    H5 1658   2.016   0.786   0.054  0.2892  0.0047 -2.2114
  106MPD2    N1 1659   2.198   0.819  17.366 -0.0113 -0.0242 -0.4653
  106MPD2    H7 1660   2.162   0.913  17.381 -0.5397  0.1242 -2.5843
  107TMC2    C1 1661   2.396   0.503  11.720  0.1762  0.9297 -0.5562
  107TMC2    C2 1662   2.325   0.620  11.683 -0.5304 -0.7407 -0.7044
  107TMC2    C3 1663   2.323   0.650  11.549  0.3874  0.2169  0.4251
  107TMC2    C4 1664   2.476   0.428  11.640  0.3883  0.0526  0.0146
  107TMC2    C5 1665   2.487   0.476  11.510 -0.3014  0.1378  0.4538
  107TMC2    C6 1666   2.405   0.579  11.463 -0.1235  0.4991 -0.7147
  107TMC2     C 1667   2.343   0.433  11.840  0.1481  0.1517  0.3536
  107TMC2     O 1668   2.258   0.496  11.897  0.3162 -1.0839  0.4600
  107TMC2     H 1669   2.263   0.675  11.754  1.2825  0.5889 -0.1609
  107TMC2    H1 1670   2.533   0.339  11.667 -0.4177 -0.2940  0.5810
  107TMC2    H2 1671   2.425   0.609  11.361  1.5558 -0.0076 -0.5388
  107TMC2    C7 1672   2.569   0.420  11.406  0.0082  0.7586 -0.8723
  107TMC2    C8 1673   2.285   0.784  11.506 -0.2866 -0.0229  0.1934
  107TMC2    O1 1674   2.577   0.475  11.296  0.6726 -0.2297 -0.4379
  107TMC2    O2 1675   2.342   0.836  11.413 -0.2120  0.1733 -0.3412
  107TMC2    O5 1676   2.151   0.798  11.534 -0.7333  0.0352  0.3971
  107TMC2    H5 1677   2.124   0.714  11.577  0.5711 -0.6994 -0.2082
  108MPD2     C 1678   2.373   0.069  11.952  0.4339  0.6907  0.2518
  108MPD2    C1 1679   2.342   0.206  11.956  0.8636  0.2272 -0.1069
  108MPD2    C2 1680   2.284   0.255  12.066  0.2054  0.0207  0.4432
  108MPD2    C3 1681   2.248   0.165  12.166  0.2608  0.3313  0.1079
  108MPD2    C4 1682   2.269   0.025  12.160  1.0058  0.9552  0.4774
  108MPD2    C5 1683   2.350   4.724  12.059 -0.1478 -0.7441  0.0309
  108MPD2     H 1684   2.259   0.360  12.072  2.2057  0.6328 -2.1632
  108MPD2    H1 1685   2.245   4.688  12.236  0.4543  1.5465  0.8861
  108MPD2    H2 1686   2.432   0.028  11.871 -0.9983  1.1812 -1.0366
  108MPD2    H3 1687   2.388   4.623  12.055 -2.3380 -1.6253  1.2644
  108MPD2     N 1688   2.174   0.204  12.281  0.7082  0.1234  0.3902
  108MPD2    H5 1689   2.156   0.135  12.353  2.2119  0.0533  0.7081
  108MPD2    N1 1690   2.386   0.296  11.853 -0.0199  0.5853  0.1310
  108MPD2    H7 1691   2.433   0.245  11.779 -0.3370 -0.3411  0.5684
  109TMC2    C1 1692   2.152   2.709   0.239  0.3861  0.4501 -1.2471
  109TMC2    C2 1693   2.090   2.771   0.130 -0.6039 -0.2768  0.3109
  109TMC2    C3 1694   2.163   2.818   0.028  0.0351 -0.3970 -0.1572
  109TMC2    C4 1695   2.282   2.680   0.226 -0.7249  0.4882 -0.3956
  109TMC2    C5 1696   2.359   2.739   0.128 -0.1964 -0.2589 -0.1000
  109TMC2    C6 1697   2.302   2.808   0.027 -0.7917 -0.1553 -0.1049
  109TMC2     C 1698   2.072   2.604   0.298  0.1805  0.9248  0.1867
  109TMC2     O 1699   1.982   2.567   0.227 -0.3232 -0.1140 -0.1026
  109TMC2     H 1700   1.983   2.779   0.144 -0.6194 -0.3061  0.2068
  109TMC2    H1 1701   2.327   2.609   0.294  0.1133 -1.0370 -2.5652
  109TMC2    H2 1702   2.353   2.875  17.706  0.4937 -1.4423 -0.4004
  109TMC2    C7 1703   2.499   2.745   0.142  0.4882 -0.0614  0.2753
  109TMC2    C8 1704   2.119   2.941  17.712  0.0431  0.0660 -0.3807
  109TMC2    O1 1705   2.547   2.737   0.253  0.4238  0.2417 -0.1608
  109TMC2    O2 1706   2.189   3.032  17.677  0.1115  0.1648 -0.4548
  109TMC2    O5 1707   1.991   2.929  17.673 -0.3500  0.0841 -0.3882
  109TMC2    H5 1708   1.964   2.835  17.681  0.6715 -0.0577  1.3969
  110MPD2     C 1709   1.877   2.303   0.677  0.0451 -0.4747 -0.5930
  110MPD2    C1 1710   1.970   2.395   0.727 -0.0197  0.2262 -0.4010
  110MPD2    C2 1711   2.044   2.482   0.645  0.3304  0.1845  0.2316
  110MPD2    C3 1712   2.018   2.478   0.512  0.2353  0.0646  0.4051
  110MPD2    C4 1713   1.924   2.386   0.460 -0.6973  0.1951  0.0236
  110MPD2    C5 1714   1.849   2.300   0.540 -0.5019  0.7625  0.2597
  110MPD2     H 1715   2.114   2.556   0.681  0.4129 -0.3621  1.1938
  110MPD2    H1 1716   1.895   2.381   0.356  1.1490 -1.3775 -0.4182
  110MPD2    H2 1717   1.821   2.233   0.738  0.4554 -2.0150 -1.9996
  110MPD2    H3 1718   1.774   2.233   0.499  0.1057  1.4204 -1.9234
  110MPD2     N 1719   2.089   2.572   0.433  0.4539 -0.2525  0.5936
  110MPD2    H5 1720   2.160   2.627   0.480  0.3774 -1.5741  2.2789
  110MPD2    N1 1721   1.978   2.393   0.872 -0.1781  0.0269 -0.0327
  110MPD2    H7 1722   1.919   2.324   0.918 -1.5917 -0.0696 -1.9753
  111TMC2    C1 1723   2.904   2.129  11.839  0.2599 -0.4163  0.0955
  111TMC2    C2 1724   3.032   2.141  11.800 -0.5679  0.0317 -0.7740
  111TMC2    C3 1725   3.122   2.173  11.898  0.6074 -0.1624 -0.6280
  111TMC2    C4 1726   2.863   2.142  11.968 -0.2999 -0.1306  0.3005
  111TMC2    C5 1727   2.960   2.175  12.057  0.2193  0.4317 -0.0945
  111TMC2    C6 1728   3.093   2.187  12.030 -0.1133 -0.0141  0.2335
  111TMC2     C 1729   2.811   2.121  11.731 -0.3396 -0.1669  0.5448
  111TMC2     O 1730   2.855   2.124  11.613  0.6671 -0.4129 -1.0838
  111TMC2     H 1731   3.067   2.136  11.697  0.1472 -3.4066 -0.3631
  111TMC2    H1 1732   2.759   2.129  11.996 -0.2967  1.0554  0.8839
  111TMC2    H2 1733   3.165   2.240  12.091 -0.7834  0.0322  0.9783
  111TMC2    C7 1734   2.917   2.226  12.190 -0.6784 -0.3840 -0.6585
  111TMC2    C8 1735   3.257   2.168  11.851  0.7727  0.1995 -0.3608
  111TMC2    O1 1736   3.009   2.261  12.261 -0.0676  0.0525  0.2114
  111TMC2    O2 1737   3.285   2.104  11.754 -0.2295 -0.1371  0.7349
  111TMC2    O5 1738   3.337   2.180  11.958  0.3112  0.1176 -0.0730
  111TMC2    H5 1739   3.300   2.233  12.031 -0.2679  0.1962 -0.4203
  112MPD2     C 1740   2.328   2.059  11.566  0.0036 -0.1942  0.3941
  112MPD2    C1 1741   2.449   2.077  11.494 -0.2077 -0.4669  0.0883
  112MPD2    C2 1742   2.567   2.083  11.562 -0.6691  0.0531 -0.6996
  112MPD2    C3 1743   2.567   2.096  11.700 -0.7750 -0.0097  0.1416
  112MPD2    C4 1744   2.448   2.084  11.768  0.1057 -0.0635 -0.6765
  112MPD2    C5 1745   2.332   2.055  11.706 -0.0104 -0.3557 -0.3864
  112MPD2     H 1746   2.654   2.094  11.498 -1.2146  1.1306 -1.2589
  112MPD2    H1 1747   2.453   2.093  11.876  1.9861  0.4277 -0.8058
  112MPD2    H2 1748   2.232   2.056  11.515  0.2124 -2.5263  0.1375
  112MPD2    H3 1749   2.251   2.042  11.777  2.6207 -0.9553  2.5587
  112MPD2     N 1750   2.680   2.112  11.777  0.5756 -0.0002  0.0800
  112MPD2    H5 1751   2.659   2.119  11.876  1.0394 -2.2106  0.3176
  112MPD2    N1 1752   2.457   2.076  11.346 -0.6451 -0.3324  0.1207
  112MPD2    H7 1753   2.548   2.079  11.301 -0.5170  0.2592  0.4223
  113TMC2    C1 1754   0.803   0.138   1.062 -0.2190  0.0239 -0.6411
  113TMC2    C2 1755   0.689   0.179   1.001  0.5101  0.1283 -0.7344
  113TMC2    C3 1756   0.609   0.082   0.946 -0.8162  0.4449 -0.1908
  113TMC2    C4 1757   0.830   0.003   1.058 -0.0918  0.6503  0.1583
  113TMC2    C5 1758   0.751   4.654   1.004  0.0402  0.1713 -0.1912
  113TMC2    C6 1759   0.636   4.686   0.956  0.6841  0.2407 -0.6478
  113TMC2     C 1760   0.869   0.226   1.161  0.7183  0.0020 -0.6298
  113TMC2     O 1761   0.819   0.337   1.168 -0.7096  0.2323  0.5966
  113TMC2     H 1762   0.648   0.276   1.027 -0.2967 -0.2307 -0.6512
  113TMC2    H1 1763   0.935   4.717   1.066 -0.4366 -0.4182  1.6269
  113TMC2    H2 1764   0.574   4.613   0.905 -1.0375  1.0072  0.3511
  113TMC2    C7 1765   0.785   4.515   1.008 -0.0147 -1.3938 -0.4686
  113TMC2    C8 1766   0.498   0.119   0.859  0.7380  0.0503 -0.4290
  113TMC2    O1 1767   0.890   4.483   0.960 -0.4301 -0.2290 -0.3907
  113TMC2    O2 1768   0.400   0.055   0.821  0.0320 -0.4400  0.3421
  113TMC2    O5 1769   0.537   0.237   0.808 -0.1894 -0.1891  0.5549
  113TMC2    H5 1770   0.629   0.255   0.837 -0.7739  2.5985  0.6202
  114MPD2     C 1771   1.159   0.315   1.563  0.3522 -0.1806  0.7369
  114MPD2    C1 1772   1.075   0.399   1.499  0.1394 -0.0310 -0.1623
  114MPD2    C2 1773   1.012   0.357   1.385 -0.6818  0.9140 -0.4083
  114MPD2    C3 1774   1.042   0.231   1.336 -0.7714 -0.0046 -0.3087
  114MPD2    C4 1775   1.139   0.157   1.387  0.1767 -0.2197 -0.0183
  114MPD2    C5 1776   1.199   0.193   1.501 -0.2610  0.0536 -0.4444
  114MPD2     H 1777   0.947   0.428   1.335 -0.4940  0.4456 -1.3197
  114MPD2    H1 1778   1.157   0.060   1.343  0.1895 -0.0791 -0.3276
  114MPD2    H2 1779   1.208   0.349   1.653  1.3237  0.1932  0.0659
  114MPD2    H3 1780   1.287   0.142   1.539  0.7229  0.6545 -1.9069
  114MPD2     N 1781   0.978   0.171   1.224 -0.0474 -0.4853 -0.0126
  114MPD2    H5 1782   1.027   0.097   1.175 -0.2921  0.4768 -1.7193
  114MPD2    N1 1783   1.046   0.538   1.530 -0.1669  0.0369  0.4080
  114MPD2    H7 1784   0.993   0.597   1.467  0.8170  0.8871  0.3803
  115TMC2    C1 1785   2.059   2.964  17.280 -0.2198  0.1550 -0.1925
  115TMC2    C2 1786   2.060   2.914  17.150 -0.2093 -0.2198  0.3306
  115TMC2    C3 1787   2.042   3.010  17.054  0.2162 -0.2322 -0.3116
  115TMC2    C4 1788   2.055   3.097  17.309 -0.2205 -0.1816 -0.1038
  115TMC2    C5 1789   2.047   3.187  17.210  1.0972  0.0189  0.4134
  115TMC2    C6 1790   2.033   3.145  17.083 -0.3961 -0.5679 -0.1827
  115TMC2     C 1791   1.959   2.906  17.364 -0.5022 -0.0102  0.0643
  115TMC2     O 1792   1.964   2.783  17.365 -0.0847 -0.1054  0.3143
  115TMC2     H 1793   2.046   2.808  17.130 -1.7095 -0.0586  0.4971
  115TMC2    H1 1794   2.062   3.131  17.412  0.8805  0.3276 -0.3458
  115TMC2    H2 1795   2.017   3.212  16.999 -0.7646  0.0773  0.4054
  115TMC2    C7 1796   1.968   3.300  17.249 -0.1074 -0.2547 -1.0855
  115TMC2    C8 1797   1.959   2.970  16.944 -0.1146  0.3625  0.6846
  115TMC2    O1 1798   1.899   3.287  17.347  0.3512  0.1086 -0.7308
  115TMC2    O2 1799   1.881   3.050  16.884 -0.1688 -0.0974  0.6540
  115TMC2    O5 1800   2.020   2.863  16.880  0.0264  0.3779  0.2437
  115TMC2    H5 1801   2.101   2.829  16.924  2.1707  1.3356 -2.9118
  116MPD2     C 1802   1.469   2.928  17.537 -0.1385  0.1115 -0.1877
  116MPD2    C1 1803   1.552   2.827  17.497  0.2912 -0.1981  0.4327
  116MPD2    C2 1804   1.680   2.851  17.452 -0.1175 -0.5805  0.8884
  116MPD2    C3 1805   1.729   2.977  17.451  0.2677  0.3929 -0.0313
  116MPD2    C4 1806   1.650   3.084  17.492  0.6129  0.0926 -0.6331
  116MPD2    C5 1807   1.519   3.058  17.528  0.0331  0.5056  0.6876
  116MPD2     H 1808   1.743   2.771  17.415  0.2687 -0.2273  0.7882
  116MPD2    H1 1809   1.692   3.184  17.489 -2.7477  1.4770 -2.0713
  116MPD2    H2 1810   1.364   2.916  17.560 -0.2890  1.4005 -0.2133
  116MPD2    H3 1811   1.452   3.138  17.558 -0.9529 -0.5536  1.3212
  116MPD2     N 1812   1.860   3.003  17.396  0.0907  0.2775 -0.1476
  116MPD2    H5 1813   1.873   3.102  17.381 -0.0154  0.6518  2.1999
  116MPD2    N1 1814   1.489   2.699  17.473  0.3557 -0.4102 -0.5481
  116MPD2    H7 1815   1.388   2.692  17.485  0.0721  1.0218 -2.1387
  117TMC2    C1 1816   0.026   4.298  14.382 -0.1750 -0.1513  0.0586
  117TMC2    C2 1817   0.109   4.192  14.405 -0.2829 -0.7960  0.1210
  117TMC2    C3 1818   0.235   4.233  14.434  0.2773 -0.0323  0.7312
  117TMC2    C4 1819   0.061   4.429  14.378 -0.2333  0.5265  0.3369
  117TMC2    C5 1820   0.188   4.462  14.418 -0.4949  0.3771 -0.5739
  117TMC2    C6 1821   0.282   4.364  14.444 -0.4598 -0.6196 -0.7430
  117TMC2     C 1822   4.639   4.259  14.325  0.6371 -0.1417 -0.3109
  117TMC2     O 1823   4.592   4.148  14.346  0.6623 -0.7368 -0.2667
  117TMC2     H 1824   0.077   4.090  14.383 -2.4851  0.0070 -0.4026
  117TMC2    H1 1825   4.720   4.502  14.366 -2.3460 -1.6550  0.8370
  117TMC2    H2 1826   0.385   4.383  14.471 -0.9352 -2.4867  2.4462
  117TMC2    C7 1827   0.239   4.595  14.395  0.1096  0.1475 -0.8467
  117TMC2    C8 1828   0.340   4.134  14.446 -0.0980  0.4380  0.6518
  117TMC2    O1 1829   0.357   4.611  14.411 -0.1935  0.2483 -0.8268
  117TMC2    O2 1830   0.445   4.158  14.497 -0.6184  0.3870 -0.9488
  117TMC2    O5 1831   0.321   4.047  14.337 -0.2698  0.2188 -0.0945
  117TMC2    H5 1832   0.234   4.056  14.293 -0.8913 -1.1600  0.8444
  118MPD2     C 1833   0.070   0.137  14.235 -0.4293  0.4033  0.4597
  118MPD2    C1 1834   0.180   0.068  14.281 -0.0715  0.3102  0.6006
  118MPD2    C2 1835   0.305   0.127  14.273  0.2882 -0.1185  0.0587
  118MPD2    C3 1836   0.319   0.256  14.221 -0.4382  0.7308  0.0499
  118MPD2    C4 1837   0.209   0.317  14.165  0.1463  0.8207  0.0905
  118MPD2    C5 1838   0.080   0.264  14.187 -0.1063 -0.1736  0.6790
  118MPD2     H 1839   0.394   0.080  14.313  1.0254  0.9566 -0.3064
  118MPD2    H1 1840   0.218   0.411  14.112 -0.0966  1.8258  1.8662
  118MPD2    H2 1841   4.708   0.093  14.237 -0.0491 -0.4856 -0.1782
  118MPD2    H3 1842   4.731   0.326  14.169  2.0311  2.8354  0.7791
  118MPD2     N 1843   0.444   0.323  14.199 -0.0636 -0.2903 -0.4024
  118MPD2    H5 1844   0.443   0.412  14.150 -0.6635 -0.2388 -0.3045
  118MPD2    N1 1845   0.150   4.677  14.336 -0.2228 -0.1859  0.2929
  118MPD2    H7 1846   0.051   4.654  14.340 -0.2341 -0.1180  0.4333
  119TMC2    C1 1847   2.983   0.627  13.665 -0.4603  0.1174  0.4357
  119TMC2    C2 1848   3.005   0.528  13.565 -1.3987  0.3608  0.0733
  119TMC2    C3 1849   2.905   0.424  13.567  0.2764  0.2611  0.1308
  119TMC2    C4 1850   2.875   0.632  13.740  0.1377  0.4211 -0.5131
  119TMC2    C5 1851   2.779   0.530  13.730 -0.1164  0.5942 -0.0289
  119TMC2    C6 1852   2.799   0.421  13.649  0.1379  0.0169  1.0706
  119TMC2     C 1853   3.100   0.698  13.719  0.0893 -0.0431 -0.0121
  119TMC2     O 1854   3.080   0.777  13.811  0.5603  0.1884 -0.0924
  119TMC2     H 1855   3.099   0.529  13.510 -1.4510 -0.9136 -0.0474
  119TMC2    H1 1856   2.868   0.703  13.821 -1.8059 -0.5343  0.1743
  119TMC2    H2 1857   2.726   0.342  13.647  1.4370 -1.1479 -0.1132
  119TMC2    C7 1858   2.684   0.522  13.843  0.2793 -0.4629 -0.1969
  119TMC2    C8 1859   2.935   0.307  13.482 -0.7830 -0.2668  0.4378
  119TMC2    O1 1860   2.664   0.408  13.887 -0.0283 -0.1043 -0.2491
  119TMC2    O2 1861   3.041   0.307  13.419  0.3041  0.3853 -0.1846
  119TMC2    O5 1862   2.835   0.224  13.463  0.0468 -0.3986  0.3460
  119TMC2    H5 1863   2.745   0.237  13.502  0.9266  1.3787  1.7939
  120MPD2     C 1864   3.587   0.725  13.832  0.5940  0.1398 -0.1871
  120MPD2    C1 1865   3.480   0.758  13.913  0.1226  0.1053 -0.7346
  120MPD2    C2 1866   3.356   0.736  13.854  0.2768 -0.5534  0.2250
  120MPD2    C3 1867   3.342   0.694  13.721  0.2736 -0.8964  0.4963
  120MPD2    C4 1868   3.449   0.665  13.644 -0.1328  0.3394 -0.1016
  120MPD2    C5 1869   3.576   0.683  13.701 -0.0502 -0.3933 -0.0112
  120MPD2     H 1870   3.266   0.761  13.909  0.0927 -1.3656  0.2987
  120MPD2    H1 1871   3.437   0.635  13.541 -2.4862 -2.6873  1.0511
  120MPD2    H2 1872   3.688   0.743  13.869  1.0002 -0.1834 -1.1407
  120MPD2    H3 1873   3.670   0.661  13.652  0.1943 -0.2000  0.3654
  120MPD2     N 1874   3.215   0.672  13.658  0.1130  0.0688 -0.1273
  120MPD2    H5 1875   3.220   0.626  13.568 -1.0572 -2.4838  1.1155
  120MPD2    N1 1876   3.510   0.802  14.041  0.3709  0.5551  0.3696
  120MPD2    H7 1877   3.610   0.808  14.061  0.8857  1.4253 -2.5271
  121TMC2    C1 1878   4.696   2.569  14.374 -0.2409  0.4556 -0.1764
  121TMC2    C2 1879   4.644   2.630  14.482 -0.8344 -0.0298  0.1415
  121TMC2    C3 1880   4.507   2.633  14.497  0.7116  0.0545 -0.6631
  121TMC2    C4 1881   4.621   2.515  14.278  0.0924  0.1791  0.6464
  121TMC2    C5 1882   4.483   2.523  14.290 -0.4703 -0.8097  0.3184
  121TMC2    C6 1883   4.422   2.583  14.400 -0.2171 -0.0934  0.1214
  121TMC2     C 1884   0.096   2.601  14.356 -0.1833  0.6257 -0.3949
  121TMC2     O 1885   0.177   2.583  14.446  0.2383 -0.5726 -0.2332
  121TMC2     H 1886   4.718   2.675  14.548  0.7383  0.7943 -2.1817
  121TMC2    H1 1887   4.673   2.464  14.197 -1.4741 -1.1455  0.4850
  121TMC2    H2 1888   4.315   2.571  14.411 -0.5601  1.6729 -1.1697
  121TMC2    C7 1889   4.407   2.443  14.191  0.2957  0.2055  0.3231
  121TMC2    C8 1890   4.464   2.694  14.619 -0.0150 -0.5161  0.4529
  121TMC2    O1 1891   4.465   2.352  14.133  0.1356 -0.1824  0.6119
  121TMC2    O2 1892   4.530   2.784  14.665  0.3287 -0.1496 -1.0778
  121TMC2    O5 1893   4.329   2.700  14.613 -0.4953 -0.7989 -0.3890
  121TMC2    H5 1894   4.290   2.613  14.588  0.1927 -1.4433  0.7643
  122MPD2     C 1895   0.376   2.668  14.243 -0.2555 -0.4586 -0.2964
  122MPD2    C1 1896   0.253   2.672  14.175 -0.9954  0.2001  0.0743
  122MPD2    C2 1897   0.261   2.736  14.056 -0.3492  0.6873 -0.4897
  122MPD2    C3 1898   0.385   2.786  14.000  0.2320 -0.1293  0.2520
  122MPD2    C4 1899   0.500   2.766  14.070  0.2891 -0.6378 -0.2360
  122MPD2    C5 1900   0.494   2.705  14.191  0.2132 -0.2472  0.0804
  122MPD2     H 1901   0.164   2.751  14.010 -1.0067 -0.7049  0.4544
  122MPD2    H1 1902   0.589   2.821  14.042  0.1422  0.6667  1.8559
  122MPD2    H2 1903   0.379   2.621  14.341  1.9169  2.0321  0.8128
  122MPD2    H3 1904   0.588   2.711  14.246  0.9856  2.3787 -1.5129
  122MPD2     N 1905   0.386   2.871  13.887 -0.1827 -0.0020  0.2782
  122MPD2    H5 1906   0.478   2.906  13.864  0.3193 -1.7439 -0.3676
  122MPD2    N1 1907   0.123   2.640  14.225 -0.2329 -0.9900 -0.2489
  122MPD2    H7 1908   0.046   2.646  14.159 -0.5060  0.0572  0.1602
  123TMC2    C1 1909   3.077   1.141  10.950  0.0177  0.0319 -0.1634
  123TMC2    C2 1910   3.174   1.219  11.008 -0.4396  0.4378  1.1451
  123TMC2    C3 1911   3.301   1.212  10.960 -0.3127  0.4687 -0.0457
  123TMC2    C4 1912   3.108   1.052  10.849 -0.3143 -0.6296 -0.1392
  123TMC2    C5 1913   3.238   1.038  10.816 -0.3613 -0.0684 -0.5455
  123TMC2    C6 1914   3.338   1.124  10.861 -0.7802  0.4057 -0.2850
  123TMC2     C 1915   2.963   1.108  11.027 -0.2878 -0.2293 -0.0844
  123TMC2     O 1916   2.925   1.192  11.110  0.0800 -0.4393 -0.2434
  123TMC2     H 1917   3.144   1.266  11.101 -3.2190 -0.5865  0.7446
  123TMC2    H1 1918   3.039   0.986  10.797 -0.9368  0.6831 -0.9713
  123TMC2    H2 1919   3.442   1.104  10.842 -0.8003 -2.0297  2.0923
  123TMC2    C7 1920   3.280   0.943  10.716  0.2244  0.4153  0.3748
  123TMC2    C8 1921   3.393   1.213  11.073 -0.6311  0.2609  0.1517
  123TMC2    O1 1922   3.198   0.851  10.712  0.3118 -0.0357  0.6479
  123TMC2    O2 1923   3.361   1.202  11.193 -0.3317 -0.2841 -0.1935
  123TMC2    O5 1924   3.515   1.250  11.023  0.2637 -0.4918 -0.6734
  123TMC2    H5 1925   3.523   1.277  10.929  0.4650  0.2662 -0.4371
  124MPD2     C 1926   2.613   0.762  11.166  1.0815 -0.9829 -0.4206
  124MPD2    C1 1927   2.680   0.716  11.057 -0.1638  0.0407  0.3811
  124MPD2    C2 1928   2.782   0.785  10.999 -0.6113 -0.3234  0.6855
  124MPD2    C3 1929   2.804   0.916  11.045  0.4481 -0.6948 -0.4714
  124MPD2    C4 1930   2.736   0.963  11.154 -0.3643 -0.2206  0.0214
  124MPD2    C5 1931   2.642   0.885  11.219 -0.1961 -0.6426 -0.2449
  124MPD2     H 1932   2.844   0.742  10.921 -0.9173  3.7738 -1.8039
  124MPD2    H1 1933   2.761   1.054  11.209  2.7211 -1.1194  0.1110
  124MPD2    H2 1934   2.526   0.705  11.196  0.8787  0.2064  1.2638
  124MPD2    H3 1935   2.585   0.916  11.306 -0.9276  0.7613 -1.2311
  124MPD2     N 1936   2.916   0.984  10.991 -0.0707 -0.2925  0.6091
  124MPD2    H5 1937   2.975   0.942  10.920  0.1570 -1.4890  1.5007
  124MPD2    N1 1938   2.639   0.585  11.015  0.0905 -0.5986  1.1475
  124MPD2    H7 1939   2.569   0.544  11.075 -0.6720  2.4998  2.3369
  125TMC2    C1 1940   0.328   3.469   8.941  0.3418  0.1399  0.0550
  125TMC2    C2 1941   0.448   3.466   8.882  0.9610  0.4291 -0.0340
  125TMC2    C3 1942   0.543   3.378   8.929 -0.6673 -0.7085  0.0392
  125TMC2    C4 1943   0.306   3.387   9.045  0.0719 -0.4556 -0.3712
  125TMC2    C5 1944   0.400   3.301   9.099  1.1799  0.0817  0.2591
  125TMC2    C6 1945   0.522   3.299   9.038 -0.3571 -0.3062  0.3828
  125TMC2     C 1946   0.239   3.571   8.914 -0.5203  0.4822 -0.3828
  125TMC2     O 1947   0.285   3.660   8.846 -0.6248 -0.6039 -0.1037
  125TMC2     H 1948   0.457   3.533   8.797  3.8237 -0.5404 -0.4769
  125TMC2    H1 1949   0.214   3.395   9.102 -1.3162  2.0956 -2.9401
  125TMC2    H2 1950   0.591   3.216   9.051  0.0038 -0.1157 -0.3257
  125TMC2    C7 1951   0.374   3.212   9.217 -0.4323  0.5843  0.3643
  125TMC2    C8 1952   0.654   3.336   8.848 -0.2245 -0.6307  0.1129
  125TMC2    O1 1953   0.305   3.264   9.304  0.2835 -0.7131 -0.0649
  125TMC2    O2 1954   0.756   3.280   8.885  0.0538 -0.4781  0.5320
  125TMC2    O5 1955   0.619   3.364   8.722 -0.1144 -0.5473 -0.0813
  125TMC2    H5 1956   0.525   3.391   8.717 -0.1657 -0.9353 -1.1391
  126MPD1     C 1957   4.551   3.837   8.990 -0.4680 -0.0047 -0.0417
  126MPD1    C1 1958   4.531   3.722   9.063 -0.1502  0.2729  0.0045
  126MPD1    C2 1959   4.640   3.633   9.053  0.5107 -0.3607 -0.1356
  126MPD1    C3 1960   0.025   3.660   8.990  0.3793  0.0696 -0.0658
  126MPD1    C4 1961   0.042   3.788   8.942 -0.0392 -0.2611 -0.2081
  126MPD1    C5 1962   4.674   3.870   8.942  0.6697 -0.3498  0.1285
  126MPD1     H 1963   4.637   3.540   9.109 -2.2944 -0.8956 -1.1692
  126MPD1    H1 1964   0.132   3.830   8.900 -0.7757  1.7253  0.1885
  126MPD1    H2 1965   4.478   3.917   8.979  1.1843  1.5149 -0.0351
  126MPD1    H3 1966   4.684   3.968   8.898 -0.5220 -0.9740 -1.5507
  126MPD1     N 1967   0.121   3.560   8.982 -0.4489  0.1494  0.7372
  126MPD1    H5 1968   0.108   3.482   9.046 -1.7828  0.9847  1.4904
  126MPD1    N1 1969   4.404   3.682   9.115 -0.7455 -0.1365 -0.3133
  126MPD1    H6 1970   4.361   3.766   9.152  2.8158  1.8343 -0.6097
  126MPD1    H7 1971   4.426   3.614   9.187  1.6850  0.8467 -0.1310
  127TMC2    C1 1972   4.689   1.349  10.114  0.2543 -0.3372 -0.5264
  127TMC2    C2 1973   4.626   1.261  10.204 -0.4550  1.0468  0.1302
  127TMC2    C3 1974   4.512   1.200  10.167 -0.1247 -0.0618 -0.4277
  127TMC2    C4 1975   4.629   1.385   9.993 -0.6283 -0.3416  0.7267
  127TMC2    C5 1976   4.507   1.323   9.966  1.0762 -0.6027  0.0012
  127TMC2    C6 1977   4.460   1.222  10.041 -0.4041 -1.0494 -0.6839
  127TMC2     C 1978   0.071   1.430  10.152 -0.3063 -0.4819 -0.3143
  127TMC2     O 1979   0.119   1.413  10.263 -0.1120 -0.7433 -0.6881
  127TMC2     H 1980   4.671   1.243  10.302  1.2292  2.1999 -0.4321
  127TMC2    H1 1981   4.659   1.476   9.944 -1.2304 -0.1412  0.7348
  127TMC2    H2 1982   4.372   1.164  10.016 -0.1727 -2.2747  1.3409
  127TMC2    C7 1983   4.440   1.349   9.841  0.2192 -0.1787 -0.1800
  127TMC2    C8 1984   4.463   1.079  10.230 -0.1264  0.8203 -0.4283
  127TMC2    O1 1985   4.496   1.430   9.764 -0.1919  0.2112 -0.1093
  127TMC2    O2 1986   4.390   0.989  10.187 -0.2776 -0.2093 -0.3525
  127TMC2    O5 1987   4.484   1.086  10.366  0.0274 -0.0157  0.4041
  127TMC2    H5 1988   4.520   1.171  10.399  4.3783 -0.5429 -2.9047
  128MPD2     C 1989   0.272   1.575   9.884 -0.3064  0.2270  0.0422
  128MPD2    C1 1990   0.239   1.551  10.019 -0.0260 -0.4648  0.4986
  128MPD2    C2 1991   0.321   1.599  10.119 -0.2046  0.9119  0.1178
  128MPD2    C3 1992   0.437   1.665  10.082 -0.3882  0.4844  0.1627
  128MPD2    C4 1993   0.460   1.704   9.949  0.2394  0.1857 -0.1053
  128MPD2    C5 1994   0.371   1.664   9.855  0.2424  0.7907  0.7027
  128MPD2     H 1995   0.293   1.580  10.222  0.5932 -0.0409  0.1614
  128MPD2    H1 1996   0.548   1.744   9.900  0.6947 -1.2875 -0.4818
  128MPD2    H2 1997   0.212   1.543   9.800  1.5074 -1.1422 -0.7384
  128MPD2    H3 1998   0.388   1.695   9.752  1.2207 -1.2774  0.2389
  128MPD2     N 1999   0.533   1.700  10.183 -0.6495 -0.6370  0.3875
  128MPD2    H5 2000   0.507   1.678  10.278 -2.0720 -0.7811 -0.0399
  128MPD2    N1 2001   0.126   1.472  10.034 -0.4632  0.4382 -0.0355
  128MPD2    H7 2002   0.076   1.456   9.948 -0.1332 -1.2073  0.0794
  129TMC2    C1 2003   3.233   2.252   1.589  0.1346 -0.0501 -0.3090
  129TMC2    C2 2004   3.145   2.340   1.648  0.1788 -0.1568  0.4047
  129TMC2    C3 2005   3.110   2.313   1.774 -0.1319  0.3610  0.1017
  129TMC2    C4 2006   3.261   2.126   1.651  0.4182 -0.2342 -0.7574
  129TMC2    C5 2007   3.222   2.105   1.779 -0.1529 -0.0871  0.3691
  129TMC2    C6 2008   3.144   2.198   1.840 -0.4485 -0.1170 -0.2346
  129TMC2     C 2009   3.239   2.250   1.441  0.2155 -0.3144 -0.5151
  129TMC2     O 2010   3.264   2.145   1.378 -0.2487 -0.4576 -0.1213
  129TMC2     H 2011   3.118   2.437   1.610  1.8728 -0.9243 -2.8096
  129TMC2    H1 2012   3.320   2.052   1.598 -0.8073 -0.5154 -1.7306
  129TMC2    H2 2013   3.113   2.174   1.941 -1.3504  0.8051 -0.3001
  129TMC2    C7 2014   3.226   1.961   1.815 -0.1885  1.3353 -0.3271
  129TMC2    C8 2015   3.006   2.400   1.831  0.1347 -0.4381 -0.0657
  129TMC2    O1 2016   3.128   1.921   1.880 -0.0604 -0.8030  0.1177
  129TMC2    O2 2017   3.015   2.520   1.842  0.1921 -0.3022  0.2750
  129TMC2    O5 2018   2.894   2.321   1.821  0.1680  0.6806 -0.3437
  129TMC2    H5 2019   2.904   2.227   1.795  1.8375  0.6098  0.6233
  130MPD2     C 2020   3.257   2.324   1.154  0.0835  0.1393 -0.2490
  130MPD2    C1 2021   3.238   2.412   1.261 -0.6636 -0.1824  0.2376
  130MPD2    C2 2022   3.199   2.543   1.231 -0.1525  0.4902 -0.0943
  130MPD2    C3 2023   3.185   2.590   1.102 -0.0290 -0.6223  0.7223
  130MPD2    C4 2024   3.208   2.506   0.993 -0.3304 -0.0056 -0.2218
  130MPD2    C5 2025   3.248   2.375   1.027 -0.5580  0.9363  0.3114
  130MPD2     H 2026   3.191   2.616   1.310 -0.7321  0.4640 -0.1328
  130MPD2    H1 2027   3.186   2.536   0.891  1.8357  0.7807 -0.4593
  130MPD2    H2 2028   3.281   2.219   1.165  0.9671  0.4865  1.2248
  130MPD2    H3 2029   3.261   2.306   0.944  0.7176  0.5554  0.8316
  130MPD2     N 2030   3.161   2.727   1.086  0.6418 -0.1709  0.6918
  130MPD2    H5 2031   3.127   2.776   1.169  0.6611 -0.3466  0.8037
  130MPD2    N1 2032   3.238   2.379   1.395  0.2083  0.2681  0.9177
  130MPD2    H7 2033   3.249   2.449   1.468 -1.2853  0.6115  0.8252
  131TMC2    C1 2034   2.948   0.716  10.028 -0.5209  0.4642  0.1295
  131TMC2    C2 2035   2.886   0.746   9.909  0.0712 -0.4408  0.0053
  131TMC2    C3 2036   2.948   0.830   9.823  0.4196  0.1842 -0.6729
  131TMC2    C4 2037   3.055   0.781  10.072  0.2896 -0.2176  0.1490
  131TMC2    C5 2038   3.111   0.875   9.993 -0.3185  1.1835  0.1943
  131TMC2    C6 2039   3.068   0.891   9.864 -0.0591  0.9027 -0.2211
  131TMC2     C 2040   2.882   0.615  10.119 -0.0791  0.1235  0.1916
  131TMC2     O 2041   2.934   0.602  10.227  0.4295 -0.0748  0.1428
  131TMC2     H 2042   2.786   0.704   9.901  0.6914 -1.8875 -0.2499
  131TMC2    H1 2043   3.102   0.762  10.168  0.0330 -0.5207  0.2120
  131TMC2    H2 2044   3.111   0.961   9.793  1.0959 -0.0607 -0.4636
  131TMC2    C7 2045   3.231   0.943  10.036 -0.8712 -0.3347  0.2464
  131TMC2    C8 2046   2.903   0.856   9.691 -0.7224  0.0819 -0.1924
  131TMC2    O1 2047   3.293   0.885  10.123  0.0371  0.0978  0.1566
  131TMC2    O2 2048   2.945   0.940   9.620  0.1500 -0.2650 -0.4290
  131TMC2    O5 2049   2.870   0.727   9.644  0.3249  0.1370 -0.1946
  131TMC2    H5 2050   2.850   0.655   9.708 -0.8130 -0.8870 -1.6832
  132MPD2     C 2051   2.598   0.388  10.061 -0.5119  0.3354 -0.8310
  132MPD2    C1 2052   2.704   0.442  10.139 -0.4489  0.2468  0.1789
  132MPD2    C2 2053   2.721   0.415  10.273 -0.3688  0.1529 -0.0215
  132MPD2    C3 2054   2.626   0.330  10.336  0.0058 -0.4107  0.0064
  132MPD2    C4 2055   2.524   0.279  10.253 -0.1284  0.4359 -0.4504
  132MPD2    C5 2056   2.510   0.303  10.118 -1.1536 -0.3717  0.0986
  132MPD2     H 2057   2.792   0.469  10.335  1.6567  0.6208 -2.7093
  132MPD2    H1 2058   2.443   0.228  10.303  1.4348  0.4845  2.1332
  132MPD2    H2 2059   2.578   0.419   9.959 -2.0791 -1.8417 -1.2048
  132MPD2    H3 2060   2.417   0.286  10.066 -0.4966 -2.2902 -0.4385
  132MPD2     N 2061   2.644   0.306  10.479 -0.2168  0.1787 -0.4242
  132MPD2    H5 2062   2.724   0.346  10.526 -2.0569  1.1789  1.8392
  132MPD2    N1 2063   2.779   0.537  10.070  0.1086 -0.0356 -0.2461
  132MPD2    H7 2064   2.763   0.530   9.970  0.2752 -0.7068 -0.2304
  133TMC2    C1 2065   2.738   1.957   9.912  0.4214  1.1568 -0.5006
  133TMC2    C2 2066   2.817   1.869   9.982 -0.1664 -0.9281  0.3259
  133TMC2    C3 2067   2.894   1.920  10.082  0.6236  0.7012  0.1768
  133TMC2    C4 2068   2.740   2.087   9.946  0.4434  0.0865 -0.2464
  133TMC2    C5 2069   2.798   2.128  10.062 -0.4854 -0.1438  0.4071
  133TMC2    C6 2070   2.883   2.048  10.134  0.3168 -0.2251 -0.1444
  133TMC2     C 2071   2.672   1.908   9.787 -0.8126 -0.4735  0.2914
  133TMC2     O 2072   2.700   1.795   9.747 -0.1415  0.2906  0.2221
  133TMC2     H 2073   2.822   1.764   9.958  0.5904 -0.7262 -0.4238
  133TMC2    H1 2074   2.667   2.158   9.907 -0.0173  0.6351  1.6090
  133TMC2    H2 2075   2.929   2.085  10.225  1.8994  0.5288 -1.2533
  133TMC2    C7 2076   2.786   2.268  10.114  0.2422  0.5286  0.5013
  133TMC2    C8 2077   2.975   1.828  10.161  0.1318  0.1131  0.2191
  133TMC2    O1 2078   2.846   2.279  10.219  0.7038 -0.4118 -0.7492
  133TMC2    O2 2079   3.052   1.857  10.250  0.5991  0.1610 -0.4259
  133TMC2    O5 2080   2.912   1.709  10.168 -0.1723  0.2339 -0.3287
  133TMC2    H5 2081   2.840   1.700  10.102 -1.6203  1.0394  1.1456
  134MPD2     C 2082   2.467   2.110   9.555 -0.1409 -0.4186  0.0941
  134MPD2    C1 2083   2.523   1.998   9.615  1.5233 -0.2191 -0.0502
  134MPD2    C2 2084   2.501   1.869   9.557 -0.0926  0.9520 -0.5316
  134MPD2    C3 2085   2.409   1.861   9.455  0.0150  0.2280  0.2693
  134MPD2    C4 2086   2.366   1.975   9.389 -0.2484  0.1452  0.2423
  134MPD2    C5 2087   2.396   2.101   9.437 -0.1718 -0.3538 -0.4906
  134MPD2     H 2088   2.542   1.778   9.600  1.2948  1.6138 -0.4426
  134MPD2    H1 2089   2.310   1.969   9.297 -1.8511  0.0371  1.2187
  134MPD2    H2 2090   2.494   2.204   9.600 -1.5138  0.3830 -0.7578
  134MPD2    H3 2091   2.359   2.193   9.394  0.8585 -0.1051 -0.8425
  134MPD2     N 2092   2.361   1.740   9.402 -0.1355  0.2485  0.5712
  134MPD2    H5 2093   2.285   1.750   9.335 -0.3493  0.9776  0.9187
  134MPD2    N1 2094   2.607   2.009   9.728  0.2894  0.1076 -0.2270
  134MPD2    H7 2095   2.618   2.102   9.767 -2.2243 -0.2356  1.3244
  135TMC2    C1 2096   4.593   3.266   9.890 -0.8226  0.1093 -0.2873
  135TMC2    C2 2097   4.565   3.156   9.806 -0.6039  0.3401 -0.1129
  135TMC2    C3 2098   4.473   3.063   9.836  0.1292  0.4220 -0.6109
  135TMC2    C4 2099   4.491   3.295   9.975 -1.0543 -0.3220 -0.2105
  135TMC2    C5 2100   4.399   3.198  10.009  0.4186  0.0961  0.6243
  135TMC2    C6 2101   4.386   3.078   9.941 -1.1082 -0.2587  0.3222
  135TMC2     C 2102   4.684   3.367   9.852  0.4045  1.1881 -0.1618
  135TMC2     O 2103   4.659   3.477   9.895  0.5191  0.0629  0.5578
  135TMC2     H 2104   4.631   3.134   9.723 -0.0953  2.1619 -0.2097
  135TMC2    H1 2105   4.491   3.392  10.023 -0.3711  0.4561 -1.8007
  135TMC2    H2 2106   4.313   3.004   9.969  1.0878 -1.6897  2.1972
  135TMC2    C7 2107   4.323   3.226  10.120 -0.4955 -0.3373  0.4825
  135TMC2    C8 2108   4.459   2.934   9.762  0.1247 -0.3896 -0.1399
  135TMC2    O1 2109   4.366   3.311  10.202 -0.3236 -0.4384 -0.4927
  135TMC2    O2 2110   4.497   2.939   9.649  0.1337 -0.2197  0.0386
  135TMC2    O5 2111   4.487   2.835   9.851 -0.3984 -0.0515  0.5016
  135TMC2    H5 2112   4.476   2.852   9.947  0.1977  1.6770  0.2738
  136MPD2     C 2113   0.137   3.546   9.722  0.6065 -0.1635 -0.3372
  136MPD2    C1 2114   0.152   3.406   9.724  0.1192  0.3391 -0.1086
  136MPD2    C2 2115   0.276   3.348   9.692  0.6733  0.8457 -0.2209
  136MPD2    C3 2116   0.384   3.426   9.652 -0.4605  0.5392 -0.3496
  136MPD2    C4 2117   0.369   3.565   9.655  0.0510  0.0288 -0.0661
  136MPD2    C5 2118   0.244   3.622   9.694  0.1648 -0.1051  0.5079
  136MPD2     H 2119   0.281   3.240   9.682  1.8541  0.7873  0.9934
  136MPD2    H1 2120   0.449   3.631   9.625 -0.8707  1.7994  1.3873
  136MPD2    H2 2121   0.044   3.596   9.746  1.8764  0.3046  3.7127
  136MPD2    H3 2122   0.234   3.729   9.709 -0.4285 -0.1899  0.7140
  136MPD2     N 2123   0.504   3.375   9.602 -0.1837 -0.8035  0.5157
  136MPD2    H5 2124   0.566   3.441   9.557  0.0477 -0.6491  1.0672
  136MPD2    N1 2125   0.056   3.316   9.779  0.0116  0.8701 -0.3281
  136MPD2    H7 2126   0.073   3.216   9.780  3.4234  1.4992  1.5013
  137TMC2    C1 2127   4.469   2.080   9.633 -0.7250  0.4712 -0.3986
  137TMC2    C2 2128   4.593   2.132   9.584  0.3222  0.0171 -0.5241
  137TMC2    C3 2129   4.633   2.083   9.467 -0.0689 -0.0447 -0.2219
  137TMC2    C4 2130   4.391   2.001   9.557  0.1171 -0.1061  0.3711
  137TMC2    C5 2131   4.435   1.970   9.431 -0.0942 -0.2024  0.1088
  137TMC2    C6 2132   4.561   2.000   9.390  0.0790  0.0704  0.6444
  137TMC2     C 2133   4.440   2.091   9.778 -0.7209  0.1958 -0.3267
  137TMC2     O 2134   4.532   2.130   9.847 -0.0833 -0.3787 -0.3045
  137TMC2     H 2135   4.659   2.180   9.655 -1.0224 -0.0504  0.7839
  137TMC2    H1 2136   4.307   1.953   9.607 -0.8000 -0.3178 -1.3795
  137TMC2    H2 2137   4.597   1.963   9.295 -0.1128  0.2550  0.5000
  137TMC2    C7 2138   4.353   1.891   9.343 -0.8315  0.0901 -0.4496
  137TMC2    C8 2139   0.032   2.128   9.428 -0.6088  0.8795 -0.8417
  137TMC2    O1 2140   4.400   1.829   9.255  0.3187 -0.2738  0.0843
  137TMC2    O2 2141   0.095   2.071   9.339  0.4546 -0.6521 -0.2623
  137TMC2    O5 2142   0.068   2.237   9.497 -0.5192  0.3509  0.0478
  137TMC2    H5 2143   0.007   2.282   9.560 -0.2457 -0.7598  1.1035
  138MPD2     C 2144   4.122   2.057   9.953 -0.1187  0.2238  0.3445
  138MPD2    C1 2145   4.261   2.060   9.933 -0.5028  0.6835 -0.5323
  138MPD2    C2 2146   4.342   2.044  10.044  0.4305 -0.1170 -0.4752
  138MPD2    C3 2147   4.286   2.027  10.170  0.5857  0.0821 -0.6243
  138MPD2    C4 2148   4.148   2.043  10.191  0.5711 -0.3245  0.8638
  138MPD2    C5 2149   4.072   2.061  10.079  0.0933 -0.0610  0.5185
  138MPD2     H 2150   4.450   2.044  10.040  0.4131 -0.9286 -0.8360
  138MPD2    H1 2151   4.089   2.040  10.282 -2.4169 -0.4936 -1.0843
  138MPD2    H2 2152   4.061   2.067   9.864  0.3802  1.8292  0.1706
  138MPD2    H3 2153   3.964   2.071  10.085  0.0510 -1.5805  2.4968
  138MPD2     N 2154   4.374   1.990  10.271  0.2064 -0.1185  0.0286
  138MPD2    H5 2155   4.473   1.995  10.248  0.0488  0.5857 -0.4980
  138MPD2    N1 2156   4.309   2.078   9.812 -0.2326  0.3731 -0.3594
  138MPD2    H7 2157   4.241   2.060   9.739 -1.6211 -0.3919  1.1158
  139TMC2    C1 2158   0.236   0.616  13.741 -0.7646  0.1585 -0.1921
  139TMC2    C2 2159   0.299   0.734  13.772 -0.0698 -0.0447 -0.1204
  139TMC2    C3 2160   0.285   0.845  13.688  0.4263 -0.2671  0.2333
  139TMC2    C4 2161   0.161   0.609  13.625 -0.6687 -0.3771  0.0913
  139TMC2    C5 2162   0.164   0.713  13.538 -0.0289  0.1153  0.0615
  139TMC2    C6 2163   0.238   0.832  13.564  0.3891 -0.1852 -0.4231
  139TMC2     C 2164   0.261   0.500  13.825  0.3630 -0.3232  0.2648
  139TMC2     O 2165   0.365   0.488  13.890  0.0714 -0.1100 -0.1274
  139TMC2     H 2166   0.362   0.734  13.860 -0.8599 -0.4791  0.4516
  139TMC2    H1 2167   0.113   0.516  13.595  0.2022 -0.4368 -1.1297
  139TMC2    H2 2168   0.234   0.915  13.495  1.8971  1.5180  1.5488
  139TMC2    C7 2169   0.038   0.747  13.494  0.2918  0.2630  0.3219
  139TMC2    C8 2170   0.381   0.952  13.704  0.0180  0.5337 -0.7409
  139TMC2    O1 2171   4.691   0.658  13.524 -0.1857 -0.3643 -0.2629
  139TMC2    O2 2172   0.405   1.032  13.621  0.3887 -0.6279 -0.9220
  139TMC2    O5 2173   0.371   0.993  13.837  0.5918 -0.1280  0.3209
  139TMC2    H5 2174   0.338   0.934  13.908  0.4143  0.2341  0.5357
  140MPD2     C 2175   0.075   0.187  13.791  0.5235 -1.3493 -0.5622
  140MPD2    C1 2176   0.186   0.265  13.812  0.5083  0.4298 -1.0149
  140MPD2    C2 2177   0.305   0.212  13.842  0.0101 -0.5025 -0.2602
  140MPD2    C3 2178   0.317   0.079  13.865 -0.3187  0.0039 -0.4448
  140MPD2    C4 2179   0.207   4.735  13.854 -0.3964  1.1193 -0.1816
  140MPD2    C5 2180   0.089   0.052  13.815  0.0637  0.2204  0.1644
  140MPD2     H 2181   0.393   0.267  13.876 -1.9438  2.4255  0.0512
  140MPD2    H1 2182   0.202   4.631  13.884 -0.5526  1.1370 -0.1442
  140MPD2    H2 2183   4.713   0.213  13.758 -0.6999  2.0665  5.8556
  140MPD2    H3 2184   0.007   4.720  13.797  1.0017 -1.1488  1.1163
  140MPD2     N 2185   0.447   0.034  13.901  0.3002  0.0166  0.4306
  140MPD2    H5 2186   0.520   0.104  13.888 -0.4312  0.9096  1.2110
  140MPD2    N1 2187   0.168   0.401  13.790 -0.2364 -0.3275  0.3834
  140MPD2    H7 2188   0.074   0.426  13.763  0.8204  0.5530 -2.4306
  141TMC2    C1 2189   0.543   1.600  14.458 -0.7514  1.1529  0.2877
  141TMC2    C2 2190   0.483   1.484  14.496 -0.5180 -0.1418  0.2092
  141TMC2    C3 2191   0.524   1.445  14.619 -1.0771 -0.2822  0.1437
  141TMC2    C4 2192   0.635   1.667  14.530  0.3832  0.4453  0.2154
  141TMC2    C5 2193   0.654   1.626  14.661  0.5898  0.5504 -0.2095
  141TMC2    C6 2194   0.603   1.516  14.707  0.6147 -0.2742 -0.3938
  141TMC2     C 2195   0.524   1.650  14.321  0.6114  0.4844 -1.0857
  141TMC2     O 2196   0.592   1.747  14.281 -0.6733 -0.0624  0.4384
  141TMC2     H 2197   0.397   1.440  14.447  0.0791 -1.0454 -0.0413
  141TMC2    H1 2198   0.675   1.759  14.491 -0.3952  0.4890 -0.4796
  141TMC2    H2 2199   0.613   1.481  14.809 -1.6768 -1.0911 -0.4333
  141TMC2    C7 2200   0.734   1.705  14.755 -0.3762 -0.2182  0.2709
  141TMC2    C8 2201   0.457   1.330  14.678  0.6274 -0.0534 -0.0892
  141TMC2    O1 2202   0.722   1.672  14.875 -0.6596 -0.2811  0.1340
  141TMC2    O2 2203   0.404   1.322  14.790 -0.3512  0.2934  0.1968
  141TMC2    O5 2204   0.448   1.239  14.577  0.6908  0.7949  0.3166
  141TMC2    H5 2205   0.502   1.247  14.495 -0.6508 -0.3610 -0.6880
  142TMC2    C1 2206   3.052   0.249  10.251 -0.1614  0.1291  0.5666
  142TMC2    C2 2207   3.092   0.236  10.120  0.2974 -0.4067  0.3809
  142TMC2    C3 2208   3.163   0.336  10.057 -0.2094 -0.9438  0.3310
  142TMC2    C4 2209   3.095   0.357  10.328 -0.1846  0.7559  0.1860
  142TMC2    C5 2210   3.184   0.447  10.265  0.2959 -0.0061 -0.4247
  142TMC2    C6 2211   3.213   0.444  10.130  0.3062  0.1397  0.1464
  142TMC2     C 2212   2.958   0.147  10.307 -0.7383  0.4891 -0.4422
  142TMC2     O 2213   2.940   0.047  10.239 -0.5708 -0.4656 -0.9810
  142TMC2     H 2214   3.048   0.154  10.064 -1.4182  0.6171  0.2293
  142TMC2    H1 2215   3.054   0.373  10.426  1.9203 -1.3428  1.4146
  142TMC2    H2 2216   3.279   0.517  10.085  1.2842 -0.3747  0.7635
  142TMC2    C7 2217   3.252   0.550  10.350 -0.0333 -0.1634  0.6965
  142TMC2    C8 2218   3.114   0.357   9.918  0.3680 -0.2219  0.6353
  142TMC2    O1 2219   3.191   0.567  10.454  0.0822  0.3701 -0.5058
  142TMC2    O2 2220   3.005   0.310   9.891  0.0784 -0.5695 -0.0785
  142TMC2    O5 2221   3.149   0.479   9.882  0.0396 -0.0056 -0.1933
  142TMC2    H5 2222   3.243   0.499   9.902  1.0123 -3.8470 -0.7565
  143MPD2     C 2223   2.729   4.633  10.698 -0.6944 -0.0613  0.1303
  143MPD2    C1 2224   2.736   4.603  10.567 -0.1981  0.9581 -0.3102
  143MPD2    C2 2225   2.808   4.683  10.482  0.9114  0.2949 -0.5553
  143MPD2    C3 2226   2.872   0.060  10.530  0.3391  0.2179 -0.2769
  143MPD2    C4 2227   2.869   0.087  10.664 -0.6460  0.7626 -0.4908
  143MPD2    C5 2228   2.802   4.735  10.747  1.0387 -1.1128 -0.6937
  143MPD2     H 2229   2.790   4.661  10.377 -0.6238  0.9705 -0.4303
  143MPD2    H1 2230   2.908   0.174  10.715  0.8226 -0.1829 -0.0042
  143MPD2    H2 2231   2.667   4.575  10.765  0.8898  0.3812  1.9701
  143MPD2    H3 2232   2.802   0.027  10.851  2.0894  2.4087 -1.6692
  143MPD2     N 2233   2.938   0.156  10.442 -0.3496  0.2049 -0.4216
  143MPD2    H5 2234   2.978   0.238  10.486 -0.8052  0.3390 -0.2534
  143MPD2    N1 2235   2.662   4.485  10.518  0.0528 -0.4811 -0.3046
  143MPD2    H7 2236   2.621   4.425  10.589 -0.8944 -1.4210 -1.6547
  144TMC2    C1 2237   1.435   4.061   1.683  0.3052  0.4182 -0.3457
  144TMC2    C2 2238   1.551   3.984   1.705  0.1069  0.1124 -0.1262
  144TMC2    C3 2239   1.575   3.941   1.830  0.5915 -0.4169  0.0546
  144TMC2    C4 2240   1.352   4.090   1.786 -0.0125 -0.5776 -0.0432
  144TMC2    C5 2241   1.396   4.062   1.907  0.2412  0.2387  0.7657
  144TMC2    C6 2242   1.501   3.980   1.934  0.5052 -0.1200  0.0136
  144TMC2     C 2243   1.400   4.092   1.539  0.2262  0.6864  0.1044
  144TMC2     O 2244   1.475   4.046   1.453  0.0794  0.4928 -0.3338
  144TMC2     H 2245   1.605   3.956   1.615  0.2689  0.2638 -0.0755
  144TMC2    H1 2246   1.254   4.132   1.767  0.0371 -1.1060 -1.5184
  144TMC2    H2 2247   1.531   3.953   2.035  0.7184 -2.6129 -0.7099
  144TMC2    C7 2248   1.332   4.119   2.024 -0.3780 -0.7716 -0.2085
  144TMC2    C8 2249   1.713   3.926   1.876 -0.0234 -0.8057 -0.1302
  144TMC2    O1 2250   1.319   4.048   2.123  0.0301 -0.1277  0.7215
  144TMC2    O2 2251   1.755   3.954   1.985 -0.2575  0.7158  0.0731
  144TMC2    O5 2252   1.793   3.908   1.768  0.5598 -0.0995 -0.9974
  144TMC2    H5 2253   1.740   3.874   1.692 -2.6230 -0.4219  1.3684
  145MPD2     C 2254   1.170   4.353   1.158 -0.3416 -0.9083 -0.2770
  145MPD2    C1 2255   1.253   4.239   1.162 -0.2152 -0.9970 -0.1708
  145MPD2    C2 2256   1.289   4.175   1.280 -0.0759 -0.6220 -0.0393
  145MPD2    C3 2257   1.261   4.234   1.398 -0.3056 -0.2740 -0.2611
  145MPD2    C4 2258   1.179   4.342   1.399 -0.0960  0.1989  0.5046
  145MPD2    C5 2259   1.131   4.402   1.281 -0.4858  0.3141  0.6064
  145MPD2     H 2260   1.347   4.083   1.273  1.0039  0.1511 -1.2153
  145MPD2    H1 2261   1.147   4.391   1.490 -0.4271 -0.5523  0.7892
  145MPD2    H2 2262   1.128   4.402   1.071 -1.2624  0.4476  0.9347
  145MPD2    H3 2263   1.060   4.484   1.274 -1.8143 -1.0611 -1.8150
  145MPD2     N 2264   1.301   4.185   1.530  0.1589 -0.6271  0.1370
  145MPD2    H5 2265   1.262   4.233   1.610 -2.1994  1.1745 -2.0707
  145MPD2    N1 2266   1.309   4.186   1.045 -0.1124 -0.3516  0.9039
  145MPD2    H7 2267   1.377   4.111   1.055 -1.1927 -1.1188  2.4690
  146TMC2    C1 2268   2.164   3.128  13.409 -0.1467  0.1068 -0.9067
  146TMC2    C2 2269   2.091   3.225  13.468  0.1709  0.7421  0.0472
  146TMC2    C3 2270   1.976   3.258  13.399  0.0053  0.1340  0.4097
  146TMC2    C4 2271   2.130   3.061  13.287  0.5194  0.7192 -0.6532
  146TMC2    C5 2272   2.014   3.110  13.223  0.0468 -0.1256 -0.0812
  146TMC2    C6 2273   1.929   3.200  13.281  0.0967  1.1935 -0.3362
  146TMC2     C 2274   2.303   3.108  13.449  0.2917 -0.0220  0.0821
  146TMC2     O 2275   2.339   3.203  13.514 -0.3829 -0.0883 -0.2582
  146TMC2     H 2276   2.131   3.290  13.544  0.8233 -0.2866  0.5877
  146TMC2    H1 2277   2.199   2.997  13.232  1.8349 -0.2973  2.1808
  146TMC2    H2 2278   1.836   3.232  13.235 -1.2907  0.7674  2.1878
  146TMC2    C7 2279   1.972   3.061  13.098  0.4144 -0.2553  0.2685
  146TMC2    C8 2280   1.946   3.402  13.411  0.1085 -0.5677  0.0797
  146TMC2    O1 2281   1.899   3.129  13.032 -0.1936 -0.0707 -0.2603
  146TMC2    O2 2282   1.943   3.474  13.310 -0.5918  0.1712 -0.0893
  146TMC2    O5 2283   1.899   3.428  13.529  0.2624  0.4356 -0.2856
  146TMC2    H5 2284   1.913   3.355  13.592 -1.9208 -0.6073 -1.0168
  147MPD2     C 2285   1.987   2.725  12.716 -0.5404  0.5913  0.4545
  147MPD2    C1 2286   2.050   2.661  12.826 -0.6328  0.3509 -0.2331
  147MPD2    C2 2287   2.060   2.735  12.944  0.6215 -0.3199  0.3396
  147MPD2    C3 2288   2.016   2.869  12.946 -0.4319  1.1416 -0.4979
  147MPD2    C4 2289   1.957   2.927  12.831 -0.0199  0.8884 -0.1785
  147MPD2    C5 2290   1.937   2.857  12.714 -0.4662  0.1656 -0.4304
  147MPD2     H 2291   2.099   2.686  13.032 -2.3009 -1.9322  0.7445
  147MPD2    H1 2292   1.913   3.026  12.825 -0.8007  0.5502  0.0323
  147MPD2    H2 2293   1.986   2.666  12.625  3.2321  0.6896  0.3615
  147MPD2    H3 2294   1.885   2.891  12.625 -2.3780  1.5355  1.1907
  147MPD2     N 2295   2.024   2.934  13.070  0.1229 -0.0358 -0.0827
  147MPD2    H5 2296   2.079   2.885  13.140 -2.2000 -0.9422  1.1281
  147MPD2    N1 2297   2.075   2.519  12.802 -0.0627  0.1910 -0.3488
  147MPD2    H7 2298   2.033   2.477  12.720  0.2596 -1.9871  0.5801
  148TMC2    C1 2299   2.746   1.603  10.742 -0.2610 -0.9404  1.0037
  148TMC2    C2 2300   2.772   1.652  10.871 -0.4425  0.2127  1.0387
  148TMC2    C3 2301   2.863   1.593  10.939  0.0880  0.2468 -0.6775
  148TMC2    C4 2302   2.832   1.517  10.676 -0.0236 -0.4032 -0.4828
  148TMC2    C5 2303   2.929   1.459  10.750  0.3089 -0.3855  0.1650
  148TMC2    C6 2304   2.942   1.492  10.886 -0.1846  0.1238 -0.4287
  148TMC2     C 2305   2.619   1.640  10.690 -0.1303  0.2494  0.2206
  148TMC2     O 2306   2.571   1.749  10.729  0.4294  0.7500 -0.4996
  148TMC2     H 2307   2.711   1.726  10.921 -0.9838  0.1968  0.3993
  148TMC2    H1 2308   2.820   1.472  10.578  1.3157  1.7198 -1.6290
  148TMC2    H2 2309   3.007   1.428  10.944  1.2170  1.8857 -0.0651
  148TMC2    C7 2310   2.940   1.321  10.715 -0.1425  0.2813  0.5874
  148TMC2    C8 2311   2.920   1.656  11.057 -0.5202 -0.6889 -0.0254
  148TMC2    O1 2312   2.864   1.246  10.775  0.1537  0.0539 -0.3846
  148TMC2    O2 2313   2.991   1.592  11.132 -0.6321  0.3247 -0.0292
  148TMC2    O5 2314   2.955   1.779  11.020  0.0751  0.1770 -0.3486
  148TMC2    H5 2315   2.870   1.817  10.988 -0.5408 -0.8211  0.1233
  149MPD2     C 2316   2.364   1.651  10.524  0.3685  0.7601  0.0804
  149MPD2    C1 2317   2.445   1.540  10.536  0.1060 -0.0083  0.1828
  149MPD2    C2 2318   2.397   1.418  10.475  0.9995 -0.5002 -0.5071
  149MPD2    C3 2319   2.278   1.419  10.410 -0.1077 -0.0181 -0.1912
  149MPD2    C4 2320   2.204   1.532  10.400 -0.1094  0.0437 -0.4676
  149MPD2    C5 2321   2.248   1.643  10.460 -0.4187 -0.3445  0.6236
  149MPD2     H 2322   2.456   1.327  10.479  1.6010 -0.2370 -3.2818
  149MPD2    H1 2323   2.104   1.523  10.360  0.3953  0.5944 -1.8575
  149MPD2    H2 2324   2.388   1.748  10.565 -1.1632  0.4640  1.7080
  149MPD2    H3 2325   2.188   1.733  10.453  2.3513  1.5604  1.6262
  149MPD2     N 2326   2.220   1.299  10.357  0.1033  0.4681 -0.5282
  149MPD2    H5 2327   2.131   1.300  10.309 -0.8087 -0.9570  1.1158
  149MPD2    N1 2328   2.572   1.538  10.605 -0.2082 -0.9703 -0.1803
  149MPD2    H7 2329   2.619   1.448  10.606  1.2815 -0.1932  0.1124
  150TMC2    C1 2330   4.297   1.113  12.314  0.1222 -0.0008  0.3402
  150TMC2    C2 2331   4.261   1.235  12.256  0.5963 -0.6215  0.1807
  150TMC2    C3 2332   4.358   1.303  12.191  0.0045  0.8296  0.0173
  150TMC2    C4 2333   4.421   1.064  12.306 -0.2977  0.0518 -0.0023
  150TMC2    C5 2334   4.510   1.134  12.231  0.1210 -0.2360  0.5255
  150TMC2    C6 2335   4.479   1.251  12.168 -0.3914  0.1562 -0.9640
  150TMC2     C 2336   4.199   1.012  12.349  1.0294 -0.6548  0.1668
  150TMC2     O 2337   4.230   0.920  12.419  0.1703  0.1292  0.5203
  150TMC2     H 2338   4.163   1.281  12.264  0.4787 -0.8246 -0.1224
  150TMC2    H1 2339   4.445   0.966  12.346  2.3872  0.4514 -0.6028
  150TMC2    H2 2340   4.545   1.314  12.110  0.2673 -0.8699 -1.3146
  150TMC2    C7 2341   4.643   1.096  12.210  0.8127 -0.7071 -0.1406
  150TMC2    C8 2342   4.320   1.403  12.098  0.0869  0.0409  0.1745
  150TMC2    O1 2343   4.712   1.184  12.161  0.4116  0.4633  0.4064
  150TMC2    O2 2344   4.292   1.382  11.981  0.4704 -0.1600 -0.5331
  150TMC2    O5 2345   4.253   1.492  12.176 -0.2295  0.2475 -0.3162
  150TMC2    H5 2346   4.297   1.502  12.264 -0.9044 -1.8684  0.2393
  151MPD2     C 2347   3.813   0.702  12.240  0.8861  0.8906 -0.0537
  151MPD2    C1 2348   3.829   0.793  12.132 -0.1773 -0.1621 -1.1256
  151MPD2    C2 2349   3.917   0.903  12.144  0.2690  0.1055  0.8337
  151MPD2    C3 2350   3.987   0.914  12.262 -0.0575 -0.0909 -0.0809
  151MPD2    C4 2351   3.966   0.825  12.369 -0.0962 -0.7167  0.0864
  151MPD2    C5 2352   3.877   0.720  12.359  0.6043 -0.1422  0.1973
  151MPD2     H 2353   3.937   0.976  12.066 -2.9452 -1.7914 -1.7970
  151MPD2    H1 2354   4.009   0.845  12.466  1.6164 -1.0513 -0.5958
  151MPD2    H2 2355   3.736   0.627  12.224  0.0913  1.6828  0.0992
  151MPD2    H3 2356   3.861   0.650  12.441  0.3403 -0.2183  0.0807
  151MPD2     N 2357   4.083   1.022  12.274 -0.6459 -0.9007 -0.1053
  151MPD2    H5 2358   4.084   1.101  12.211 -0.1014 -1.7167 -1.1325
  151MPD2    N1 2359   3.754   0.765  12.014 -0.3789 -0.2910 -0.4543
  151MPD2    H7 2360   3.709   0.674  12.020  0.3294 -0.5658  0.7202
  152TMC2    C1 2361   4.515   0.496  13.078 -0.7373 -0.4386  0.4220
  152TMC2    C2 2362   4.578   0.386  13.123 -0.0190  0.1058  0.1333
  152TMC2    C3 2363   4.711   0.381  13.116 -0.8507  0.4822 -0.8796
  152TMC2    C4 2364   4.584   0.610  13.035  0.1288  0.0324 -0.4014
  152TMC2    C5 2365   4.725   0.603  13.040 -0.1148 -0.3903  0.2998
  152TMC2    C6 2366   0.051   0.481  13.069  0.6504  0.1979  0.3115
  152TMC2     C 2367   4.371   0.502  13.069  0.1349  0.0152  0.1523
  152TMC2     O 2368   4.321   0.613  13.052 -0.2665 -0.0698 -0.1810
  152TMC2     H 2369   4.523   0.305  13.169 -0.2132 -0.7475 -1.5862
  152TMC2    H1 2370   4.535   0.705  13.016 -1.0131 -0.2997  0.9018
  152TMC2    H2 2371   0.150   0.469  13.112  0.9405  0.1591 -0.3670
  152TMC2    C7 2372   0.055   0.681  12.939  0.4865 -1.0602 -0.2179
  152TMC2    C8 2373   0.029   0.289  13.213 -0.2000  0.1509  0.0986
  152TMC2    O1 2374   4.735   0.774  12.881 -0.4452 -0.4812  0.1820
  152TMC2    O2 2375   4.723   0.285  13.326 -0.0479  0.1077  0.1449
  152TMC2    O5 2376   0.156   0.243  13.175  0.0591 -0.2886  0.3746
  152TMC2    H5 2377   0.169   0.260  13.079 -2.6106 -0.2157  0.0254
  153MPD2     C 2378   4.118   0.245  13.106 -0.1002  0.3008  0.0380
  153MPD2    C1 2379   4.169   0.364  13.063 -0.4738  0.3648 -0.3025
  153MPD2    C2 2380   4.084   0.454  13.007  0.3782 -0.3787  0.2592
  153MPD2    C3 2381   3.953   0.435  12.998 -0.6314 -0.4445 -0.4761
  153MPD2    C4 2382   3.898   0.324  13.052 -0.1324  0.4086  0.0148
  153MPD2    C5 2383   3.983   0.230  13.113 -0.0953  0.2583 -0.5405
  153MPD2     H 2384   4.126   0.541  12.958 -0.5770  1.1431  2.1753
  153MPD2    H1 2385   3.793   0.299  13.051  0.5403 -2.3545 -1.2039
  153MPD2    H2 2386   4.181   0.161  13.132 -0.6553 -0.4383 -1.0056
  153MPD2    H3 2387   3.942   0.140  13.158 -0.8650  0.4501 -0.8566
  153MPD2     N 2388   3.880   0.533  12.921 -0.3586  0.1791 -0.6187
  153MPD2    H5 2389   3.936   0.613  12.894 -0.2566  0.3444  0.1030
  153MPD2    N1 2390   4.308   0.381  13.079 -0.3580 -0.3389  0.0799
  153MPD2    H7 2391   4.358   0.304  13.122  1.1651  0.7270  0.1932
  154TMC2    C1 2392   1.643   0.401   1.104  0.1238 -0.8482 -0.1446
  154TMC2    C2 2393   1.671   0.450   1.230 -0.4185 -0.0655 -0.0349
  154TMC2    C3 2394   1.744   0.373   1.318  0.0223  0.8426 -0.3678
  154TMC2    C4 2395   1.688   0.275   1.066 -0.0339  0.1561 -0.1792
  154TMC2    C5 2396   1.756   0.201   1.162  0.9193  0.0642  0.8337
  154TMC2    C6 2397   1.783   0.251   1.285 -1.0124 -0.2144 -0.5401
  154TMC2     C 2398   1.581   0.499   1.018 -0.0645  0.0516  0.2040
  154TMC2     O 2399   1.510   0.584   1.074  0.5876 -0.0726 -0.2874
  154TMC2     H 2400   1.630   0.544   1.265 -1.0980 -0.7335  0.9722
  154TMC2    H1 2401   1.659   0.241   0.967  2.5004 -1.5948 -0.3398
  154TMC2    H2 2402   1.842   0.202   1.362 -0.0844  2.1274  0.2199
  154TMC2    C7 2403   1.822   0.074   1.131 -0.0783  0.5509  0.3756
  154TMC2    C8 2404   1.756   0.419   1.456  0.1803 -0.9276 -0.4332
  154TMC2    O1 2405   1.879   0.021   1.227  0.2972 -0.3759 -0.3623
  154TMC2    O2 2406   1.855   0.409   1.527 -0.2471  0.3286 -0.1532
  154TMC2    O5 2407   1.623   0.425   1.495 -0.2877  0.6604 -0.5257
  154TMC2    H5 2408   1.567   0.425   1.415  1.4114  0.3010 -1.7249
  155MPD2     C 2409   1.552   0.477   0.654  0.2754 -0.1448  0.2159
  155MPD2    C1 2410   1.522   0.528   0.779  0.3375 -0.3386 -0.4688
  155MPD2    C2 2411   1.439   0.637   0.781  0.5929 -0.1555  0.4582
  155MPD2    C3 2412   1.390   0.695   0.666 -0.6466 -0.1991  0.2361
  155MPD2    C4 2413   1.422   0.638   0.543  0.4322 -0.3692 -0.8636
  155MPD2    C5 2414   1.499   0.529   0.537 -0.3573  0.0338  0.4752
  155MPD2     H 2415   1.423   0.676   0.881  1.8189 -0.2673  0.6960
  155MPD2    H1 2416   1.376   0.680   0.454  0.9158 -0.1914 -1.0308
  155MPD2    H2 2417   1.635   0.408   0.641  0.2614 -0.5978  2.6784
  155MPD2    H3 2418   1.524   0.477   0.445 -2.1043 -1.0298  0.6116
  155MPD2     N 2419   1.311   0.815   0.674 -0.5444 -0.0672  0.5434
  155MPD2    H5 2420   1.289   0.847   0.767 -0.4537 -1.2111  0.9617
  155MPD2    N1 2421   1.590   0.464   0.889  0.0605 -0.2201  0.4882
  155MPD2    H7 2422   1.659   0.391   0.873  1.4088  1.1217  0.1253
  156TMC2    C1 2423   4.568   2.400  11.436  0.8951 -0.5979  0.1255
  156TMC2    C2 2424   4.677   2.391  11.358  0.4062  0.0079  0.4326
  156TMC2    C3 2425   4.647   2.408  11.228 -0.4078 -0.3907  0.0596
  156TMC2    C4 2426   4.438   2.441  11.397 -0.1904  0.3932  0.1787
  156TMC2    C5 2427   4.419   2.459  11.268  0.7198  0.0962  0.2708
  156TMC2    C6 2428   4.528   2.449  11.181  0.0936 -0.6736  0.0609
  156TMC2     C 2429   4.596   2.440  11.569  0.0611  0.0234 -0.1501
  156TMC2     O 2430   4.495   2.446  11.637 -0.0217 -0.4166  0.8061
  156TMC2     H 2431   0.042   2.370  11.388  0.9955 -1.7778 -2.8944
  156TMC2    H1 2432   4.358   2.457  11.469  0.4934 -1.0961  1.2616
  156TMC2    H2 2433   4.508   2.477  11.078  2.2828 -1.6136 -0.6032
  156TMC2    C7 2434   4.324   2.562  11.229 -0.3104 -0.0513 -0.6721
  156TMC2    C8 2435   0.015   2.404  11.130  0.1107  0.2180 -0.6091
  156TMC2    O1 2436   4.369   2.658  11.165  0.1376  0.4442 -0.1083
  156TMC2    O2 2437   4.730   2.370  11.011  0.3144  0.4914  0.1735
  156TMC2    O5 2438   0.122   2.462  11.175 -0.5316 -0.0422 -0.7278
  156TMC2    H5 2439   0.129   2.474  11.272 -1.2970 -3.4739 -0.2378
  157MPD2     C 2440   0.169   2.518  11.744  0.0309  0.1286  0.1342
  157MPD2    C1 2441   0.031   2.527  11.710  0.4287 -0.1610  0.7859
  157MPD2    C2 2442   4.678   2.600  11.790 -0.1922  0.2256 -0.3465
  157MPD2    C3 2443   4.723   2.651  11.914 -0.3328 -0.6221 -0.6325
  157MPD2    C4 2444   0.120   2.640  11.944 -0.1765 -0.4992  0.7105
  157MPD2    C5 2445   0.205   2.567  11.869  0.7097 -0.4463 -0.7486
  157MPD2     H 2446   4.579   2.623  11.752  0.2332  2.2043 -0.2151
  157MPD2    H1 2447   0.173   2.683  12.029  0.4277  1.2481 -0.5498
  157MPD2    H2 2448   0.244   2.467  11.685 -0.5260  2.1651 -2.3352
  157MPD2    H3 2449   0.304   2.548  11.908  0.2828 -0.7815  0.1683
  157MPD2     N 2450   4.635   2.729  11.984  0.2086 -0.6722 -0.3168
  157MPD2    H5 2451   4.545   2.745  11.940  1.2509  0.2611 -2.0755
  157MPD2    N1 2452   4.730   2.466  11.596  0.4187 -0.5555  0.0868
  157MPD2    H7 2453   0.058   2.459  11.519 -0.0375  2.2269 -0.5336
  158TMC2    C1 2454   4.372   1.894  13.371 -0.2953  0.6614 -0.0356
  158TMC2    C2 2455   4.378   2.017  13.320  0.1587  0.6043 -0.2730
  158TMC2    C3 2456   4.272   2.059  13.247 -0.5683 -0.0173  0.0092
  158TMC2    C4 2457   4.265   1.804  13.347 -0.7133  0.5275  0.8089
  158TMC2    C5 2458   4.161   1.851  13.266  0.1182  0.1699  0.5964
  158TMC2    C6 2459   4.167   1.979  13.213  0.2126 -0.4419  0.3014
  158TMC2     C 2460   4.486   1.862  13.454  0.2498 -0.0511 -0.0142
  158TMC2     O 2461   4.586   1.929  13.427  0.3478 -0.4561 -0.3414
  158TMC2     H 2462   4.463   2.080  13.344 -0.1374  0.8701  0.0734
  158TMC2    H1 2463   4.274   1.702  13.381 -0.0906  0.6282  0.9602
  158TMC2    H2 2464   4.088   2.016  13.149 -0.5158  0.7538  1.8962
  158TMC2    C7 2465   4.042   1.771  13.229  0.8685 -0.1292 -0.6900
  158TMC2    C8 2466   4.251   2.198  13.215  0.2790  0.2093  0.4212
  158TMC2    O1 2467   3.948   1.831  13.179  0.4528  0.4699 -0.0091
  158TMC2    O2 2468   4.134   2.237  13.221  0.0181 -0.4171  0.0748
  158TMC2    O5 2469   4.342   2.223  13.124  0.4574  0.1816 -0.2043
  158TMC2    H5 2470   4.420   2.165  13.137  0.7076  0.6730  0.5097
  159MPD2     C 2471   0.052   1.591  13.774  0.6086  0.2972 -2.1616
  159MPD2    C1 2472   4.662   1.534  13.780 -0.2772 -0.4103  0.1568
  159MPD2    C2 2473   4.558   1.593  13.707 -0.3512 -0.2447 -0.8078
  159MPD2    C3 2474   4.574   1.705  13.622  0.4215  0.2901 -0.1956
  159MPD2    C4 2475   4.706   1.754  13.612 -1.1316  0.1390  0.6707
  159MPD2    C5 2476   0.067   1.698  13.687  0.0436 -0.0507 -0.5055
  159MPD2     H 2477   4.455   1.569  13.731  0.3077  0.0007  2.3581
  159MPD2    H1 2478   0.007   1.834  13.549  1.8606 -0.0441  2.2351
  159MPD2    H2 2479   0.131   1.559  13.841  0.6696 -0.6354 -2.6857
  159MPD2    H3 2480   0.165   1.742  13.698 -0.9463  1.8560  0.8233
  159MPD2     N 2481   4.469   1.757  13.542 -0.3498 -0.0879 -0.4275
  159MPD2    H5 2482   4.383   1.704  13.543 -1.6635  2.0991  1.2894
  159MPD2    N1 2483   4.648   1.424  13.875 -0.6664  1.3272 -0.6459
  159MPD2    H7 2484   4.736   1.391  13.914 -0.3513  0.7820 -1.8380
  160TMC2    C1 2485   4.165   4.357   1.581  1.1610  0.4798 -0.0789
  160TMC2    C2 2486   4.112   4.450   1.669 -0.3789 -0.0389 -0.5167
  160TMC2    C3 2487   4.193   4.536   1.741 -0.4226 -0.2146  0.1010
  160TMC2    C4 2488   4.299   4.357   1.566  0.6493  0.3015  0.0842
  160TMC2    C5 2489   4.375   4.445   1.635  0.3468  1.0190 -0.4242
  160TMC2    C6 2490   4.333   4.539   1.722  0.2500 -0.1063  0.4060
  160TMC2     C 2491   4.084   4.314   1.469 -0.6846 -0.0922 -0.5799
  160TMC2     O 2492   4.109   4.206   1.418 -0.2548 -0.7828  0.0705
  160TMC2     H 2493   4.007   4.442   1.692 -0.1627  0.8683  0.7420
  160TMC2    H1 2494   4.350   4.279   1.510 -1.9634 -1.1186 -0.2972
  160TMC2    H2 2495   4.401   4.596   1.783  0.3869 -0.8892  0.9830
  160TMC2    C7 2496   4.511   4.457   1.593  0.2342  0.3773  0.6658
  160TMC2    C8 2497   4.132   4.605   1.847 -0.2703  0.2216 -0.1224
  160TMC2    O1 2498   4.558   4.359   1.537 -0.1091  0.2061  0.3672
  160TMC2    O2 2499   4.021   4.658   1.844 -0.0749 -0.0524  0.5939
  160TMC2    O5 2500   4.233   4.622   1.935 -0.0101 -0.4959  0.3520
  160TMC2    H5 2501   4.295   4.545   1.934  1.2763  0.5554 -0.7708
  161MPD2     C 2502   3.922   4.334   1.215 -0.2205  0.4523  0.3628
  161MPD2    C1 2503   3.958   4.443   1.293  0.4428 -0.0715 -0.7143
  161MPD2    C2 2504   3.922   4.569   1.243 -0.1049 -0.0192 -0.9419
  161MPD2    C3 2505   3.858   4.591   1.129  0.8347  0.3449  0.3505
  161MPD2    C4 2506   3.828   4.476   1.051  1.2012  0.7481  0.8233
  161MPD2    C5 2507   3.854   4.347   1.100  0.4765 -0.2897 -0.3523
  161MPD2     H 2508   3.951   4.657   1.299  0.6129  0.3230 -1.8371
  161MPD2    H1 2509   3.768   4.487   0.961  3.1482  3.0197 -0.2026
  161MPD2    H2 2510   3.936   4.235   1.256  0.7260  1.1599  1.7478
  161MPD2    H3 2511   3.829   4.262   1.037  0.1074 -0.5432  0.1374
  161MPD2     N 2512   3.827   4.719   1.072 -0.1872 -0.1827  0.3820
  161MPD2    H5 2513   3.791   4.703   0.979 -0.1457 -0.7428  0.4624
  161MPD2    N1 2514   4.025   4.430   1.421  0.2535 -0.6822  0.3010
  161MPD2    H7 2515   4.052   4.516   1.467  0.9192 -1.4956  1.4024
  162TMC2    C1 2516   2.439   2.082   1.392 -0.0559  0.0738 -0.5702
  162TMC2    C2 2517   2.308   2.122   1.390 -0.7291  0.5972 -0.2865
  162TMC2    C3 2518   2.245   2.155   1.501 -0.1784 -0.0784 -0.2382
  162TMC2    C4 2519   2.502   2.064   1.509  0.6068 -0.2218 -0.4295
  162TMC2    C5 2520   2.431   2.097   1.626 -0.0863  0.0264  0.3177
  162TMC2    C6 2521   2.306   2.134   1.622  0.4414  0.2682 -0.1930
  162TMC2     C 2522   2.490   2.029   1.262  1.3014 -0.2795 -0.2646
  162TMC2     O 2523   2.449   2.085   1.161 -0.0828  0.0093 -0.0026
  162TMC2     H 2524   2.261   2.125   1.292  3.3078 -3.0628 -2.3254
  162TMC2    H1 2525   2.602   2.024   1.521  0.5506 -0.4992 -0.8545
  162TMC2    H2 2526   2.247   2.134   1.713  2.8617 -1.8051  1.3649
  162TMC2    C7 2527   2.474   2.064   1.759 -0.1194 -0.0655 -0.0671
  162TMC2    C8 2528   2.102   2.157   1.486 -0.1587  0.9289  0.0511
  162TMC2    O1 2529   2.430   2.137   1.841  0.0907  0.4083  0.0783
  162TMC2    O2 2530   2.035   2.112   1.394  0.3554 -0.2355  0.0400
  162TMC2    O5 2531   2.046   2.191   1.601  0.3455  0.2129 -0.2057
  162TMC2    H5 2532   2.116   2.240   1.649 -0.9489  0.8908  1.0281
  163MPD2     C 2533   2.805   1.715   0.994 -0.4758 -0.5486 -0.3885
  163MPD2    C1 2534   2.716   1.818   0.955 -0.2810 -0.6749  0.3840
  163MPD2    C2 2535   2.647   1.892   1.049 -0.5699  0.4417  0.1591
  163MPD2    C3 2536   2.667   1.875   1.183  0.6567 -0.1446  0.2161
  163MPD2    C4 2537   2.761   1.778   1.219  0.0027  0.2811 -0.2435
  163MPD2    C5 2538   2.830   1.702   1.127 -0.3277 -0.0874 -0.2533
  163MPD2     H 2539   2.562   1.950   1.013 -1.0121 -0.2691  0.0579
  163MPD2    H1 2540   2.769   1.748   1.323 -1.4888  0.1717 -0.1562
  163MPD2    H2 2541   2.857   1.652   0.923  0.5052  0.1033 -0.2587
  163MPD2    H3 2542   2.899   1.625   1.160  0.2654  1.3965  1.9158
  163MPD2     N 2543   2.587   1.931   1.284  0.7893 -0.1063  0.8235
  163MPD2    H5 2544   2.580   1.890   1.376 -0.5475 -0.5796  0.5049
  163MPD2    N1 2545   2.679   1.813   0.820  0.2078  0.5821  0.2543
  163MPD2    H7 2546   2.724   1.738   0.768 -0.8793  0.2496 -0.2086
  164TMC2    C1 2547   2.995   1.197  11.456  0.2286  0.0757  1.3533
  164TMC2    C2 2548   3.103   1.267  11.416  0.1514  0.6290 -0.2137
  164TMC2    C3 2549   3.099   1.404  11.379  0.7181  0.8971  0.4324
  164TMC2    C4 2550   2.876   1.267  11.467  0.1522  0.9211  0.7356
  164TMC2    C5 2551   2.872   1.397  11.433  0.4761  0.5509 -0.5983
  164TMC2    C6 2552   2.976   1.467  11.380 -0.5408  0.1056  0.2319
  164TMC2     C 2553   2.998   1.059  11.431 -0.8389  0.1645  0.5488
  164TMC2     O 2554   2.904   0.995  11.475 -0.1788 -0.2061  0.3067
  164TMC2     H 2555   3.204   1.226  11.409 -0.4191 -1.3716  3.3095
  164TMC2    H1 2556   2.785   1.211  11.484 -0.3691  1.2155 -1.1821
  164TMC2    H2 2557   2.968   1.575  11.372  0.3780  0.1268 -0.3992
  164TMC2    C7 2558   2.747   1.465  11.429  0.1703  0.5105 -0.1581
  164TMC2    C8 2559   3.225   1.469  11.357  0.1487 -0.9629  0.3625
  164TMC2    O1 2560   2.710   1.504  11.315  0.4800  0.0257  0.2545
  164TMC2    O2 2561   3.329   1.442  11.412 -0.2643  0.7932 -0.2374
  164TMC2    O5 2562   3.194   1.593  11.314 -0.7772 -0.3692  0.1895
  164TMC2    H5 2563   3.106   1.604  11.273 -0.4195  1.1734 -0.1744
  165TMC2    C1 2564   3.989   3.864   1.145  0.0479 -0.4679 -0.1106
  165TMC2    C2 2565   4.004   3.743   1.088  1.0367 -0.7919  0.1379
  165TMC2    C3 2566   4.108   3.669   1.123 -0.1653  0.4582  0.1281
  165TMC2    C4 2567   4.068   3.908   1.248  0.1794 -0.1273 -0.0545
  165TMC2    C5 2568   4.168   3.824   1.290  0.0819  0.7613  0.1623
  165TMC2    C6 2569   4.188   3.702   1.229 -0.0708  0.4208 -0.4268
  165TMC2     C 2570   3.876   3.944   1.108 -0.4291 -0.3912  0.1152
  165TMC2     O 2571   3.820   4.006   1.196  0.6362 -0.7326 -0.8145
  165TMC2     H 2572   3.931   3.704   1.017 -1.4644  1.2647  1.5644
  165TMC2    H1 2573   4.064   4.011   1.281  0.1521  0.3470 -1.5232
  165TMC2    H2 2574   4.273   3.641   1.255 -0.8432 -0.6980 -0.5151
  165TMC2    C7 2575   4.282   3.867   1.368  0.5081  0.3232  0.2128
  165TMC2    C8 2576   4.122   3.544   1.060  0.4929 -0.1798 -0.0155
  165TMC2    O1 2577   4.377   3.788   1.378  0.5270  0.6682  0.1644
  165TMC2    O2 2578   4.021   3.492   1.012 -0.2894 -0.5791  0.4932
  165TMC2    O5 2579   4.249   3.507   1.050  0.2197 -0.1151 -0.8343
  165TMC2    H5 2580   4.300   3.586   1.077 -1.2689  1.1844 -1.8089
  166MPD2     C 2581   3.494   4.079   0.784 -0.1153 -0.4446  0.7634
  166MPD2    C1 2582   3.499   4.081   0.918 -0.0242  0.8609  0.2751
  166MPD2    C2 2583   3.620   4.040   0.984 -0.2952 -0.7330 -0.6829
  166MPD2    C3 2584   3.727   3.978   0.920  0.0567 -0.5491 -0.6525
  166MPD2    C4 2585   3.712   3.972   0.785 -0.0967 -0.5364 -0.2136
  166MPD2    C5 2586   3.602   4.028   0.717  0.1634 -0.4883 -0.1216
  166MPD2     H 2587   3.624   4.037   1.092  3.4059 -0.1352 -0.7957
  166MPD2    H1 2588   3.794   3.942   0.720 -1.7970 -1.6055 -1.8524
  166MPD2    H2 2589   3.405   4.113   0.732 -2.0979  0.5465  4.7901
  166MPD2    H3 2590   3.601   4.031   0.609 -0.8324 -0.6567 -0.1162
  166MPD2     N 2591   3.841   3.922   0.981 -0.9043  0.8011 -0.1661
  166MPD2    H5 2592   3.900   3.871   0.916 -1.1441  0.5905 -0.2176
  166MPD2    N1 2593   3.371   4.105   0.981  0.4832 -0.9963  0.0332
  166MPD2    H7 2594   3.291   4.128   0.922  0.4973  0.1935  0.4708
  167TMC2    C1 2595   2.453   1.172  13.260 -0.5725  0.9156 -0.3048
  167TMC2    C2 2596   2.393   1.224  13.368 -0.3348 -0.1620  0.3346
  167TMC2    C3 2597   2.286   1.148  13.421  0.1932  0.3569 -0.7136
  167TMC2    C4 2598   2.425   1.042  13.209 -0.0782  0.1486  0.3122
  167TMC2    C5 2599   2.317   0.971  13.267 -0.1765 -0.0471  0.1572
  167TMC2    C6 2600   2.257   1.025  13.374  0.1422 -0.7977  0.4828
  167TMC2     C 2601   2.564   1.251  13.193 -0.3267 -0.0358 -0.3520
  167TMC2     O 2602   2.611   1.340  13.267  0.1604  0.2346 -0.2242
  167TMC2     H 2603   2.405   1.329  13.392  4.7925 -0.6330 -0.2028
  167TMC2    H1 2604   2.468   1.002  13.117  0.7869  2.0999 -0.1435
  167TMC2    H2 2605   2.169   0.981  13.420 -0.2580 -0.4988 -0.0072
  167TMC2    C7 2606   2.264   0.851  13.213 -0.5483  0.0436 -0.1567
  167TMC2    C8 2607   2.171   1.216  13.482 -0.7932  0.3678 -0.1627
  167TMC2    O1 2608   2.165   0.810  13.273 -0.2716  0.1076  0.1309
  167TMC2    O2 2609   2.055   1.191  13.450 -0.7680  0.2980 -0.4147
  167TMC2    O5 2610   2.205   1.286  13.588 -0.1591 -0.0237  0.8362
  167TMC2    H5 2611   2.302   1.298  13.599 -0.0937 -0.7366  1.0430
  168MPD2     C 2612   2.721   1.411  13.003 -0.6024  0.5852  0.2354
  168MPD2    C1 2613   2.656   1.296  12.966 -0.1499  0.6624  0.5142
  168MPD2    C2 2614   2.653   1.260  12.833  0.2768 -0.2732 -0.0337
  168MPD2    C3 2615   2.720   1.340  12.740 -0.0080 -0.1743 -0.4534
  168MPD2    C4 2616   2.786   1.452  12.789 -0.0645 -0.5640  0.7341
  168MPD2    C5 2617   2.795   1.487  12.920 -0.9834  0.5618 -0.2358
  168MPD2     H 2618   2.624   1.163  12.793 -1.0326  0.1603 -0.1409
  168MPD2    H1 2619   2.854   1.515  12.732 -1.3563  0.0335 -0.1312
  168MPD2    H2 2620   2.731   1.447  13.105  1.3785 -0.4653  0.4083
  168MPD2    H3 2621   2.849   1.575  12.952  0.3877 -0.3397 -0.0748
  168MPD2     N 2622   2.729   1.310  12.598 -0.1633  0.3949 -0.2901
  168MPD2    H5 2623   2.774   1.383  12.543  1.2153 -0.7989 -0.7402
  168MPD2    N1 2624   2.580   1.220  13.062  0.1228  0.1526 -0.3481
  168MPD2    H7 2625   2.527   1.146  13.017 -1.1011  0.0671  1.2135
  169MPD1     C 2626   3.809   1.207   9.192 -0.3133 -0.5599 -0.5182
  169MPD1    C1 2627   3.942   1.197   9.188  0.2218  0.6285  0.3666
  169MPD1    C2 2628   4.004   1.133   9.291 -0.4345 -0.3100 -0.2997
  169MPD1    C3 2629   3.936   1.092   9.406 -0.5356 -0.2500 -0.2580
  169MPD1    C4 2630   3.805   1.110   9.409  0.1171  0.5737  0.0029
  169MPD1    C5 2631   3.738   1.158   9.296  0.3450  0.3093  0.2625
  169MPD1     H 2632   4.109   1.115   9.272 -0.4837  0.3094 -1.1260
  169MPD1    H1 2633   3.752   1.082   9.499 -3.0292 -0.5018 -2.1760
  169MPD1    H2 2634   3.757   1.248   9.107  1.4319 -1.6427 -2.1107
  169MPD1    H3 2635   3.631   1.175   9.301  0.3960  0.7488 -0.1746
  169MPD1     N 2636   4.010   1.026   9.511  0.0353  0.5383 -0.0359
  169MPD1    H5 2637   4.111   1.025   9.504  0.0286 -0.5898  0.0577
  169MPD1    N1 2638   4.011   1.220   9.062  0.3839  0.3479  0.2843
  169MPD1    H6 2639   4.111   1.228   9.076  0.0924  0.5853  2.1920
  169MPD1    H7 2640   3.971   1.298   9.010 -0.7875 -0.3560  0.1277
  170MPD1     C 2641   3.493   3.482  13.039 -0.5835 -0.0402  0.0278
  170MPD1    C1 2642   3.401   3.406  13.114  0.0693  0.1543 -0.9904
  170MPD1    C2 2643   3.324   3.476  13.202  0.9165  0.4187  0.0183
  170MPD1    C3 2644   3.341   3.608  13.218 -0.0007 -0.0464 -0.4482
  170MPD1    C4 2645   3.420   3.688  13.135  0.1976 -0.2871  0.1393
  170MPD1    C5 2646   3.504   3.618  13.052  0.4058  0.5510 -0.3313
  170MPD1     H 2647   3.240   3.431  13.254  1.9729  0.0362  1.4141
  170MPD1    H1 2648   3.426   3.796  13.147  0.7509 -0.3026 -0.0277
  170MPD1    H2 2649   3.555   3.440  12.961 -0.7943  0.3388 -0.3402
  170MPD1    H3 2650   3.569   3.671  12.984 -1.0778  0.3575 -1.9034
  170MPD1     N 2651   3.256   3.670  13.321 -0.2834 -1.0919 -0.1116
  170MPD1    H5 2652   3.200   3.611  13.382  1.7934  0.7660  3.6169
  170MPD1    N1 2653   3.350   3.285  13.073 -0.3199 -0.6394  0.3252
  170MPD1    H6 2654   3.407   3.216  13.025  0.6754  0.9128 -0.6980
  170MPD1    H7 2655   3.293   3.242  13.146  1.1223 -1.3200  1.0383
  171MPD1     C 2656   1.787   0.497  15.586  0.2562 -0.2994 -0.0294
  171MPD1    C1 2657   1.700   0.391  15.554 -0.0279 -0.6582  0.3330
  171MPD1    C2 2658   1.748   0.260  15.571  0.5173  0.2742 -0.0527
  171MPD1    C3 2659   1.877   0.238  15.627 -0.2840 -0.1508 -0.3392
  171MPD1    C4 2660   1.970   0.339  15.643  0.2946 -0.6113  0.2836
  171MPD1    C5 2661   1.920   0.463  15.610 -0.3940 -0.7565  0.3331
  171MPD1     H 2662   1.674   0.183  15.550  1.5268 -0.3293 -1.3704
  171MPD1    H1 2663   2.075   0.326  15.670  0.0449 -0.7214  1.2018
  171MPD1    H2 2664   1.768   0.604  15.584  0.6835 -0.2660 -2.2359
  171MPD1    H3 2665   1.980   0.551  15.623  0.3133 -1.1582 -0.2348
  171MPD1     N 2666   1.922   0.111  15.672 -0.8293 -0.1745  1.0355
  171MPD1    H5 2667   2.004   0.094  15.730 -1.1821 -0.6734  1.3873
  171MPD1    N1 2668   1.566   0.413  15.525 -0.0521  0.4326  0.6947
  171MPD1    H6 2669   1.550   0.504  15.482 -1.9534 -0.1805  0.0579
  171MPD1    H7 2670   1.524   0.338  15.470 -0.3702  0.7838  0.4549
  172MPD1     C 2671   1.484   3.509   0.741  0.5333 -0.1702 -0.7839
  172MPD1    C1 2672   1.413   3.562   0.843 -0.3777 -0.3387 -0.4371
  172MPD1    C2 2673   1.467   3.668   0.914 -0.5085  0.5319 -0.1686
  172MPD1    C3 2674   1.602   3.714   0.884  0.2491  0.2517 -0.1236
  172MPD1    C4 2675   1.675   3.653   0.789  0.1417  0.7940 -0.5250
  172MPD1    C5 2676   1.618   3.551   0.718  0.6250  0.0335 -0.1832
  172MPD1     H 2677   1.403   3.719   0.984 -0.2168 -1.3337  1.4676
  172MPD1    H1 2678   1.775   3.684   0.760  1.3998 -1.6507  1.2221
  172MPD1    H2 2679   1.441   3.428   0.683  1.0157 -2.4958  2.0686
  172MPD1    H3 2680   1.671   3.503   0.637 -0.8179 -1.6926 -0.1185
  172MPD1     N 2681   1.664   3.824   0.945  0.3630 -0.4108 -0.1477
  172MPD1    H5 2682   1.761   3.843   0.921  0.9517 -1.2789  1.5151
  172MPD1    N1 2683   1.277   3.512   0.867 -0.3480 -0.6231 -0.0867
  172MPD1    H6 2684   1.271   3.414   0.897  0.4759 -0.4509  0.6780
  172MPD1    H7 2685   1.245   3.565   0.948 -1.6882  0.2992 -1.2485
  173MPD1     C 2686   2.733   4.543  14.211  0.1504 -0.0826  0.2449
  173MPD1    C1 2687   2.591   4.527  14.216  0.5948  0.8127 -1.0276
  173MPD1    C2 2688   2.538   4.401  14.237 -0.4935 -0.1414 -0.1392
  173MPD1    C3 2689   2.620   4.292  14.250 -0.0769  0.2487  0.4971
  173MPD1    C4 2690   2.752   4.308  14.241  0.4528 -0.0504  0.3843
  173MPD1    C5 2691   2.806   4.429  14.228  0.4045  0.5398 -0.2952
  173MPD1     H 2692   2.431   4.388  14.242 -0.5063 -0.1010 -0.2937
  173MPD1    H1 2693   2.811   4.218  14.244  0.8819  0.2052 -0.4186
  173MPD1    H2 2694   2.799   4.629  14.204  0.5736 -0.3622  0.7029
  173MPD1    H3 2695   2.914   4.437  14.222  0.6624 -2.9496 -0.4537
  173MPD1     N 2696   2.560   4.170  14.285  0.3468  0.0487 -0.0495
  173MPD1    H5 2697   2.459   4.177  14.292  0.3359 -1.6997  1.5696
  173MPD1    N1 2698   2.515   4.641  14.174 -0.1769 -0.5881 -0.0069
  173MPD1    H6 2699   2.439   4.653  14.241  0.9372 -0.2112  1.1941
  173MPD1    H7 2700   2.559   4.733  14.172  0.4503 -0.8402  2.1731
  174MPD1     C 2701   2.495   3.073  14.494  0.0031 -0.1192  0.2173
  174MPD1    C1 2702   2.601   3.155  14.469 -0.0978 -0.3844 -0.2639
  174MPD1    C2 2703   2.598   3.295  14.480 -0.2555  0.0941 -0.4479
  174MPD1    C3 2704   2.474   3.355  14.495 -0.0855 -0.0032  0.0761
  174MPD1    C4 2705   2.361   3.280  14.497  0.0355 -0.5161  0.0613
  174MPD1    C5 2706   2.377   3.143  14.496 -0.3272 -0.6290 -0.5674
  174MPD1     H 2707   2.690   3.352  14.474  0.6366 -1.4660 -1.9322
  174MPD1    H1 2708   2.261   3.322  14.493  0.1549 -0.0028  2.1847
  174MPD1    H2 2709   2.511   2.965  14.497  2.7432  0.2981  0.8655
  174MPD1    H3 2710   2.287   3.085  14.509 -0.4459  0.2792  2.8502
  174MPD1     N 2711   2.449   3.492  14.484  0.5050  0.2083  0.4490
  174MPD1    H5 2712   2.350   3.510  14.498  0.3326 -1.7922  1.7325
  174MPD1    N1 2713   2.732   3.096  14.459  0.1715 -0.0657 -0.3710
  174MPD1    H6 2714   2.792   3.158  14.406  0.4623 -1.0055 -1.1402
  174MPD1    H7 2715   2.728   3.006  14.411 -0.4887  0.5392 -1.4559
  175MPD1     C 2716   0.433   0.550  15.906  0.2600 -0.4858  0.1131
  175MPD1    C1 2717   0.566   0.563  15.939 -0.3898 -0.1829  0.0110
  175MPD1    C2 2718   0.629   0.465  16.011  0.6602 -0.7530 -0.0159
  175MPD1    C3 2719   0.562   0.351  16.047  0.0990 -0.0882 -0.4153
  175MPD1    C4 2720   0.424   0.350  16.021  0.2338 -0.0393 -0.0904
  175MPD1    C5 2721   0.360   0.448  15.957 -0.1308 -0.4949 -0.1122
  175MPD1     H 2722   0.735   0.480  16.029  0.1403  1.5142  1.1150
  175MPD1    H1 2723   0.364   0.262  16.040  1.0689 -0.4255  0.7363
  175MPD1    H2 2724   0.373   0.624  15.854  0.2198  0.2700  1.2257
  175MPD1    H3 2725   0.254   0.431  15.938 -0.1087 -0.2747 -0.4197
  175MPD1     N 2726   0.623   0.242  16.109 -0.6500 -0.0733  0.9255
  175MPD1    H5 2727   0.555   0.169  16.128 -1.5647  0.5613  0.1364
  175MPD1    N1 2728   0.637   0.667  15.887 -0.3067  0.0250  0.8592
  175MPD1    H6 2729   0.588   0.743  15.840 -2.7482 -1.5371  0.8786
  175MPD1    H7 2730   0.709   0.707  15.947  1.8326  0.6636 -2.0966
  176MPD1     C 2731   2.522   2.009  17.376  0.5477 -0.6301  0.4694
  176MPD1    C1 2732   2.422   2.094  17.416  0.8689  0.2547  0.1201
  176MPD1    C2 2733   2.439   2.234  17.397 -0.5569 -0.0573 -0.1549
  176MPD1    C3 2734   2.557   2.281  17.342  0.4142 -0.1784  0.2806
  176MPD1    C4 2735   2.650   2.196  17.288  0.1030 -0.8767  0.2691
  176MPD1    C5 2736   2.627   2.064  17.303  0.2118 -0.2656  0.4257
  176MPD1     H 2737   2.363   2.300  17.436 -0.4206 -1.2926  2.1883
  176MPD1    H1 2738   2.737   2.234  17.235 -1.2419  2.8022  0.6866
  176MPD1    H2 2739   2.505   1.904  17.398  0.7256 -0.9416 -0.8856
  176MPD1    H3 2740   2.694   1.993  17.255  1.1821  0.3786  0.8300
  176MPD1     N 2741   2.567   2.418  17.328 -0.0646  0.2983  0.1452
  176MPD1    H5 2742   2.486   2.469  17.362 -0.1447  0.0332  0.3443
  176MPD1    N1 2743   2.307   2.047  17.481  0.3776  0.4885 -0.1752
  176MPD1    H6 2744   2.268   1.978  17.417 -0.3410  1.0403 -0.3301
  176MPD1    H7 2745   2.236   2.119  17.489  0.8751  0.7831  1.4916
  177MPD1     C 2746   0.982   1.688  11.103  0.3656  0.1571  0.0927
  177MPD1    C1 2747   1.093   1.709  11.024  0.1896  0.2162  0.3074
  177MPD1    C2 2748   1.079   1.713  10.885 -0.2681  0.0124  0.1470
  177MPD1    C3 2749   0.949   1.718  10.829  0.6305  0.4601  0.2121
  177MPD1    C4 2750   0.843   1.713  10.916  0.3842  0.1158  0.2088
  177MPD1    C5 2751   0.855   1.690  11.051 -0.1991 -0.0402 -0.5382
  177MPD1     H 2752   1.174   1.723  10.834 -0.4213  1.2207  0.0984
  177MPD1    H1 2753   0.741   1.713  10.881  1.1878 -2.5404 -2.1921
  177MPD1    H2 2754   0.994   1.676  11.210 -0.1163  3.5710  0.5293
  177MPD1    H3 2755   0.762   1.686  11.107 -0.6333  2.7070 -1.0713
  177MPD1     N 2756   0.939   1.725  10.685 -0.3735  0.1782  0.2308
  177MPD1    H5 2757   1.025   1.735  10.633 -0.5089 -1.5102 -0.3207
  177MPD1    N1 2758   1.220   1.707  11.080  0.5623 -0.2350 -0.0305
  177MPD1    H6 2759   1.224   1.747  11.173  1.1769  2.1189 -1.0699
  177MPD1    H7 2760   1.287   1.756  11.020  0.5087 -0.2460 -0.0991
  178MPD1     C 2761   3.433   2.877   0.443 -0.1691 -0.1062  0.6218
  178MPD1    C1 2762   3.355   2.808   0.357 -0.9991  0.8937 -0.1458
  178MPD1    C2 2763   3.364   2.835   0.223  0.0145 -0.1582  0.4305
  178MPD1    C3 2764   3.443   2.939   0.182  0.2497 -0.9808 -0.1969
  178MPD1    C4 2765   3.525   3.002   0.274  0.4442  0.2009  0.0394
  178MPD1    C5 2766   3.513   2.975   0.407 -0.4271  0.2915 -0.2558
  178MPD1     H 2767   3.314   2.769   0.154 -2.3184  0.2336  1.7169
  178MPD1    H1 2768   3.585   3.081   0.231  1.4240 -0.1448  0.7785
  178MPD1    H2 2769   3.439   2.850   0.548 -1.9035  0.6796  0.9222
  178MPD1    H3 2770   3.578   3.036   0.469  0.6361  0.2564 -1.3507
  178MPD1     N 2771   3.465   2.967   0.049 -1.1118 -0.0390  0.5077
  178MPD1    H5 2772   3.552   3.014   0.029 -1.1255 -0.4567 -0.5265
  178MPD1    N1 2773   3.298   2.685   0.395  0.1835  0.1365  0.1495
  178MPD1    H6 2774   3.218   2.652   0.340 -1.8576  3.0001  1.3776
  178MPD1    H7 2775   3.272   2.683   0.493  1.8782 -1.0363  0.5707
  179MPD1     C 2776   3.275   0.609  15.289 -0.5515  0.3019 -0.2823
  179MPD1    C1 2777   3.249   0.744  15.289 -0.0915  0.0641  0.6581
  179MPD1    C2 2778   3.189   0.797  15.402 -0.1694  0.4311 -0.7109
  179MPD1    C3 2779   3.186   0.729  15.524 -0.0847  0.7623 -0.3083
  179MPD1    C4 2780   3.222   0.599  15.531 -0.1504 -0.0310 -0.2612
  179MPD1    C5 2781   3.269   0.544  15.411  0.4803 -0.6694  0.4156
  179MPD1     H 2782   3.156   0.899  15.398 -0.6680  0.3702  1.8104
  179MPD1    H1 2783   3.237   0.553  15.627 -0.1491  0.5963  0.0426
  179MPD1    H2 2784   3.308   0.545  15.208 -0.2706  1.1454 -0.8360
  179MPD1    H3 2785   3.304   0.441  15.414  2.2824 -0.0184  2.1599
  179MPD1     N 2786   3.142   0.789  15.644  0.7520  0.0481  0.5601
  179MPD1    H5 2787   3.140   0.729  15.726  0.3686  0.8192  1.1203
  179MPD1    N1 2788   3.252   0.825  15.173  0.3788 -0.2080 -0.3674
  179MPD1    H6 2789   3.316   0.797  15.099  1.3797  0.2908  0.3072
  179MPD1    H7 2790   3.247   0.926  15.187  1.0316  0.0094 -1.7435
  180MPD1     C 2791   2.145   2.664  14.673  0.1290 -0.2978  0.6990
  180MPD1    C1 2792   2.138   2.530  14.659 -0.0766 -0.1995  0.6482
  180MPD1    C2 2793   2.245   2.466  14.601 -0.1202  0.0421 -0.3209
  180MPD1    C3 2794   2.358   2.533  14.561  0.0009  0.5937  0.8723
  180MPD1    C4 2795   2.353   2.675  14.560  0.2971  0.1172  0.1789
  180MPD1    C5 2796   2.251   2.734  14.629 -0.1757 -0.3070 -0.3395
  180MPD1     H 2797   2.250   2.358  14.589 -0.3722  0.3117 -2.9598
  180MPD1    H1 2798   2.427   2.740  14.515 -1.2984  1.6639 -0.2276
  180MPD1    H2 2799   2.073   2.713  14.738  0.1620  0.3275  0.2704
  180MPD1    H3 2800   2.252   2.841  14.640  0.3553 -0.1983 -1.4113
  180MPD1     N 2801   2.461   2.453  14.511  0.1942  0.0130 -0.0183
  180MPD1    H5 2802   2.460   2.354  14.533 -0.0506  0.6604  2.9886
  180MPD1    N1 2803   2.021   2.463  14.693 -0.3329 -0.1581  0.3953
  180MPD1    H6 2804   2.045   2.366  14.712 -0.7898 -0.1099  1.1998
  180MPD1    H7 2805   1.982   2.507  14.776  0.0710  1.7241 -0.4008
  181MPD1     C 2806   4.166   3.652  10.364 -0.2721  0.1820 -0.2053
  181MPD1    C1 2807   4.131   3.764  10.440  0.0374  0.3817 -1.1435
  181MPD1    C2 2808   4.228   3.863  10.457  0.1274 -0.3951 -0.1378
  181MPD1    C3 2809   4.350   3.857  10.385  0.3740 -0.2226  0.4492
  181MPD1    C4 2810   4.375   3.755  10.301 -1.0839 -0.0067 -0.7136
  181MPD1    C5 2811   4.285   3.648  10.298 -1.0738  0.0984  0.4629
  181MPD1     H 2812   4.202   3.943  10.525  0.1875  1.4998 -2.3396
  181MPD1    H1 2813   4.467   3.752  10.243 -0.4919  1.0341  0.1665
  181MPD1    H2 2814   4.100   3.566  10.360 -0.2418  0.0860  1.2455
  181MPD1    H3 2815   4.281   3.568  10.226 -1.5756  0.8778 -0.3742
  181MPD1     N 2816   4.462   3.944  10.399 -0.1281  0.9571 -0.0562
  181MPD1    H5 2817   4.545   3.909  10.351 -0.1731  3.5921 -1.9937
  181MPD1    N1 2818   4.008   3.761  10.507 -0.3692 -0.1159 -0.4142
  181MPD1    H6 2819   3.934   3.699  10.476 -1.2767  0.4064  0.6727
  181MPD1    H7 2820   3.972   3.856  10.519 -1.4462 -0.9211  2.6947
  182MPD1     C 2821   0.560   2.805   2.447  0.2269  0.1343 -0.2683
  182MPD1    C1 2822   0.433   2.854   2.438  0.1133 -0.2792 -0.7552
  182MPD1    C2 2823   0.409   2.981   2.381 -0.1183  0.5324 -0.4297
  182MPD1    C3 2824   0.515   3.070   2.363  0.4898 -0.0132 -0.4454
  182MPD1    C4 2825   0.643   3.026   2.396  0.4878  0.0750 -0.5317
  182MPD1    C5 2826   0.666   2.892   2.423  0.3732 -0.2781 -0.1161
  182MPD1     H 2827   0.309   3.016   2.362 -0.4204  0.0119  0.1826
  182MPD1    H1 2828   0.731   3.085   2.372 -0.5581  2.1969  0.8700
  182MPD1    H2 2829   0.584   2.703   2.473  0.8268 -0.0942 -1.6891
  182MPD1    H3 2830   0.768   2.860   2.435  0.9852  1.8341  0.3178
  182MPD1     N 2831   0.503   3.197   2.300  0.2069  0.1076  0.5356
  182MPD1    H5 2832   0.585   3.257   2.295 -0.6372  1.1306 -0.8082
  182MPD1    N1 2833   0.323   2.767   2.457  0.6502 -0.5291  0.0813
  182MPD1    H6 2834   0.234   2.811   2.474  1.3909  0.8921  0.2746
  182MPD1    H7 2835   0.341   2.686   2.517  1.9774 -0.7614 -0.6022
  183MPD1     C 2836   1.640   4.127   9.698 -0.4617 -0.0909 -0.6575
  183MPD1    C1 2837   1.648   4.100   9.831  0.0737 -0.3696 -0.2244
  183MPD1    C2 2838   1.531   4.069   9.898  0.0577 -0.2490  0.5688
  183MPD1    C3 2839   1.407   4.088   9.842 -0.4171  0.0745 -0.7654
  183MPD1    C4 2840   1.403   4.128   9.708  0.4299  0.3747 -0.4825
  183MPD1    C5 2841   1.516   4.137   9.644 -0.4127 -0.7945  0.0353
  183MPD1     H 2842   1.537   4.026   9.997 -2.3800 -3.1631 -0.5520
  183MPD1    H1 2843   1.313   4.152   9.652  0.2905  0.1242 -0.3639
  183MPD1    H2 2844   1.719   4.133   9.625 -0.6482  0.2506 -0.8294
  183MPD1    H3 2845   1.525   4.170   9.541  0.9339  0.5775  0.5816
  183MPD1     N 2846   1.293   4.081   9.923  1.0962  0.6715 -0.0404
  183MPD1    H5 2847   1.310   4.058  10.020 -0.7610 -1.7482 -0.2794
  183MPD1    N1 2848   1.772   4.077   9.888 -0.1251  0.8903  0.1733
  183MPD1    H6 2849   1.782   4.093   9.988 -3.5115  1.6161  0.3860
  183MPD1    H7 2850   1.843   4.134   9.842  0.1591 -0.6467 -1.3081
  184MPD1     C 2851   4.172   1.652  10.236 -0.1678 -0.6935 -0.1589
  184MPD1    C1 2852   4.290   1.595  10.277 -0.1448 -0.4995  0.0209
  184MPD1    C2 2853   4.397   1.625  10.201  0.1649  0.1140  0.6893
  184MPD1    C3 2854   4.384   1.691  10.077  0.0735 -0.1572 -0.0356
  184MPD1    C4 2855   4.260   1.721  10.025 -0.4012 -0.1351  0.4980
  184MPD1    C5 2856   4.155   1.699  10.110 -0.0843  0.2752  0.1489
  184MPD1     H 2857   4.499   1.604  10.232  0.1116 -0.3387  0.5595
  184MPD1    H1 2858   4.245   1.761   9.926 -1.4980 -0.2647  0.6099
  184MPD1    H2 2859   4.084   1.645  10.299  0.3504  0.3605  0.6893
  184MPD1    H3 2860   4.061   1.740  10.075 -0.2929  0.3783  0.8369
  184MPD1     N 2861   4.497   1.742  10.007 -0.2985  0.1135  0.0095
  184MPD1    H5 2862   4.483   1.748   9.907  2.1879 -2.3316 -0.4580
  184MPD1    N1 2863   4.310   1.544  10.403 -0.2851  0.4154 -0.6839
  184MPD1    H6 2864   4.388   1.481  10.416  0.6890  1.0924 -3.4658
  184MPD1    H7 2865   4.219   1.512  10.438  0.0619 -1.5827 -1.6103
  185MPD1     C 2866   4.659   1.471   9.250  0.3738 -0.5282  0.6444
  185MPD1    C1 2867   0.041   1.544   9.264 -0.2699 -0.1901  0.1566
  185MPD1    C2 2868   0.060   1.612   9.385  0.0835 -0.1219  0.2325
  185MPD1    C3 2869   4.696   1.626   9.475  0.0463  0.1852  0.3929
  185MPD1    C4 2870   4.572   1.568   9.449 -0.3959 -0.3979 -0.3060
  185MPD1    C5 2871   4.560   1.489   9.338  0.6928 -0.2757 -0.8806
  185MPD1     H 2872   0.158   1.650   9.411 -0.8239  0.9360  2.0904
  185MPD1    H1 2873   4.486   1.590   9.510 -0.4913 -0.8239 -0.2888
  185MPD1    H2 2874   4.627   1.406   9.170  2.8736 -0.7155 -0.1982
  185MPD1    H3 2875   4.464   1.439   9.334  0.8006 -0.4298 -1.6987
  185MPD1     N 2876   4.691   1.716   9.581  0.0670 -0.2031 -0.9871
  185MPD1    H5 2877   4.602   1.718   9.629  0.3437 -2.8924 -0.3795
  185MPD1    N1 2878   0.146   1.508   9.182  0.1509  0.3361 -0.3782
  185MPD1    H6 2879   0.226   1.572   9.181 -0.4667  1.0853 -1.7266
  185MPD1    H7 2880   0.117   1.483   9.088  1.4677  1.8294 -1.1749
  186MPD1     C 2881   3.477   0.801  16.099 -0.4392 -0.6921  0.5427
  186MPD1    C1 2882   3.436   0.916  16.035 -0.8176  0.6613 -0.2502
  186MPD1    C2 2883   3.437   1.030  16.107  0.4337 -0.7223  0.0551
  186MPD1    C3 2884   3.483   1.039  16.241 -0.1036 -0.2659  0.2618
  186MPD1    C4 2885   3.516   0.916  16.303  0.4732 -0.8926 -0.1544
  186MPD1    C5 2886   3.513   0.804  16.231  0.1631 -0.0003 -0.0938
  186MPD1     H 2887   3.396   1.122  16.067 -0.4219 -1.2089 -0.1737
  186MPD1    H1 2888   3.538   0.918  16.409  2.5155  1.5805 -0.6021
  186MPD1    H2 2889   3.486   0.704  16.052 -0.4357  0.1831 -1.2857
  186MPD1    H3 2890   3.548   0.710  16.274  0.1054 -0.4271 -0.9729
  186MPD1     N 2891   3.480   1.159  16.317  0.4540  0.9799  0.2221
  186MPD1    H5 2892   3.498   1.149  16.416 -3.3877  0.2054  0.8247
  186MPD1    N1 2893   3.417   0.919  15.894  0.0007  0.1942  0.1686
  186MPD1    H6 2894   3.372   1.005  15.863  0.3227  0.0217 -0.7763
  186MPD1    H7 2895   3.374   0.835  15.855 -0.0730  0.8572 -1.1759
  187MPD1     C 2896   2.312   4.155  17.598 -0.6219  0.1442  0.3566
  187MPD1    C1 2897   2.215   4.117  17.506 -0.1252  0.3833 -0.1504
  187MPD1    C2 2898   2.263   4.050  17.395  0.4240 -0.7523 -0.4861
  187MPD1    C3 2899   2.399   4.042  17.368 -0.2572  0.6384 -0.2560
  187MPD1    C4 2900   2.493   4.101  17.453 -0.3412  0.1519  0.0623
  187MPD1    C5 2901   2.449   4.148  17.573  0.1241  0.0049 -0.0076
  187MPD1     H 2902   2.189   4.026  17.320 -0.4841 -0.1345  0.2118
  187MPD1    H1 2903   2.602   4.100  17.451 -0.3886 -0.1597 -2.1400
  187MPD1    H2 2904   2.284   4.211  17.686  1.2963 -0.1167  1.1348
  187MPD1    H3 2905   2.523   4.178  17.646  0.6441 -0.2201 -0.4347
  187MPD1     N 2906   2.449   3.966  17.257 -0.2888 -0.1357 -0.4359
  187MPD1    H5 2907   2.549   3.949  17.259 -0.3015  0.0877  1.8914
  187MPD1    N1 2908   2.078   4.120  17.535 -0.2452  0.6136  0.3608
  187MPD1    H6 2909   2.017   4.136  17.456 -2.0646 -0.2259  1.6109
  187MPD1    H7 2910   2.052   4.185  17.609 -2.2916 -1.0430  1.0840
  188MPD1     C 2911   2.588   3.180  10.452  0.3387 -0.4640  0.3602
  188MPD1    C1 2912   2.590   3.163  10.315 -0.1113  0.3976  0.2192
  188MPD1    C2 2913   2.528   3.046  10.266  0.1391 -0.4921  0.0133
  188MPD1    C3 2914   2.486   2.949  10.350  0.2283  0.1305  0.2840
  188MPD1    C4 2915   2.501   2.965  10.486 -0.1837 -1.1804  0.0911
  188MPD1    C5 2916   2.535   3.086  10.542  0.3732  0.6108 -0.1213
  188MPD1     H 2917   2.524   3.030  10.159  0.6298 -2.2163  0.2584
  188MPD1    H1 2918   2.449   2.896  10.551 -0.1050 -1.2074  0.1256
  188MPD1    H2 2919   2.608   3.274  10.502  0.3430 -0.6725  0.7496
  188MPD1    H3 2920   2.525   3.106  10.648 -2.1999 -1.1780 -0.0265
  188MPD1     N 2921   2.433   2.826  10.310 -0.3420 -0.2742 -0.3927
  188MPD1    H5 2922   2.425   2.751  10.379 -2.7551  0.7520  0.4401
  188MPD1    N1 2923   2.626   3.273  10.226  0.1037  0.2014 -0.3117
  188MPD1    H6 2924   2.658   3.248  10.133 -0.2622 -1.7600  0.0779
  188MPD1    H7 2925   2.705   3.327  10.262 -0.1447 -0.2228  0.8882
  189MPD1     C 2926   4.639   3.938   0.865 -0.1237  0.7018 -0.9783
  189MPD1    C1 2927   4.561   3.876   0.770  0.3462  0.3266  0.2360
  189MPD1    C2 2928   4.482   3.964   0.688 -0.9093 -0.3542 -0.2469
  189MPD1    C3 2929   4.496   4.100   0.703  1.2369 -0.7781  0.0513
  189MPD1    C4 2930   4.585   4.156   0.789 -0.5943  0.4389  0.3899
  189MPD1    C5 2931   4.668   4.071   0.863 -0.4709  0.3233  0.0939
  189MPD1     H 2932   4.404   3.924   0.626 -1.6420 -0.7749  0.9460
  189MPD1    H1 2933   4.603   4.262   0.773  3.1011 -0.3115 -0.4592
  189MPD1    H2 2934   4.708   3.884   0.928 -1.9322  0.3932  0.7739
  189MPD1    H3 2935   0.004   4.104   0.936 -2.0567  2.2418  0.8376
  189MPD1     N 2936   4.406   4.188   0.633  1.1001 -0.7476  0.0050
  189MPD1    H5 2937   4.324   4.153   0.584 -0.2300  1.2389  0.7776
  189MPD1    N1 2938   4.553   3.737   0.771  0.3761  0.0558 -0.0143
  189MPD1    H6 2939   4.513   3.693   0.688  0.3967  0.3184 -0.1621
  189MPD1    H7 2940   4.640   3.691   0.799  0.1387 -0.3896 -0.0047
  190MPD1     C 2941   2.549   2.384  15.279 -0.3396  0.0311 -0.4141
  190MPD1    C1 2942   2.571   2.362  15.412 -0.7482 -1.1363 -1.6330
  190MPD1    C2 2943   2.700   2.354  15.464 -0.7838 -0.2606  0.3109
  190MPD1    C3 2944   2.807   2.388  15.383 -0.4551 -0.1193  0.1391
  190MPD1    C4 2945   2.783   2.421  15.251  0.1922 -0.0191 -0.4385
  190MPD1    C5 2946   2.654   2.425  15.200  0.0779 -0.4472 -0.4748
  190MPD1     H 2947   2.719   2.340  15.570  1.6669  1.4635  0.0952
  190MPD1    H1 2948   2.863   2.456  15.186 -0.3743  0.9858 -0.5902
  190MPD1    H2 2949   2.450   2.382  15.235  0.3679  0.4312 -2.0335
  190MPD1    H3 2950   2.634   2.460  15.099 -3.2658 -0.4084  0.1826
  190MPD1     N 2951   2.938   2.391  15.428  0.3110  0.2265  0.4368
  190MPD1    H5 2952   2.943   2.402  15.529 -0.8320 -0.3555  0.5558
  190MPD1    N1 2953   2.463   2.310  15.487  0.1907  0.1332 -0.1988
  190MPD1    H6 2954   2.463   2.311  15.589  4.4928  1.0119 -0.2158
  190MPD1    H7 2955   2.378   2.356  15.455 -1.0767 -3.1296 -1.4736
  191MPD1     C 2956   3.149   2.917  11.769  0.8556  0.0641  0.2982
  191MPD1    C1 2957   3.235   3.028  11.763 -0.3195 -0.1568 -0.0910
  191MPD1    C2 2958   3.190   3.152  11.795 -0.8374  1.3824 -0.1711
  191MPD1    C3 2959   3.075   3.167  11.866  0.4619  0.0608 -0.0474
  191MPD1    C4 2960   3.001   3.053  11.896  0.1978  0.0255  0.2760
  191MPD1    C5 2961   3.031   2.934  11.832 -0.2705 -0.3960 -0.0594
  191MPD1     H 2962   3.263   3.232  11.784 -0.0162  0.7746  0.8080
  191MPD1    H1 2963   2.924   3.057  11.973 -1.5443  2.5278 -1.6277
  191MPD1    H2 2964   3.170   2.826  11.714 -0.2703  0.5397 -0.8906
  191MPD1    H3 2965   2.961   2.851  11.829 -0.0902 -0.5294 -0.7427
  191MPD1     N 2966   3.046   3.294  11.923 -0.4039  0.2902  0.7781
  191MPD1    H5 2967   3.085   3.377  11.879  2.4470 -1.3608  0.2148
  191MPD1    N1 2968   3.349   3.015  11.686  0.4155 -0.1478 -0.1019
  191MPD1    H6 2969   3.416   3.089  11.704 -0.1754  0.3848 -0.0780
  191MPD1    H7 2970   3.403   2.929  11.689 -2.4962 -1.9843 -0.4884
  192MPD1     C 2971   2.328   4.023  12.291  0.6061 -1.1768  0.7105
  192MPD1    C1 2972   2.317   3.901  12.224  0.5650  0.0200  0.5789
  192MPD1    C2 2973   2.425   3.826  12.188 -0.9336 -0.7675 -0.2638
  192MPD1    C3 2974   2.549   3.875  12.222  0.7481 -0.1678 -0.5013
  192MPD1    C4 2975   2.565   3.999  12.283  0.0013  1.3309 -0.6061
  192MPD1    C5 2976   2.451   4.068  12.333  0.4931  0.2899  0.5016
  192MPD1     H 2977   2.409   3.733  12.136  0.1121 -0.5731 -0.9359
  192MPD1    H1 2978   2.665   4.034  12.307  0.0352  0.3626  0.6500
  192MPD1    H2 2979   2.236   4.081  12.299 -0.2084 -2.2874 -0.4220
  192MPD1    H3 2980   2.454   4.160  12.390 -1.5574  0.9081 -0.3842
  192MPD1     N 2981   2.671   3.808  12.182  0.1619 -0.1721  0.3223
  192MPD1    H5 2982   2.759   3.854  12.207 -0.1847 -0.8329  2.7653
  192MPD1    N1 2983   2.199   3.864  12.155 -0.5113  0.3704  0.0172
  192MPD1    H6 2984   2.186   3.763  12.156  2.1091  0.0735  1.2127
  192MPD1    H7 2985   2.115   3.902  12.199 -1.8996 -1.8102 -0.7316
  193MPD1     C 2986   2.196   4.476  17.259 -0.4157 -0.2492 -0.1872
  193MPD1    C1 2987   2.327   4.459  17.227 -0.1215  0.2378 -0.1269
  193MPD1    C2 2988   2.382   4.545  17.135  0.3218 -0.6203  0.1449
  193MPD1    C3 2989   2.303   4.640  17.073 -0.5668 -0.1821  0.7113
  193MPD1    C4 2990   2.171   4.659  17.106 -0.2711  0.4670  0.2751
  193MPD1    C5 2991   2.122   4.577  17.198  0.7515  0.6254 -0.4607
  193MPD1     H 2992   2.487   4.534  17.112  0.0182 -0.3962 -1.3558
  193MPD1    H1 2993   2.116   0.008  17.070 -0.8344  0.1642  0.4064
  193MPD1    H2 2994   2.139   4.410  17.325 -0.1092 -0.7123 -0.3863
  193MPD1    H3 2995   2.016   4.593  17.217  0.3178 -0.4671 -1.9185
  193MPD1     N 2996   2.354   4.724  16.979  0.0487  0.1949 -0.8581
  193MPD1    H5 2997   2.293   0.053  16.931  0.3690  0.1818 -1.2912
  193MPD1    N1 2998   2.406   4.375  17.307  0.3950 -0.7099  0.0785
  193MPD1    H6 2999   2.359   4.295  17.348 -0.6456 -0.4786 -0.6547
  193MPD1    H7 3000   2.476   4.337  17.245  1.8853 -0.6157  1.7261
  194MPD1     C 3001   0.837   1.682  16.718  0.1624  0.5982  0.1171
  194MPD1    C1 3002   0.916   1.727  16.814 -0.4575 -0.5806 -0.2321
  194MPD1    C2 3003   0.956   1.652  16.917  0.2297 -0.7235 -0.7886
  194MPD1    C3 3004   0.929   1.517  16.922  0.3164 -0.1771 -0.1251
  194MPD1    C4 3005   0.861   1.469  16.811  0.3202  0.4804  0.1624
  194MPD1    C5 3006   0.805   1.554  16.720  0.6467 -0.3828 -0.3815
  194MPD1     H 3007   1.022   1.702  16.988  0.0735 -0.3414 -0.9081
  194MPD1    H1 3008   0.848   1.363  16.797 -0.7891  0.6873 -0.3276
  194MPD1    H2 3009   0.792   1.742  16.640  1.9504 -1.5194 -2.5337
  194MPD1    H3 3010   0.742   1.515  16.642  1.0910  0.7668 -1.3105
  194MPD1     N 3011   0.967   1.431  17.026 -0.1737  0.2563  0.4558
  194MPD1    H5 3012   0.934   1.338  17.002 -0.4969  0.4858  0.0096
  194MPD1    N1 3013   0.915   1.865  16.824 -0.2798 -0.2357 -0.7367
  194MPD1    H6 3014   0.992   1.905  16.877 -1.9125  1.9793 -0.0111
  194MPD1    H7 3015   0.897   1.918  16.739 -1.5557 -2.7019 -1.9846
  195MPD1     C 3016   1.866   4.370  17.156  0.0996  0.9511  0.0270
  195MPD1    C1 3017   1.820   4.329  17.282 -0.0628 -0.2701 -0.5686
  195MPD1    C2 3018   1.848   4.200  17.322 -0.6716 -0.2377  0.1992
  195MPD1    C3 3019   1.918   4.112  17.244  0.0857  0.3383  0.3656
  195MPD1    C4 3020   1.969   4.155  17.126  0.1927  0.1492 -0.0615
  195MPD1    C5 3021   1.937   4.280  17.082 -0.7616 -0.9016 -0.1653
  195MPD1     H 3022   1.809   4.163  17.416 -0.0793 -1.8286 -0.1879
  195MPD1    H1 3023   2.025   4.085  17.065  0.6775  0.1784  0.3554
  195MPD1    H2 3024   1.850   4.466  17.108 -1.3786  0.8127  0.2393
  195MPD1    H3 3025   1.973   4.305  16.983 -1.1407  0.7303  0.1084
  195MPD1     N 3026   1.940   3.977  17.284 -0.0980 -0.5465  0.6321
  195MPD1    H5 3027   2.009   3.925  17.230  0.2010 -2.1870  2.6046
  195MPD1    N1 3028   1.759   4.422  17.370 -0.0011 -0.0588 -0.3181
  195MPD1    H6 3029   1.717   4.504  17.325  0.3699  0.8355  0.9672
  195MPD1    H7 3030   1.684   4.380  17.423  0.6280 -1.7839 -0.7789
  196MPD1     C 3031   1.097   2.598   0.099 -0.0786 -0.0253  0.3486
  196MPD1    C1 3032   1.205   2.676   0.125  1.1726  0.2291 -0.3421
  196MPD1    C2 3033   1.259   2.669   0.252 -0.1761  0.6115 -0.0207
  196MPD1    C3 3034   1.201   2.599   0.353 -0.6203  0.0356  0.6915
  196MPD1    C4 3035   1.100   2.520   0.324  0.7902 -0.3401  0.1208
  196MPD1    C5 3036   1.048   2.520   0.198 -0.0087  0.1025 -0.4862
  196MPD1     H 3037   1.332   2.746   0.276 -0.0270 -0.4863  3.0292
  196MPD1    H1 3038   1.060   2.458   0.403  1.9586 -0.7890  0.3535
  196MPD1    H2 3039   1.039   2.612   0.008 -0.3257 -1.4616  0.2766
  196MPD1    H3 3040   0.947   2.486   0.177 -0.2748  1.2507 -1.0304
  196MPD1     N 3041   1.249   2.604   0.484  0.3694  0.5547  0.2275
  196MPD1    H5 3042   1.182   2.562   0.548 -0.1844 -1.1446 -1.4759
  196MPD1    N1 3043   1.261   2.760   0.028  0.3541  0.4383 -0.0310
  196MPD1    H6 3044   1.269   2.858   0.057  0.4803  0.7966 -1.2443
  196MPD1    H7 3045   1.214   2.755  17.685 -2.1230 -0.1370  1.2995
  197MPD1     C 3046   1.359   0.057   0.177  0.6545 -0.4636  0.3767
  197MPD1    C1 3047   1.447   0.163   0.184  0.5971  0.5378 -0.4069
  197MPD1    C2 3048   1.432   0.269   0.093  0.2877 -0.6016 -0.4279
  197MPD1    C3 3049   1.347   0.255  17.727  0.0799 -0.5441 -0.3552
  197MPD1    C4 3050   1.256   0.151  17.729 -0.5701 -0.7622 -0.2916
  197MPD1    C5 3051   1.260   0.058   0.085  0.8875  0.0511 -0.4538
  197MPD1     H 3052   1.492   0.359   0.104 -1.7031  0.7053 -0.2647
  197MPD1    H1 3053   1.192   0.125  17.646 -0.5795 -1.1186 -0.1706
  197MPD1    H2 3054   1.362   4.712   0.247 -0.4092 -0.0162  0.9550
  197MPD1    H3 3055   1.187   4.715   0.087 -0.2307  1.1122  1.6434
  197MPD1     N 3056   1.337   0.359  17.626 -0.2574 -0.0214 -0.4017
  197MPD1    H5 3057   1.280   0.343  17.544  0.0950 -0.1923 -0.6097
  197MPD1    N1 3058   1.527   0.167   0.297  0.0403 -0.3949  0.0998
  197MPD1    H6 3059   1.600   0.238   0.305 -0.9813  0.8733 -1.9053
  197MPD1    H7 3060   1.565   0.078   0.328  1.5955  0.5596  0.9718
  198MPD1     C 3061   3.146   3.058  14.946 -0.4562 -0.5601  0.8977
  198MPD1    C1 3062   3.226   3.007  15.044  0.4138  0.4815 -0.0019
  198MPD1    C2 3063   3.197   3.041  15.174  0.6114  0.0099  0.1238
  198MPD1    C3 3064   3.078   3.103  15.200 -0.6721  0.2336  0.1134
  198MPD1    C4 3065   2.996   3.141  15.098 -0.6119  0.0552  0.2637
  198MPD1    C5 3066   3.028   3.125  14.972  0.0776  0.4474  0.3036
  198MPD1     H 3067   3.260   3.015  15.258 -0.9991  2.5430  2.1063
  198MPD1    H1 3068   2.904   3.196  15.114 -1.9211 -1.5081 -1.8267
  198MPD1    H2 3069   3.173   3.051  14.841  0.2142 -1.0026  1.1043
  198MPD1    H3 3070   2.965   3.169  14.896 -0.1775 -1.8733 -0.8119
  198MPD1     N 3071   3.057   3.141  15.339  1.4193  0.3123  0.2780
  198MPD1    H5 3072   3.134   3.139  15.404  0.2495 -2.5126  1.5972
  198MPD1    N1 3073   3.357   2.948  15.026  0.6028  0.2596 -0.8398
  198MPD1    H6 3074   3.353   2.879  14.951 -1.9476 -0.8686  0.3251
  198MPD1    H7 3075   3.397   2.905  15.109 -3.0151  4.5101  3.0553
  199MPD1     C 3076   0.700   0.468  10.724  0.5274  0.4426 -0.2150
  199MPD1    C1 3077   0.621   0.555  10.654 -0.1997 -1.1891  0.7642
  199MPD1    C2 3078   0.513   0.514  10.582  0.5339  0.1392 -0.2547
  199MPD1    C3 3079   0.487   0.377  10.570  0.1679  0.7406 -0.2445
  199MPD1    C4 3080   0.572   0.286  10.641  0.2790 -0.1746 -0.7771
  199MPD1    C5 3081   0.677   0.335  10.711 -0.0838  0.5284  0.2155
  199MPD1     H 3082   0.448   0.589  10.539 -1.4598 -1.3083  0.2589
  199MPD1    H1 3083   0.547   0.180  10.636  1.2549 -0.3824 -1.3612
  199MPD1    H2 3084   0.784   0.503  10.782  1.8497  1.4388 -2.7286
  199MPD1    H3 3085   0.735   0.267  10.772 -1.0285 -2.0045 -1.7157
  199MPD1     N 3086   0.388   0.314  10.489 -0.4663 -0.2613 -0.1824
  199MPD1    H5 3087   0.390   0.213  10.495 -2.0996 -0.1786  1.7320
  199MPD1    N1 3088   0.648   0.690  10.653 -0.2510 -0.1020 -0.4979
  199MPD1    H6 3089   0.625   0.736  10.565 -0.0545  2.0081  0.5498
  199MPD1    H7 3090   0.739   0.724  10.682 -0.5867  0.3687  0.0005
  200MPD1     C 3091   4.653   0.595  15.405 -0.3555  0.2345 -0.0565
  200MPD1    C1 3092   4.669   0.531  15.287  0.0405 -0.5758  0.2043
  200MPD1    C2 3093   4.671   0.618  15.175  0.1014  0.0315 -0.6748
  200MPD1    C3 3094   4.641   0.757  15.188 -0.1418 -0.0057  0.3311
  200MPD1    C4 3095   4.617   0.809  15.316  0.3450  0.2336 -0.5125
  200MPD1    C5 3096   4.628   0.728  15.422 -0.0233  0.1829 -0.2301
  200MPD1     H 3097   4.688   0.580  15.074  2.8892  0.6050 -0.4350
  200MPD1    H1 3098   4.592   0.913  15.330 -1.1383 -0.0402 -1.1122
  200MPD1    H2 3099   4.657   0.540  15.499 -0.3982 -1.4538 -1.0306
  200MPD1    H3 3100   4.607   0.768  15.521 -2.4119 -0.2221 -0.5632
  200MPD1     N 3101   4.631   0.841  15.066  0.4749 -0.0876  0.1283
  200MPD1    H5 3102   4.645   0.802  14.973  1.5036  0.3290  0.0994
  200MPD1    N1 3103   4.707   0.399  15.279  0.0125  0.4910 -0.0221
  200MPD1    H6 3104   4.697   0.351  15.189 -1.6085  1.3415 -0.2968
  200MPD1    H7 3105   4.665   0.346  15.355 -1.6543 -0.3226 -1.4805
  201MPD1     C 3106   1.123   4.230  13.741 -1.0566  0.2408 -0.0667
  201MPD1    C1 3107   1.062   4.124  13.807 -0.1292  0.7066  0.0884
  201MPD1    C2 3108   1.115   3.994  13.775  0.3491  0.2579 -0.0785
  201MPD1    C3 3109   1.222   3.981  13.692  0.6068 -0.2655 -0.8434
  201MPD1    C4 3110   1.273   4.095  13.624  0.3207  1.2147  0.6117
  201MPD1    C5 3111   1.230   4.221  13.660  0.4436 -0.2038 -0.0455
  201MPD1     H 3112   1.066   3.906  13.813 -0.9739  1.1062  0.1745
  201MPD1    H1 3113   1.355   4.086  13.554 -0.2290 -1.0107  0.2203
  201MPD1    H2 3114   1.095   4.334  13.753 -1.9660 -0.0515  0.3508
  201MPD1    H3 3115   1.283   4.310  13.628  2.5342 -0.9712  1.2820
  201MPD1     N 3116   1.266   3.848  13.670 -0.1882 -0.4098  0.6235
  201MPD1    H5 3117   1.226   3.782  13.736  2.2348 -2.3972  0.1126
  201MPD1    N1 3118   0.933   4.134  13.869 -0.3188  0.7201 -0.2963
  201MPD1    H6 3119   0.926   4.065  13.943 -2.1617 -0.5917 -1.6961
  201MPD1    H7 3120   0.919   4.223  13.918  1.1234  0.7412  0.0932
  202MPD1     C 3121   1.302   3.062   9.065 -0.6167 -0.6129 -0.9350
  202MPD1    C1 3122   1.223   3.141   9.139 -0.4867 -0.0054 -0.2855
  202MPD1    C2 3123   1.251   3.146   9.272  0.0202  0.0210  0.1440
  202MPD1    C3 3124   1.334   3.054   9.330 -0.2063 -0.2701 -0.3100
  202MPD1    C4 3125   1.405   2.964   9.256 -0.6886 -0.6693  0.6611
  202MPD1    C5 3126   1.388   2.967   9.120 -0.5112 -1.0029  0.7598
  202MPD1     H 3127   1.202   3.223   9.330 -1.8516 -0.7733 -0.3925
  202MPD1    H1 3128   1.467   2.887   9.301 -0.0411 -0.8192 -0.4964
  202MPD1    H2 3129   1.298   3.058   8.956 -3.2172 -0.6201 -0.8438
  202MPD1    H3 3130   1.452   2.902   9.061 -1.5908 -1.0883 -0.3207
  202MPD1     N 3131   1.363   3.056   9.472 -0.1514 -0.2094  0.4839
  202MPD1    H5 3132   1.431   2.985   9.497  0.6276  0.7237  0.9825
  202MPD1    N1 3133   1.168   3.258   9.088 -0.3444  0.4609  0.3051
  202MPD1    H6 3134   1.126   3.240   8.997  2.2160  1.4769 -1.0480
  202MPD1    H7 3135   1.091   3.298   9.141 -0.4195 -0.7218  1.0823
  203MPD1     C 3136   0.403   4.466  13.140  0.7290  0.1747  0.7176
  203MPD1    C1 3137   0.461   4.396  13.242 -0.0097  0.5889 -0.3422
  203MPD1    C2 3138   0.536   4.285  13.198 -0.2095 -0.0196  0.2871
  203MPD1    C3 3139   0.533   4.235  13.071 -0.0222  0.3810  0.4103
  203MPD1    C4 3140   0.466   4.305  12.972  0.1599  0.2520 -0.0626
  203MPD1    C5 3141   0.398   4.413  13.016 -0.2569  0.6407 -0.3172
  203MPD1     H 3142   0.599   4.234  13.269 -0.1618 -1.2590 -0.6450
  203MPD1    H1 3143   0.466   4.292  12.864 -0.4236 -0.3733  0.0032
  203MPD1    H2 3144   0.366   4.565  13.161 -2.6465 -1.0265  0.4429
  203MPD1    H3 3145   0.356   4.471  12.935 -1.5996 -0.1117 -0.1517
  203MPD1     N 3146   0.592   4.109  13.051 -0.2449  0.0282 -0.0566
  203MPD1    H5 3147   0.631   4.060  13.131 -2.6903 -3.4187 -0.9634
  203MPD1    N1 3148   0.488   4.451  13.371  0.2008 -0.1103  0.5869
  203MPD1    H6 3149   0.419   4.520  13.402 -0.8447 -0.0032 -1.9417
  203MPD1    H7 3150   0.485   4.383  13.446 -1.2553 -1.7760 -0.9813
  204MPD1     C 3151   4.467   0.501   0.166 -0.3817 -0.1371  0.1170
  204MPD1    C1 3152   4.494   0.465   0.033 -0.1569 -0.0945 -0.6760
  204MPD1    C2 3153   4.550   0.339   0.012 -0.0173 -0.1599  0.2494
  204MPD1    C3 3154   4.597   0.266   0.119 -0.9344 -0.6171  0.2991
  204MPD1    C4 3155   4.575   0.307   0.249  1.0665 -0.2411 -0.2860
  204MPD1    C5 3156   4.509   0.421   0.270 -0.7492 -0.1601  1.1900
  204MPD1     H 3157   4.579   0.316  17.657  2.1377 -2.5091  1.3874
  204MPD1    H1 3158   4.610   0.257   0.339  1.2215 -0.9489 -0.7398
  204MPD1    H2 3159   4.407   0.584   0.202  0.3942  0.7740 -0.7083
  204MPD1    H3 3160   4.501   0.461   0.371  0.0885  1.4661  0.6009
  204MPD1     N 3161   4.661   0.142   0.085 -0.4140 -0.1273  0.2472
  204MPD1    H5 3162   4.665   0.117  17.734  0.0159  0.7431  0.0442
  204MPD1    N1 3163   4.453   0.555  17.681  0.0286 -1.2304  0.3528
  204MPD1    H6 3164   4.499   0.554  17.590  4.3847  0.1430  2.5660
  204MPD1    H7 3165   4.472   0.647  17.720 -1.2779  0.2914 -2.5824
  205MPD1     C 3166   4.520   3.825  17.321  0.1799  0.1469  1.0495
  205MPD1    C1 3167   4.453   3.735  17.396 -0.0011 -0.1197 -0.5910
  205MPD1    C2 3168   4.498   3.695  17.524  0.5350 -0.0322 -0.0931
  205MPD1    C3 3169   4.622   3.733  17.572  0.2958 -1.2380 -0.2151
  205MPD1    C4 3170   4.692   3.818  17.491 -0.0937  0.5587 -0.0852
  205MPD1    C5 3171   4.646   3.862  17.366 -0.2123 -0.3610  0.2506
  205MPD1     H 3172   4.429   3.642  17.589 -0.0506 -0.8289 -1.3578
  205MPD1    H1 3173   0.046   3.862  17.531  0.0749  0.5275 -0.4338
  205MPD1    H2 3174   4.494   3.863  17.223 -1.2651 -1.5575  0.7583
  205MPD1    H3 3175   4.705   3.925  17.302  1.2954 -0.5079  1.4859
  205MPD1     N 3176   4.679   3.689  17.699  0.1216 -0.3227  0.1361
  205MPD1    H5 3177   0.033   3.730  17.720  0.7136 -0.6888 -1.7563
  205MPD1    N1 3178   4.323   3.706  17.353  0.4098 -0.3393 -0.5333
  205MPD1    H6 3179   4.305   3.718  17.254 -1.6984 -3.2639 -0.5141
  205MPD1    H7 3180   4.285   3.625  17.403  0.1184 -1.1838 -2.1119
  206MPD1     C 3181   4.404   2.445  17.173 -0.6306  0.5834 -0.2593
  206MPD1    C1 3182   4.502   2.355  17.150 -0.0329  0.3798 -0.8173
  206MPD1    C2 3183   4.532   2.318  17.017 -0.3135  0.0006 -0.1172
  206MPD1    C3 3184   4.461   2.379  16.912  0.5970  0.1919  0.7225
  206MPD1    C4 3185   4.369   2.482  16.940  0.4929 -0.4494 -0.3119
  206MPD1    C5 3186   4.334   2.505  17.072 -0.6520  0.2502 -0.3150
  206MPD1     H 3187   4.600   2.238  16.991 -0.7394 -0.8675  1.4477
  206MPD1    H1 3188   4.302   2.516  16.862 -1.0505 -0.0389  1.1927
  206MPD1    H2 3189   4.380   2.473  17.275  0.5862  0.8661 -0.0445
  206MPD1    H3 3190   4.244   2.564  17.084 -1.2667 -0.7748  0.0828
  206MPD1     N 3191   4.491   2.358  16.778 -1.3617  0.4841 -0.2921
  206MPD1    H5 3192   4.454   2.423  16.709 -2.8219  0.0016  0.0278
  206MPD1    N1 3193   4.563   2.291  17.258  0.1182  0.7373  0.0036
  206MPD1    H6 3194   4.658   2.263  17.234  0.2331  2.1981 -1.2483
  206MPD1    H7 3195   4.573   2.347  17.343 -2.0897  1.0243  0.0620
  207MPD1     C 3196   1.984   4.405   9.772 -0.2955 -0.4166 -0.5599
  207MPD1    C1 3197   2.035   4.283   9.789  0.8959 -0.1248  0.4068
  207MPD1    C2 3198   2.107   4.245   9.896  0.0004  0.0109  0.3519
  207MPD1    C3 3199   2.150   4.344   9.983  0.2037 -0.5753  0.2147
  207MPD1    C4 3200   2.109   4.479   9.954 -0.2927  0.2332 -0.9503
  207MPD1    C5 3201   2.021   4.509   9.850  1.1655 -0.1609  0.2927
  207MPD1     H 3202   2.137   4.142   9.912  0.4483 -0.2901 -2.4784
  207MPD1    H1 3203   2.134   4.568  10.011  0.1923  0.2333 -1.1574
  207MPD1    H2 3204   1.919   4.418   9.686  1.2523 -3.0966 -2.1189
  207MPD1    H3 3205   1.972   4.605   9.843 -0.8006 -1.1081  0.8151
  207MPD1     N 3206   2.231   4.326  10.093 -0.7730 -0.2755 -0.9008
  207MPD1    H5 3207   2.257   4.408  10.147 -0.9961 -1.1366  0.5304
  207MPD1    N1 3208   1.982   4.187   9.699 -0.0185  0.7012 -0.0688
  207MPD1    H6 3209   1.977   4.224   9.605 -1.1950 -3.2705 -1.5984
  207MPD1    H7 3210   2.048   4.112   9.680 -0.3561  0.5228 -0.5474
  208MPD1     C 3211   0.865   3.269   0.485 -0.3885 -0.2346  0.6225
  208MPD1    C1 3212   0.727   3.247   0.481 -0.4836  0.9757 -0.4295
  208MPD1    C2 3213   0.655   3.224   0.597 -0.1877  0.3551 -0.2019
  208MPD1    C3 3214   0.712   3.209   0.720 -0.1501 -0.3691  0.1199
  208MPD1    C4 3215   0.843   3.225   0.726 -0.3409 -0.1328 -0.1823
  208MPD1    C5 3216   0.921   3.250   0.609  0.0997  0.1851  0.7177
  208MPD1     H 3217   0.547   3.218   0.595 -0.3055  2.8035 -1.0508
  208MPD1    H1 3218   0.898   3.202   0.816 -0.6087 -2.2749 -0.5592
  208MPD1    H2 3219   0.932   3.286   0.402 -0.5677  0.7741  0.6747
  208MPD1    H3 3220   1.028   3.249   0.629  0.4748 -2.1573 -1.4031
  208MPD1     N 3221   0.625   3.179   0.823  0.1302  0.4389  0.1486
  208MPD1    H5 3222   0.526   3.185   0.802  0.1299  0.1559  0.0829
  208MPD1    N1 3223   0.669   3.263   0.354  0.0522 -0.6353  0.1453
  208MPD1    H6 3224   0.731   3.238   0.277  1.2992  0.4219  0.8170
  208MPD1    H7 3225   0.583   3.208   0.352  0.3417 -0.9953 -1.9812
  209MPD1     C 3226   2.431   2.986  11.324  0.2839  0.1884  0.2728
  209MPD1    C1 3227   2.374   3.098  11.259  0.1881  0.4362  0.2190
  209MPD1    C2 3228   2.445   3.208  11.223  0.4171  0.8029 -0.5024
  209MPD1    C3 3229   2.579   3.212  11.256  0.4843  0.4001 -0.6126
  209MPD1    C4 3230   2.635   3.111  11.335  0.0587  0.4436  0.2328
  209MPD1    C5 3231   2.556   3.001  11.366 -0.0041  0.5812 -0.0409
  209MPD1     H 3232   2.405   3.281  11.154 -2.5959  0.3037  0.7432
  209MPD1    H1 3233   2.735   3.113  11.377  0.4302  1.3747 -0.7020
  209MPD1    H2 3234   2.372   2.898  11.345  1.2894 -0.2380  1.3519
  209MPD1    H3 3235   2.606   2.916  11.413 -1.5086 -0.2650  0.0285
  209MPD1     N 3236   2.654   3.323  11.212 -0.3119 -0.2145  0.6720
  209MPD1    H5 3237   2.603   3.384  11.149  3.0096  0.4555 -1.3876
  209MPD1    N1 3238   2.250   3.091  11.197 -1.0065 -0.0481  0.9206
  209MPD1    H6 3239   2.203   3.178  11.174  1.2163  0.4518 -1.8033
  209MPD1    H7 3240   2.184   3.024  11.235 -0.9892 -0.9878 -0.7067
  210MPD1     C 3241   3.299   4.208  11.347  0.0779 -0.5884  0.4415
  210MPD1    C1 3242   3.285   4.105  11.432  0.0574 -0.2343 -0.2423
  210MPD1    C2 3243   3.214   3.993  11.384  0.5769 -0.1113 -0.0222
  210MPD1    C3 3244   3.148   3.988  11.259  1.3783  0.3397  0.2621
  210MPD1    C4 3245   3.156   4.105  11.184 -0.4350  0.6513  0.0140
  210MPD1    C5 3246   3.241   4.207  11.223 -0.1981 -0.0729  0.8636
  210MPD1     H 3247   3.232   3.901  11.439  3.0581  1.1228  1.2514
  210MPD1    H1 3248   3.105   4.122  11.089  0.2828  0.8421 -0.3366
  210MPD1    H2 3249   3.350   4.297  11.381 -0.0645 -1.1131  2.0513
  210MPD1    H3 3250   3.255   4.297  11.165 -0.8224 -0.5845 -0.0827
  210MPD1     N 3251   3.075   3.883  11.210  0.7350 -0.4144  0.1925
  210MPD1    H5 3252   3.040   3.900  11.116 -0.1991 -2.9812  0.0812
  210MPD1    N1 3253   3.359   4.100  11.549  0.5947  0.1847 -0.2912
  210MPD1    H6 3254   3.381   4.196  11.574 -1.4813  0.4565  0.5675
  210MPD1    H7 3255   3.305   4.046  11.617  2.8444 -3.0506 -1.0956
  211MPD1     C 3256   0.422   2.946  15.927 -0.7363  0.5092 -0.3208
  211MPD1    C1 3257   0.300   2.974  15.866 -0.4878  0.1296 -0.6378
  211MPD1    C2 3258   0.225   3.081  15.898 -0.1447 -0.1005  0.2078
  211MPD1    C3 3259   0.277   3.173  15.990 -0.7401  0.4480 -1.1680
  211MPD1    C4 3260   0.398   3.142  16.055 -0.0849  0.7961 -0.2438
  211MPD1    C5 3261   0.466   3.027  16.025  0.1397  0.8791  1.1217
  211MPD1     H 3262   0.134   3.089  15.840 -0.3930  0.1008  0.6240
  211MPD1    H1 3263   0.451   3.199  16.129 -1.1900 -1.8219  2.5899
  211MPD1    H2 3264   0.494   2.869  15.902 -0.1583  0.6861  0.7784
  211MPD1    H3 3265   0.563   3.014  16.072  0.3148 -0.3585  0.4099
  211MPD1     N 3266   0.198   3.292  16.024  0.5576  0.1060 -0.0468
  211MPD1    H5 3267   0.114   3.313  15.971  1.0993 -1.0769 -1.3842
  211MPD1    N1 3268   0.263   2.898  15.756 -1.0677 -0.3926  0.2828
  211MPD1    H6 3269   0.330   2.824  15.736 -1.7123 -1.3073  1.4717
  211MPD1    H7 3270   0.165   2.874  15.749 -0.7884 -0.9869 -1.6370
  212MPD1     C 3271   4.249   2.381  16.426  0.6035 -0.1425 -0.9171
  212MPD1    C1 3272   4.235   2.442  16.553 -0.6072 -0.6701 -0.3139
  212MPD1    C2 3273   4.179   2.372  16.654  0.4840 -0.4027 -0.4300
  212MPD1    C3 3274   4.162   2.241  16.643  0.7907  0.0514  0.5832
  212MPD1    C4 3275   4.192   2.176  16.527 -0.8653  0.1335  0.1442
  212MPD1    C5 3276   4.227   2.250  16.418 -1.4345  0.0894  0.2417
  212MPD1     H 3277   4.168   2.415  16.753  0.5669  1.4052 -1.2133
  212MPD1    H1 3278   4.186   2.069  16.519  2.4397  0.0052 -0.5043
  212MPD1    H2 3279   4.291   2.432  16.340  0.8329 -0.2445 -0.8678
  212MPD1    H3 3280   4.256   2.195  16.329  0.7641  0.9318  0.4576
  212MPD1     N 3281   4.097   2.162  16.740  0.1059 -0.3717  0.1975
  212MPD1    H5 3282   4.094   2.061  16.729 -0.0088 -0.2749 -0.6732
  212MPD1    N1 3283   4.303   2.565  16.585  0.1150  0.8592  0.0337
  212MPD1    H6 3284   4.301   2.616  16.497 -0.8187  0.0944 -0.3892
  212MPD1    H7 3285   4.243   2.614  16.651  0.2189 -0.7812  1.3704
  213MPD1     C 3286   2.678   2.765  15.350 -0.4725  0.2152  0.6455
  213MPD1    C1 3287   2.623   2.815  15.230 -0.3437  0.1522 -0.1967
  213MPD1    C2 3288   2.484   2.826  15.236  0.2889 -0.6011 -0.0275
  213MPD1    C3 3289   2.412   2.771  15.336  0.2473 -0.2964  0.0201
  213MPD1    C4 3290   2.471   2.700  15.433  0.3706 -0.3038  1.0974
  213MPD1    C5 3291   2.607   2.702  15.448 -0.1057 -0.8393 -0.8222
  213MPD1     H 3292   2.442   2.881  15.153  0.3744  1.1556  1.1009
  213MPD1    H1 3293   2.411   2.644  15.504  1.4545 -3.4709 -0.4582
  213MPD1    H2 3294   2.782   2.789  15.366 -0.3761  0.7417 -0.7246
  213MPD1    H3 3295   2.659   2.648  15.526  0.2852 -0.2443 -0.6728
  213MPD1     N 3296   2.279   2.776  15.316 -0.0628 -0.4055 -0.1301
  213MPD1    H5 3297   2.249   2.822  15.231 -1.7121  0.5726  0.9722
  213MPD1    N1 3298   2.694   2.903  15.151  0.3260 -0.0113 -0.6327
  213MPD1    H6 3299   2.666   2.897  15.054  0.1850 -0.7455 -0.5496
  213MPD1    H7 3300   2.787   2.861  15.145 -0.4548 -2.2277  2.5465
  214MPD1     C 3301   1.415   2.278  15.067  0.1449 -0.0182 -0.9976
  214MPD1    C1 3302   1.448   2.293  15.196 -0.6366  1.0408  0.0049
  214MPD1    C2 3303   1.559   2.365  15.225  0.1521 -0.0758 -0.3969
  214MPD1    C3 3304   1.622   2.435  15.124 -0.0955  0.9367 -0.3868
  214MPD1    C4 3305   1.582   2.416  14.991  0.6245 -0.8071 -0.3682
  214MPD1    C5 3306   1.476   2.336  14.963  0.0225  0.0776 -0.4299
  214MPD1     H 3307   1.584   2.386  15.328  0.4504 -3.4565  0.2337
  214MPD1    H1 3308   1.625   2.469  14.908 -1.0172  0.5707 -0.3218
  214MPD1    H2 3309   1.339   2.209  15.033 -1.7694  1.6879 -0.1827
  214MPD1    H3 3310   1.448   2.319  14.859  1.7606 -0.8870 -0.7335
  214MPD1     N 3311   1.730   2.521  15.152 -0.1004 -0.3269 -0.0186
  214MPD1    H5 3312   1.761   2.581  15.076  1.5898 -0.1672  0.7819
  214MPD1    N1 3313   1.385   2.222  15.303 -0.1967 -0.2086  0.0416
  214MPD1    H6 3314   1.289   2.199  15.278 -0.9973 -0.2403  3.0897
  214MPD1    H7 3315   1.402   2.254  15.398 -0.5266 -0.5943  0.2296
  215MPD1     C 3316   2.179   3.002  10.526  0.0915  0.4897 -0.5848
  215MPD1    C1 3317   2.218   3.009  10.656 -0.3744 -0.4991 -0.5138
  215MPD1    C2 3318   2.217   3.120  10.730  0.6916 -0.2903 -0.2785
  215MPD1    C3 3319   2.174   3.240  10.672 -0.0996  0.4600 -0.4825
  215MPD1    C4 3320   2.130   3.238  10.543 -0.7350  0.3512  0.1243
  215MPD1    C5 3321   2.124   3.118  10.479 -0.2916 -0.6129  0.3967
  215MPD1     H 3322   2.233   3.119  10.837 -0.8501  0.3340 -0.0422
  215MPD1    H1 3323   2.101   3.332  10.497 -1.5534 -0.8505 -1.8554
  215MPD1    H2 3324   2.160   2.914  10.466  1.2138 -0.4778  0.5025
  215MPD1    H3 3325   2.072   3.113  10.384  0.3062  0.3156  0.0193
  215MPD1     N 3326   2.191   3.353  10.747 -0.4732  0.1126 -0.2082
  215MPD1    H5 3327   2.240   3.344  10.835 -0.4338 -0.4786 -0.2871
  215MPD1    N1 3328   2.238   2.888  10.730  0.5076 -0.8933  0.1911
  215MPD1    H6 3329   2.286   2.908  10.817 -0.9212  3.1731  0.0561
  215MPD1    H7 3330   2.287   2.810  10.686  1.4258 -0.0393 -0.2945
  216MPD1     C 3331   0.611   1.456  17.091 -0.1632  0.1660 -1.0558
  216MPD1    C1 3332   0.618   1.396  17.216  0.4881 -0.1270 -0.2160
  216MPD1    C2 3333   0.562   1.268  17.217  0.6671 -0.0229  0.2571
  216MPD1    C3 3334   0.503   1.199  17.105 -0.3658 -0.4147 -0.5810
  216MPD1    C4 3335   0.502   1.268  16.990 -0.5010 -0.6333  0.2815
  216MPD1    C5 3336   0.564   1.391  16.980  0.3877 -0.1921  0.4601
  216MPD1     H 3337   0.542   1.232  17.318  0.2119  0.8907  0.4909
  216MPD1    H1 3338   0.461   1.222  16.901 -0.1357 -0.1346 -0.1467
  216MPD1    H2 3339   0.652   1.554  17.068 -1.8116  0.9428 -0.6697
  216MPD1    H3 3340   0.558   1.445  16.886 -4.0978 -3.0272 -0.8862
  216MPD1     N 3341   0.432   1.081  17.136  0.7113 -0.1266  0.5763
  216MPD1    H5 3342   0.427   1.064  17.235 -0.2832  0.9931  0.7145
  216MPD1    N1 3343   0.649   1.465  17.334 -0.1620  0.0530  0.2414
  216MPD1    H6 3344   0.725   1.531  17.327  0.6521 -0.9198 -0.1144
  216MPD1    H7 3345   0.660   1.406  17.417 -0.2502 -0.7858 -0.3448
  217MPD1     C 3346   0.789   3.691   8.866  0.1800  0.3362  0.1119
  217MPD1    C1 3347   0.888   3.591   8.891 -0.0107 -0.2919 -0.9280
  217MPD1    C2 3348   0.890   3.532   9.016  0.2242 -0.1490 -0.5904
  217MPD1    C3 3349   0.791   3.559   9.113  0.0208 -0.5421 -0.0852
  217MPD1    C4 3350   0.690   3.641   9.083 -0.8598  0.0712  0.3450
  217MPD1    C5 3351   0.692   3.710   8.962  0.0529 -0.0654  0.1026
  217MPD1     H 3352   0.965   3.454   9.023 -0.5707 -0.7688  1.1965
  217MPD1    H1 3353   0.604   3.663   9.146  1.0682  0.4890  2.8267
  217MPD1    H2 3354   0.786   3.748   8.774 -1.0252  1.9763  1.1681
  217MPD1    H3 3355   0.610   3.778   8.944  1.2836  1.1139 -1.0500
  217MPD1     N 3356   0.783   3.495   9.237  0.2998 -0.2800  0.2239
  217MPD1    H5 3357   0.690   3.503   9.279  0.3669 -2.3526  0.7700
  217MPD1    N1 3358   0.979   3.569   8.787 -0.0011 -0.2454 -0.3239
  217MPD1    H6 3359   0.931   3.555   8.698  0.9390  0.9404 -1.0137
  217MPD1    H7 3360   1.029   3.481   8.796  0.0072 -0.3423 -1.2992
  218MPD1     C 3361   1.528   0.225  12.813  0.0657  0.2679 -0.0281
  218MPD1    C1 3362   1.538   0.162  12.695  0.9309 -1.2810  0.0871
  218MPD1    C2 3363   1.562   0.025  12.700  0.1258  0.5951 -0.0818
  218MPD1    C3 3364   1.589   4.691  12.824  0.0440 -0.1814  0.2010
  218MPD1    C4 3365   1.575   0.029  12.944  0.2552  0.3285 -0.8448
  218MPD1    C5 3366   1.552   0.164  12.935  0.6971  0.0781 -0.2941
  218MPD1     H 3367   1.558   4.699  12.612  0.0329  0.0940  0.2813
  218MPD1    H1 3368   1.598   4.719  13.039 -0.0237  0.7141 -0.5850
  218MPD1    H2 3369   1.505   0.331  12.814  1.3627  0.5540 -1.1326
  218MPD1    H3 3370   1.558   0.226  13.023 -1.7142 -2.4349  1.6442
  218MPD1     N 3371   1.615   4.551  12.814  0.1258  0.4550  0.1412
  218MPD1    H5 3372   1.634   4.510  12.723  0.5358  0.4133  0.2477
  218MPD1    N1 3373   1.485   0.219  12.580 -0.2581  0.4740 -0.0867
  218MPD1    H6 3374   1.497   0.320  12.574 -0.2378  0.4264 -0.8352
  218MPD1    H7 3375   1.517   0.178  12.492 -0.9703  0.3163 -0.2707
  219MPD1     C 3376   1.575   3.742  12.271  0.2017  0.2703 -0.2864
  219MPD1    C1 3377   1.527   3.869  12.266 -0.3629  0.0345 -0.3758
  219MPD1    C2 3378   1.542   3.945  12.381 -0.1574 -0.2291 -0.7329
  219MPD1    C3 3379   1.592   3.895  12.496  0.3912  0.1956  0.3342
  219MPD1    C4 3380   1.621   3.759  12.505  0.2341 -0.1020  0.0177
  219MPD1    C5 3381   1.623   3.688  12.389  0.0427  0.7106 -0.4814
  219MPD1     H 3382   1.519   4.051  12.374  1.1991 -0.0955 -2.8514
  219MPD1    H1 3383   1.659   3.718  12.598  0.2131  0.0285  0.0830
  219MPD1    H2 3384   1.575   3.675  12.186 -0.5230  0.2295 -0.2567
  219MPD1    H3 3385   1.662   3.587  12.380 -0.9149  0.4122 -1.2708
  219MPD1     N 3386   1.622   3.973  12.612  0.4078  0.0565 -0.5087
  219MPD1    H5 3387   1.664   3.929  12.692  3.0707  0.6775 -1.5704
  219MPD1    N1 3388   1.503   3.934  12.145  0.5014 -0.0002  0.5086
  219MPD1    H6 3389   1.472   3.872  12.070 -1.7330 -2.2744  3.3313
  219MPD1    H7 3390   1.424   3.996  12.159  0.6637 -0.6506  4.2325
  220MPD1     C 3391   1.683   0.033   9.512  0.1980 -0.1906  0.0041
  220MPD1    C1 3392   1.768   0.055   9.616  0.8699  0.6670 -0.3187
  220MPD1    C2 3393   1.744   4.720   9.734 -0.9442 -0.0340 -0.1514
  220MPD1    C3 3394   1.639   4.629   9.750 -0.3504  0.2268  0.2497
  220MPD1    C4 3395   1.539   4.636   9.657  0.1271  0.0369 -0.1370
  220MPD1    C5 3396   1.565   4.696   9.535 -0.1800  0.7107 -0.2024
  220MPD1     H 3397   1.825   4.722   9.806 -1.6150 -2.7433  0.6686
  220MPD1    H1 3398   1.443   4.584   9.661  0.3448 -0.1899  1.9741
  220MPD1    H2 3399   1.708   0.075   9.415  1.9252 -0.4222  0.3457
  220MPD1    H3 3400   1.495   4.681   9.453 -0.3959  1.4284 -0.1422
  220MPD1     N 3401   1.637   4.535   9.852  0.4045  0.6339 -0.2094
  220MPD1    H5 3402   1.714   4.548   9.917 -0.0356  2.1654  0.0271
  220MPD1    N1 3403   1.889   0.122   9.594  0.3114  0.4758 -0.5472
  220MPD1    H6 3404   1.898   0.192   9.522  1.8589 -2.2369 -2.9907
  220MPD1    H7 3405   1.944   0.152   9.674 -3.3084  0.6647  1.8774
  221MPD1     C 3406   4.579   3.481  16.490 -0.8169  0.4263 -0.1018
  221MPD1    C1 3407   4.531   3.426  16.377  0.5132 -0.2779 -0.4687
  221MPD1    C2 3408   4.601   3.320  16.322  0.4517  0.4091 -0.6908
  221MPD1    C3 3409   4.708   3.258  16.384  0.2945  0.9776 -0.2197
  221MPD1    C4 3410   4.737   3.306  16.512  0.0559 -0.0412  0.0085
  221MPD1    C5 3411   4.681   3.417  16.560  0.3452  0.8923  0.5748
  221MPD1     H 3412   4.560   3.280  16.230  0.0615  1.3108 -0.9139
  221MPD1    H1 3413   0.077   3.254  16.567  0.1830 -1.5017 -1.5579
  221MPD1    H2 3414   4.541   3.574  16.530 -2.3551 -0.3530  0.2495
  221MPD1    H3 3415   4.706   3.453  16.659  0.1984 -0.8303  1.2311
  221MPD1     N 3416   0.035   3.140  16.332 -0.1897  0.0504 -0.1795
  221MPD1    H5 3417   0.099   3.092  16.394  0.4128  0.5689 -0.4066
  221MPD1    N1 3418   4.434   3.506  16.300  0.0204 -0.0453  0.1720
  221MPD1    H6 3419   4.389   3.441  16.236  1.1659 -0.2726 -0.4075
  221MPD1    H7 3420   4.374   3.545  16.372  0.0644  2.5077 -1.1686
  222MPD1     C 3421   3.614   2.561  16.768 -0.5707 -0.4774 -0.0355
  222MPD1    C1 3422   3.729   2.514  16.827  0.1410 -0.1547 -0.3118
  222MPD1    C2 3423   3.744   2.528  16.964  0.4248 -0.2033  0.0661
  222MPD1    C3 3424   3.631   2.583  17.033  0.0385  0.0648 -0.0117
  222MPD1    C4 3425   3.531   2.646  16.969 -0.9487 -0.0074  0.3104
  222MPD1    C5 3426   3.519   2.629  16.834  0.0460  0.4667  0.0319
  222MPD1     H 3427   3.830   2.497  17.022  0.4324 -1.2098 -0.4891
  222MPD1    H1 3428   3.450   2.694  17.023  1.0218  2.7026  0.8528
  222MPD1    H2 3429   3.596   2.556  16.661 -0.2043 -1.3337 -0.0539
  222MPD1    H3 3430   3.438   2.674  16.778 -1.8117 -0.3453  2.0464
  222MPD1     N 3431   3.624   2.608  17.174 -0.4128  0.0855  0.0191
  222MPD1    H5 3432   3.540   2.654  17.206  0.5930  3.0126 -1.5337
  222MPD1    N1 3433   3.822   2.442  16.747 -0.2888 -0.1503  0.0641
  222MPD1    H6 3434   3.806   2.431  16.647  3.0589 -0.5296 -0.4204
  222MPD1    H7 3435   3.916   2.419  16.781  0.0454  0.3089 -0.5547
  223MPD1     C 3436   3.036   2.426   0.232 -0.6202  0.6396  0.0406
  223MPD1    C1 3437   3.162   2.388   0.270  0.1166  0.3541  0.7879
  223MPD1    C2 3438   3.272   2.420   0.189  0.4295  0.4790  0.3158
  223MPD1    C3 3439   3.243   2.502   0.074  0.2815 -0.5068 -0.7509
  223MPD1    C4 3440   3.116   2.549   0.038 -0.4387 -0.0062  0.2232
  223MPD1    C5 3441   3.015   2.510   0.117  0.0617  0.6460 -0.0458
  223MPD1     H 3442   3.376   2.418   0.218  0.6801 -1.7044 -0.7532
  223MPD1    H1 3443   3.086   2.609  17.700 -3.7286 -0.0696  1.3499
  223MPD1    H2 3444   2.954   2.399   0.298 -1.1386  0.1848 -0.7849
  223MPD1    H3 3445   2.914   2.535   0.089 -0.2150  0.8226  1.1183
  223MPD1     N 3446   3.360   2.532  17.735  0.5235  0.5395 -0.4765
  223MPD1    H5 3447   3.447   2.495   0.024  0.2877  0.9372  0.5159
  223MPD1    N1 3448   3.179   2.324   0.394 -0.5901 -0.0991 -0.3605
  223MPD1    H6 3449   3.262   2.265   0.399 -0.2817  0.4566  1.2039
  223MPD1    H7 3450   3.103   2.264   0.426 -2.4457  2.0020 -0.7983
  224MPD1     C 3451   0.951   3.603   9.524 -0.4494 -0.5308  0.3418
  224MPD1    C1 3452   0.864   3.685   9.597  0.3805 -0.0636 -0.5571
  224MPD1    C2 3453   0.833   3.648   9.724 -0.5725  0.0487 -0.2036
  224MPD1    C3 3454   0.905   3.548   9.789 -0.5590  0.3658 -0.3153
  224MPD1    C4 3455   1.000   3.468   9.716  0.2448  0.0706 -0.2243
  224MPD1    C5 3456   1.023   3.498   9.579 -0.7815  0.4666 -0.5175
  224MPD1     H 3457   0.761   3.717   9.766  0.3774  0.0620  1.3914
  224MPD1    H1 3458   1.064   3.397   9.767  0.9981  0.3759 -0.7451
  224MPD1    H2 3459   0.963   3.621   9.418  0.5355 -0.7017  0.4290
  224MPD1    H3 3460   1.080   3.428   9.519 -4.7044 -2.2837 -1.0737
  224MPD1     N 3461   0.885   3.518   9.923 -0.5030 -0.1941  0.0879
  224MPD1    H5 3462   0.918   3.429   9.960  2.3464  0.3713 -1.1600
  224MPD1    N1 3463   0.800   3.790   9.538  0.3658 -0.6509  0.2552
  224MPD1    H6 3464   0.848   3.839   9.463 -2.1748  0.5811 -0.5572
  224MPD1    H7 3465   0.766   3.863   9.599 -0.2003 -0.1991 -0.6071
  225MPD1     C 3466   1.105   4.583  13.174 -0.2437  0.1099 -0.0825
  225MPD1    C1 3467   1.184   4.483  13.129 -0.4672  0.3342 -0.2477
  225MPD1    C2 3468   1.214   4.490  12.992  0.0485 -0.2357 -0.9674
  225MPD1    C3 3469   1.169   4.592  12.909  0.4681  0.1319  0.1681
  225MPD1    C4 3470   1.097   4.691  12.959 -0.1327  0.5383  0.2117
  225MPD1    C5 3471   1.058   4.684  13.090  0.0869 -0.8260 -0.5607
  225MPD1     H 3472   1.286   4.420  12.951  1.7089  1.0863 -0.3482
  225MPD1    H1 3473   1.056   0.031  12.894 -1.8630 -0.0241  0.6265
  225MPD1    H2 3474   1.079   4.588  13.279  0.4308  2.5906 -0.0169
  225MPD1    H3 3475   0.998   0.029  13.127 -0.0758 -1.1004 -0.2118
  225MPD1     N 3476   1.192   4.593  12.770 -0.4179 -0.1374  0.3398
  225MPD1    H5 3477   1.158   4.676  12.723  0.4028  0.7862  1.3921
  225MPD1    N1 3478   1.258   4.413  13.226  0.4952  0.1630 -0.6026
  225MPD1    H6 3479   1.198   4.365  13.293  0.3762 -0.8828 -1.4582
  225MPD1    H7 3480   1.296   4.326  13.187  0.5047 -0.9329  1.8054
  226MPD1     C 3481   3.983   4.214   9.862  0.5247  0.4890  0.5066
  226MPD1    C1 3482   4.065   4.128   9.786  0.4860 -0.1337  0.5491
  226MPD1    C2 3483   4.190   4.171   9.756  0.0594 -0.6291 -0.7645
  226MPD1    C3 3484   4.237   4.292   9.801 -1.0001  0.2429 -0.5172
  226MPD1    C4 3485   4.153   4.377   9.877  0.0524 -0.3813  0.1432
  226MPD1    C5 3486   4.026   4.339   9.898 -0.4249 -0.7509 -0.1249
  226MPD1     H 3487   4.255   4.120   9.687  2.4671  0.0193  1.0146
  226MPD1    H1 3488   4.186   4.471   9.922  0.1339 -1.5036  2.4718
  226MPD1    H2 3489   3.881   4.182   9.879  0.1794  0.4388 -1.5761
  226MPD1    H3 3490   3.958   4.397   9.960  0.0949 -0.2311 -0.0368
  226MPD1     N 3491   4.364   4.337   9.766 -0.9636  0.7011 -0.4145
  226MPD1    H5 3492   4.420   4.283   9.701 -1.1914  0.8545 -0.7397
  226MPD1    N1 3493   4.015   4.009   9.728 -0.8795 -0.4584  0.4507
  226MPD1    H6 3494   3.936   3.975   9.783 -0.2673 -2.1244  0.2919
  226MPD1    H7 3495   4.080   3.931   9.740  0.0307  0.0655 -1.1703
  227MPD1     C 3496   0.476   0.286   9.985 -0.0817 -0.1012 -1.1305
  227MPD1    C1 3497   0.523   0.161   9.990 -0.3809 -0.3010 -0.5737
  227MPD1    C2 3498   0.437   0.057   9.961  0.1092 -0.5613 -0.4966
  227MPD1    C3 3499   0.302   0.079   9.945 -0.1710  0.4524 -0.5693
  227MPD1    C4 3500   0.255   0.208   9.941 -0.0101  0.1450  0.4485
  227MPD1    C5 3501   0.340   0.308   9.969  0.0378  0.8098  0.6853
  227MPD1     H 3502   0.479   4.696   9.945 -0.4954 -0.5697 -2.0499
  227MPD1    H1 3503   0.156   0.238   9.911 -0.3091 -0.6208  0.6589
  227MPD1    H2 3504   0.540   0.371  10.007 -1.5520  0.1491  2.3002
  227MPD1    H3 3505   0.301   0.408   9.951  1.5534  1.2778 -0.0354
  227MPD1     N 3506   0.228   4.701   9.898 -0.4008 -0.2547  0.2511
  227MPD1    H5 3507   0.286   4.618   9.907  1.0551  0.6613 -0.7293
  227MPD1    N1 3508   0.662   0.143   9.973  0.2012  0.0079 -0.3945
  227MPD1    H6 3509   0.714   0.213  10.027  0.1803 -1.2384  1.2454
  227MPD1    H7 3510   0.697   0.052  10.002  1.7712 -0.1238 -2.6961
  228MPD1     C 3511   2.257   2.216  12.021  0.3200 -0.1083  0.1235
  228MPD1    C1 3512   2.284   2.323  12.102  0.1352  0.7425 -0.1613
  228MPD1    C2 3513   2.242   2.324  12.235  0.1328 -0.1120  0.1100
  228MPD1    C3 3514   2.163   2.227  12.289  0.1841 -0.1562  0.7038
  228MPD1    C4 3515   2.127   2.120  12.214 -0.2773 -0.5459 -0.5052
  228MPD1    C5 3516   2.171   2.120  12.080 -0.0400  0.2091  0.1913
  228MPD1     H 3517   2.258   2.398  12.314 -1.6825 -0.5446  0.8765
  228MPD1    H1 3518   2.055   2.045  12.245 -0.0474 -0.1071  1.0763
  228MPD1    H2 3519   2.285   2.212  11.917  0.8554  2.3099  0.1675
  228MPD1    H3 3520   2.146   2.037  12.015  2.3540  0.3209 -0.8795
  228MPD1     N 3521   2.139   2.238  12.428 -0.2516  0.0826  0.1713
  228MPD1    H5 3522   2.177   2.324  12.468 -2.4400  1.5727 -0.9563
  228MPD1    N1 3523   2.370   2.424  12.055  0.5019 -0.2171  0.2478
  228MPD1    H6 3524   2.376   2.504  12.118  1.9431  0.8618 -1.2547
  228MPD1    H7 3525   2.334   2.475  11.974  0.4532  0.6312  0.8050
  229MPD1     C 3526   2.698   1.436  14.577  0.3309  0.4278  0.4332
  229MPD1    C1 3527   2.777   1.544  14.616  0.3357 -0.2306 -0.0602
  229MPD1    C2 3528   2.882   1.521  14.711 -0.5352 -0.1820 -0.0852
  229MPD1    C3 3529   2.914   1.398  14.756  0.3059  0.1560 -0.3617
  229MPD1    C4 3530   2.836   1.292  14.724  0.3865  0.5168 -0.4756
  229MPD1    C5 3531   2.731   1.317  14.634 -0.2552  0.1193  0.5862
  229MPD1     H 3532   2.953   1.602  14.722 -0.9310  0.2579 -0.7979
  229MPD1    H1 3533   2.838   1.192  14.765 -2.2615  1.6312  2.4052
  229MPD1    H2 3534   2.633   1.434  14.490 -0.5677  2.2607  1.0748
  229MPD1    H3 3535   2.671   1.235  14.597 -0.1701  0.7874 -1.0435
  229MPD1     N 3536   3.037   1.369  14.831 -0.3019  0.0980  0.0936
  229MPD1    H5 3537   3.053   1.272  14.856 -0.7471 -0.1454 -0.5802
  229MPD1    N1 3538   2.764   1.673  14.550 -0.0960 -0.4413  0.0588
  229MPD1    H6 3539   2.667   1.693  14.525 -0.2119  0.1147  0.9692
  229MPD1    H7 3540   2.802   1.752  14.601 -0.3051 -1.5548  1.9206
  230MPD1     C 3541   3.672   1.454  15.678  0.6913 -0.3694 -0.6144
  230MPD1    C1 3542   3.758   1.435  15.570  0.5037  0.3355 -0.5887
  230MPD1    C2 3543   3.707   1.407  15.445  0.0407  0.0443  0.7612
  230MPD1    C3 3544   3.572   1.411  15.426 -1.0189 -0.6819 -0.3036
  230MPD1    C4 3545   3.490   1.427  15.533 -0.1914  0.8602  0.0452
  230MPD1    C5 3546   3.538   1.459  15.654  0.0484 -0.7288 -0.0199
  230MPD1     H 3547   3.776   1.388  15.363  1.0106  0.1074  1.5648
  230MPD1    H1 3548   3.382   1.420  15.525  0.0458 -1.6996 -1.1635
  230MPD1    H2 3549   3.710   1.460  15.779 -0.4660  1.8900 -0.3107
  230MPD1    H3 3550   3.467   1.470  15.735 -1.7322  0.3475 -1.7403
  230MPD1     N 3551   3.526   1.397  15.298  0.0189  0.8291 -0.2896
  230MPD1    H5 3552   3.596   1.369  15.230 -0.2904  0.8266 -0.6076
  230MPD1    N1 3553   3.892   1.397  15.603 -0.3191  0.5392 -0.5916
  230MPD1    H6 3554   3.930   1.462  15.671  0.8111 -0.7522  0.0103
  230MPD1    H7 3555   3.957   1.393  15.525 -1.5223  1.8546 -1.6527
  231MPD1     C 3556   1.447   2.689  15.363  0.1700  0.0730 -0.1754
  231MPD1    C1 3557   1.407   2.699  15.236  0.8464  0.0167 -0.2296
  231MPD1    C2 3558   1.442   2.804  15.156 -0.1605 -0.2528  0.3805
  231MPD1    C3 3559   1.517   2.910  15.200 -0.2978 -0.2531 -0.1820
  231MPD1    C4 3560   1.570   2.896  15.325  0.0917  0.6507 -0.2085
  231MPD1    C5 3561   1.536   2.786  15.408 -0.5846 -0.1189 -0.3651
  231MPD1     H 3562   1.396   2.802  15.058  1.1902  1.4143 -0.3021
  231MPD1    H1 3563   1.637   2.968  15.370 -3.1961  1.2435  3.7819
  231MPD1    H2 3564   1.420   2.603  15.424  2.4632 -0.7029 -0.2606
  231MPD1    H3 3565   1.589   2.790  15.502 -2.4106  0.0992  0.6530
  231MPD1     N 3566   1.553   3.014  15.107  0.5260 -0.5452  0.7815
  231MPD1    H5 3567   1.517   3.009  15.013  0.2539  2.0988  0.7669
  231MPD1    N1 3568   1.313   2.609  15.177  0.1920 -0.3766  0.2733
  231MPD1    H6 3569   1.308   2.611  15.076 -0.1323 -0.0649  0.2948
  231MPD1    H7 3570   1.318   2.513  15.212  0.9084 -0.0060  1.2016
  232MPD1     C 3571   3.059   1.597   0.440  0.0721  0.0626 -0.1376
  232MPD1    C1 3572   2.941   1.641   0.379 -0.2374  0.1278 -0.4990
  232MPD1    C2 3573   2.885   1.567   0.277  0.3736 -0.5364 -0.1284
  232MPD1    C3 3574   2.944   1.444   0.239  0.1901  0.0163 -0.4729
  232MPD1    C4 3575   3.064   1.405   0.290 -0.5700  0.4510 -0.3323
  232MPD1    C5 3576   3.113   1.478   0.399  0.1568  1.1327  0.1060
  232MPD1     H 3577   2.798   1.591   0.217 -0.0767 -1.0580  0.3084
  232MPD1    H1 3578   3.111   1.308   0.273  3.0308  1.8577  1.5566
  232MPD1    H2 3579   3.113   1.659   0.511 -0.6924  0.8731 -0.2638
  232MPD1    H3 3580   3.207   1.449   0.444  0.2715 -0.5881 -1.2277
  232MPD1     N 3581   2.880   1.363   0.145 -0.5109  0.6888 -0.0507
  232MPD1    H5 3582   2.796   1.403   0.105 -1.4121 -0.9301  0.1992
  232MPD1    N1 3583   2.885   1.763   0.423 -0.1058  0.1676 -0.4221
  232MPD1    H6 3584   2.834   1.809   0.347  0.9300  1.0605 -0.5843
  232MPD1    H7 3585   2.949   1.836   0.456  0.2199  0.1639 -1.0261
  233MPD1     C 3586   3.545   4.035   1.823  0.0089  0.1219  0.4709
  233MPD1    C1 3587   3.659   4.054   1.898  0.0671 -0.6679  0.3335
  233MPD1    C2 3588   3.771   3.982   1.865 -0.0725 -0.1697 -0.0194
  233MPD1    C3 3589   3.771   3.889   1.768  0.0774  0.3141  0.3046
  233MPD1    C4 3590   3.647   3.861   1.708 -0.0804 -0.7731  0.0219
  233MPD1    C5 3591   3.538   3.937   1.734 -0.2784  0.2037 -1.0148
  233MPD1     H 3592   3.854   3.987   1.934  0.4656 -1.8583 -0.5274
  233MPD1    H1 3593   3.645   3.777   1.640 -0.3847  0.1968 -1.1675
  233MPD1    H2 3594   3.451   4.086   1.835 -0.8186 -1.4392  0.5729
  233MPD1    H3 3595   3.439   3.909   1.703 -0.4348  0.1376 -0.4583
  233MPD1     N 3596   3.888   3.805   1.744 -0.2974  0.0538 -0.6210
  233MPD1    H5 3597   3.874   3.726   1.681 -1.4159  1.4766 -2.1765
  233MPD1    N1 3598   3.669   4.155   1.990 -0.1961  0.6559 -0.7948
  233MPD1    H6 3599   3.577   4.189   2.018 -0.1007  0.9848 -0.8785
  233MPD1    H7 3600   3.726   4.136   2.073  0.5737  0.4656 -1.3685
  234MPD1     C 3601   1.429   1.843  10.001 -0.6949  0.1360 -0.1783
  234MPD1    C1 3602   1.379   1.915   9.894 -0.6339 -0.4329  0.1315
  234MPD1    C2 3603   1.367   2.054   9.903  0.1944  0.4321 -0.0131
  234MPD1    C3 3604   1.419   2.121  10.009 -0.3695  0.1273  0.0901
  234MPD1    C4 3605   1.500   2.055  10.102 -0.0233 -0.4726  0.3522
  234MPD1    C5 3606   1.501   1.913  10.094 -0.2429  0.3813  0.1804
  234MPD1     H 3607   1.296   2.103   9.838  1.3763  0.6121 -1.1571
  234MPD1    H1 3608   1.547   2.112  10.181  1.1207 -0.2631 -0.4685
  234MPD1    H2 3609   1.426   1.735  10.007 -0.2126  0.0192 -2.0714
  234MPD1    H3 3610   1.547   1.851  10.170 -0.3209  2.1899  1.7273
  234MPD1     N 3611   1.390   2.260  10.013 -0.7838  0.2081  0.2247
  234MPD1    H5 3612   1.328   2.294   9.941 -0.9942  2.2108  1.3518
  234MPD1    N1 3613   1.305   1.849   9.800 -0.1515 -0.1599  0.6429
  234MPD1    H6 3614   1.325   1.750   9.787 -1.9462 -0.5720  0.9618
  234MPD1    H7 3615   1.311   1.891   9.707 -0.8157  0.1907  0.7561
  235MPD1     C 3616   2.233   4.388  11.151 -0.4295 -0.0673 -0.4458
  235MPD1    C1 3617   2.230   4.405  11.007  0.9447  0.2956  1.3614
  235MPD1    C2 3618   2.269   4.524  10.954  1.1317 -0.1770  0.9222
  235MPD1    C3 3619   2.324   4.629  11.026 -0.4163  0.7467 -0.4915
  235MPD1    C4 3620   2.338   4.605  11.162 -0.1259  0.3182 -0.3377
  235MPD1    C5 3621   2.304   4.481  11.222  0.7666  0.2877  0.4034
  235MPD1     H 3622   2.240   4.542  10.852 -0.8874 -2.4849  1.0931
  235MPD1    H1 3623   2.379   4.676  11.234 -1.6722 -0.1683  1.0074
  235MPD1    H2 3624   2.190   4.303  11.204 -0.3554  0.5470  0.6030
  235MPD1    H3 3625   2.321   4.467  11.328 -0.4344  1.5097  0.7632
  235MPD1     N 3626   2.368   0.009  10.956 -0.1314  0.1320  0.3284
  235MPD1    H5 3627   2.353   0.004  10.856  0.2577  3.0297  0.1499
  235MPD1    N1 3628   2.156   4.312  10.930 -0.4924  0.3693  0.0402
  235MPD1    H6 3629   2.199   4.288  10.841  0.9397  2.4149  0.2001
  235MPD1    H7 3630   2.147   4.224  10.980 -1.2718 -0.0510 -0.8440
  236MPD1     C 3631   1.406   0.978   9.895  0.0712 -0.2122 -0.0909
  236MPD1    C1 3632   1.491   1.087   9.883  0.4117 -0.7323 -0.0029
  236MPD1    C2 3633   1.612   1.081   9.951 -0.7903 -0.9883  0.2042
  236MPD1    C3 3634   1.656   0.963  10.019 -0.3242  0.2251 -0.1025
  236MPD1    C4 3635   1.575   0.853  10.021  0.2629  0.1363 -0.5501
  236MPD1    C5 3636   1.449   0.869   9.964  0.0740  0.0791  0.1875
  236MPD1     H 3637   1.670   1.172   9.951 -1.1530 -0.7655 -1.4605
  236MPD1    H1 3638   1.608   0.755  10.054  1.3147  0.0879 -1.7432
  236MPD1    H2 3639   1.309   0.980   9.847 -0.5177 -1.0217  1.0778
  236MPD1    H3 3640   1.381   0.786   9.974 -0.4762  0.5669  0.4440
  236MPD1     N 3641   1.779   0.957  10.096  0.3606  0.0765 -0.0398
  236MPD1    H5 3642   1.816   0.871  10.135  0.5079  1.1870  2.2976
  236MPD1    N1 3643   1.456   1.206   9.818 -0.0090  0.5964  0.2708
  236MPD1    H6 3644   1.390   1.185   9.743 -0.4017  2.1760  0.1654
  236MPD1    H7 3645   1.539   1.247   9.778 -0.0065  0.2556 -0.0695
  237MPD1     C 3646   1.598   0.190  15.938  0.7469  0.1556  0.2914
  237MPD1    C1 3647   1.585   0.095  16.046 -0.4513 -0.1980  0.9803
  237MPD1    C2 3648   1.540   4.707  16.015 -0.4382 -0.0437 -0.4003
  237MPD1    C3 3649   1.483   4.674  15.895 -0.4032  0.5968  0.5534
  237MPD1    C4 3650   1.488   0.030  15.792 -0.1061  0.4002  0.0654
  237MPD1    C5 3651   1.555   0.156  15.812 -0.5488 -0.1176 -0.0773
  237MPD1     H 3652   1.542   4.635  16.097 -1.7545  2.2515  1.6415
  237MPD1    H1 3653   1.439   0.011  15.697 -0.9422  1.5717  0.2637
  237MPD1    H2 3654   1.650   0.285  15.940  1.5747 -0.2051 -3.2318
  237MPD1    H3 3655   1.580   0.219  15.728 -0.3003 -2.2627 -1.6271
  237MPD1     N 3656   1.414   4.555  15.867  0.2797 -0.3027 -0.0624
  237MPD1    H5 3657   1.365   4.541  15.780  0.2804  0.2943 -0.1631
  237MPD1    N1 3658   1.656   0.120  16.161 -0.6923  0.0140 -0.1733
  237MPD1    H6 3659   1.652   0.220  16.176 -0.4428 -0.0494  0.3276
  237MPD1    H7 3660   1.633   0.055  16.236 -1.1177 -0.4683 -0.7194
  238MPD1     C 3661   3.623   2.352  14.720  0.2443  0.5448  1.2621
  238MPD1    C1 3662   3.621   2.472  14.783 -0.3656  0.1395  0.5005
  238MPD1    C2 3663   3.506   2.552  14.759 -0.1749 -0.2729  0.0027
  238MPD1    C3 3664   3.387   2.506  14.695 -0.0243  0.5709 -0.4942
  238MPD1    C4 3665   3.391   2.376  14.648 -0.2245 -0.5109  0.7126
  238MPD1    C5 3666   3.507   2.305  14.666 -0.3523 -0.0201 -0.3216
  238MPD1     H 3667   3.501   2.649  14.807  1.2388  0.5258 -1.4654
  238MPD1    H1 3668   3.305   2.325  14.605 -0.3339 -1.2232  1.7718
  238MPD1    H2 3669   3.710   2.287  14.719 -1.9576 -2.4433  5.3066
  238MPD1    H3 3670   3.509   2.208  14.618  0.0108  0.0157 -0.3773
  238MPD1     N 3671   3.269   2.575  14.669 -0.7180 -0.4875 -0.4332
  238MPD1    H5 3672   3.200   2.542  14.602 -1.2056 -0.0747 -0.1428
  238MPD1    N1 3673   3.736   2.515  14.854  0.2477 -0.2022  0.0400
  238MPD1    H6 3674   3.786   2.431  14.882 -0.6913 -0.7368  0.1388
  238MPD1    H7 3675   3.705   2.571  14.933  0.6472  0.6420 -0.4064
  239MPD1     C 3676   3.305   3.435  15.103 -0.0328  0.2390 -0.2054
  239MPD1    C1 3677   3.416   3.521  15.092 -0.1321  0.1291  0.1114
  239MPD1    C2 3678   3.405   3.634  15.019 -0.1409 -0.5413 -0.3642
  239MPD1    C3 3679   3.291   3.657  14.934  0.2127  0.2961 -0.6614
  239MPD1    C4 3680   3.194   3.561  14.931  0.2966  0.5310  1.1467
  239MPD1    C5 3681   3.193   3.460  15.026 -0.2502 -0.4371  0.8397
  239MPD1     H 3682   3.489   3.701  15.027 -0.4461 -0.3691  1.3826
  239MPD1    H1 3683   3.104   3.568  14.871  1.0434  0.8127  0.0493
  239MPD1    H2 3684   3.298   3.352  15.172 -1.0470  0.3768 -0.1311
  239MPD1    H3 3685   3.105   3.398  15.037 -0.0874 -0.6611  0.8791
  239MPD1     N 3686   3.285   3.770  14.843  0.0631  0.2100  0.6926
  239MPD1    H5 3687   3.190   3.789  14.813  0.3513 -0.6041 -0.7233
  239MPD1    N1 3688   3.512   3.511  15.187 -0.6720 -0.5268 -0.1006
  239MPD1    H6 3689   3.546   3.417  15.205  0.1333 -0.4198 -1.0634
  239MPD1    H7 3690   3.602   3.552  15.164  0.0180 -2.0429 -0.0736
  240MPD1     C 3691   2.251   3.931  13.998  0.6759  0.0139  0.0473
  240MPD1    C1 3692   2.186   3.813  14.031 -0.0654 -1.1489  0.1782
  240MPD1    C2 3693   2.262   3.699  14.052 -0.0316 -0.7459  0.1648
  240MPD1    C3 3694   2.399   3.700  14.051  0.4433 -0.4248  0.0933
  240MPD1    C4 3695   2.459   3.824  14.049 -0.1331 -0.2882  0.2200
  240MPD1    C5 3696   2.390   3.931  14.010  0.0352 -0.3005 -1.1259
  240MPD1     H 3697   2.211   3.604  14.066 -0.1772 -0.5144  1.2072
  240MPD1    H1 3698   2.564   3.841  14.065 -0.2879  0.6009  0.2696
  240MPD1    H2 3699   2.207   4.020  13.955 -1.5279  0.1430  2.5787
  240MPD1    H3 3700   2.443   4.026  14.001  1.0041 -0.8021 -0.7523
  240MPD1     N 3701   2.471   3.581  14.072  0.8137  0.1058  0.1930
  240MPD1    H5 3702   2.418   3.495  14.072 -0.0141  0.6110  0.9844
  240MPD1    N1 3703   2.053   3.806  14.009 -0.2662 -0.4792  0.7432
  240MPD1    H6 3704   2.014   3.899  14.014 -1.5690 -1.0398  0.9595
  240MPD1    H7 3705   1.999   3.747  14.072 -1.7234  0.8126  0.7089
  241MPD1     C 3706   3.270   2.934  13.733 -0.3437  0.0158  0.1334
  241MPD1    C1 3707   3.187   3.019  13.660  0.1376  0.0326 -0.2462
  241MPD1    C2 3708   3.071   3.067  13.727  0.2979 -0.1748 -0.5834
  241MPD1    C3 3709   3.051   3.034  13.858  0.3451  0.2958 -0.1501
  241MPD1    C4 3710   3.143   2.949  13.920 -0.0239  0.0062 -0.0166
  241MPD1    C5 3711   3.250   2.898  13.859 -0.3667  0.1307  0.2874
  241MPD1     H 3712   3.005   3.133  13.671 -0.3790 -1.4399 -1.2704
  241MPD1    H1 3713   3.141   2.932  14.027 -2.3780 -0.6797 -0.1720
  241MPD1    H2 3714   3.346   2.876  13.681 -0.6743  1.2201 -1.7034
  241MPD1    H3 3715   3.316   2.831  13.912 -0.2155  3.6963  4.6969
  241MPD1     N 3716   2.940   3.080  13.932 -0.0551 -0.2283  0.6687
  241MPD1    H5 3717   2.936   3.050  14.029  0.3729  0.2946  0.8481
  241MPD1    N1 3718   3.210   3.036  13.524  0.7203 -0.2623  0.2840
  241MPD1    H6 3719   3.310   3.053  13.518  0.8981 -1.4099  0.0436
  241MPD1    H7 3720   3.166   3.122  13.492  0.3569 -0.8112 -0.6808
  242MPD1     C 3721   2.333   1.444  15.900 -0.3248 -0.1469 -0.1196
  242MPD1    C1 3722   2.304   1.558  15.964  0.5167 -0.2791  0.1315
  242MPD1    C2 3723   2.334   1.677  15.896 -0.2692 -0.1281  1.3464
  242MPD1    C3 3724   2.370   1.674  15.766  0.7717  0.1856  0.1556
  242MPD1    C4 3725   2.389   1.553  15.700  0.9862  0.7377 -0.0863
  242MPD1    C5 3726   2.375   1.441  15.773  0.5690 -0.9126 -0.3285
  242MPD1     H 3727   2.333   1.773  15.947  0.6128 -0.9372  2.8693
  242MPD1    H1 3728   2.419   1.534  15.597  1.2835  0.2803  0.0877
  242MPD1    H2 3729   2.311   1.349  15.948 -0.7045  0.7782  1.5525
  242MPD1    H3 3730   2.414   1.345  15.742  1.9421 -0.4525 -0.0091
  242MPD1     N 3731   2.391   1.795  15.688  0.6804 -0.0362 -0.1673
  242MPD1    H5 3732   2.425   1.786  15.593 -1.6013  0.9870 -1.0861
  242MPD1    N1 3733   2.267   1.551  16.102  0.5232 -0.7087 -0.3545
  242MPD1    H6 3734   2.214   1.635  16.122  0.7935 -0.0510 -2.3714
  242MPD1    H7 3735   2.220   1.464  16.126  1.8329 -1.4548 -0.4591
  243MPD1     C 3736   3.624   0.549   0.060  0.1562  0.0813 -0.6869
  243MPD1    C1 3737   3.741   0.559   0.119 -0.8108  0.2749  0.3644
  243MPD1    C2 3738   3.847   0.484   0.071 -0.8474  0.0318 -0.5788
  243MPD1    C3 3739   3.833   0.391  17.718 -0.4424  0.2295 -0.4518
  243MPD1    C4 3740   3.702   0.376  17.670  0.1567 -0.0021 -0.1065
  243MPD1    C5 3741   3.603   0.458  17.705 -0.5114  0.6898  0.3370
  243MPD1     H 3742   3.947   0.519   0.097 -1.3037  0.8928 -0.0108
  243MPD1    H1 3743   3.683   0.304  17.591  1.7527  0.4309 -0.8880
  243MPD1    H2 3744   3.540   0.607   0.097  0.4754 -1.4865  2.5239
  243MPD1    H3 3745   3.514   0.444  17.645 -1.1311 -2.3106  1.9511
  243MPD1     N 3746   3.945   0.314  17.674  0.1095  0.1451 -0.0686
  243MPD1    H5 3747   4.035   0.343  17.711  1.2803 -2.8610 -0.5092
  243MPD1    N1 3748   3.758   0.646   0.229  0.2295  0.8322 -0.9159
  243MPD1    H6 3749   3.787   0.587   0.307 -3.3520 -1.2500 -1.1653
  243MPD1    H7 3750   3.669   0.685   0.258  0.1641  0.1987 -0.2759
  244MPD1     C 3751   4.513   4.438   0.273  0.0007  0.1164  0.8764
  244MPD1    C1 3752   4.493   4.571   0.322  0.1932 -0.8552  0.6532
  244MPD1    C2 3753   4.432   4.663   0.243  0.4891 -0.6574  0.1770
  244MPD1    C3 3754   4.398   4.637   0.109  0.6912 -0.3797 -0.1140
  244MPD1    C4 3755   4.421   4.504   0.065 -0.9183  0.1660 -0.4082
  244MPD1    C5 3756   4.469   4.407   0.149  0.9776 -0.0472  0.1626
  244MPD1     H 3757   4.421   0.029   0.274 -0.3829 -0.3907 -1.0223
  244MPD1    H1 3758   4.403   4.475  17.709 -3.5380  1.8672 -0.4103
  244MPD1    H2 3759   4.565   4.362   0.331 -2.0135 -1.4617  0.5954
  244MPD1    H3 3760   4.466   4.300   0.131 -0.2182 -0.5509  3.2446
  244MPD1     N 3761   4.343   0.001   0.036 -0.1436 -0.1043  0.2460
  244MPD1    H5 3762   4.308   0.083   0.084  0.9013 -0.7825  2.2033
  244MPD1    N1 3763   4.539   4.617   0.448  0.2989  0.7572  0.1204
  244MPD1    H6 3764   4.602   4.555   0.499  2.1617  3.0103  0.5692
  244MPD1    H7 3765   4.591   4.701   0.426 -1.3921  1.4602 -1.2173
  245MPD1     C 3766   1.088   0.272  13.480 -0.2645  0.7359  0.4160
  245MPD1    C1 3767   1.137   0.309  13.603 -0.0048  0.5354 -0.2530
  245MPD1    C2 3768   1.165   0.445  13.621  0.1557 -0.5224  0.4947
  245MPD1    C3 3769   1.143   0.544  13.533  0.5241  0.1609  0.3197
  245MPD1    C4 3770   1.090   0.504  13.414  0.4777 -0.2803  0.0290
  245MPD1    C5 3771   1.061   0.372  13.390 -0.5451  0.0561  0.2686
  245MPD1     H 3772   1.206   0.480  13.716 -1.8769  0.9022  0.8324
  245MPD1    H1 3773   1.056   0.573  13.337 -0.4084  1.1541  1.7143
  245MPD1    H2 3774   1.066   0.170  13.450  1.9643  0.3930 -0.0895
  245MPD1    H3 3775   1.009   0.336  13.302  1.8901  0.1654 -1.2241
  245MPD1     N 3776   1.183   0.676  13.559  0.0968  0.2061  0.5650
  245MPD1    H5 3777   1.211   0.693  13.655 -0.9320  1.7654  0.5887
  245MPD1    N1 3778   1.148   0.217  13.711 -0.5307  0.4525  0.1727
  245MPD1    H6 3779   1.220   0.245  13.778 -0.8919 -1.9543  1.5789
  245MPD1    H7 3780   1.161   0.119  13.687 -2.1760  0.2264  0.2002
  246MPD1     C 3781   2.739   2.783  10.077 -0.8493  0.0197 -0.2539
  246MPD1    C1 3782   2.782   2.704  10.183 -0.8050 -0.0277  0.2186
  246MPD1    C2 3783   2.777   2.567  10.163  0.4602 -0.1101 -0.3190
  246MPD1    C3 3784   2.757   2.508  10.042  0.0635  0.3567 -0.1409
  246MPD1    C4 3785   2.722   2.590   9.943 -0.7280  0.2618  0.0800
  246MPD1    C5 3786   2.723   2.729   9.953  0.1113 -0.6500 -1.3850
  246MPD1     H 3787   2.794   2.499  10.246 -2.2121 -0.8503 -0.3713
  246MPD1    H1 3788   2.723   2.560   9.839  1.3843 -1.1333  0.5069
  246MPD1    H2 3789   2.718   2.889  10.083  0.6650  0.2277  1.0196
  246MPD1    H3 3790   2.701   2.799   9.874  2.5515  1.4021 -0.2568
  246MPD1     N 3791   2.747   2.363  10.020 -0.0798 -0.2839  0.0198
  246MPD1    H5 3792   2.719   2.334   9.927  0.6321 -1.0761  0.0471
  246MPD1    N1 3793   2.781   2.767  10.315  0.4925  0.2643  0.0074
  246MPD1    H6 3794   2.839   2.718  10.382 -1.1202 -0.9286  0.5203
  246MPD1    H7 3795   2.826   2.858  10.312 -2.6352  1.7245 -2.2176
  247MPD1     C 3796   0.958   0.335  17.149  0.4422  0.5021  1.1382
  247MPD1    C1 3797   0.929   0.308  17.011  0.4769 -0.2227 -0.3483
  247MPD1    C2 3798   0.928   0.421  16.930 -0.0646 -0.3507  0.6198
  247MPD1    C3 3799   0.971   0.545  16.976  0.1991  0.2577  0.2811
  247MPD1    C4 3800   1.000   0.568  17.114 -0.0599  0.1019 -0.3723
  247MPD1    C5 3801   0.985   0.463  17.195  0.2616  0.3364 -0.3603
  247MPD1     H 3802   0.890   0.406  16.829 -1.3391  1.1888  0.8644
  247MPD1    H1 3803   1.008   0.671  17.147 -0.8510 -0.2976  1.0547
  247MPD1    H2 3804   0.951   0.257  17.225 -0.1553  0.2556  0.8372
  247MPD1    H3 3805   0.998   0.473  17.303 -1.7926  0.5218 -0.1437
  247MPD1     N 3806   0.980   0.658  16.890  0.1289  0.4970 -0.2353
  247MPD1    H5 3807   0.993   0.745  16.942 -0.4896  0.1995  0.4188
  247MPD1    N1 3808   0.863   0.189  16.984  0.1722  0.5399 -0.3064
  247MPD1    H6 3809   0.872   0.151  16.890 -3.2287 -1.0877  0.0381
  247MPD1    H7 3810   0.898   0.107  17.032 -1.9429  0.7370  1.5566
  248MPD1     C 3811   2.074   4.515   0.827 -0.2579 -1.3914 -0.2044
  248MPD1    C1 3812   2.032   4.615   0.745 -0.6077  0.0929  0.2927
  248MPD1    C2 3813   1.951   4.713   0.807  0.1028 -0.8788  0.4948
  248MPD1    C3 3814   1.906   4.701   0.937 -0.0422  0.1331  0.0093
  248MPD1    C4 3815   1.935   4.585   1.008 -0.7199  0.6656  0.6642
  248MPD1    C5 3816   2.034   4.509   0.958 -0.2234  0.5354  0.0065
  248MPD1     H 3817   1.936   0.073   0.760 -0.4946 -0.7849  0.8693
  248MPD1    H1 3818   1.888   4.558   1.102 -0.2042  0.3191  0.8224
  248MPD1    H2 3819   2.154   4.452   0.790  0.8544 -0.4271  0.5675
  248MPD1    H3 3820   2.073   4.423   1.013  1.1579  1.5146  0.5567
  248MPD1     N 3821   1.831   0.067   0.999 -0.0466 -0.6615  0.6898
  248MPD1    H5 3822   1.794   0.141   0.941 -0.2856 -1.8781 -0.7232
  248MPD1    N1 3823   2.091   4.636   0.622  0.4892 -0.0032  0.9977
  248MPD1    H6 3824   2.096   4.547   0.573 -1.9021  0.1351  0.4755
  248MPD1    H7 3825   2.043   4.707   0.567 -0.2373  0.7753  2.6286
  249MPD1     C 3826   3.192   3.334  11.108  0.2363 -0.0220  0.7885
  249MPD1    C1 3827   3.242   3.461  11.070 -0.0823 -0.5527  0.5743
  249MPD1    C2 3828   3.200   3.523  10.955  0.0397 -0.4999  0.3426
  249MPD1    C3 3829   3.095   3.465  10.887 -0.0980  0.7908  0.6390
  249MPD1    C4 3830   3.043   3.341  10.927  0.3082 -0.3840  0.9167
  249MPD1    C5 3831   3.086   3.286  11.042 -0.6852  0.2267  0.1356
  249MPD1     H 3832   3.244   3.618  10.928 -0.6056 -0.2517  0.1612
  249MPD1    H1 3833   2.965   3.286  10.875  2.8649 -2.4193 -0.7899
  249MPD1    H2 3834   3.238   3.284  11.193  1.0421  1.6596  1.3502
  249MPD1    H3 3835   3.040   3.195  11.080  1.8755 -0.9264  0.5052
  249MPD1     N 3836   3.052   3.525  10.769 -0.1649  0.1107  0.4379
  249MPD1    H5 3837   3.103   3.610  10.751  0.0675  0.1560  1.2930
  249MPD1    N1 3838   3.367   3.507  11.126 -0.1914 -0.3704  0.1512
  249MPD1    H6 3839   3.382   3.608  11.120  0.8055 -0.6524 -2.0367
  249MPD1    H7 3840   3.355   3.491  11.226  0.4999  3.2514  0.8394
  250MPD2     C 3841   0.194   4.156  13.160  0.1959  0.4516 -0.3469
  250MPD2    C1 3842   0.076   4.224  13.146 -0.3271  0.1269 -0.0723
  250MPD2    C2 3843   4.715   4.173  13.057  0.1012 -0.7642  0.5133
  250MPD2    C3 3844   0.004   4.059  12.984  0.3781 -0.0246 -0.0399
  250MPD2    C4 3845   0.120   3.988  13.009  0.3449 -0.6015  0.7054
  250MPD2    C5 3846   0.219   4.041  13.089  0.1926 -0.2250 -0.1536
  250MPD2     H 3847   4.623   4.229  13.048  0.1975 -0.7580 -0.3625
  250MPD2    H1 3848   0.137   3.897  12.952  1.0547 -0.6817  1.0468
  250MPD2    H2 3849   0.270   4.186  13.230 -0.9114 -1.8242  1.8299
  250MPD2    H3 3850   0.314   3.990  13.103  1.1329  1.5736 -0.0056
  250MPD2     N 3851   4.663   4.006  12.876 -0.1999  0.2365 -0.1193
  250MPD2    H5 3852   4.705   3.925  12.830 -1.5633 -0.6060  0.1277
  250MPD2    N1 3853   0.063   4.332  13.235 -0.3989 -0.5286 -0.0404
  250MPD2    H7 3854   0.133   4.346  13.307 -0.7568  1.0547  0.0093
  251TMC3    C1 3855   4.709   4.495  13.365 -1.2383  0.2579 -0.0648
  251TMC3    C2 3856   4.598   4.558  13.415 -0.8782 -0.4486  0.3608
  251TMC3    C3 3857   4.602   4.684  13.471  0.4357  0.0256  0.1565
  251TMC3    C4 3858   0.090   4.567  13.380 -0.2013  0.3955 -0.2638
  251TMC3    C5 3859   0.092   4.694  13.436  0.0098 -0.0093  0.0574
  251TMC3    C6 3860   4.718   0.020  13.476  1.2638 -0.6558 -0.5579
  251TMC3     C 3861   4.691   4.418  13.249 -0.0597  0.3199  0.6167
  251TMC3     O 3862   4.579   4.407  13.203  0.3483  0.2826 -0.5080
  251TMC3     H 3863   4.501   4.510  13.416 -1.3566  0.5604  1.4753
  251TMC3    H1 3864   0.177   4.530  13.328 -1.0860 -1.8896 -0.0832
  251TMC3    H2 3865   4.726   0.122  13.514  0.3342 -0.2188 -1.5355
  251TMC3    C7 3866   0.227   0.003  13.470  0.0881 -0.5123 -0.3908
  251TMC3    C8 3867   4.477   0.018  13.458  0.0964  0.4627 -0.3207
  251TMC3    O1 3868   0.306   4.650  13.489 -0.6178  0.3077 -0.4358
  251TMC3    O2 3869   4.376   4.688  13.467  0.0030 -0.3208 -0.4359
  252TMC3    C1 3870   4.076   0.916   9.708  0.2232 -0.1113 -0.1427
  252TMC3    C2 3871   4.198   0.959   9.682  0.3822  0.1663 -0.0061
  252TMC3    C3 3872   4.303   0.889   9.722  0.0526 -0.5474 -0.6131
  252TMC3    C4 3873   4.055   0.788   9.753  0.1367  0.4500 -0.4746
  252TMC3    C5 3874   4.163   0.720   9.781 -0.3851  0.4250 -0.2146
  252TMC3    C6 3875   4.295   0.765   9.773 -0.8436 -0.0963 -0.2207
  252TMC3     C 3876   3.965   0.956   9.621  0.4104 -0.6594 -0.3458
  252TMC3     O 3877   3.851   0.915   9.649  0.0700  0.3710  0.0148
  252TMC3     H 3878   4.222   1.059   9.645  2.2650  0.2765  1.4979
  252TMC3    H1 3879   3.960   0.738   9.771  1.0468 -0.8166  0.7422
  252TMC3    H2 3880   4.378   0.696   9.768 -0.4638  0.5322 -2.5901
  252TMC3    C7 3881   4.144   0.577   9.806  0.1689 -0.3351 -0.4304
  252TMC3    C8 3882   4.437   0.949   9.708 -0.0930 -0.0955 -0.2749
  252TMC3    O1 3883   4.051   0.519   9.752  0.2732  0.3093  0.0020
  252TMC3    O2 3884   4.447   1.039   9.624 -1.6072 -0.4132  0.4030
  253MPD2     C 3885   1.124   0.213  15.917  0.2699  0.2379 -0.5173
  253MPD2    C1 3886   1.018   0.123  15.902 -0.5382  0.0959 -0.2249
  253MPD2    C2 3887   1.024   0.008  15.991  0.3366  0.0886 -0.2774
  253MPD2    C3 3888   1.129   4.722  16.082  0.4960 -0.0783  0.5630
  253MPD2    C4 3889   1.232   0.084  16.090  0.2872 -0.5794  0.0024
  253MPD2    C5 3890   1.224   0.191  16.004 -0.6003  0.6092  0.2955
  253MPD2     H 3891   0.945   4.673  15.975 -0.2960  0.8404 -0.5899
  253MPD2    H1 3892   1.318   0.081  16.155 -0.1601 -0.9436  0.5770
  253MPD2    H2 3893   1.130   0.311  15.872  0.0891  0.4791 -0.0141
  253MPD2    H3 3894   1.301   0.268  16.001  0.3124 -0.2038  2.4814
  253MPD2     N 3895   1.142   4.605  16.166  0.1154 -0.0941  0.4454
  253MPD2    H5 3896   1.238   4.592  16.195  0.7556 -2.3647 -2.7230
  253MPD2    N1 3897   0.916   0.125  15.808 -0.5470 -0.2985  0.5274
  253MPD2    H7 3898   0.842   0.056  15.817 -0.7511 -0.1211  0.2281
  254TMC3    C1 3899   1.083   4.385  16.253  0.0751 -0.2134 -0.2196
  254TMC3    C2 3900   0.996   4.280  16.227 -0.1553 -0.4871  0.9368
  254TMC3    C3 3901   1.009   4.169  16.308  0.0316  0.5878 -0.1284
  254TMC3    C4 3902   1.185   4.384  16.345  0.2422 -1.0362 -0.9095
  254TMC3    C5 3903   1.197   4.270  16.415  0.7247 -0.2961 -0.1469
  254TMC3    C6 3904   1.107   4.167  16.404 -0.5036  0.3114 -0.0796
  254TMC3     C 3905   1.037   4.514  16.195  0.2413  0.0505  0.3038
  254TMC3     O 3906   0.918   4.529  16.169  0.2156 -0.9145  0.2635
  254TMC3     H 3907   0.924   4.293  16.147 -1.6464  1.6339  2.5963
  254TMC3    H1 3908   1.213   4.480  16.387 -2.0389 -0.5303 -0.5718
  254TMC3    H2 3909   1.126   4.078  16.462  0.1074  0.5338  0.0656
  254TMC3    C7 3910   1.244   4.293  16.546 -0.5571 -0.2699  0.4322
  254TMC3    C8 3911   0.880   4.123  16.359  0.0711 -0.9014  0.2026
  254TMC3    O1 3912   1.161   4.249  16.625 -0.0921 -0.4619 -0.4743
  254TMC3    O2 3913   0.878   4.074  16.470 -0.4165 -0.5991  0.3192
  255MPD2     C 3914   4.103   2.599  10.834  0.2521  0.0804 -0.3699
  255MPD2    C1 3915   4.052   2.509  10.739 -0.2939 -0.1063 -0.6050
  255MPD2    C2 3916   4.128   2.405  10.699  0.1014  0.5941  0.3501
  255MPD2    C3 3917   4.257   2.392  10.743 -0.3321 -0.2849 -0.7280
  255MPD2    C4 3918   4.304   2.474  10.841  0.1454 -0.0048 -0.3904
  255MPD2    C5 3919   4.223   2.575  10.890 -0.2059 -0.1736  0.3303
  255MPD2     H 3920   4.093   2.326  10.633 -0.3178  0.8519  0.2667
  255MPD2    H1 3921   4.404   2.475  10.883 -0.0055 -1.4363 -0.0180
  255MPD2    H2 3922   4.053   2.691  10.861  0.0093 -0.8175  2.1822
  255MPD2    H3 3923   4.255   2.651  10.960  0.8563  0.0222 -0.3699
  255MPD2     N 3924   4.335   2.286  10.685  0.6421  0.4543 -0.5291
  255MPD2    H5 3925   4.284   2.235  10.615  1.8625 -0.3119 -0.8617
  255MPD2    N1 3926   3.935   2.544  10.674  0.8324  0.0096 -0.2839
  255MPD2    H7 3927   3.892   2.630  10.707 -2.8939 -2.3909  1.0423
  256TMC3    C1 3928   3.768   2.544  10.509  0.1357  0.1029  0.2550
  256TMC3    C2 3929   3.806   2.670  10.470  0.5127  0.1954 -0.3152
  256TMC3    C3 3930   3.752   2.718  10.352  0.3822  0.4787  0.1091
  256TMC3    C4 3931   3.685   2.467  10.426  0.4367  0.0454  0.7332
  256TMC3    C5 3932   3.644   2.514  10.308 -0.7324  0.0335  0.7496
  256TMC3    C6 3933   3.675   2.641  10.266 -0.2790 -0.6742 -1.3912
  256TMC3     C 3934   3.867   2.468  10.586 -0.1950  0.9286  0.8255
  256TMC3     O 3935   3.874   2.347  10.561 -0.2737 -0.2189 -0.1913
  256TMC3     H 3936   3.889   2.720  10.520  0.3093 -0.2205  0.4401
  256TMC3    H1 3937   3.678   2.362  10.451  3.0051 -0.6699 -1.5350
  256TMC3    H2 3938   3.650   2.678  10.167  0.8061  1.6322 -0.7978
  256TMC3    C7 3939   3.577   2.425  10.217  0.5857 -0.4607  0.2230
  256TMC3    C8 3940   3.825   2.832  10.295  0.0829  0.3428 -0.0465
  256TMC3    O1 3941   3.609   2.310  10.235 -0.6731  0.2886  0.3800
  256TMC3    O2 3942   3.853   2.810  10.177 -0.0403  0.1685 -0.4767
  257MPD2     C 3943   3.175   4.522  13.295 -0.1041  0.2432 -0.0275
  257MPD2    C1 3944   3.149   4.413  13.215  0.1677 -0.3679  0.4423
  257MPD2    C2 3945   3.086   4.303  13.265  0.1015 -1.0003 -0.5002
  257MPD2    C3 3946   3.051   4.295  13.394  0.2999 -0.6640 -0.7266
  257MPD2    C4 3947   3.076   4.401  13.485  0.8815 -0.4052 -0.1252
  257MPD2    C5 3948   3.135   4.511  13.426  1.0394 -0.2879  0.0616
  257MPD2     H 3949   3.069   4.215  13.205  4.0894 -1.6985 -0.5937
  257MPD2    H1 3950   3.053   4.396  13.591 -0.9291 -0.4582 -0.5181
  257MPD2    H2 3951   3.232   4.606  13.257  1.5308 -1.3458 -1.0812
  257MPD2    H3 3952   3.171   4.589  13.493  0.4681  0.8978 -0.9983
  257MPD2     N 3953   3.002   4.168  13.435 -0.0852 -0.4832 -0.4525
  257MPD2    H5 3954   2.992   4.102  13.358 -0.1934 -0.4643 -0.4542
  257MPD2    N1 3955   3.199   4.416  13.084  0.2581  0.1474 -0.2054
  257MPD2    H7 3956   3.273   4.484  13.070  0.5682 -0.3719 -1.1026
  258TMC3    C1 3957   3.008   3.974  13.555  0.1210 -0.2140  1.0909
  258TMC3    C2 3958   3.064   3.920  13.446  0.7563  0.0609  0.3507
  258TMC3    C3 3959   3.155   3.821  13.458 -0.6579  0.1128 -0.0755
  258TMC3    C4 3960   3.033   3.923  13.682 -0.0705 -0.0087  0.5150
  258TMC3    C5 3961   3.123   3.819  13.690  0.2679  0.5826 -0.1268
  258TMC3    C6 3962   3.183   3.763  13.578 -0.1231 -0.3694 -0.0345
  258TMC3     C 3963   2.999   4.118  13.561 -0.4123 -0.0882  0.5362
  258TMC3     O 3964   3.013   4.173  13.664 -0.0566 -0.2876 -0.2700
  258TMC3     H 3965   3.025   3.931  13.346  1.0825 -0.4227  0.1736
  258TMC3    H1 3966   2.985   3.972  13.766  1.0329  1.0454  0.5358
  258TMC3    H2 3967   3.242   3.674  13.598  2.0040  0.6855 -1.6219
  258TMC3    C7 3968   3.114   3.743  13.811 -0.4839 -0.4059 -0.2118
  258TMC3    C8 3969   3.224   3.802  13.333  0.0665 -0.5127  0.4766
  258TMC3    O1 3970   3.001   3.723  13.859  0.6310  0.1652 -0.0300
  258TMC3    O2 3971   3.247   3.894  13.260 -0.8027  0.5916 -0.3716
  259MPD2     C 3972   1.669   1.468   0.896  0.8931  0.2179 -0.0584
  259MPD2    C1 3973   1.749   1.358   0.891 -0.0674  0.2863  0.1481
  259MPD2    C2 3974   1.796   1.323   0.766  0.5736 -0.3690 -0.1521
  259MPD2    C3 3975   1.771   1.395   0.653  0.0915  0.1683  0.5443
  259MPD2    C4 3976   1.686   1.503   0.666 -0.6256  0.5311  0.3634
  259MPD2    C5 3977   1.631   1.542   0.783 -0.5984 -0.3888  0.3132
  259MPD2     H 3978   1.838   1.223   0.761  1.0502 -0.1627 -0.3064
  259MPD2    H1 3979   1.642   1.549   0.578 -0.0616  2.5621  1.1538
  259MPD2    H2 3980   1.644   1.507   0.995 -0.9842  0.7548 -0.7447
  259MPD2    H3 3981   1.556   1.620   0.789  0.0299  0.1528  1.1480
  259MPD2     N 3982   1.823   1.357   0.524  1.3138  0.1306 -0.7561
  259MPD2    H5 3983   1.878   1.272   0.514 -1.1710 -1.3983 -1.6428
  259MPD2    N1 3984   1.786   1.294   1.011  0.4665 -0.7554  0.0200
  259MPD2    H7 3985   1.754   1.323   1.103  4.4014 -0.4010  1.2381
  260TMC3    C1 3986   1.887   1.369   0.290 -0.4416  0.1790  0.0778
  260TMC3    C2 3987   1.900   1.461   0.187 -0.2157  0.2298  0.8103
  260TMC3    C3 3988   1.950   1.403   0.073  0.3602  0.0714  0.4704
  260TMC3    C4 3989   1.892   1.234   0.274 -0.4706 -0.1292 -0.1171
  260TMC3    C5 3990   1.939   1.184   0.159 -0.1337  0.6728  0.4350
  260TMC3    C6 3991   1.971   1.268   0.057  0.4132 -0.3519 -0.0234
  260TMC3     C 3992   1.815   1.429   0.403  0.2089 -0.0717  0.1447
  260TMC3     O 3993   1.759   1.533   0.379 -0.3404  0.2419 -0.5214
  260TMC3     H 3994   1.892   1.569   0.192 -1.1788  0.2030 -0.2640
  260TMC3    H1 3995   1.850   1.173   0.354  0.7752 -0.9935 -0.1173
  260TMC3    H2 3996   2.011   1.230  17.710  1.7640  0.6119  0.1612
  260TMC3    C7 3997   2.018   1.059   0.157 -1.0130  0.7542 -0.1429
  260TMC3    C8 3998   2.046   1.490   0.005 -0.1798 -0.2819  0.5871
  260TMC3    O1 3999   2.039   1.006   0.046  0.1256 -0.2877 -0.2940
  260TMC3    O2 4000   2.027   1.611   0.014  0.2823  0.4040 -0.1208
  261MPD2     C 4001   4.212   4.221  12.201  0.5305  0.6383  0.3425
  261MPD2    C1 4002   4.189   4.227  12.333  0.5002 -0.5699  0.1040
  261MPD2    C2 4003   4.083   4.303  12.373  0.2911 -0.4067  0.9132
  261MPD2    C3 4004   3.986   4.354  12.286 -0.3689 -0.9671 -0.7960
  261MPD2    C4 4005   4.015   4.343  12.153 -0.2185 -0.4059 -0.2552
  261MPD2    C5 4006   4.128   4.276  12.113 -0.3019  0.0322 -0.2416
  261MPD2     H 4007   4.072   4.322  12.479  1.4866 -2.1127  1.3553
  261MPD2    H1 4008   3.954   4.385  12.074 -1.9805 -0.5636  1.0180
  261MPD2    H2 4009   4.292   4.168  12.152 -0.6186 -1.2220  0.4668
  261MPD2    H3 4010   4.146   4.271  12.007 -1.2542 -1.1286 -0.3522
  261MPD2     N 4011   3.870   4.414  12.335 -0.0125  0.5411  0.0772
  261MPD2    H5 4012   3.873   4.429  12.435 -0.8756  1.0890  0.0187
  261MPD2    N1 4013   4.267   4.157  12.424 -0.7014 -0.3002  0.2002
  261MPD2    H7 4014   4.253   4.178  12.523 -0.8957 -0.6701  0.2508
  262TMC3    C1 4015   3.637   4.489  12.337 -0.5179  0.3885  0.1118
  262TMC3    C2 4016   3.555   4.554  12.241 -0.4057 -0.0783 -0.0812
  262TMC3    C3 4017   3.511   4.679  12.284  0.3694 -0.4144 -0.0274
  262TMC3    C4 4018   3.668   4.545  12.466 -0.7479 -0.6093  0.0043
  262TMC3    C5 4019   3.615   4.665  12.494 -0.7672 -0.1732 -0.4587
  262TMC3    C6 4020   3.537   4.733  12.408  0.4208  0.0528  0.3197
  262TMC3     C 4021   3.750   4.436  12.260  0.2017 -0.3178 -0.4152
  262TMC3     O 4022   3.721   4.398  12.147  0.0005  0.4475 -0.2288
  262TMC3     H 4023   3.531   4.522  12.140  0.6344 -1.5069  0.1252
  262TMC3    H1 4024   3.736   4.503  12.540 -1.1970 -1.4114 -0.0367
  262TMC3    H2 4025   3.508   0.096  12.437  1.2737  0.6361 -0.8350
  262TMC3    C7 4026   3.701   0.022  12.563  0.4208 -0.0138  0.4328
  262TMC3    C8 4027   3.501   0.051  12.177 -0.3233  0.5922  0.6015
  262TMC3    O1 4028   3.697   0.028  12.684  0.8219 -0.3521  0.4381
  262TMC3    O2 4029   3.536   0.161  12.215  0.0487  0.3092 -0.1455
  263MPD2     C 4030   0.292   3.331  11.808  0.2759  0.4197 -0.4574
  263MPD2    C1 4031   0.392   3.399  11.746  0.1247  0.2481 -0.4115
  263MPD2    C2 4032   0.366   3.457  11.619  0.2548 -0.2266  0.2287
  263MPD2    C3 4033   0.245   3.446  11.553  0.8251  0.1085  0.1601
  263MPD2    C4 4034   0.145   3.376  11.622  0.1857  0.1560  0.2447
  263MPD2    C5 4035   0.172   3.315  11.740  0.1495  0.2446 -0.0203
  263MPD2     H 4036   0.442   3.520  11.574 -1.4973  2.1187  0.5025
  263MPD2    H1 4037   0.046   3.357  11.582  0.7794  0.6936 -1.4692
  263MPD2    H2 4038   0.298   3.294  11.910  2.8844  0.7504 -0.4998
  263MPD2    H3 4039   0.093   3.255  11.783  0.7334 -0.8103 -0.4483
  263MPD2     N 4040   0.224   3.516  11.433  0.7422  0.5009  0.2084
  263MPD2    H5 4041   0.312   3.535  11.387  0.7431 -1.8329 -0.7630
  263MPD2    N1 4042   0.521   3.406  11.804  0.5397  0.4158  0.2466
  263MPD2    H7 4043   0.521   3.352  11.890 -6.0191  0.1345  0.0442
  264TMC3    C1 4044   0.114   3.598  11.240 -0.4888  0.0898 -0.8159
  264TMC3    C2 4045   0.021   3.695  11.213  0.6295 -0.2248  0.4534
  264TMC3    C3 4046   0.041   3.759  11.090  0.0640 -0.4820  0.9156
  264TMC3    C4 4047   0.206   3.561  11.159  0.7193  0.9860 -0.3725
  264TMC3    C5 4048   0.225   3.620  11.040  0.3060  0.1896 -0.0689
  264TMC3    C6 4049   0.146   3.727  11.009 -0.4739  0.4036  0.5877
  264TMC3     C 4050   0.099   3.540  11.374 -0.0476 -0.5175 -0.2731
  264TMC3     O 4051   4.723   3.510  11.414  0.2112  0.5317  0.1231
  264TMC3     H 4052   4.689   3.727  11.290  1.1495  0.6138  0.5740
  264TMC3    H1 4053   0.269   3.477  11.186 -1.3011 -0.6043 -0.6010
  264TMC3    H2 4054   0.156   3.777  10.913 -1.2095  1.5361  1.1014
  264TMC3    C7 4055   0.347   3.602  10.954 -0.6792  0.4110 -0.1152
  264TMC3    C8 4056   4.720   3.891  11.075 -0.4128  0.1695 -0.6062
  264TMC3    O1 4057   0.394   3.704  10.905 -0.7915 -0.0428  0.0252
  264TMC3    O2 4058   4.735   3.943  10.967 -0.0195  0.1583  0.1202
  265MPD2     C 4059   2.033   3.922  15.682 -0.4304 -0.3367  0.5233
  265MPD2    C1 4060   2.048   4.033  15.603  0.0945  0.2205 -0.7472
  265MPD2    C2 4061   2.097   4.011  15.472  0.7129 -0.3806 -0.5236
  265MPD2    C3 4062   2.145   3.892  15.433  0.4036  0.6035  0.3476
  265MPD2    C4 4063   2.145   3.787  15.516 -0.3350 -0.0988 -0.2361
  265MPD2    C5 4064   2.072   3.797  15.636  0.9959  0.2305  0.3847
  265MPD2     H 4065   2.099   4.091  15.398  0.1586  0.6648  0.5893
  265MPD2    H1 4066   2.186   3.691  15.486 -0.4385  0.2813 -1.5868
  265MPD2    H2 4067   1.980   3.933  15.776 -1.9589  0.8194 -0.4753
  265MPD2    H3 4068   2.058   3.711  15.700  1.3614 -0.1939 -0.1065
  265MPD2     N 4069   2.187   3.870  15.300  0.4384 -0.4362 -0.1441
  265MPD2    H5 4070   2.210   3.777  15.267 -0.7817 -0.8664  0.2219
  265MPD2    N1 4071   2.013   4.153  15.658  0.1226 -0.2855  0.5402
  265MPD2    H7 4072   1.987   4.154  15.756  0.7519  1.7392  0.6988
  266TMC3    C1 4073   1.966   4.382  15.685  0.7412  0.4651  0.8100
  266TMC3    C2 4074   2.021   4.386  15.812  0.6329 -0.3608  0.0608
  266TMC3    C3 4075   2.029   4.507  15.877 -0.6087  0.2388 -0.4574
  266TMC3    C4 4076   1.920   4.492  15.618  0.0564 -0.3101 -0.4208
  266TMC3    C5 4077   1.922   4.604  15.693  0.1317  0.0122  0.3155
  266TMC3    C6 4078   1.979   4.624  15.821 -0.4806  0.2400 -0.7043
  266TMC3     C 4079   2.005   4.269  15.587  0.5874  0.7046  0.2576
  266TMC3     O 4080   2.011   4.296  15.468  0.9436 -0.2331 -0.2215
  266TMC3     H 4081   2.081   4.302  15.844  2.4189  0.7859 -0.2773
  266TMC3    H1 4082   1.876   4.492  15.520  0.6752  1.1829 -0.6996
  266TMC3    H2 4083   1.974   4.724  15.862  0.9785  0.6076 -1.4049
  266TMC3    C7 4084   1.868   4.729  15.632 -0.4622 -0.5587  0.0125
  266TMC3    C8 4085   2.124   4.512  15.989  0.6950  0.3728  0.2864
  266TMC3    O1 4086   1.796   4.711  15.538  0.1376 -0.5477  0.1237
  266TMC3    O2 4087   2.190   4.412  16.011 -0.0431 -0.3881  0.5893
  267MPD2     C 4088   0.245   0.421   0.097  0.0223 -0.0016  0.1146
  267MPD2    C1 4089   0.300   0.546   0.092 -0.0678  0.6422 -0.2962
  267MPD2    C2 4090   0.321   0.606  17.710  0.1330 -0.2266 -0.5799
  267MPD2    C3 4091   0.283   0.541  17.598  0.0279  0.2096 -0.2853
  267MPD2    C4 4092   0.236   0.414  17.608 -0.5196 -0.9927  0.2045
  267MPD2    C5 4093   0.206   0.358  17.729 -0.5180 -0.1025 -0.5470
  267MPD2     H 4094   0.359   0.707  17.700  0.0489 -0.1695 -0.3258
  267MPD2    H1 4095   0.199   0.358  17.523  0.0082  0.1913 -0.7947
  267MPD2    H2 4096   0.241   0.368   0.192 -1.3613 -1.0561 -0.5460
  267MPD2    H3 4097   0.152   0.265  17.733  0.2352 -0.4813  0.8299
  267MPD2     N 4098   0.273   0.601  17.471 -0.8255 -0.2416  0.3917
  267MPD2    H5 4099   0.251   0.542  17.392 -1.1318 -0.6499  0.7818
  267MPD2    N1 4100   0.337   0.597   0.219  0.0339  0.6542 -0.2300
  267MPD2    H7 4101   0.346   0.534   0.297  0.4272  1.5441  0.4495
  268TMC3    C1 4102   0.442   0.770   0.360 -0.3043  0.1688 -0.1666
  268TMC3    C2 4103   0.532   0.868   0.350 -0.1192  0.1963  0.4899
  268TMC3    C3 4104   0.599   0.913   0.465 -0.5687 -0.2620  0.0472
  268TMC3    C4 4105   0.404   0.712   0.480 -0.8553  0.6010 -0.3801
  268TMC3    C5 4106   0.474   0.753   0.589 -0.2324  0.5739 -0.2301
  268TMC3    C6 4107   0.567   0.855   0.583 -0.3868 -0.6111  0.4329
  268TMC3     C 4108   0.378   0.732   0.231  0.3757 -0.3305  0.3906
  268TMC3     O 4109   0.347   0.827   0.160 -0.1007 -0.1106 -0.3340
  268TMC3     H 4110   0.521   0.923   0.257 -1.1371 -1.7599 -0.5462
  268TMC3    H1 4111   0.328   0.636   0.493  0.7508 -0.1413  4.9017
  268TMC3    H2 4112   0.604   0.912   0.667  1.8209 -0.4602 -0.6353
  268TMC3    C7 4113   0.421   0.729   0.718  0.4428  0.1825  0.0479
  268TMC3    C8 4114   0.668   1.040   0.453  0.0978  0.2011 -0.2276
  268TMC3    O1 4115   0.508   0.729   0.805  0.0289 -0.0977  0.3797
  268TMC3    O2 4116   0.667   1.110   0.553 -0.6521 -0.3392  0.1668
  269MPD2     C 4117   0.324   0.008  15.764 -0.3296  0.6682 -1.2046
  269MPD2    C1 4118   0.186   0.023  15.755  0.0781 -0.1347  0.5796
  269MPD2    C2 4119   0.140   0.147  15.726 -0.3253  0.1833  0.4196
  269MPD2    C3 4120   0.225   0.257  15.690  0.5469  0.8221  0.1847
  269MPD2    C4 4121   0.358   0.233  15.680 -0.1323  0.6974 -0.0993
  269MPD2    C5 4122   0.407   0.110  15.721  0.0643 -0.0639  0.2759
  269MPD2     H 4123   0.034   0.161  15.737 -0.0618  1.3205  1.5599
  269MPD2    H1 4124   0.429   0.311  15.654 -0.2715  1.0178  0.4713
  269MPD2    H2 4125   0.368   4.650  15.791 -0.2931  1.0663  0.1301
  269MPD2    H3 4126   0.513   0.088  15.727 -0.0936 -1.3951 -1.8262
  269MPD2     N 4127   0.178   0.379  15.653 -0.4916  0.1973  0.5501
  269MPD2    H5 4128   0.078   0.390  15.665 -0.5480  2.9428 -2.2786
  269MPD2    N1 4129   0.100   4.646  15.782  0.4232  0.6463  0.1092
  269MPD2    H7 4130   0.146   4.563  15.820 -0.5937  0.2571  0.4932
  270TMC3    C1 4131   4.641   4.514  15.798  0.5131  0.8839  0.1061
  270TMC3    C2 4132   4.503   4.499  15.766  0.4214  0.0398  0.1424
  270TMC3    C3 4133   4.448   4.374  15.792  0.4288  0.4698  0.0212
  270TMC3    C4 4134   4.718   4.408  15.829  0.2593 -0.4493 -0.6588
  270TMC3    C5 4135   4.663   4.281  15.833 -0.3701  0.3679 -0.4187
  270TMC3    C6 4136   4.530   4.265  15.806 -0.2234 -0.2271 -0.5604
  270TMC3     C 4137   4.707   4.635  15.755 -0.9362  0.3033 -0.0742
  270TMC3     O 4138   4.632   4.715  15.702 -0.3246  0.1329  0.1609
  270TMC3     H 4139   4.442   4.585  15.744  0.9412  0.5202  0.5856
  270TMC3    H1 4140   0.085   4.420  15.857 -0.1282 -1.7656  1.3967
  270TMC3    H2 4141   4.490   4.169  15.836 -0.2456 -0.4587 -1.3480
  270TMC3    C7 4142   0.022   4.174  15.810  0.1291  0.6876  0.6732
  270TMC3    C8 4143   4.337   4.349  15.712 -0.0825 -0.0573 -0.0101
  270TMC3    O1 4144   0.128   4.176  15.867  0.2853  0.3947  0.1195
  270TMC3    O2 4145   4.241   4.425  15.730 -0.3337 -0.2558  0.4140
  271MPD2     C 4146   3.872   4.201  14.035 -0.0039 -0.3256  0.0088
  271MPD2    C1 4147   3.823   4.228  14.164  0.2854 -0.6398 -0.4053
  271MPD2    C2 4148   3.711   4.310  14.178  0.1619 -0.3273  0.2889
  271MPD2    C3 4149   3.634   4.348  14.069  0.5499  0.4115 -0.1477
  271MPD2    C4 4150   3.679   4.309  13.943 -0.3449  0.7707  0.4627
  271MPD2    C5 4151   3.799   4.241  13.924  0.6520  0.0375 -0.0639
  271MPD2     H 4152   3.682   4.326  14.281  0.0706 -0.7533  0.3301
  271MPD2    H1 4153   3.619   4.332  13.856 -0.2520  0.2404  0.2604
  271MPD2    H2 4154   3.966   4.153  14.010  0.8704  0.8784  0.9848
  271MPD2    H3 4155   3.833   4.216  13.824  0.7440  4.4306 -1.1167
  271MPD2     N 4156   3.514   4.418  14.086  0.6264  0.3500 -0.5783
  271MPD2    H5 4157   3.453   4.432  14.006  0.1188 -1.0108 -0.4288
  271MPD2    N1 4158   3.897   4.191  14.281 -0.5015 -0.2622 -0.2387
  271MPD2    H7 4159   3.863   4.225  14.370  0.4506  0.3231 -0.0929
  272TMC3    C1 4160   4.028   4.041  14.405 -0.1702  0.0790  0.5944
  272TMC3    C2 4161   4.143   3.960  14.404 -1.1920 -0.3546  0.5026
  272TMC3    C3 4162   4.171   3.909  14.529  0.4961  0.1656  0.1382
  272TMC3    C4 4163   3.943   4.051  14.507  0.5845  0.0524  0.5993
  272TMC3    C5 4164   3.979   3.990  14.629 -0.2205  0.2832 -0.2502
  272TMC3    C6 4165   4.095   3.920  14.643  0.2083 -0.6099 -0.4361
  272TMC3     C 4166   3.991   4.093  14.277  0.4433 -0.3433 -0.3111
  272TMC3     O 4167   4.047   4.037  14.189  0.5502 -0.0762  0.3119
  272TMC3     H 4168   4.209   3.951  14.318  0.0398  1.1093  1.2768
  272TMC3    H1 4169   3.852   4.110  14.507  1.2377  1.0650  0.7265
  272TMC3    H2 4170   4.135   3.895  14.741  0.4015 -1.0294 -0.6245
  272TMC3    C7 4171   3.902   4.038  14.738 -0.0292 -0.6431  0.3636
  272TMC3    C8 4172   4.310   3.855  14.538  0.2204  0.6951  0.5697
  272TMC3    O1 4173   3.783   4.073  14.715 -0.2459 -0.4353 -0.3776
  272TMC3    O2 4174   4.386   3.881  14.449  0.2869 -0.8776  0.1780
  273MPD2     C 4175   0.755   2.603  12.085 -0.2149 -0.0093  0.0597
  273MPD2    C1 4176   0.881   2.655  12.053  0.3418  0.3636  1.0518
  273MPD2    C2 4177   0.907   2.678  11.920 -0.6460  0.2558  0.1040
  273MPD2    C3 4178   0.823   2.634  11.819 -0.1372  0.0674 -0.4509
  273MPD2    C4 4179   0.709   2.562  11.858  0.1451  0.2817 -0.2500
  273MPD2    C5 4180   0.670   2.557  11.992  0.3838  0.5738 -0.7491
  273MPD2     H 4181   1.003   2.714  11.887  1.2297 -1.9047  3.2335
  273MPD2    H1 4182   0.637   2.532  11.783  0.2456  0.7532 -0.5362
  273MPD2    H2 4183   0.714   2.590  12.184 -1.7062  0.4694 -0.4842
  273MPD2    H3 4184   0.573   2.515  12.015  0.3152  1.4994  0.6354
  273MPD2     N 4185   0.851   2.656  11.683 -0.6564 -0.2394  0.2802
  273MPD2    H5 4186   0.824   2.595  11.606 -2.6100 -0.7831  1.3933
  273MPD2    N1 4187   0.978   2.689  12.153  0.1101 -0.2448  0.2558
  273MPD2    H7 4188   0.945   2.688  12.249 -2.0400  0.4312 -0.4864
  274TMC3    C1 4189   0.983   2.722  11.505 -0.0926 -0.2089  0.2183
  274TMC3    C2 4190   0.888   2.708  11.409  0.3655 -0.2987 -0.8623
  274TMC3    C3 4191   0.923   2.743  11.283 -0.2240 -0.5118 -0.6667
  274TMC3    C4 4192   1.105   2.785  11.481  0.2637 -0.1842 -0.0959
  274TMC3    C5 4193   1.138   2.809  11.353  0.1036  0.0530  0.1744
  274TMC3    C6 4194   1.055   2.784  11.253 -1.3058  0.2633 -0.0443
  274TMC3     C 4195   0.949   2.738  11.644  0.2409 -0.0915  0.4437
  274TMC3     O 4196   0.994   2.841  11.691  0.2298  0.1100 -1.1194
  274TMC3     H 4197   0.790   2.667  11.432  1.6056 -2.7535  0.0157
  274TMC3    H1 4198   1.177   2.788  11.563  1.6874  0.3703 -1.3665
  274TMC3    H2 4199   1.080   2.833  11.159 -1.0284 -2.0274 -1.1729
  274TMC3    C7 4200   1.211   2.924  11.337 -0.3826 -0.1298 -0.7556
  274TMC3    C8 4201   0.812   2.748  11.183 -0.4606 -0.3219  0.5122
  274TMC3    O1 4202   1.278   2.936  11.232  0.5584  0.6059  0.4509
  274TMC3    O2 4203   0.696   2.731  11.218 -0.0100 -0.2178 -0.5940
  275MPD2     C 4204   0.603   0.249  14.598  0.4186  0.6744  1.0384
  275MPD2    C1 4205   0.531   0.362  14.642  0.6949 -0.0592 -0.1433
  275MPD2    C2 4206   0.397   0.348  14.674  0.1853 -0.6583 -0.6218
  275MPD2    C3 4207   0.335   0.226  14.635  0.1995 -0.6299 -0.4275
  275MPD2    C4 4208   0.405   0.123  14.591 -0.2843 -0.0348 -0.3871
  275MPD2    C5 4209   0.539   0.131  14.573 -0.7874  0.2881  0.5978
  275MPD2     H 4210   0.339   0.429  14.717 -0.4972 -2.2129  1.3190
  275MPD2    H1 4211   0.358   0.028  14.568 -0.6735  0.2608 -0.8078
  275MPD2    H2 4212   0.708   0.246  14.573 -1.0485  0.4171 -5.1104
  275MPD2    H3 4213   0.599   0.051  14.532 -1.6568 -0.6495  1.1335
  275MPD2     N 4214   0.196   0.198  14.651 -0.3734 -0.3603  0.2912
  275MPD2    H5 4215   0.167   0.104  14.624  1.4292 -1.1943  1.2210
  275MPD2    N1 4216   0.582   0.489  14.659  0.1266 -0.0100  0.4932
  275MPD2    H7 4217   0.519   0.561  14.694  0.7025  0.5276  0.4216
  276TMC3    C1 4218   0.725   0.675  14.667 -0.1691 -0.0758 -0.0943
  276TMC3    C2 4219   0.606   0.735  14.680  0.1440 -0.1840  0.0097
  276TMC3    C3 4220   0.584   0.810  14.791  0.7847  0.2576  0.2918
  276TMC3    C4 4221   0.835   0.701  14.744 -0.5815  0.6262 -0.2701
  276TMC3    C5 4222   0.809   0.790  14.846  0.1670  0.4469 -0.3034
  276TMC3    C6 4223   0.687   0.843  14.872  0.3530 -0.0737  0.7353
  276TMC3     C 4224   0.706   0.535  14.627  0.4410  0.2450 -0.1083
  276TMC3     O 4225   0.804   0.477  14.584  0.1662 -0.2290  0.1462
  276TMC3     H 4226   0.537   0.733  14.596 -1.4300  2.5540  1.2426
  276TMC3    H1 4227   0.934   0.673  14.708 -1.6909 -2.3204 -1.0260
  276TMC3    H2 4228   0.667   0.923  14.942 -1.2276 -0.1287  0.3645
  276TMC3    C7 4229   0.903   0.813  14.951 -0.2398  0.3356 -0.4389
  276TMC3    C8 4230   0.474   0.750  14.854 -1.2361 -0.9532  0.1192
  276TMC3    O1 4231   0.856   0.835  15.062  0.3168  0.2703 -0.0323
  276TMC3    O2 4232   0.376   0.734  14.783 -0.4900  0.0145  0.5328
  277MPD2     C 4233   2.251   4.419  13.737 -0.1624 -0.6237  0.2060
  277MPD2    C1 4234   2.121   4.465  13.771  1.0375 -0.7861  0.8789
  277MPD2    C2 4235   2.067   4.438  13.899 -0.1804  0.3282  0.0682
  277MPD2    C3 4236   2.138   4.358  13.986  0.0513 -0.3917  0.7173
  277MPD2    C4 4237   2.258   4.312  13.943  0.5542 -0.0524 -0.2203
  277MPD2    C5 4238   2.315   4.340  13.824 -0.1601 -0.0365 -0.0041
  277MPD2     H 4239   1.971   4.480  13.927 -0.4174 -1.3552  1.7802
  277MPD2    H1 4240   2.304   4.231  13.997 -0.8753 -0.8801 -0.2473
  277MPD2    H2 4241   2.303   4.433  13.643  2.5746 -0.4981  1.7573
  277MPD2    H3 4242   2.413   4.301  13.800  0.6027  2.5254 -1.0823
  277MPD2     N 4243   2.086   4.317  14.113  0.6515  0.4550  0.3448
  277MPD2    H5 4244   1.986   4.326  14.129  0.5882  0.0460  0.1895
  277MPD2    N1 4245   2.059   4.541  13.675 -0.3488  0.3372  0.4446
  277MPD2    H7 4246   2.116   4.571  13.597 -0.9996  0.1818 -0.0964
  278TMC3    C1 4247   2.066   4.202  14.320 -0.2519  0.1318  0.4379
  278TMC3    C2 4248   2.063   4.069  14.351 -1.2372 -0.2978 -0.6282
  278TMC3    C3 4249   1.941   4.011  14.354 -1.0406  0.5886  0.2555
  278TMC3    C4 4250   1.957   4.279  14.330 -0.2384 -0.5441 -0.3022
  278TMC3    C5 4251   1.836   4.218  14.344 -0.0337  0.0806  0.1096
  278TMC3    C6 4252   1.820   4.089  14.356  0.1265  0.5085 -0.2448
  278TMC3     C 4253   2.154   4.244  14.212 -0.3943  0.0581 -0.3273
  278TMC3     O 4254   2.277   4.224  14.220 -0.4823  0.1647 -0.4356
  278TMC3     H 4255   2.154   4.012  14.336 -1.1675 -0.1160 -0.9095
  278TMC3    H1 4256   1.977   4.383  14.307  1.3009 -1.1043 -1.5276
  278TMC3    H2 4257   1.723   4.040  14.358 -0.2416  1.3075  1.3044
  278TMC3    C7 4258   1.737   4.287  14.269  0.3084 -1.0563  0.3702
  278TMC3    C8 4259   1.937   3.865  14.332  0.5734  0.4820 -0.2588
  278TMC3    O1 4260   1.787   4.347  14.174 -0.2527  0.4619 -0.0570
  278TMC3    O2 4261   2.027   3.796  14.377 -0.4775  0.0923 -0.6770
  279MPD2     C 4262   2.333   4.243   1.005 -0.9588 -0.8109 -0.0826
  279MPD2    C1 4263   2.220   4.178   0.954 -0.1880 -0.2924  0.3646
  279MPD2    C2 4264   2.214   4.142   0.821  0.1353  0.1500  0.6590
  279MPD2    C3 4265   2.315   4.171   0.732  0.0316  0.3171 -0.1600
  279MPD2    C4 4266   2.420   4.240   0.786  0.6221  0.0141  0.3357
  279MPD2    C5 4267   2.435   4.280   0.917  0.3687  0.8217  0.7043
  279MPD2     H 4268   2.125   4.090   0.788  0.4994 -0.0328 -0.0316
  279MPD2    H1 4269   2.511   4.263   0.730  1.3532 -0.8582  1.1607
  279MPD2    H2 4270   2.351   4.268   1.109 -1.8119  0.6494 -0.2833
  279MPD2    H3 4271   2.532   4.316   0.949  0.1250 -1.6203  4.1981
  279MPD2     N 4272   2.309   4.146   0.596  0.9906 -0.0117  0.4472
  279MPD2    H5 4273   2.391   4.184   0.551  0.1678  0.5659 -0.5585
  279MPD2    N1 4274   2.121   4.144   1.050  0.8417 -0.3905  0.2716
  279MPD2    H7 4275   2.129   4.185   1.143 -0.4080 -0.4408  0.3949
  280TMC3    C1 4276   1.918   4.063   1.130  0.4143  0.2776 -0.6127
  280TMC3    C2 4277   1.833   3.965   1.096 -0.2379 -0.3074 -0.1324
  280TMC3    C3 4278   1.699   3.992   1.103  1.5007 -0.5367 -0.2462
  280TMC3    C4 4279   1.872   4.182   1.172 -0.4324  0.5782  0.6818
  280TMC3    C5 4280   1.735   4.205   1.176  0.0234  0.3013 -0.1534
  280TMC3    C6 4281   1.647   4.110   1.138 -0.5423  0.1286  0.4347
  280TMC3     C 4282   2.026   4.049   1.037  0.3125 -0.0599 -0.0319
  280TMC3     O 4283   2.019   3.963   0.950  0.0959  0.4703 -0.3604
  280TMC3     H 4284   1.865   3.867   1.061  0.0233 -0.6594  1.0846
  280TMC3    H1 4285   1.931   4.273   1.171  0.0714  0.2519  0.5495
  280TMC3    H2 4286   1.542   4.135   1.136 -0.6023 -0.1543  0.1802
  280TMC3    C7 4287   1.694   4.341   1.185  0.2496 -0.4279  0.5211
  280TMC3    C8 4288   1.608   3.907   1.032  0.6027  0.1443 -0.8590
  280TMC3    O1 4289   1.756   4.415   1.256 -0.1107 -0.7490  0.3403
  280TMC3    O2 4290   1.488   3.928   1.054 -0.0740  0.2243  0.4212
  281TMC3    C1 4291   0.626   4.611  13.914  0.3494  0.4459  0.0862
  281TMC3    C2 4292   0.694   4.711  13.845  0.4486 -0.5786  0.6338
  281TMC3    C3 4293   0.775   4.682  13.737  0.4067 -0.1151 -0.3577
  281TMC3    C4 4294   0.642   4.479  13.889  0.3625  0.3641  0.1703
  281TMC3    C5 4295   0.715   4.453  13.782 -0.0628  0.2731 -0.5748
  281TMC3    C6 4296   0.778   4.547  13.707  0.6191 -0.6394  0.2344
  281TMC3     C 4297   0.483   4.634  13.918  0.2095  0.1691  1.3954
  281TMC3     O 4298   0.404   4.540  13.934 -0.5319 -0.6057 -0.4228
  281TMC3     H 4299   0.705   0.073  13.887 -0.8078  0.4960 -1.5946
  281TMC3    H1 4300   0.577   4.405  13.935  1.3774 -2.0568 -2.3256
  281TMC3    H2 4301   0.832   4.503  13.624 -0.2162 -1.1668 -0.0406
  281TMC3    C7 4302   0.646   4.357  13.697 -0.3476 -0.3920 -0.9425
  281TMC3    C8 4303   0.754   0.026  13.620 -0.1221 -0.5742  0.4399
  281TMC3    O1 4304   0.727   4.288  13.632 -0.2511 -0.0216 -0.3510
  281TMC3    O2 4305   0.728   4.694  13.523 -0.0526 -0.0067  0.4004
  282MPD2     C 4306   2.228   1.175  15.245  0.2407 -0.4255  0.1729
  282MPD2    C1 4307   2.107   1.240  15.243  0.0354  0.3486  0.0224
  282MPD2    C2 4308   2.031   1.247  15.123 -0.6827 -0.2512 -0.4573
  282MPD2    C3 4309   2.085   1.205  15.001  0.8388 -0.7561 -0.1155
  282MPD2    C4 4310   2.208   1.139  15.002  0.3193 -0.3172 -0.6429
  282MPD2    C5 4311   2.277   1.125  15.122  0.3072  0.5629  0.4568
  282MPD2     H 4312   1.940   1.307  15.120 -1.1852 -1.1191 -2.5474
  282MPD2    H1 4313   2.259   1.099  14.915  1.4789  0.6721 -0.4038
  282MPD2    H2 4314   2.292   1.165  15.331  0.2583 -0.7828  0.1177
  282MPD2    H3 4315   2.376   1.082  15.112 -0.5821 -1.8915  2.3472
  282MPD2     N 4316   2.013   1.222  14.885  0.8531 -0.2405  0.1506
  282MPD2    H5 4317   1.937   1.289  14.879  2.7127  1.8453 -0.2093
  282MPD2    N1 4318   2.047   1.303  15.356 -0.4516 -0.5752 -0.1669
  282MPD2    H7 4319   1.951   1.334  15.347 -0.2145 -0.1118 -1.1470
  283TMC3    C1 4320   2.018   1.392  15.569  0.1284  0.3425 -0.2685
  283TMC3    C2 4321   2.059   1.504  15.623  0.4335 -0.2235  0.1499
  283TMC3    C3 4322   2.020   1.535  15.747 -0.3987 -0.1713 -0.1969
  283TMC3    C4 4323   1.947   1.296  15.637  0.7274  0.3556 -0.5597
  283TMC3    C5 4324   1.914   1.327  15.766 -0.4188 -0.7499  0.5707
  283TMC3    C6 4325   1.941   1.451  15.820 -0.2485  0.1151 -0.1771
  283TMC3     C 4326   2.109   1.334  15.470 -1.0778  0.2702 -0.2370
  283TMC3     O 4327   2.228   1.331  15.498  0.4162  0.5018  0.1215
  283TMC3     H 4328   2.134   1.567  15.576  0.0942 -0.7430 -1.0932
  283TMC3    H1 4329   1.912   1.209  15.582  0.2990  0.5919 -0.6645
  283TMC3    H2 4330   1.903   1.486  15.915 -1.8203  1.7282 -1.3968
  283TMC3    C7 4331   1.894   1.215  15.858  0.0194 -0.2686 -0.0950
  283TMC3    C8 4332   1.999   1.675  15.779  0.2546 -0.1910  0.2121
  283TMC3    O1 4333   1.875   1.231  15.977  0.1362 -0.5519 -0.2343
  283TMC3    O2 4334   1.957   1.699  15.894  0.1948 -0.2977  0.0754
  284MPD2     C 4335   4.707   0.402  12.297 -1.6402 -0.5148 -0.3817
  284MPD2    C1 4336   0.051   0.350  12.198  0.5608 -0.0025  0.4111
  284MPD2    C2 4337   0.101   0.226  12.203 -0.6698  0.6865 -0.4960
  284MPD2    C3 4338   0.060   0.145  12.305 -0.8049  0.0449 -0.3977
  284MPD2    C4 4339   4.711   0.188  12.407  0.2135  0.4910  0.1899
  284MPD2    C5 4340   4.674   0.320  12.402 -0.0323 -0.3923  0.2274
  284MPD2     H 4341   0.184   0.202  12.137 -0.4287 -0.0537  0.0702
  284MPD2    H1 4342   4.675   0.129  12.490 -1.1333 -0.5310 -1.1250
  284MPD2    H2 4343   4.676   0.506  12.300 -2.8104 -0.8631 -0.4129
  284MPD2    H3 4344   4.613   0.360  12.482  0.5807  3.7520 -1.3203
  284MPD2     N 4345   0.114   0.021  12.305  0.0603  0.3798  0.0614
  284MPD2    H5 4346   0.181   0.005  12.232 -2.8373  2.0187 -2.9602
  284MPD2    N1 4347   0.089   0.427  12.086 -0.1908  0.1310 -0.1869
  284MPD2    H7 4348   0.163   0.390  12.027  1.2048  2.0285  0.3578
  285TMC3    C1 4349   0.120   0.610  11.947 -0.0391  0.2313  0.4063
  285TMC3    C2 4350   0.176   0.525  11.851  0.1224 -0.0223 -0.2988
  285TMC3    C3 4351   0.280   0.571  11.771  0.1403  0.2761  0.2028
  285TMC3    C4 4352   0.162   0.738  11.958  0.3268 -0.4449 -0.2110
  285TMC3    C5 4353   0.260   0.785  11.872 -0.0523 -0.1744  0.3474
  285TMC3    C6 4354   0.326   0.699  11.781 -0.2403  0.6866 -0.2439
  285TMC3     C 4355   0.042   0.554  12.055  0.6585  0.4836  0.4687
  285TMC3     O 4356   4.694   0.626  12.102  0.5787 -0.0358 -0.5593
  285TMC3     H 4357   0.125   0.432  11.831  1.3339 -0.3136 -2.0979
  285TMC3    H1 4358   0.126   0.795  12.043  3.2565 -0.2680  0.9055
  285TMC3    H2 4359   0.405   0.738  11.717  0.4633 -0.2988  0.0297
  285TMC3    C7 4360   0.286   0.927  11.857 -0.1128 -0.2727 -0.6692
  285TMC3    C8 4361   0.306   0.490  11.656  0.3862 -0.8611 -0.8968
  285TMC3    O1 4362   0.371   0.956  11.771  0.1816  0.5318  0.0357
  285TMC3    O2 4363   0.239   0.388  11.642  0.1087  0.1655 -0.4150
  286MPD2     C 4364   0.731   3.777   1.931  0.5204 -0.3925 -0.1100
  286MPD2    C1 4365   0.708   3.776   1.796  0.1290 -0.2152  0.3420
  286MPD2    C2 4366   0.792   3.702   1.713 -0.0537  0.5675  0.7247
  286MPD2    C3 4367   0.886   3.609   1.759 -0.1966 -0.1722  0.4922
  286MPD2    C4 4368   0.907   3.606   1.896  0.1002 -0.1828 -0.1712
  286MPD2    C5 4369   0.832   3.693   1.973 -0.3799 -0.5110 -0.3855
  286MPD2     H 4370   0.780   3.717   1.606  2.1436  1.2272  0.5691
  286MPD2    H1 4371   0.979   3.539   1.943 -2.6728 -1.1643  2.7003
  286MPD2    H2 4372   0.677   3.838   2.002 -0.6697 -0.3410 -1.0542
  286MPD2    H3 4373   0.852   3.692   2.079  1.6061  2.1543 -0.7455
  286MPD2     N 4374   0.964   3.532   1.669 -0.0914 -0.7823 -0.2918
  286MPD2    H5 4375   1.043   3.487   1.714  0.8673  0.9713 -0.2119
  286MPD2    N1 4376   0.604   3.858   1.745 -0.0334 -0.3892 -0.8907
  286MPD2    H7 4377   0.599   3.862   1.644 -2.3833 -1.2085 -0.8127
  287TMC3    C1 4378   1.061   3.445   1.469  0.2242 -0.3070 -0.1120
  287TMC3    C2 4379   1.026   3.363   1.364 -0.0642 -0.0622 -0.5305
  287TMC3    C3 4380   1.130   3.281   1.312 -0.4048 -0.1036  0.0713
  287TMC3    C4 4381   1.187   3.441   1.522 -0.4194  0.5105  0.2341
  287TMC3    C5 4382   1.284   3.355   1.469 -0.1914  1.0194 -0.6851
  287TMC3    C6 4383   1.260   3.276   1.366  0.3883 -0.5422  0.3532
  287TMC3     C 4384   0.948   3.515   1.533 -0.0958  0.6496  0.1175
  287TMC3     O 4385   0.850   3.539   1.464  0.0293 -0.6214 -1.1183
  287TMC3     H 4386   0.923   3.364   1.328 -0.1427 -0.1470 -0.3089
  287TMC3    H1 4387   1.206   3.513   1.602  2.0044 -0.0454  0.1616
  287TMC3    H2 4388   1.326   3.201   1.325  1.9558  1.7492 -1.2838
  287TMC3    C7 4389   1.418   3.352   1.531  0.1381  0.7667 -0.1276
  287TMC3    C8 4390   1.096   3.208   1.192  0.0631 -0.6743 -0.0582
  287TMC3    O1 4391   1.442   3.439   1.613 -0.5310  0.7819  0.2720
  287TMC3    O2 4392   0.976   3.178   1.184  0.2834 -0.6171  0.0298
  288TMC3    C1 4393   2.506   3.724  14.460  0.4827 -0.7380 -0.0468
  288TMC3    C2 4394   2.391   3.757  14.520  0.1318 -0.8951 -0.3916
  288TMC3    C3 4395   2.356   3.890  14.523  0.3009  0.8320 -1.0066
  288TMC3    C4 4396   2.579   3.815  14.390  0.0957 -0.5646  0.3944
  288TMC3    C5 4397   2.534   3.948  14.383 -0.1452 -0.4117  0.0750
  288TMC3    C6 4398   2.420   3.986  14.445 -0.4535  0.2317 -0.4267
  288TMC3     C 4399   2.545   3.585  14.449  0.2903  0.0544  0.0872
  288TMC3     O 4400   2.659   3.564  14.412  0.0833  0.4707  0.5442
  288TMC3     H 4401   2.349   3.678  14.581  0.1350  0.6411  1.6000
  288TMC3    H1 4402   2.657   3.786  14.321  2.1530  0.4316  2.3257
  288TMC3    H2 4403   2.376   4.085  14.439 -0.9298  0.1718  2.1082
  288TMC3    C7 4404   2.624   4.049  14.319 -0.3358  0.1265 -0.1292
  288TMC3    C8 4405   2.251   3.931  14.610  0.3411 -0.8864 -0.0332
  288TMC3    O1 4406   2.740   4.021  14.316  0.1211  1.1969 -0.2636
  288TMC3    O2 4407   2.251   4.050  14.644  0.1354  0.1113  0.7765
  289MPD2     C 4408   2.437   2.764  14.189  0.0210  0.2996  0.1897
  289MPD2    C1 4409   2.387   2.884  14.164  0.0931  0.8812  0.2611
  289MPD2    C2 4410   2.253   2.899  14.150 -0.3787 -0.3138  0.1331
  289MPD2    C3 4411   2.165   2.798  14.172 -0.5384  0.5265  0.4872
  289MPD2    C4 4412   2.222   2.677  14.212 -0.7970  0.1917  0.4155
  289MPD2    C5 4413   2.356   2.660  14.222 -0.5354 -0.4527  0.6427
  289MPD2     H 4414   2.216   2.998  14.126  1.6636  0.5139  0.4454
  289MPD2    H1 4415   2.163   2.588  14.232 -0.3222 -0.1570  0.2442
  289MPD2    H2 4416   2.542   2.738  14.200 -0.0643  0.1905  0.7567
  289MPD2    H3 4417   2.406   2.568  14.250  2.7820  0.4185 -2.4253
  289MPD2     N 4418   2.026   2.815  14.166  0.0891 -0.7006  0.4110
  289MPD2    H5 4419   1.973   2.729  14.177 -2.4408  0.9762  1.1819
  289MPD2    N1 4420   2.483   2.985  14.145 -0.8751 -0.0431  0.5258
  289MPD2    H7 4421   2.576   2.945  14.153 -1.7327 -2.0654  0.4402
  290TMC3    C1 4422   1.811   2.925  14.175  0.4934  0.0842  0.2839
  290TMC3    C2 4423   1.754   3.039  14.221 -0.3275 -0.1996  0.0915
  290TMC3    C3 4424   1.624   3.035  14.264  0.4949 -0.2960  0.1927
  290TMC3    C4 4425   1.752   2.803  14.179  0.3539 -0.8646  0.2060
  290TMC3    C5 4426   1.622   2.809  14.233  0.4592  1.0422 -0.6602
  290TMC3    C6 4427   1.557   2.923  14.273 -0.0829  0.5463  0.7702
  290TMC3     C 4428   1.952   2.931  14.141 -0.6679 -1.0466 -0.1853
  290TMC3     O 4429   1.995   3.043  14.137 -0.0169  0.4134 -0.4721
  290TMC3     H 4430   1.804   3.133  14.202  0.5711 -0.2328  2.3405
  290TMC3    H1 4431   1.790   2.716  14.127  0.3688 -0.0408 -1.1761
  290TMC3    H2 4432   1.455   2.932  14.308 -0.2662 -1.3362  0.7652
  290TMC3    C7 4433   1.544   2.687  14.245 -0.3099  0.4234 -0.4527
  290TMC3    C8 4434   1.551   3.150  14.231  1.3888  0.6790 -0.2599
  290TMC3    O1 4435   1.424   2.709  14.250  0.1907 -0.4381  0.2978
  290TMC3    O2 4436   1.464   3.137  14.143 -0.2600 -0.1272 -0.3787
  291MPD2     C 4437   1.481   3.260   0.078 -0.7094  0.3367  0.6895
  291MPD2    C1 4438   1.610   3.216   0.064  0.2081  0.7113 -0.0312
  291MPD2    C2 4439   1.706   3.297   0.005 -0.3614  0.5173 -0.1218
  291MPD2    C3 4440   1.680   3.425  17.703  0.9272 -0.0359 -0.0611
  291MPD2    C4 4441   1.543   3.458  17.705  0.0921  0.7741 -0.1521
  291MPD2    C5 4442   1.444   3.384   0.018 -0.3531  0.0512 -0.4773
  291MPD2     H 4443   1.808   3.261  17.744 -0.3294  0.5730  0.0508
  291MPD2    H1 4444   1.508   3.554  17.668 -0.2450  1.2228  1.3492
  291MPD2    H2 4445   1.416   3.194   0.135 -1.6081  0.0797 -0.6437
  291MPD2    H3 4446   1.344   3.424   0.030 -0.7078 -0.9293 -0.2022
  291MPD2     N 4447   1.774   3.511  17.632 -0.7763 -0.4241  0.2845
  291MPD2    H5 4448   1.737   3.599  17.596 -0.0083 -0.7646 -1.3466
  291MPD2    N1 4449   1.652   3.090   0.120 -0.3072 -0.6278 -0.2315
  291MPD2    H7 4450   1.752   3.074   0.116  0.0519  1.3661  0.6606
  292TMC3    C1 4451   1.634   2.859   0.186  0.3539  0.4697  0.7154
  292TMC3    C2 4452   1.695   2.865   0.310 -0.3904  0.0167  0.0400
  292TMC3    C3 4453   1.737   2.743   0.364  0.2942 -0.5886 -0.1373
  292TMC3    C4 4454   1.588   2.742   0.129  0.1154 -0.6907 -0.4573
  292TMC3    C5 4455   1.625   2.631   0.193 -0.0939  0.3343  0.9150
  292TMC3    C6 4456   1.698   2.624   0.306 -0.8281 -0.1447  0.6830
  292TMC3     C 4457   1.572   2.983   0.152 -0.0539  0.3146 -0.1295
  292TMC3     O 4458   1.454   2.968   0.128  0.0074 -0.4824 -0.0231
  292TMC3     H 4459   1.737   2.955   0.353 -1.2907  0.2531  0.4409
  292TMC3    H1 4460   1.539   2.740   0.032 -0.6024  3.7872 -0.1662
  292TMC3    H2 4461   1.719   2.525   0.345 -0.5728 -1.3003 -2.3988
  292TMC3    C7 4462   1.608   2.510   0.128 -0.0586 -0.0095 -0.0459
  292TMC3    C8 4463   1.761   2.749   0.505 -1.0601  0.2091 -0.0427
  292TMC3    O1 4464   1.702   2.437   0.130  0.2510  0.5134 -0.2131
  292TMC3    O2 4465   1.815   2.847   0.557  0.3204  0.1646 -0.2939
  293MPD2     C 4466   3.535   3.968  12.796  0.5005  0.2044 -0.0009
  293MPD2    C1 4467   3.402   3.948  12.844 -0.2101  0.2981 -0.0158
  293MPD2    C2 4468   3.372   3.981  12.973 -0.2117 -0.2359  0.5706
  293MPD2    C3 4469   3.468   4.042  13.057 -0.3839  0.5155  0.6847
  293MPD2    C4 4470   3.589   4.093  13.002  0.4479 -0.6120  0.7307
  293MPD2    C5 4471   3.614   4.057  12.871  0.1571 -0.1563 -0.3752
  293MPD2     H 4472   3.277   3.963  13.021 -0.6296  0.6604  0.0752
  293MPD2    H1 4473   3.665   4.148  13.058 -0.4586  0.6527  0.7292
  293MPD2    H2 4474   3.565   3.951  12.693  0.0007  2.5159 -0.5321
  293MPD2    H3 4475   3.709   4.091  12.831 -0.2364  1.7975  0.3394
  293MPD2     N 4476   3.433   4.077  13.187  0.1224  0.6455  0.5514
  293MPD2    H5 4477   3.353   4.029  13.226 -0.7663  0.5003 -1.4150
  293MPD2    N1 4478   3.311   3.881  12.757  0.5895 -0.3223 -0.5260
  293MPD2    H7 4479   3.338   3.832  12.672  2.7477 -0.5055  0.2692
  294TMC3    C1 4480   3.101   3.787  12.677  0.6277  0.4071 -0.0639
  294TMC3    C2 4481   2.965   3.807  12.683 -0.1769  0.7264 -0.1706
  294TMC3    C3 4482   2.889   3.743  12.592 -0.4949 -0.0211  0.0070
  294TMC3    C4 4483   3.167   3.702  12.593  0.4816  0.6119  0.4188
  294TMC3    C5 4484   3.092   3.630  12.504  0.0718  0.5712  0.0737
  294TMC3    C6 4485   2.951   3.655  12.501  0.0399 -0.1340 -0.5715
  294TMC3     C 4486   3.177   3.872  12.780 -1.0031 -0.2899  0.2247
  294TMC3     O 4487   3.113   3.910  12.874  0.0552  0.3943 -0.1346
  294TMC3     H 4488   2.919   3.861  12.764  1.3061  1.1717  0.3553
  294TMC3    H1 4489   3.258   3.655  12.628  0.6911  0.3731 -0.4705
  294TMC3    H2 4490   2.887   3.606  12.430  1.6905 -2.0426 -0.7450
  294TMC3    C7 4491   3.145   3.547  12.396  0.2016 -0.1597  0.1129
  294TMC3    C8 4492   2.748   3.778  12.590 -0.3556 -1.0853  0.3498
  294TMC3    O1 4493   3.061   3.482  12.335  0.1448 -0.0094  0.0095
  294TMC3    O2 4494   2.706   3.873  12.656 -0.3650 -0.0702 -0.2917
  295MPD2     C 4495   3.622   3.648   0.670  0.0706  1.1953  1.1674
  295MPD2    C1 4496   3.653   3.517   0.658  0.7416  0.0906 -0.3729
  295MPD2    C2 4497   3.587   3.421   0.732  0.5625  0.1343  0.2546
  295MPD2    C3 4498   3.487   3.457   0.820 -1.3149 -0.8572 -0.2522
  295MPD2    C4 4499   3.452   3.592   0.826  0.3031 -0.9874  0.1265
  295MPD2    C5 4500   3.523   3.686   0.752  0.9304 -0.5287 -0.1791
  295MPD2     H 4501   3.614   3.317   0.719 -0.2559 -0.1710  0.9705
  295MPD2    H1 4502   3.363   3.617   0.882  1.6289 -1.0363  2.2349
  295MPD2    H2 4503   3.661   3.730   0.610  0.3411 -0.3650 -0.8052
  295MPD2    H3 4504   3.493   3.790   0.756 -1.1533 -1.0893 -1.0426
  295MPD2     N 4505   3.400   3.366   0.883 -0.0757 -0.1096 -0.6005
  295MPD2    H5 4506   3.329   3.413   0.940 -0.1305 -3.0334  1.7123
  295MPD2    N1 4507   3.763   3.476   0.579 -0.5411  0.0492 -0.7842
  295MPD2    H7 4508   3.796   3.380   0.578  0.1793  0.2632  1.1416
  296TMC3    C1 4509   3.297   3.156   0.940  0.3481  0.5990 -0.1772
  296TMC3    C2 4510   3.223   3.223   1.040 -0.2953 -0.2510  0.5010
  296TMC3    C3 4511   3.129   3.143   1.103 -0.8235 -0.0148  0.4343
  296TMC3    C4 4512   3.286   3.023   0.910  0.0161  0.4327  0.7910
  296TMC3    C5 4513   3.200   2.947   0.989  0.8822 -0.7682 -0.1115
  296TMC3    C6 4514   3.115   3.008   1.078 -0.2014 -0.0720  0.2479
  296TMC3     C 4515   3.411   3.221   0.884 -0.0341 -0.0466  0.5619
  296TMC3     O 4516   3.481   3.153   0.814 -0.4174 -0.1211  0.0501
  296TMC3     H 4517   3.241   3.327   1.066  1.1996 -0.4950  0.4147
  296TMC3    H1 4518   3.345   2.977   0.832  0.3216  1.5979  0.3419
  296TMC3    H2 4519   3.033   2.950   1.119  1.0203 -0.4204  2.2256
  296TMC3    C7 4520   3.197   2.799   0.967  0.0610 -0.0423 -0.2299
  296TMC3    C8 4521   3.024   3.198   1.188  0.5340  0.1605  0.2334
  296TMC3    O1 4522   3.260   2.756   0.871 -0.3217 -0.2439  0.2089
  296TMC3    O2 4523   2.969   3.127   1.267 -0.2585 -0.4002 -0.4669
  297MPD2     C 4524   1.297   4.721  16.571 -0.0777 -0.5702 -0.5789
  297MPD2    C1 4525   1.249   0.076  16.483  0.1305 -0.1549 -0.2696
  297MPD2    C2 4526   1.334   0.171  16.437  0.4454 -0.5245 -0.4167
  297MPD2    C3 4527   1.461   0.178  16.477 -0.1655  0.0018  0.6830
  297MPD2    C4 4528   1.508   0.089  16.565 -0.2447 -0.0826  0.3314
  297MPD2    C5 4529   1.424   4.730  16.620  0.7168  0.3840 -0.2968
  297MPD2     H 4530   1.296   0.239  16.361  2.0501 -0.5567 -1.2539
  297MPD2    H1 4531   1.612   0.091  16.596 -0.6285 -1.2301  1.7063
  297MPD2    H2 4532   1.233   4.656  16.630  1.6884 -1.1677  0.7041
  297MPD2    H3 4533   1.459   4.659  16.694 -0.6400 -0.7674 -0.7517
  297MPD2     N 4534   1.549   0.276  16.417 -0.2814 -0.2591 -0.9095
  297MPD2    H5 4535   1.501   0.346  16.361  2.4914  1.0675 -1.6427
  297MPD2    N1 4536   1.116   0.075  16.432 -0.0464  0.0843 -0.6315
  297MPD2    H7 4537   1.094   0.159  16.378 -0.8801 -0.1647 -0.6892
  298TMC3    C1 4538   0.888   0.006  16.398  0.2658  0.7230  0.6505
  298TMC3    C2 4539   0.878   0.103  16.300 -0.9085  0.7616  0.3517
  298TMC3    C3 4540   0.753   0.133  16.263  0.0958 -0.6981  0.6163
  298TMC3    C4 4541   0.781   4.688  16.459  0.5336  0.6549  0.3334
  298TMC3    C5 4542   0.651   4.729  16.422  0.2665  0.2827  0.0583
  298TMC3    C6 4543   0.642   0.080  16.319 -0.7540  0.7559  0.0871
  298TMC3     C 4544   1.025   4.716  16.455  0.1778  0.1520  0.0135
  298TMC3     O 4545   1.033   4.617  16.523  0.5894 -0.2681 -0.4859
  298TMC3     H 4546   0.969   0.141  16.254 -0.6709 -1.6248 -1.1827
  298TMC3    H1 4547   0.793   4.621  16.543  0.4316  0.6489  0.3434
  298TMC3    H2 4548   0.549   0.136  16.313 -0.7510  0.9456  1.6546
  298TMC3    C7 4549   0.543   4.715  16.517 -0.7581 -0.7569 -0.4873
  298TMC3    C8 4550   0.746   0.238  16.161 -0.0729 -0.3949 -0.1911
  298TMC3    O1 4551   0.429   4.728  16.475 -0.5626  0.4300  0.6284
  298TMC3    O2 4552   0.843   0.316  16.159 -0.5667  0.1046 -0.0992
  299MPD2     C 4553   1.868   4.270  10.748  0.8916  0.6394 -0.8772
  299MPD2    C1 4554   1.839   4.408  10.760 -1.0247  0.0501 -0.4635
  299MPD2    C2 4555   1.716   4.453  10.714  1.0757  0.1472  0.0640
  299MPD2    C3 4556   1.627   4.359  10.658 -0.8974 -0.0582 -0.3219
  299MPD2    C4 4557   1.659   4.227  10.641  0.2593 -0.2430 -0.6534
  299MPD2    C5 4558   1.776   4.181  10.689 -0.0341  0.0714  0.6276
  299MPD2     H 4559   1.692   4.557  10.736 -0.1011 -0.4393  1.5252
  299MPD2    H1 4560   1.591   4.155  10.599 -0.8388  0.0909  0.5623
  299MPD2    H2 4561   1.962   4.227  10.781  0.4497 -0.3074 -0.8725
  299MPD2    H3 4562   1.792   4.074  10.676 -2.9138  0.0715 -2.8291
  299MPD2     N 4563   1.496   4.393  10.609 -0.2149 -0.0212 -0.0317
  299MPD2    H5 4564   1.438   4.315  10.579  2.1575 -1.5871 -0.6187
  299MPD2    N1 4565   1.934   4.492  10.830  0.3142  0.5846 -0.6221
  299MPD2    H7 4566   2.006   4.443  10.881 -0.9774  1.3816  1.9944
  300TMC3    C1 4567   1.313   4.520  10.543  0.0892 -0.7105  0.2912
  300TMC3    C2 4568   1.270   4.645  10.496  0.7168 -0.2865  0.7287
  300TMC3    C3 4569   1.130   4.668  10.485 -0.1934 -0.2337  0.5702
  300TMC3    C4 4570   1.232   4.430  10.602 -0.1668  0.4533 -0.0745
  300TMC3    C5 4571   1.098   4.462  10.596 -0.0961 -0.6078 -0.1909
  300TMC3    C6 4572   1.047   4.575  10.542  0.8067 -0.3265  0.4806
  300TMC3     C 4573   1.450   4.520  10.584  0.4023 -0.2252  0.2119
  300TMC3     O 4574   1.515   4.624  10.585  0.0759  0.4520  0.5804
  300TMC3     H 4575   1.345   4.706  10.447  0.3698 -0.7976 -0.4160
  300TMC3    H1 4576   1.264   4.349  10.666 -2.2213 -0.1551  0.1857
  300TMC3    H2 4577   0.940   4.594  10.543  0.9617  0.4088  1.8945
  300TMC3    C7 4578   1.012   4.386  10.685  0.9924 -0.1960  0.2594
  300TMC3    C8 4579   1.076   0.056  10.448 -0.3721 -0.4520  0.0525
  300TMC3    O1 4580   1.052   4.279  10.725 -0.3070  0.1742  0.1652
  300TMC3    O2 4581   1.152   0.148  10.450 -0.5096 -0.2401 -0.6264
  301MPD2     C 4582   3.691   0.877   1.557 -0.3604  0.6005  0.5426
  301MPD2    C1 4583   3.605   0.859   1.447 -0.6448 -0.7904  0.7338
  301MPD2    C2 4584   3.626   0.762   1.356  0.1904  0.6771 -0.7037
  301MPD2    C3 4585   3.749   0.692   1.349 -0.3908 -0.5539  0.5527
  301MPD2    C4 4586   3.847   0.730   1.446 -0.6083 -0.6018  0.4121
  301MPD2    C5 4587   3.814   0.822   1.551  0.3933  0.1199 -0.1024
  301MPD2     H 4588   3.542   0.745   1.291 -1.1431 -0.3564  1.2863
  301MPD2    H1 4589   3.938   0.672   1.456  0.4519  0.9115 -0.5393
  301MPD2    H2 4590   3.679   0.953   1.633  1.5721 -2.2376  3.6574
  301MPD2    H3 4591   3.890   0.836   1.627  0.8319 -1.3798 -0.2641
  301MPD2     N 4592   3.781   0.590   1.257 -0.1657 -0.0687 -0.5164
  301MPD2    H5 4593   3.874   0.550   1.258 -0.2500 -0.2428  0.4567
  301MPD2    N1 4594   3.484   0.918   1.439  0.3680  0.3774  0.0020
  301MPD2    H7 4595   3.425   0.902   1.358 -0.2301  0.2123  0.4698
  302TMC3    C1 4596   3.747   0.457   1.069 -0.1218  0.5962  0.3642
  302TMC3    C2 4597   3.800   0.347   1.132  0.6152  1.1484  0.1228
  302TMC3    C3 4598   3.803   0.227   1.055 -0.0887 -0.4564 -0.1374
  302TMC3    C4 4599   3.683   0.444   0.943 -0.4262  1.3516  0.1041
  302TMC3    C5 4600   3.689   0.324   0.875  0.4244  0.0296 -0.5957
  302TMC3    C6 4601   3.748   0.215   0.925 -0.3585 -0.4687 -0.3679
  302TMC3     C 4602   3.695   0.564   1.154 -0.0728 -0.0777 -0.1404
  302TMC3     O 4603   3.601   0.631   1.114 -0.5802 -0.2556  0.4274
  302TMC3     H 4604   3.852   0.358   1.226 -0.8984 -1.4768  1.2777
  302TMC3    H1 4605   3.664   0.533   0.885 -2.4915 -0.0591 -1.3486
  302TMC3    H2 4606   3.777   0.121   0.880  2.7108  0.4379 -0.3302
  302TMC3    C7 4607   3.643   0.321   0.741 -0.3599  0.1095 -0.5994
  302TMC3    C8 4608   3.853   0.111   1.129  0.6921 -0.6199 -0.4093
  302TMC3    O1 4609   3.712   0.253   0.663  0.2643 -0.1495 -0.1214
  302TMC3    O2 4610   3.895   0.142   1.243  0.5106 -0.3788 -0.0611
  303MPD2     C 4611   3.961   4.441  10.654  0.3167  0.4805 -0.2104
  303MPD2    C1 4612   3.873   4.375  10.570 -0.0174 -1.0496 -0.0133
  303MPD2    C2 4613   3.929   4.294  10.475  0.2123  0.4235  0.6375
  303MPD2    C3 4614   4.064   4.272  10.458  0.4029 -1.2402  0.3489
  303MPD2    C4 4615   4.145   4.323  10.556  0.1259 -0.0966  0.4523
  303MPD2    C5 4616   4.091   4.407  10.653 -0.4120 -0.1635 -0.3174
  303MPD2     H 4617   3.868   4.233  10.408  0.4301  0.9873 -0.0752
  303MPD2    H1 4618   4.252   4.306  10.552  0.5027  2.6293 -0.8232
  303MPD2    H2 4619   3.918   4.519  10.716 -2.5122 -0.5377 -0.8759
  303MPD2    H3 4620   4.160   4.466  10.712  0.4446 -2.0225  0.5205
  303MPD2     N 4621   4.121   4.191  10.362 -0.2119 -0.0951 -0.2835
  303MPD2    H5 4622   4.222   4.185  10.367 -0.2512 -1.5601 -1.0828
  303MPD2    N1 4623   3.738   4.406  10.586 -0.1451 -0.0950 -0.1603
  303MPD2    H7 4624   3.712   4.450  10.673  1.4938 -0.3814  0.4800
  304TMC3    C1 4625   3.503   4.385  10.567  0.8920  0.4587 -0.0097
  304TMC3    C2 4626   3.400   4.326  10.502  0.7731  0.0412 -0.8554
  304TMC3    C3 4627   3.299   4.265  10.562  0.0020 -0.1068  0.7194
  304TMC3    C4 4628   3.488   4.397  10.704 -0.3881 -0.1709  0.4361
  304TMC3    C5 4629   3.380   4.342  10.765  0.0253 -0.1115 -0.8092
  304TMC3    C6 4630   3.292   4.279  10.694  0.7195  0.3114  0.7942
  304TMC3     C 4631   3.636   4.358  10.505  0.4195  0.1311 -0.5596
  304TMC3     O 4632   3.650   4.286  10.404 -0.5547 -0.0801 -0.4977
  304TMC3     H 4633   3.423   4.306  10.398 -0.3351  0.4308 -1.1838
  304TMC3    H1 4634   3.565   4.421  10.776  2.4523 -0.7016 -2.4092
  304TMC3    H2 4635   3.215   4.232  10.754 -1.6992  1.7536 -1.2182
  304TMC3    C7 4636   3.430   4.262  10.876  0.1498 -0.0075 -1.2714
  304TMC3    C8 4637   3.271   4.133  10.527  0.0026  0.0947 -0.2259
  304TMC3    O1 4638   3.497   4.317  10.961  0.3998  0.1194 -0.8925
  304TMC3    O2 4639   3.265   4.048  10.618  0.2690  0.2695  0.2328
  305MPD2     C 4640   2.077   1.640  14.064  0.2152  0.0077  0.0965
  305MPD2    C1 4641   2.138   1.536  14.135  0.1582  0.6090 -0.4340
  305MPD2    C2 4642   2.149   1.414  14.068 -0.1068  0.3886  0.1181
  305MPD2    C3 4643   2.084   1.394  13.948 -0.6353  0.3301 -0.1136
  305MPD2    C4 4644   2.016   1.497  13.890 -0.1711  0.1114  0.1296
  305MPD2    C5 4645   2.016   1.618  13.943 -0.1959 -0.0540 -0.4082
  305MPD2     H 4646   2.201   1.331  14.112  0.2657  0.4739 -0.1633
  305MPD2    H1 4647   1.975   1.479  13.791  2.1566 -0.9592 -0.6372
  305MPD2    H2 4648   2.058   1.738  14.106  0.4760  1.1607 -2.5013
  305MPD2    H3 4649   1.960   1.697  13.893  1.0762  0.4598 -1.0243
  305MPD2     N 4650   2.073   1.269  13.888 -0.2625 -0.0076  0.3173
  305MPD2    H5 4651   2.015   1.261  13.805 -0.3347 -1.3438  0.5015
  305MPD2    N1 4652   2.195   1.561  14.263  0.2934  0.2465 -0.5213
  305MPD2    H7 4653   2.189   1.658  14.292 -0.2155 -0.0318  0.2910
  306TMC3    C1 4654   2.287   1.501  14.479 -0.1610  0.0134  0.1361
  306TMC3    C2 4655   2.312   1.401  14.566 -0.6615  0.4592  0.6547
  306TMC3    C3 4656   2.375   1.421  14.689  0.3366  0.1478 -0.5366
  306TMC3    C4 4657   2.334   1.626  14.500 -0.2964  0.2001 -0.0765
  306TMC3    C5 4658   2.393   1.650  14.623  0.0059 -0.1994 -0.1602
  306TMC3    C6 4659   2.410   1.555  14.722 -0.5565  0.7765 -0.9759
  306TMC3     C 4660   2.237   1.455  14.345 -0.0012 -0.4577 -0.1021
  306TMC3     O 4661   2.207   1.336  14.336 -0.0413 -0.0793 -0.7095
  306TMC3     H 4662   2.290   1.296  14.549  2.5852  0.2877 -2.6338
  306TMC3    H1 4663   2.337   1.702  14.423 -0.9336 -0.7744 -1.0744
  306TMC3    H2 4664   2.473   1.571  14.809 -1.6236  0.3722 -0.1201
  306TMC3    C7 4665   2.437   1.791  14.654 -0.0329  0.3446  0.3072
  306TMC3    C8 4666   2.429   1.308  14.757  0.4505 -0.2594  0.0367
  306TMC3    O1 4667   2.433   1.867  14.563  0.1342  0.3943  0.2024
  306TMC3    O2 4668   2.410   1.197  14.709 -0.1613  0.3021 -0.0228
  307MPD2     C 4669   0.380   3.943   1.051  0.1403  0.3323  0.1981
  307MPD2    C1 4670   0.339   4.058   0.992 -0.3333 -0.4152  0.5930
  307MPD2    C2 4671   0.227   4.124   1.043 -0.1778  0.0808  0.0659
  307MPD2    C3 4672   0.156   4.072   1.150 -0.6710  0.2522 -0.4923
  307MPD2    C4 4673   0.200   3.954   1.204 -0.3565 -0.2501 -0.3487
  307MPD2    C5 4674   0.315   3.891   1.158 -0.4690 -0.1999  0.2250
  307MPD2     H 4675   0.197   4.214   0.991  0.1777 -0.5266 -1.2061
  307MPD2    H1 4676   0.171   3.905   1.296  0.0689 -1.2842 -0.7574
  307MPD2    H2 4677   0.474   3.897   1.021  0.7390  0.7095  1.4695
  307MPD2    H3 4678   0.352   3.804   1.211  1.1668  1.2937  1.5146
  307MPD2     N 4679   0.043   4.145   1.203  0.0434 -0.0215  0.1134
  307MPD2    H5 4680   0.018   4.234   1.159 -2.4460 -0.5184  0.5237
  307MPD2    N1 4681   0.413   4.113   0.881  0.3477 -0.0331  0.3785
  307MPD2    H7 4682   0.396   4.210   0.856 -0.0747 -0.2773 -0.2677
  308TMC3    C1 4683   4.369   4.197   1.183  0.5572 -0.0318  0.8111
  308TMC3    C2 4684   4.379   4.335   1.186 -0.0779 -0.2745 -0.9949
  308TMC3    C3 4685   4.498   4.394   1.222 -0.1671 -0.7983 -0.1221
  308TMC3    C4 4686   4.464   4.116   1.242  0.1544 -0.0152  0.0748
  308TMC3    C5 4687   4.571   4.174   1.287 -0.6009 -0.8062 -0.5221
  308TMC3    C6 4688   4.599   4.311   1.263 -0.2310 -0.0045  1.0130
  308TMC3     C 4689   4.278   4.133   1.086 -0.6261 -0.8132  0.2862
  308TMC3     O 4690   4.297   4.010   1.077 -0.0811 -0.2863  0.6160
  308TMC3     H 4691   4.304   4.402   1.147 -1.1140 -1.4062 -0.9340
  308TMC3    H1 4692   4.458   4.008   1.239 -1.2610  0.0618 -0.0980
  308TMC3    H2 4693   4.689   4.353   1.305  0.9332 -2.4594  0.9974
  308TMC3    C7 4694   4.690   4.094   1.289 -0.1648  0.3108  0.5816
  308TMC3    C8 4695   4.491   4.525   1.280  0.1653 -0.0399  0.8922
  308TMC3    O1 4696   4.697   3.990   1.349 -0.3275  0.3137  0.0867
  308TMC3    O2 4697   4.395   4.553   1.348 -0.1885 -0.3109 -0.8174
  309MPD2     C 4698   4.135   4.591  17.166  0.1853 -0.5975  0.1610
  309MPD2    C1 4699   4.056   4.594  17.052 -0.4761  0.6155  0.4830
  309MPD2    C2 4700   3.930   4.645  17.071  0.1118  0.2595 -0.0412
  309MPD2    C3 4701   3.878   4.687  17.193 -0.6597 -0.3524  0.0929
  309MPD2    C4 4702   3.961   4.666  17.306  0.0266 -0.1591 -0.3615
  309MPD2    C5 4703   4.089   4.628  17.289  0.3375  0.1259  0.5376
  309MPD2     H 4704   3.862   4.652  16.987 -1.7594  0.2909  1.4944
  309MPD2    H1 4705   3.917   4.695  17.401  1.7086 -0.3894  0.4926
  309MPD2    H2 4706   4.241   4.572  17.161  0.3257  0.0435  0.6005
  309MPD2    H3 4707   4.145   4.619  17.381 -0.2620 -1.4891  0.7266
  309MPD2     N 4708   3.756   0.004  17.209 -0.1271 -0.1905  0.0607
  309MPD2    H5 4709   3.741   0.042  17.302  0.7235 -3.9479  1.7326
  309MPD2    N1 4710   4.098   4.572  16.918  0.0489 -0.1724 -0.0612
  309MPD2    H7 4711   4.042   4.601  16.838 -0.5678  0.3428  0.5575
  310TMC3    C1 4712   4.258   4.518  16.749  0.3451  0.9647  0.0554
  310TMC3    C2 4713   4.180   4.588  16.662  0.2553  0.1908 -0.4818
  310TMC3    C3 4714   4.207   4.561  16.529 -0.0161 -0.4798 -0.1783
  310TMC3    C4 4715   4.356   4.432  16.720  0.6732  0.1133 -1.2012
  310TMC3    C5 4716   4.375   4.406  16.588 -0.3631 -0.2229  0.8671
  310TMC3    C6 4717   4.296   4.465  16.491 -0.2987  0.5063 -0.1304
  310TMC3     C 4718   4.231   4.534  16.892  0.6942  0.5732 -0.1398
  310TMC3     O 4719   4.320   4.497  16.960 -0.0179 -0.0673 -0.7716
  310TMC3     H 4720   4.120   4.672  16.694  0.1807 -0.2772  0.6007
  310TMC3    H1 4721   4.424   4.395  16.795  0.3544  2.4165  0.2346
  310TMC3    H2 4722   4.303   4.438  16.387  0.7756  0.3649 -0.0160
  310TMC3    C7 4723   4.453   4.295  16.531  0.5225 -0.0264  0.0614
  310TMC3    C8 4724   4.149   4.647  16.425 -0.5373  0.4017  0.5868
  310TMC3    O1 4725   4.448   4.257  16.415  0.3976 -1.0743  0.3743
  310TMC3    O2 4726   4.201   4.648  16.313 -0.6518 -0.3014  0.1313
  311MPD2     C 4727   1.180   1.305  12.462  0.7213 -0.6348 -0.0189
  311MPD2    C1 4728   1.268   1.292  12.567 -0.1370  0.1761 -0.0669
  311MPD2    C2 4729   1.257   1.177  12.638 -0.7225  0.2921  0.4322
  311MPD2    C3 4730   1.152   1.091  12.621 -0.1447  0.2730 -1.0978
  311MPD2    C4 4731   1.079   1.093  12.512 -0.4929 -0.9228  0.0394
  311MPD2    C5 4732   1.091   1.204  12.432  0.3063 -0.1856 -0.2001
  311MPD2     H 4733   1.309   1.160  12.732 -1.9335 -2.9034  0.5222
  311MPD2    H1 4734   0.993   1.030  12.493  0.4248 -1.7393 -1.3682
  311MPD2    H2 4735   1.183   1.393  12.399 -1.4152 -0.3432  0.2709
  311MPD2    H3 4736   1.016   1.215  12.355  1.5209  1.2481 -1.1647
  311MPD2     N 4737   1.123   0.990  12.723  0.0951 -0.8024 -0.0010
  311MPD2    H5 4738   1.185   0.987  12.803 -0.3092 -1.1821  0.2997
  311MPD2    N1 4739   1.363   1.379  12.610  0.0609 -0.0110 -0.0567
  311MPD2    H7 4740   1.437   1.342  12.669  0.2818  0.8363  0.1963
  312TMC3    C1 4741   1.009   0.824  12.840  0.0739  0.4132  0.3624
  312TMC3    C2 4742   0.915   0.727  12.840  0.0650 -0.0789  0.1041
  312TMC3    C3 4743   0.841   0.703  12.955  0.2468 -0.0798  0.3812
  312TMC3    C4 4744   1.039   0.890  12.956  0.0795 -1.0505  0.2343
  312TMC3    C5 4745   0.954   0.872  13.063  0.6910  0.1552 -0.5256
  312TMC3    C6 4746   0.853   0.780  13.067  0.2807  0.4980 -0.2150
  312TMC3     C 4747   1.018   0.899  12.719 -0.4376  0.2875 -0.4985
  312TMC3     O 4748   0.928   0.884  12.634  0.0194 -0.1174  0.1603
  312TMC3     H 4749   0.887   0.686  12.743  1.6123  2.4433 -1.4135
  312TMC3    H1 4750   1.096   0.982  12.958 -1.0430 -0.3316 -0.4041
  312TMC3    H2 4751   0.807   0.760  13.164  0.7439 -1.6070 -0.4345
  312TMC3    C7 4752   0.928   0.984  13.156  0.3260 -0.2502 -0.2923
  312TMC3    C8 4753   0.703   0.671  12.937 -0.1006  0.2308 -1.0123
  312TMC3    O1 4754   0.909   1.090  13.103 -0.0896  0.0066  0.1141
  312TMC3    O2 4755   0.642   0.611  13.022 -0.0617  0.4992 -0.3961
  313MPD2     C 4756   4.598   0.554  11.759 -0.1245  0.1476  0.3341
  313MPD2    C1 4757   4.651   0.596  11.640  0.5158 -1.1853 -0.0240
  313MPD2    C2 4758   4.641   0.516  11.524  1.0938  0.1262  0.1964
  313MPD2    C3 4759   4.571   0.394  11.534 -0.6761  0.5586  0.1843
  313MPD2    C4 4760   4.523   0.350  11.656 -0.1225  0.3472  0.0463
  313MPD2    C5 4761   4.544   0.430  11.763 -1.0418  0.5128  0.1420
  313MPD2     H 4762   4.685   0.543  11.429  0.8558  0.1988  0.1064
  313MPD2    H1 4763   4.483   0.250  11.665  2.4227 -0.8299 -1.7122
  313MPD2    H2 4764   4.600   0.616  11.848 -2.2361 -0.3153  0.6979
  313MPD2    H3 4765   4.488   0.392  11.848 -0.6371  0.6752  0.4876
  313MPD2     N 4766   4.530   0.334  11.415 -0.0189  0.0434  0.2191
  313MPD2    H5 4767   4.550   0.384  11.329 -0.2517  0.3912  0.3670
  313MPD2    N1 4768   4.716   0.725  11.632  0.0239  0.2627 -1.0149
  313MPD2    H7 4769   4.702   0.788  11.710 -1.9124  1.3675 -2.2601
  314TMC3    C1 4770   0.082   0.916  11.549 -0.3524  0.4221  0.6266
  314TMC3    C2 4771   0.211   0.949  11.518  0.0237  0.4332 -0.6860
  314TMC3    C3 4772   0.239   1.068  11.464 -0.5527 -0.2769  0.4890
  314TMC3    C4 4773   4.715   0.996  11.525 -0.0013  0.0877 -0.5462
  314TMC3    C5 4774   0.007   1.117  11.465 -0.2093  0.8617 -0.1935
  314TMC3    C6 4775   0.142   1.155  11.436  0.3666  0.0644 -0.1153
  314TMC3     C 4776   0.056   0.775  11.522 -0.0561  0.5684 -0.3872
  314TMC3     O 4777   0.118   0.708  11.443  0.3746 -0.3031  0.0511
  314TMC3     H 4778   0.293   0.882  11.543 -0.0547 -0.0471 -1.7359
  314TMC3    H1 4779   4.612   0.963  11.526  0.5513 -1.6385 -1.2724
  314TMC3    H2 4780   0.170   1.246  11.385  0.5062 -0.3349 -0.7454
  314TMC3    C7 4781   4.658   1.143  11.353  0.3496  0.5412  0.1192
  314TMC3    C8 4782   0.375   1.125  11.458 -0.1626  0.1263 -0.3173
  314TMC3    O1 4783   4.543   1.113  11.365 -0.1569  0.0279 -0.1382
  314TMC3    O2 4784   0.394   1.212  11.378 -0.2629 -0.7966 -0.7143
  315MPD2     C 4785   0.857   3.905   0.538  0.3380  0.8747  0.1308
  315MPD2    C1 4786   0.932   3.933   0.646 -0.3975  0.3020 -0.1015
  315MPD2    C2 4787   0.960   4.065   0.670 -0.1496  0.3309 -0.3939
  315MPD2    C3 4788   0.938   4.161   0.576  0.1668  0.1945 -0.5459
  315MPD2    C4 4789   0.876   4.129   0.455 -0.2561 -0.1867  0.3880
  315MPD2    C5 4790   0.829   3.998   0.440 -0.9803  0.3897  0.3750
  315MPD2     H 4791   1.004   4.102   0.762 -0.4900  0.4420 -0.2768
  315MPD2    H1 4792   0.840   4.203   0.384 -0.4824  1.4780  2.2471
  315MPD2    H2 4793   0.837   3.801   0.515  2.1889  0.8846 -1.5724
  315MPD2    H3 4794   0.780   3.960   0.350  0.3679 -1.6312  0.4775
  315MPD2     N 4795   0.977   4.301   0.604  0.0803 -0.2056 -0.0719
  315MPD2    H5 4796   1.018   4.315   0.696 -0.4839  0.0878  0.1302
  315MPD2    N1 4797   0.969   3.832   0.743 -0.4554 -0.0398 -0.2380
  315MPD2    H7 4798   0.909   3.751   0.749 -1.1356  0.5723  1.2399
  316TMC3    C1 4799   0.933   4.537   0.615  0.0722  0.1149 -0.0955
  316TMC3    C2 4800   1.045   4.564   0.696 -0.3564 -0.3771 -0.0481
  316TMC3    C3 4801   1.050   4.684   0.763  0.0588  0.9224 -0.1795
  316TMC3    C4 4802   0.865   4.647   0.567 -0.7375  0.1828  0.1483
  316TMC3    C5 4803   0.879   0.028   0.633 -0.2178  0.0941 -0.0720
  316TMC3    C6 4804   0.962   0.046   0.737  0.3960  0.1484  0.3177
  316TMC3     C 4805   0.921   4.417   0.541 -0.0545  0.8687  0.4280
  316TMC3     O 4806   0.855   4.411   0.439 -0.1179 -0.6259  0.0552
  316TMC3     H 4807   1.119   4.487   0.712  1.3282  1.0117 -1.1373
  316TMC3    H1 4808   0.779   4.624   0.504 -1.2877  2.0309  0.2313
  316TMC3    H2 4809   0.965   0.143   0.787  1.1188  0.5322 -0.4668
  316TMC3    C7 4810   0.802   0.143   0.591 -0.6367 -0.2356 -0.0046
  316TMC3    C8 4811   1.142   4.711   0.869  0.5359 -0.0867 -0.3463
  316TMC3    O1 4812   0.776   0.220   0.685  1.2066 -0.5793  0.0531
  316TMC3    O2 4813   1.136   0.072   0.943 -0.1898 -0.4752  0.3401
  317MPD2     C 4814   2.581   3.054  13.509  0.3651  0.2510 -0.1544
  317MPD2    C1 4815   2.502   2.956  13.460 -0.4042  0.9419  0.5733
  317MPD2    C2 4816   2.550   2.824  13.457 -0.3105  0.5029  0.6456
  317MPD2    C3 4817   2.669   2.794  13.518 -0.6211 -0.8488 -0.5536
  317MPD2    C4 4818   2.730   2.891  13.590 -0.5795  0.5567  0.4029
  317MPD2    C5 4819   2.701   3.025  13.568  0.1364  0.4607  0.3501
  317MPD2     H 4820   2.490   2.749  13.407  0.2483 -0.3385  1.2157
  317MPD2    H1 4821   2.820   2.864  13.645  0.6836 -0.3221 -2.0827
  317MPD2    H2 4822   2.571   3.160  13.487 -1.3211  0.3674  1.1667
  317MPD2    H3 4823   2.768   3.104  13.599  0.3990 -0.6235  2.5586
  317MPD2     N 4824   2.706   2.663  13.499  0.7327 -0.1204  0.0296
  317MPD2    H5 4825   2.655   2.606  13.432 -0.7524  0.9542  0.2563
  317MPD2    N1 4826   2.374   2.992  13.415  0.3327 -0.0572  0.2851
  317MPD2    H7 4827   2.324   2.918  13.366  0.2076  0.6198 -0.6285
  318TMC3    C1 4828   2.837   2.473  13.504  0.7776 -0.1286  0.5132
  318TMC3    C2 4829   2.730   2.389  13.517  0.6661  0.1404  0.0983
  318TMC3    C3 4830   2.752   2.252  13.507 -0.0421 -0.1115  0.8014
  318TMC3    C4 4831   2.962   2.428  13.476  0.6363 -0.2404  0.6053
  318TMC3    C5 4832   2.977   2.296  13.452  0.0891 -0.3971  0.3808
  318TMC3    C6 4833   2.875   2.204  13.462  0.1687  0.7889  0.6356
  318TMC3     C 4834   2.832   2.613  13.533  0.5712 -0.1546  0.1646
  318TMC3     O 4835   2.918   2.661  13.601  0.0425  0.1349  0.2828
  318TMC3     H 4836   2.635   2.431  13.547  0.8915 -0.2987  1.4159
  318TMC3    H1 4837   3.050   2.492  13.476  0.5841 -0.1712  0.2361
  318TMC3    H2 4838   2.887   2.096  13.455  0.6083  0.9057 -0.3457
  318TMC3    C7 4839   3.103   2.239  13.403  0.2727 -0.4032 -0.4432
  318TMC3    C8 4840   2.639   2.166  13.475  0.2465 -0.9794  0.1779
  318TMC3    O1 4841   3.104   2.118  13.401  0.0235 -0.0528  0.3288
  318TMC3    O2 4842   2.657   2.045  13.491 -0.4432  0.5883  0.4567
  319MPD2     C 4843   3.629   4.015  16.244 -0.7647  0.1773  0.2955
  319MPD2    C1 4844   3.556   3.997  16.353 -0.5792 -0.6582 -0.4085
  319MPD2    C2 4845   3.429   3.944  16.343  0.2680 -0.2948 -0.0846
  319MPD2    C3 4846   3.366   3.937  16.219 -0.0605  0.2311 -0.8536
  319MPD2    C4 4847   3.449   3.959  16.106 -0.1921  0.6568  0.6781
  319MPD2    C5 4848   3.572   4.008  16.123 -0.3228 -0.8259 -0.1066
  319MPD2     H 4849   3.368   3.909  16.425  1.0557  1.6134  1.3301
  319MPD2    H1 4850   3.403   3.948  16.009 -1.2171 -0.4885  1.2866
  319MPD2    H2 4851   3.732   4.049  16.245 -1.1510  1.3609  0.0630
  319MPD2    H3 4852   3.626   4.026  16.031  0.5955 -2.9088  0.0144
  319MPD2     N 4853   3.238   3.883  16.194 -0.1598 -0.5411 -0.6336
  319MPD2    H5 4854   3.205   3.899  16.100 -0.6899 -1.0956 -0.5411
  319MPD2    N1 4855   3.598   4.024  16.485 -0.4518  0.4117  0.3714
  319MPD2    H7 4856   3.534   4.010  16.562 -1.5301  1.0583 -0.4209
  320TMC3    C1 4857   3.019   3.819  16.231 -0.4662 -0.1981 -0.7770
  320TMC3    C2 4858   2.961   3.917  16.161 -1.0703  0.6917  0.1907
  320TMC3    C3 4859   2.854   3.885  16.091 -0.0093  0.2469 -0.3496
  320TMC3    C4 4860   2.973   3.692  16.236 -0.0839 -0.7930  0.4501
  320TMC3    C5 4861   2.860   3.667  16.166 -0.4418 -0.1063  0.2053
  320TMC3    C6 4862   2.799   3.760  16.083 -0.1346 -0.5189 -0.5631
  320TMC3     C 4863   3.147   3.842  16.288  0.3181 -0.2369 -0.3797
  320TMC3     O 4864   3.168   3.808  16.404 -0.3549 -0.2048 -0.2518
  320TMC3     H 4865   2.999   4.018  16.154 -0.5207  0.3555 -1.8941
  320TMC3    H1 4866   3.031   3.620  16.292  1.3719  0.3344  0.4048
  320TMC3    H2 4867   2.723   3.740  16.008 -0.4164  2.3885 -1.0163
  320TMC3    C7 4868   2.826   3.529  16.139 -0.9264 -0.2524  1.0083
  320TMC3    C8 4869   2.780   3.998  16.040 -0.2180  0.0991  0.0987
  320TMC3    O1 4870   2.761   3.503  16.041  0.0759 -0.1693  0.0277
  320TMC3    O2 4871   2.835   4.103  16.018  0.1239 -0.2837  0.6137
  321TMC3    C1 4872   3.757   4.056  16.654  0.1643  0.0659  0.0430
  321TMC3    C2 4873   3.870   3.997  16.700  0.4632 -0.0865  0.1784
  321TMC3    C3 4874   3.876   3.928  16.822  0.6367 -0.3561 -0.8543
  321TMC3    C4 4875   3.653   4.081  16.739  0.0949 -0.3549 -0.4745
  321TMC3    C5 4876   3.678   4.034  16.869  1.1606  0.1057  0.3699
  321TMC3    C6 4877   3.766   3.939  16.902  0.7489  0.7868  0.2399
  321TMC3     C 4878   3.734   4.057  16.513  0.3657  0.3353  0.3613
  321TMC3     O 4879   3.825   4.074  16.439  0.0121 -0.1726 -0.3468
  321TMC3     H 4880   3.951   3.991  16.627  0.5167  3.3049 -0.0356
  321TMC3    H1 4881   3.571   4.146  16.710  0.9742  0.7584 -0.4263
  321TMC3    H2 4882   3.756   3.883  16.994 -1.0481  0.9572  0.1411
  321TMC3    C7 4883   3.658   4.140  16.969  0.0782 -0.1932  0.4723
  321TMC3    C8 4884   4.001   3.936  16.899 -0.6493  0.6084  0.2126
  321TMC3    O1 4885   3.584   4.236  16.939 -0.3639  0.0024 -0.4387
  321TMC3    O2 4886   3.995   3.973  17.013  0.4419 -0.0694 -0.0113
  322MPD2     C 4887   1.918   0.743  14.001  0.2434  0.3422  0.2628
  322MPD2    C1 4888   1.999   0.678  14.089  0.0179 -0.1883 -1.5318
  322MPD2    C2 4889   2.022   0.544  14.073 -0.0376 -0.4022  0.1985
  322MPD2    C3 4890   1.975   0.474  13.962 -0.3290  0.9694  0.0969
  322MPD2    C4 4891   1.885   0.539  13.881 -0.3242  0.2047  0.8122
  322MPD2    C5 4892   1.859   0.669  13.899 -0.0300  0.2579 -0.2527
  322MPD2     H 4893   2.091   0.498  14.142 -0.1290 -2.1902 -0.9039
  322MPD2    H1 4894   1.845   0.482  13.798  0.9840 -2.8443  2.2814
  322MPD2    H2 4895   1.888   0.847  14.009 -2.7021 -0.4032 -1.2702
  322MPD2    H3 4896   1.781   0.709  13.835 -1.2261 -0.6022  0.6713
  322MPD2     N 4897   2.016   0.342  13.933  0.4516 -0.0779  0.3508
  322MPD2    H5 4898   2.061   0.299  14.014  1.0737  1.5842  0.8850
  322MPD2    N1 4899   2.042   0.745  14.203  0.3903  0.1539 -0.2743
  322MPD2    H7 4900   2.082   0.692  14.281 -1.3012 -2.0528 -0.9039
  323TMC3    C1 4901   2.108   0.923  14.323  0.1828 -1.1200 -0.5038
  323TMC3    C2 4902   2.202   1.027  14.312  0.1223  0.3504  0.3294
  323TMC3    C3 4903   2.292   1.040  14.413  0.2389 -1.1752  0.7404
  323TMC3    C4 4904   2.110   0.835  14.423 -0.3515  0.7099  0.5581
  323TMC3    C5 4905   2.206   0.848  14.521 -0.2029  0.4125 -0.0149
  323TMC3    C6 4906   2.294   0.951  14.517 -0.6078  0.8111 -0.4806
  323TMC3     C 4907   2.054   0.880  14.208 -0.6619 -0.2158 -0.0374
  323TMC3     O 4908   2.053   0.959  14.119  0.0964  0.0547  0.4888
  323TMC3     H 4909   2.205   1.093  14.226  0.5897  1.1265  0.9443
  323TMC3    H1 4910   2.020   0.774  14.433  0.1491 -0.4616 -1.9430
  323TMC3    H2 4911   2.368   0.966  14.595 -1.7820  1.8223  0.4373
  323TMC3    C7 4912   2.228   0.735  14.611  0.0153 -0.4251  0.2948
  323TMC3    C8 4913   2.426   1.083  14.375 -0.9492  0.3651  0.0215
  323TMC3    O1 4914   2.184   0.625  14.583  0.0974 -0.1772  0.2888
  323TMC3    O2 4915   2.522   1.037  14.438  0.3780  0.8050  0.2603
  324MPD2     C 4916   4.301   1.478  14.126 -0.2058 -0.0607 -0.3522
  324MPD2    C1 4917   4.306   1.611  14.075  0.9022  0.9766  0.3419
  324MPD2    C2 4918   4.190   1.669  14.031  0.3852 -0.1670  0.6045
  324MPD2    C3 4919   4.077   1.592  14.002  0.0027 -0.0805 -0.4522
  324MPD2    C4 4920   4.068   1.468  14.058 -0.2774 -0.2176 -0.8017
  324MPD2    C5 4921   4.178   1.412  14.118 -0.4424 -0.9093  0.6630
  324MPD2     H 4922   4.195   1.776  14.012 -1.5495  0.0312  1.2958
  324MPD2    H1 4923   3.983   1.400  14.047 -0.4439  0.1094 -1.5144
  324MPD2    H2 4924   4.381   1.423  14.173  2.5722  0.7619 -4.1256
  324MPD2    H3 4925   4.162   1.310  14.149 -1.5531 -0.0822  2.8008
  324MPD2     N 4926   3.952   1.652  13.968 -0.2469  0.0364  0.5638
  324MPD2    H5 4927   3.871   1.593  13.986  0.8446 -1.6673 -0.0575
  324MPD2    N1 4928   4.424   1.689  14.078  0.2787 -0.1423 -0.5607
  324MPD2    H7 4929   4.425   1.772  14.020 -0.2173  0.2718  0.0100
  325TMC3    C1 4930   3.786   1.819  13.916  0.0886  0.2976  0.3289
  325TMC3    C2 4931   3.690   1.724  13.901  0.1703 -0.0363 -0.5369
  325TMC3    C3 4932   3.565   1.772  13.878 -0.3856  0.4343 -0.1616
  325TMC3    C4 4933   3.744   1.948  13.928  0.2146  0.8390 -0.3938
  325TMC3    C5 4934   3.618   1.989  13.910 -0.5348  0.6598  0.0906
  325TMC3    C6 4935   3.521   1.900  13.882  0.4404 -0.4607  0.2068
  325TMC3     C 4936   3.923   1.789  13.944 -0.9917 -0.3445 -0.2584
  325TMC3     O 4937   3.997   1.881  13.944 -0.1312 -0.0230 -0.5172
  325TMC3     H 4938   3.704   1.617  13.901  1.8640  0.1792 -0.7505
  325TMC3    H1 4939   3.816   2.026  13.951 -0.1403  1.5500 -1.6928
  325TMC3    H2 4940   3.417   1.926  13.865  0.1610 -0.0842  2.4688
  325TMC3    C7 4941   3.590   2.103  14.000 -0.2006  0.0615  0.5135
  325TMC3    C8 4942   3.465   1.664  13.871 -0.6207 -0.6302  0.4094
  325TMC3    O1 4943   3.665   2.199  14.003 -0.2340 -0.3477  0.5409
  325TMC3    O2 4944   3.501   1.552  13.917 -0.0766 -0.4490 -0.0365
  326MPD2     C 4945   0.019   2.973  11.189 -0.6040 -0.1032  0.9469
  326MPD2    C1 4946   0.136   2.900  11.162  0.7038  0.3436 -0.0925
  326MPD2    C2 4947   0.255   2.953  11.200 -0.2399  0.1088 -0.4151
  326MPD2    C3 4948   0.258   3.073  11.276 -0.0720  0.1653 -0.4016
  326MPD2    C4 4949   0.141   3.135  11.312  0.3501  0.3549  0.9519
  326MPD2    C5 4950   0.024   3.086  11.265  0.3215 -0.5318  0.2821
  326MPD2     H 4951   0.347   2.903  11.173 -0.0775  0.9210 -1.3460
  326MPD2    H1 4952   0.148   3.226  11.370  1.3186  0.5385  0.5483
  326MPD2    H2 4953   4.658   2.942  11.154 -0.4959  1.0249 -0.3786
  326MPD2    H3 4954   4.677   3.145  11.299 -0.6774 -1.3240 -0.8046
  326MPD2     N 4955   0.377   3.136  11.314  0.0589 -0.4986 -0.2607
  326MPD2    H5 4956   0.369   3.230  11.353 -0.7385 -0.5138 -0.3817
  326MPD2    N1 4957   0.149   2.788  11.078  0.0043  0.2618  0.3947
  326MPD2    H7 4958   0.245   2.755  11.070  0.7828  2.9941 -1.8776
  327TMC3    C1 4959   0.082   2.635  10.904 -0.3664 -0.1255  0.4093
  327TMC3    C2 4960   4.734   2.616  10.806 -0.1826 -0.6196 -0.5641
  327TMC3    C3 4961   0.042   2.592  10.681 -0.4325  0.3085 -0.0569
  327TMC3    C4 4962   0.216   2.612  10.891  0.8082 -0.4600  0.1410
  327TMC3    C5 4963   0.262   2.590  10.759  0.9445 -0.5497 -0.2614
  327TMC3    C6 4964   0.173   2.582  10.655  0.4750 -0.0377  1.0081
  327TMC3     C 4965   0.048   2.738  11.001  0.5075  0.1033  0.2827
  327TMC3     O 4966   4.669   2.780  10.999  0.0422  0.0553  0.1084
  327TMC3     H 4967   4.629   2.634  10.825  0.0407  0.5502 -0.4094
  327TMC3    H1 4968   0.267   2.605  10.986 -0.0410  1.0823  0.7058
  327TMC3    H2 4969   0.207   2.554  10.556 -1.6461 -1.4047  0.6512
  327TMC3    C7 4970   0.384   2.657  10.720  0.4847  0.4382 -0.9783
  327TMC3    C8 4971   4.702   2.639  10.571  0.4144 -0.3315 -0.3022
  327TMC3    O1 4972   0.373   2.718  10.614  0.2665 -0.1544 -0.1744
  327TMC3    O2 4973   0.029   2.688  10.480  0.3574  0.8222 -0.6300
  328MPD2     C 4974   2.832   3.285  17.221  0.4738 -0.5025  0.1323
  328MPD2    C1 4975   2.813   3.165  17.153 -0.1980  0.6999 -0.6705
  328MPD2    C2 4976   2.779   3.167  17.019 -0.5409  0.0896 -0.3091
  328MPD2    C3 4977   2.763   3.286  16.950 -0.0873  0.2071  0.1218
  328MPD2    C4 4978   2.788   3.400  17.015  0.0227 -0.3784 -0.1743
  328MPD2    C5 4979   2.812   3.399  17.150 -0.1278 -0.2932 -0.2181
  328MPD2     H 4980   2.762   3.072  16.970 -0.9178 -0.1905  0.3641
  328MPD2    H1 4981   2.760   3.492  16.965  0.5168 -1.0518 -1.7154
  328MPD2    H2 4982   2.861   3.290  17.325 -0.3435 -1.2030  0.3897
  328MPD2    H3 4983   2.830   3.492  17.203  0.2843 -0.4770 -0.0378
  328MPD2     N 4984   2.721   3.297  16.814 -0.5235  0.1290  0.1450
  328MPD2    H5 4985   2.713   3.387  16.768  0.1650  1.8617  3.4301
  328MPD2    N1 4986   2.829   3.046  17.234  0.0537  0.4755  0.1027
  328MPD2    H7 4987   2.856   3.058  17.331  3.2083 -3.0250 -0.3358
  329TMC3    C1 4988   2.758   2.829  17.293  0.6065  0.2247 -0.6215
  329TMC3    C2 4989   2.647   2.879  17.351 -0.4873 -0.1881 -0.2935
  329TMC3    C3 4990   2.535   2.806  17.363  0.2319 -0.3374 -0.2753
  329TMC3    C4 4991   2.757   2.695  17.249 -0.0542 -0.1166  0.1659
  329TMC3    C5 4992   2.651   2.625  17.274  0.1516  0.0729 -0.5306
  329TMC3    C6 4993   2.528   2.678  17.316  0.1257  0.4482 -0.2933
  329TMC3     C 4994   2.802   2.917  17.189 -0.2637  0.3261  0.1566
  329TMC3     O 4995   2.778   2.866  17.080 -0.1432  0.2065 -0.3478
  329TMC3     H 4996   2.660   2.980  17.390 -1.7306  0.3030 -1.1526
  329TMC3    H1 4997   2.849   2.659  17.204 -1.2446 -1.7187 -1.0007
  329TMC3    H2 4998   2.432   2.628  17.313  1.0146 -1.2417 -1.4192
  329TMC3    C7 4999   2.681   2.485  17.282  0.1709  0.7628 -0.3122
  329TMC3    C8 5000   2.435   2.886  17.287  0.0079  0.0702  0.4888
  329TMC3    O1 5001   2.792   2.445  17.256 -0.3680 -0.2004 -0.8017
  329TMC3    O2 5002   2.398   2.835  17.182  0.0622 -0.0784 -0.1854
  330TMC3    C1 5003   0.939   1.913  10.323 -0.8154  0.4008  0.0299
  330TMC3    C2 5004   0.847   1.883  10.228  0.4224  0.7788  0.0094
  330TMC3    C3 5005   0.744   1.804  10.265 -0.6919 -0.3892 -0.1551
  330TMC3    C4 5006   0.935   1.865  10.452 -0.2926 -0.1413  0.2991
  330TMC3    C5 5007   0.831   1.779  10.482 -0.3690  0.2480  0.4215
  330TMC3    C6 5008   0.738   1.743  10.389  0.0827 -0.3816 -0.2989
  330TMC3     C 5009   0.977   2.050  10.322 -0.5150  0.0909  0.0856
  330TMC3     O 5010   0.944   2.115  10.425 -0.1267  0.1253  0.3787
  330TMC3     H 5011   0.863   1.923  10.128 -1.7177 -2.1632 -1.5180
  330TMC3    H1 5012   1.015   1.886  10.523  0.8998  1.6619 -1.5557
  330TMC3    H2 5013   0.668   1.662  10.407  0.5780 -1.1622 -1.9027
  330TMC3    C7 5014   0.814   1.739  10.618  0.5550 -0.0935  0.3889
  330TMC3    C8 5015   0.656   1.754  10.156 -0.2871  0.1794 -0.1211
  330TMC3    O1 5016   0.699   1.719  10.659  1.0392 -0.9180 -0.2860
  330TMC3    O2 5017   0.708   1.771  10.047 -0.2538 -0.4361 -0.1450
  331MPD2     C 5018   3.868   1.443  12.503  0.2262 -0.0397  0.1457
  331MPD2    C1 5019   3.745   1.440  12.562 -0.0937 -0.6301  0.3114
  331MPD2    C2 5020   3.721   1.316  12.619 -0.4807 -0.6030 -0.3541
  331MPD2    C3 5021   3.808   1.209  12.621 -0.6547  0.3590  0.1393
  331MPD2    C4 5022   3.930   1.224  12.577 -0.2893  0.5385  0.4281
  331MPD2    C5 5023   3.960   1.337  12.511  0.1732 -0.0793  0.4361
  331MPD2     H 5024   3.621   1.292  12.654 -0.3648 -0.0735  0.3401
  331MPD2    H1 5025   4.006   1.147  12.574  0.1127  0.9219  0.7728
  331MPD2    H2 5026   3.907   1.526  12.444  0.0697 -1.5210 -2.0420
  331MPD2    H3 5027   4.056   1.336  12.461  0.5479 -0.2458  1.1494
  331MPD2     N 5028   3.755   1.078  12.667  0.3850 -0.4408 -0.1277
  331MPD2    H5 5029   3.655   1.081  12.682  0.1539 -0.2727 -1.7031
  331MPD2    N1 5030   3.654   1.550  12.557  0.2292 -0.0972 -0.5171
  331MPD2    H7 5031   3.654   1.615  12.479  1.4699 -1.4656 -1.6552
  332TMC3    C1 5032   3.742   0.837  12.707  0.3312  0.7456 -0.0446
  332TMC3    C2 5033   3.630   0.830  12.627  0.4446  0.1152 -0.2666
  332TMC3    C3 5034   3.561   0.714  12.636 -0.0391  0.2431 -0.3995
  332TMC3    C4 5035   3.785   0.742  12.792 -0.4560 -0.7608  0.8894
  332TMC3    C5 5036   3.711   0.630  12.794  0.0471  0.2892 -0.5801
  332TMC3    C6 5037   3.594   0.611  12.716  0.3024  0.0802  0.4062
  332TMC3     C 5038   3.830   0.958  12.684  0.0853  0.1241 -0.3277
  332TMC3     O 5039   3.948   0.945  12.711 -0.6194  0.1799  0.5708
  332TMC3     H 5040   3.605   0.903  12.552 -0.0314  0.1036 -0.1207
  332TMC3    H1 5041   3.869   0.761  12.858  0.3805  2.9925 -1.2501
  332TMC3    H2 5042   3.532   0.525  12.741  1.5950 -0.4114  1.9461
  332TMC3    C7 5043   3.753   0.515  12.870  0.2243  0.6231  1.0263
  332TMC3    C8 5044   3.451   0.706  12.543 -0.0701 -0.4182  0.0649
  332TMC3    O1 5045   3.669   0.427  12.906 -0.6487  0.1689 -0.8695
  332TMC3    O2 5046   3.454   0.791  12.448  0.1769  0.5390  0.1397
  333MPD2     C 5047   3.474   1.123  11.688 -0.0872 -0.3407  0.4312
  333MPD2    C1 5048   3.476   1.079  11.560 -0.0680 -0.5598 -0.3730
  333MPD2    C2 5049   3.405   0.968  11.523  0.3735 -0.0278  0.2730
  333MPD2    C3 5050   3.342   0.883  11.613  0.0211 -0.0264  0.0085
  333MPD2    C4 5051   3.342   0.925  11.745 -0.3996 -0.6549  0.2467
  333MPD2    C5 5052   3.415   1.036  11.781 -0.0121 -0.5772  0.4921
  333MPD2     H 5053   3.404   0.950  11.416  1.1845 -1.5649  0.5298
  333MPD2    H1 5054   3.298   0.857  11.817 -1.0166 -0.3511  0.1545
  333MPD2    H2 5055   3.537   1.199  11.733  0.6173  0.1059 -1.3144
  333MPD2    H3 5056   3.424   1.061  11.886 -2.8532  0.0468  0.5716
  333MPD2     N 5057   3.277   0.764  11.567  0.5895 -0.1205  0.3780
  333MPD2    H5 5058   3.278   0.749  11.467 -2.0177  1.6202  0.1009
  333MPD2    N1 5059   3.561   1.149  11.469  0.3712  0.2246  0.1727
  333MPD2    H7 5060   3.597   1.237  11.505  1.2037  0.2953 -0.8248
  334TMC3    C1 5061   3.686   1.208  11.275 -0.3973  0.4209 -0.9782
  334TMC3    C2 5062   3.793   1.157  11.204  0.2771  0.0087 -0.4391
  334TMC3    C3 5063   3.871   1.251  11.147 -0.2831  0.1806 -0.3167
  334TMC3    C4 5064   3.650   1.337  11.291  0.0994  0.4685 -0.3530
  334TMC3    C5 5065   3.731   1.421  11.222 -0.3521  0.5129  0.2364
  334TMC3    C6 5066   3.842   1.390  11.153  0.0885  0.0407 -0.4894
  334TMC3     C 5067   3.618   1.104  11.355 -0.1749 -0.2287  0.3592
  334TMC3     O 5068   3.610   0.993  11.305 -0.2179  0.0595 -0.0418
  334TMC3     H 5069   3.805   1.051  11.187 -0.7064 -0.1217 -0.3029
  334TMC3    H1 5070   3.562   1.361  11.349 -0.4518  0.9689 -1.3935
  334TMC3    H2 5071   3.894   1.459  11.087  1.0432  0.1224  0.3395
  334TMC3    C7 5072   3.672   1.540  11.181  0.3608 -0.4153  0.6220
  334TMC3    C8 5073   3.923   1.195  11.018  0.0303  0.4960 -0.3775
  334TMC3    O1 5074   3.746   1.629  11.140 -0.4031  0.6229 -0.6601
  334TMC3    O2 5075   3.859   1.113  10.954 -0.2054 -0.0485  0.2904
  335TMC3    C1 5076   3.421   2.952  17.568  0.0432  1.0606 -0.1852
  335TMC3    C2 5077   3.335   2.929  17.459  0.2731 -0.1628 -0.0618
  335TMC3    C3 5078   3.384   2.945  17.333  0.6915 -0.0140  0.2379
  335TMC3    C4 5079   3.553   2.984  17.551  0.0742  0.5482  0.2070
  335TMC3    C5 5080   3.597   2.999  17.420 -0.1558  0.0131  0.4916
  335TMC3    C6 5081   3.510   2.984  17.314 -0.2500  0.0312  0.0615
  335TMC3     C 5082   3.367   2.949  17.699 -0.5597  1.0437 -0.2681
  335TMC3     O 5083   3.247   2.925  17.721 -0.2678 -0.1697  0.2249
  335TMC3     H 5084   3.233   2.897  17.478 -0.1056  0.6989 -0.6227
  335TMC3    H1 5085   3.629   2.996  17.628 -0.7146 -0.1641  1.0997
  335TMC3    H2 5086   3.552   2.986  17.213 -2.8199 -0.2520 -1.0107
  335TMC3    C7 5087   3.735   3.006  17.392  0.3578  0.1876 -0.6757
  335TMC3    C8 5088   3.316   2.889  17.214  0.3578 -0.5501  0.9480
  335TMC3    O1 5089   3.769   2.947  17.291  0.1070  0.3385 -0.0197
  335TMC3    O2 5090   3.336   2.938  17.103  0.4056  0.5465  0.3277
  336MPD2     C 5091   3.244   0.604  16.305 -0.2971  0.0371  0.1320
  336MPD2    C1 5092   3.208   0.581  16.175  0.3393 -0.2419  0.0318
  336MPD2    C2 5093   3.237   0.457  16.119  1.3621  0.2241 -0.7276
  336MPD2    C3 5094   3.299   0.359  16.200  0.3130  0.2144  0.3416
  336MPD2    C4 5095   3.329   0.387  16.334  0.7232  0.2033  0.1535
  336MPD2    C5 5096   3.315   0.512  16.377  0.2898 -1.0255 -0.1135
  336MPD2     H 5097   3.216   0.444  16.013 -2.2046 -0.0597  0.0189
  336MPD2    H1 5098   3.379   0.305  16.385  0.3024  0.0202  0.2732
  336MPD2    H2 5099   3.236   0.702  16.351  1.0354 -0.5332  1.5587
  336MPD2    H3 5100   3.341   0.535  16.479 -0.6073  0.5174 -0.2287
  336MPD2     N 5101   3.329   0.236  16.145  0.2866  0.0504 -0.9588
  336MPD2    H5 5102   3.344   0.155  16.204 -1.6177 -0.2257 -0.8440
  336MPD2    N1 5103   3.153   0.683  16.089  0.2296 -0.7294  0.4470
  336MPD2    H7 5104   3.128   0.647  15.997  2.2223  1.5363 -0.9953
  337TMC3    C1 5105   3.050   0.881  16.021 -0.7153 -0.6192 -0.0140
  337TMC3    C2 5106   2.946   0.962  16.053 -0.6377  0.5615 -0.1607
  337TMC3    C3 5107   2.879   1.016  15.947  0.4111  0.3431  0.5751
  337TMC3    C4 5108   3.107   0.864  15.896 -0.7489  0.2197 -0.4932
  337TMC3    C5 5109   3.041   0.929  15.797  1.3707  0.0962  0.1315
  337TMC3    C6 5110   2.925   1.001  15.818  0.3012 -0.7471  0.2527
  337TMC3     C 5111   3.105   0.808  16.127  0.3499 -0.1928 -0.5892
  337TMC3     O 5112   3.076   0.846  16.240 -0.2881 -0.7836  0.2292
  337TMC3     H 5113   2.911   0.975  16.155  1.8607  2.1587  0.4834
  337TMC3    H1 5114   3.191   0.796  15.890 -0.7661 -0.0807  2.7386
  337TMC3    H2 5115   2.882   1.056  15.736  1.8339  0.6719  0.3981
  337TMC3    C7 5116   3.092   0.916  15.660 -0.1211  0.2515 -0.2803
  337TMC3    C8 5117   2.739   1.048  15.965  0.4470 -0.9455 -0.7157
  337TMC3    O1 5118   3.070   1.001  15.575  0.9969  0.2608 -0.3655
  337TMC3    O2 5119   2.694   1.077  16.075  0.0663 -0.4678 -0.1643
  338MPD2     C 5120   3.411   0.073   0.951 -1.2446  0.2706 -0.1559
  338MPD2    C1 5121   3.386   0.070   0.812 -0.4881 -0.0814 -0.1685
  338MPD2    C2 5122   3.281   0.136   0.751 -0.2149  0.7530  0.4636
  338MPD2    C3 5123   3.180   0.192   0.830 -0.4273  0.8834 -0.3009
  338MPD2    C4 5124   3.196   0.176   0.967  0.4502 -0.1694 -0.0183
  338MPD2    C5 5125   3.313   0.128   1.024 -0.2780 -0.6594  0.3782
  338MPD2     H 5126   3.279   0.150   0.644  2.5125 -1.2793  0.1582
  338MPD2    H1 5127   3.127   0.220   1.039 -0.2301 -1.7994  0.3248
  338MPD2    H2 5128   3.493   0.015   0.993  0.9005  1.8569 -2.1427
  338MPD2    H3 5129   3.329   0.129   1.131 -1.8228 -3.4313  0.6215
  338MPD2     N 5130   3.053   0.239   0.778  0.2273 -0.1581 -0.1712
  338MPD2    H5 5131   2.981   0.268   0.843 -0.5255  2.2490 -2.0910
  338MPD2    N1 5132   3.474   0.016   0.718 -0.4232 -0.6455 -0.4175
  338MPD2    H7 5133   3.436   0.005   0.624 -0.4214  0.9476 -0.6174
  339TMC3    C1 5134   2.869   0.267   0.631 -0.3773 -0.8954 -0.6730
  339TMC3    C2 5135   2.775   0.284   0.734 -0.8268  0.0559 -0.7498
  339TMC3    C3 5136   2.648   0.325   0.699  0.0416 -0.2707  0.5504
  339TMC3    C4 5137   2.834   0.292   0.503  0.3060 -0.1860  0.7807
  339TMC3    C5 5138   2.712   0.336   0.467 -0.3508 -0.1875 -0.4156
  339TMC3    C6 5139   2.618   0.360   0.568  0.0642  0.3348 -0.7086
  339TMC3     C 5140   3.012   0.231   0.647  0.0926 -0.3155  0.4213
  339TMC3     O 5141   3.072   0.193   0.546  0.5571 -0.3002  0.0909
  339TMC3     H 5142   2.804   0.248   0.832 -0.8766 -2.4983 -1.6682
  339TMC3    H1 5143   2.911   0.282   0.427  0.0711  1.2969  0.3586
  339TMC3    H2 5144   2.517   0.388   0.542 -0.5378 -0.0462  1.2099
  339TMC3    C7 5145   2.696   0.401   0.341  0.2475  0.2004 -0.5878
  339TMC3    C8 5146   2.546   0.337   0.798  0.3071 -0.5170  0.6980
  339TMC3    O1 5147   2.607   0.482   0.339 -0.1629 -0.0049 -0.3815
  339TMC3    O2 5148   2.442   0.383   0.754 -0.4338  0.3086 -0.0694
  340MPD2     C 5149   3.371   2.355   9.760  0.0372 -0.5349 -0.3445
  340MPD2    C1 5150   3.416   2.257   9.845 -0.1527 -0.1638 -0.1175
  340MPD2    C2 5151   3.447   2.304   9.972 -0.1304  0.0686  0.8758
  340MPD2    C3 5152   3.456   2.434  10.001 -0.3135 -0.0379  0.4348
  340MPD2    C4 5153   3.416   2.531   9.914  0.5204  0.1356  0.1995
  340MPD2    C5 5154   3.362   2.486   9.798  0.7761  0.0025 -0.0286
  340MPD2     H 5155   3.478   2.228  10.042  3.1984 -0.1965 -0.9092
  340MPD2    H1 5156   3.416   2.638   9.932 -2.2648  0.1245  0.1817
  340MPD2    H2 5157   3.333   2.319   9.666 -0.6190 -0.9903  0.1001
  340MPD2    H3 5158   3.336   2.558   9.721  0.1015 -0.1415  0.0688
  340MPD2     N 5159   3.498   2.483  10.126  0.3009 -0.3000  0.1504
  340MPD2    H5 5160   3.486   2.584  10.136  0.3589 -0.3650  0.8946
  340MPD2    N1 5161   3.422   2.127   9.798  0.2386  0.0937 -0.4791
  340MPD2    H7 5162   3.408   2.107   9.700 -2.5592 -0.2437 -0.0091
  341TMC3    C1 5163   3.481   1.894   9.799  0.5308 -0.8429 -0.4319
  341TMC3    C2 5164   3.466   1.772   9.864  0.4866 -0.2049 -0.6151
  341TMC3    C3 5165   3.527   1.659   9.806 -0.5806  0.3939  0.8241
  341TMC3    C4 5166   3.552   1.907   9.686 -0.2046  0.7935  0.3298
  341TMC3    C5 5167   3.610   1.796   9.629  0.0024  0.1211  0.2838
  341TMC3    C6 5168   3.598   1.670   9.690  0.9085 -0.0263  0.3362
  341TMC3     C 5169   3.443   2.010   9.875 -0.9837  0.2578 -0.2716
  341TMC3     O 5170   3.444   1.992  10.001 -0.0060  0.4761 -0.1054
  341TMC3     H 5171   3.400   1.775   9.949 -0.4428  2.0071 -1.4229
  341TMC3    H1 5172   3.568   1.999   9.630 -1.4120  0.1171 -1.1297
  341TMC3    H2 5173   3.639   1.585   9.636  1.0555 -0.0604  0.5040
  341TMC3    C7 5174   3.729   1.823   9.554 -1.0985  0.0768 -0.1121
  341TMC3    C8 5175   3.466   1.531   9.823  0.1078  0.0611 -0.0887
  341TMC3    O1 5176   3.776   1.938   9.567 -0.0397  0.5306 -0.5416
  341TMC3    O2 5177   3.445   1.457   9.731  0.6453  0.3459  0.2832
  342MPD2     C 5178   1.606   1.054   0.002 -0.0503  0.9746  0.5851
  342MPD2    C1 5179   1.678   1.090  17.636  0.8646 -0.3748 -0.0628
  342MPD2    C2 5180   1.692   1.227  17.614  0.4693  0.3968 -0.0598
  342MPD2    C3 5181   1.637   1.330  17.690 -0.0210  0.0147  0.2812
  342MPD2    C4 5182   1.558   1.285   0.051  0.0470  0.1685  0.0061
  342MPD2    C5 5183   1.542   1.154   0.066 -0.1468  0.6648 -0.2650
  342MPD2     H 5184   1.755   1.243  17.527  1.7227  0.8048  0.9059
  342MPD2    H1 5185   1.511   1.359   0.115 -0.3176 -0.2144  0.1814
  342MPD2    H2 5186   1.597   0.957   0.048 -0.6300 -0.1201 -1.8518
  342MPD2    H3 5187   1.487   1.129   0.156 -2.1819 -0.6595 -1.8672
  342MPD2     N 5188   1.666   1.468  17.672  0.1076 -0.0169  0.7801
  342MPD2    H5 5189   1.629   1.530  17.744  0.2993 -0.5693  1.3498
  342MPD2    N1 5190   1.742   1.000  17.546  0.4557  0.1069  0.2706
  342MPD2    H7 5191   1.800   1.035  17.471  0.7055  2.1577  1.4207
  343TMC3    C1 5192   1.793   0.768  17.470 -0.5614 -0.5722 -0.0842
  343TMC3    C2 5193   1.842   0.813  17.351  0.2074 -0.4401 -0.1633
  343TMC3    C3 5194   1.860   0.713  17.254 -0.2911  0.3217  1.0730
  343TMC3    C4 5195   1.755   0.637  17.483 -0.2383  0.1455  0.3852
  343TMC3    C5 5196   1.778   0.542  17.384  0.5354 -0.3309  0.4716
  343TMC3    C6 5197   1.827   0.579  17.265 -0.7304 -0.3403  0.5942
  343TMC3     C 5198   1.733   0.863  17.568  0.6279 -0.0512 -0.0918
  343TMC3     O 5199   1.676   0.802  17.660  0.3592 -0.3966  0.6008
  343TMC3     H 5200   1.878   0.913  17.329  0.2015 -0.4472 -0.2057
  343TMC3    H1 5201   1.736   0.609  17.586  0.8120 -3.3792 -0.3897
  343TMC3    H2 5202   1.840   0.505  17.187 -0.1699  2.3646 -1.8798
  343TMC3    C7 5203   1.764   0.402  17.413  0.0269  0.5325 -0.1405
  343TMC3    C8 5204   1.941   0.755  17.140 -0.3577  0.3271  0.2703
  343TMC3    O1 5205   1.724   0.327  17.326  0.6317 -0.7836  0.6569
  343TMC3    O2 5206   1.936   0.867  17.096  0.4881  0.4527 -0.2668
  344MPD2     C 5207   2.239   0.503  11.110  0.7415  0.2093 -0.0606
  344MPD2    C1 5208   2.214   0.427  10.998  0.2578 -0.4336  0.2267
  344MPD2    C2 5209   2.250   0.478  10.873  0.4687 -0.3514 -0.1895
  344MPD2    C3 5210   2.306   0.606  10.863 -0.4113  0.3816 -0.2737
  344MPD2    C4 5211   2.321   0.679  10.977  0.0047 -0.2542 -0.0420
  344MPD2    C5 5212   2.281   0.635  11.103 -0.2964 -0.4998  0.1921
  344MPD2     H 5213   2.227   0.415  10.788 -1.5400  1.3477 -0.8884
  344MPD2    H1 5214   2.358   0.779  10.960  0.8242 -0.8459 -1.7909
  344MPD2    H2 5215   2.221   0.461  11.208 -0.8507  1.6272  0.2463
  344MPD2    H3 5216   2.298   0.693  11.193  2.2786  0.5261 -0.9386
  344MPD2     N 5217   2.366   0.657  10.745  0.2385 -0.4891  0.0692
  344MPD2    H5 5218   2.415   0.746  10.752  0.4703 -0.4990 -1.5818
  344MPD2    N1 5219   2.155   0.300  11.007 -0.5625 -0.3369 -0.0011
  344MPD2    H7 5220   2.142   0.241  10.925 -1.5596 -3.1529  2.1727
  345TMC3    C1 5221   2.472   0.654  10.543  0.7459  0.2729  0.4927
  345TMC3    C2 5222   2.593   0.697  10.592  0.2507  0.1131  0.2983
  345TMC3    C3 5223   2.686   0.743  10.504  0.6196 -0.6579  0.7477
  345TMC3    C4 5224   2.436   0.657  10.415  0.1978 -0.1704  0.5407
  345TMC3    C5 5225   2.532   0.707  10.330 -0.2796  0.3873  0.7096
  345TMC3    C6 5226   2.663   0.747  10.366  0.0821 -0.0467  0.3629
  345TMC3     C 5227   2.384   0.585  10.633  0.5931  0.0159 -1.0112
  345TMC3     O 5228   2.340   0.480  10.595 -0.2831 -0.4172  0.5990
  345TMC3     H 5229   2.621   0.678  10.695  0.1527 -1.0304  0.1155
  345TMC3    H1 5230   2.338   0.618  10.389 -0.6838  2.1972  0.2821
  345TMC3    H2 5231   2.732   0.792  10.296  0.5217  2.2347  2.2688
  345TMC3    C7 5232   2.495   0.769  10.204  0.0034 -0.5016  0.4294
  345TMC3    C8 5233   2.783   0.826  10.564  0.1118  0.1980 -0.1091
  345TMC3    O1 5234   2.576   0.833  10.140 -0.4892  0.1130  0.5065
  345TMC3    O2 5235   2.768   0.875  10.674  0.2226  0.1754  0.1911
  346MPD2     C 5236   2.488   1.649  14.106 -0.4361  0.0789 -0.3550
  346MPD2    C1 5237   2.447   1.768  14.046  0.0061  0.4784  0.4558
  346MPD2    C2 5238   2.482   1.885  14.107 -0.4008  0.0989 -0.2337
  346MPD2    C3 5239   2.563   1.892  14.218 -0.1469  0.3049 -0.3598
  346MPD2    C4 5240   2.610   1.773  14.269  0.3008 -0.1237  0.4641
  346MPD2    C5 5241   2.572   1.647  14.222  0.2163 -0.4916 -0.1821
  346MPD2     H 5242   2.455   1.979  14.061  0.4980 -0.0236 -1.0076
  346MPD2    H1 5243   2.678   1.773  14.354 -1.0618  0.9645  1.5534
  346MPD2    H2 5244   2.465   1.551  14.065 -1.2445  1.1204 -2.4015
  346MPD2    H3 5245   2.613   1.554  14.259 -2.4119 -0.6088  2.4797
  346MPD2     N 5246   2.592   2.018  14.268 -0.0867 -0.4187  0.1675
  346MPD2    H5 5247   2.549   2.096  14.218 -1.1369 -0.9980  0.1585
  346MPD2    N1 5248   2.353   1.767  13.935 -0.0431 -0.3141  0.2428
  346MPD2    H7 5249   2.309   1.856  13.916 -0.8522 -0.4388  1.5438
  347TMC3    C1 5250   2.715   2.179  14.383  0.0851  0.2229 -0.2192
  347TMC3    C2 5251   2.848   2.214  14.390 -0.5270  0.1713 -0.0004
  347TMC3    C3 5252   2.897   2.342  14.395  0.3135 -0.2789 -0.1186
  347TMC3    C4 5253   2.620   2.273  14.390 -0.2721 -0.3238  0.1151
  347TMC3    C5 5254   2.666   2.402  14.413  0.3554 -0.5155 -0.2917
  347TMC3    C6 5255   2.802   2.437  14.408  0.5176  0.1999  0.9460
  347TMC3     C 5256   2.679   2.039  14.371 -0.4602 -0.5057 -0.0905
  347TMC3     O 5257   2.749   1.966  14.437 -0.0429 -0.1028  0.1123
  347TMC3     H 5258   2.918   2.131  14.385 -0.6427  0.0882 -0.2674
  347TMC3    H1 5259   2.514   2.248  14.384 -0.4746  0.5767 -0.0323
  347TMC3    H2 5260   2.822   2.542  14.428 -0.2216  0.7823 -1.2913
  347TMC3    C7 5261   2.584   2.508  14.464  0.2022 -0.0068 -0.6498
  347TMC3    C8 5262   3.037   2.375  14.388  0.1199  0.0259  0.3564
  347TMC3    O1 5263   2.620   2.625  14.467 -0.7775  0.1326 -0.7254
  347TMC3    O2 5264   3.073   2.480  14.441  0.2591  0.1445  0.2531
  348MPD2     C 5265   1.475   1.607  12.225 -0.1254  0.8421  0.5643
  348MPD2    C1 5266   1.382   1.551  12.141 -0.1444  0.3176  0.5685
  348MPD2    C2 5267   1.333   1.628  12.038  0.0295  0.1685  0.3236
  348MPD2    C3 5268   1.364   1.763  12.030 -0.4293 -0.2638  1.0237
  348MPD2    C4 5269   1.455   1.820  12.122 -0.0374  0.0659 -0.1874
  348MPD2    C5 5270   1.517   1.739  12.211 -0.0441 -0.5128  0.3206
  348MPD2     H 5271   1.262   1.590  11.964 -1.7305 -0.2045  2.2146
  348MPD2    H1 5272   1.475   1.927  12.124 -2.1788  0.4730 -0.2589
  348MPD2    H2 5273   1.530   1.556  12.303  0.4225  0.7645  0.1284
  348MPD2    H3 5274   1.590   1.787  12.275 -0.5469 -0.2258  0.6677
  348MPD2     N 5275   1.302   1.834  11.927  0.0020  0.2304  0.0302
  348MPD2    H5 5276   1.236   1.788  11.865  1.2135 -0.2101 -0.9201
  348MPD2    N1 5277   1.363   1.412  12.150  0.0803  0.2763  0.3259
  348MPD2    H7 5278   1.294   1.376  12.085  1.0011  2.4833 -1.8930
  349TMC3    C1 5279   1.401   1.181  12.201 -0.0666  0.3599 -0.1721
  349TMC3    C2 5280   1.393   1.091  12.301  0.2142 -0.0641 -0.1890
  349TMC3    C3 5281   1.313   0.985  12.280  0.0519 -0.4352 -0.1213
  349TMC3    C4 5282   1.355   1.165  12.079  0.9170  0.1277  0.6580
  349TMC3    C5 5283   1.285   1.054  12.053 -0.2430  0.4506 -0.3057
  349TMC3    C6 5284   1.249   0.976  12.159 -1.1685  0.0229 -0.5209
  349TMC3     C 5285   1.429   1.325  12.239 -0.1182 -0.0353  0.2449
  349TMC3     O 5286   1.516   1.340  12.324  0.0117 -0.4015 -0.0635
  349TMC3     H 5287   1.431   1.105  12.401 -1.7611 -0.6487  0.6337
  349TMC3    H1 5288   1.380   1.231  11.997 -0.0463 -1.3189 -0.7874
  349TMC3    H2 5289   1.198   0.885  12.131  0.6244 -1.1996  0.1363
  349TMC3    C7 5290   1.214   1.053  11.925  0.1155  0.1524  0.2015
  349TMC3    C8 5291   1.295   0.890  12.389 -0.4104  0.1810 -0.0959
  349TMC3    O1 5292   1.098   1.013  11.922 -0.6184  0.0234 -0.2612
  349TMC3    O2 5293   1.383   0.890  12.472  0.0566 -0.2094 -0.5081
  350MPD2     C 5294   0.151   4.640  10.632  0.0070  0.3705 -0.2202
  350MPD2    C1 5295   0.031   4.576  10.642  0.3418 -0.0202 -0.3719
  350MPD2    C2 5296   4.665   4.641  10.701  0.5595 -0.0549 -0.4030
  350MPD2    C3 5297   4.685   0.025  10.760 -0.0483  0.5829 -0.0957
  350MPD2    C4 5298   0.066   0.094  10.748  0.1629 -0.1901 -0.8198
  350MPD2    C5 5299   0.164   0.033  10.670  0.5909 -0.2092 -0.1310
  350MPD2     H 5300   4.567   4.597  10.714 -0.5096  2.4977  0.2808
  350MPD2    H1 5301   0.080   0.195  10.784  2.6014 -0.5949 -0.6314
  350MPD2    H2 5302   0.238   4.594  10.587  2.1614  2.7140  1.5472
  350MPD2    H3 5303   0.259   0.083  10.654  1.1641 -1.1279  0.4559
  350MPD2     N 5304   4.580   0.074  10.843  0.1178  0.5832  0.2028
  350MPD2    H5 5305   4.500   0.015  10.864  0.3994 -0.2549 -1.1185
  350MPD2    N1 5306   0.002   4.442  10.596 -0.0165  0.1645 -0.6100
  350MPD2    H7 5307   4.646   4.404  10.604  0.7993 -1.7285 -0.0281
  351TMC3    C1 5308   0.051   4.230  10.503  0.5147  0.0494 -0.5912
  351TMC3    C2 5309   0.145   4.130  10.509  0.1963 -0.6461  0.3990
  351TMC3    C3 5310   0.095   4.001  10.524 -0.0477  0.4224  0.1784
  351TMC3    C4 5311   4.655   4.204  10.500 -0.1510 -0.0110  0.8220
  351TMC3    C5 5312   4.614   4.074  10.497 -0.4245 -0.6511  0.1331
  351TMC3    C6 5313   4.700   3.972  10.515 -0.1551 -0.0254 -0.0323
  351TMC3     C 5314   0.103   4.358  10.540 -0.4660 -0.1625  0.2772
  351TMC3     O 5315   0.225   4.377  10.540 -0.2490  0.5569  0.3321
  351TMC3     H 5316   0.250   4.151  10.530  0.5773 -1.6700 -0.4642
  351TMC3    H1 5317   4.584   4.285  10.498  0.5323  0.6261  2.1580
  351TMC3    H2 5318   4.662   3.871  10.520  1.4115 -0.6084 -0.0860
  351TMC3    C7 5319   4.470   4.057  10.470  0.1959 -0.8406 -0.7774
  351TMC3    C8 5320   0.194   3.893  10.530 -0.7782  0.6232  0.4497
  351TMC3    O1 5321   4.387   4.130  10.513 -0.9292 -0.1847 -0.3920
  351TMC3    O2 5322   0.308   3.933  10.511  0.0827 -0.3716  0.2588
  352MPD2     C 5323   3.423   1.831   1.423 -1.0420  0.0782 -0.3663
  352MPD2    C1 5324   3.309   1.789   1.351  0.1711  0.0683  0.1757
  352MPD2    C2 5325   3.271   1.654   1.344  0.2394 -0.2760  0.8995
  352MPD2    C3 5326   3.357   1.557   1.394  0.0679  0.0883 -0.4992
  352MPD2    C4 5327   3.466   1.595   1.464 -0.0239  0.0881 -0.5913
  352MPD2    C5 5328   3.499   1.730   1.476  0.1774  0.1292 -0.2110
  352MPD2     H 5329   3.180   1.619   1.298 -0.8573  0.3786  2.5670
  352MPD2    H1 5330   3.522   1.519   1.517 -0.4614  1.0802  1.2970
  352MPD2    H2 5331   3.444   1.934   1.450 -0.8660 -0.2198  0.6333
  352MPD2    H3 5332   3.580   1.756   1.543  1.1780 -1.3868 -0.8514
  352MPD2     N 5333   3.329   1.415   1.393  0.3992 -0.0607  0.4858
  352MPD2    H5 5334   3.387   1.343   1.434 -0.9375 -0.9419  0.8480
  352MPD2    N1 5335   3.233   1.885   1.286  0.0805 -0.1882  0.2520
  352MPD2    H7 5336   3.254   1.980   1.315 -2.7836  0.2471  0.8622
  353TMC3    C1 5337   3.197   1.222   1.388 -0.4904 -0.3096  0.1751
  353TMC3    C2 5338   3.275   1.172   1.487  1.1051 -1.5848 -0.5559
  353TMC3    C3 5339   3.297   1.040   1.504 -0.2573  0.5868  0.6572
  353TMC3    C4 5340   3.121   1.133   1.314  0.3764 -0.4574  0.2312
  353TMC3    C5 5341   3.144   1.003   1.332 -0.0007  0.3604 -0.1318
  353TMC3    C6 5342   3.235   0.948   1.423  0.6963 -0.1335  0.5884
  353TMC3     C 5343   3.209   1.365   1.353 -0.3829 -0.1544 -0.0744
  353TMC3     O 5344   3.119   1.413   1.284  0.3030  0.0969  0.3026
  353TMC3     H 5345   3.337   1.241   1.543  0.7906 -1.3400 -0.5099
  353TMC3    H1 5346   3.057   1.163   1.232  2.1653  2.0297 -0.2752
  353TMC3    H2 5347   3.247   0.840   1.421  2.7412  0.1212 -1.6119
  353TMC3    C7 5348   3.096   0.924   1.221  0.2773  0.2042 -0.0054
  353TMC3    C8 5349   3.440   1.023   1.526 -0.7516 -0.2986 -0.1964
  353TMC3    O1 5350   3.099   0.980   1.111  0.2973  0.2432  0.3390
  353TMC3    O2 5351   3.482   1.073   1.631  0.2503 -0.1779 -0.4897
  354TMC3    C1 5352   0.296   2.992  13.699  0.0919  0.4251 -0.2377
  354TMC3    C2 5353   0.363   3.103  13.735  0.2832  0.0276  0.3203
  354TMC3    C3 5354   0.446   3.154  13.638  0.3868  0.2348 -0.2528
  354TMC3    C4 5355   0.315   2.929  13.584  0.0117 -0.1425 -0.1265
  354TMC3    C5 5356   0.408   2.976  13.493  0.0006 -0.6185  0.4526
  354TMC3    C6 5357   0.474   3.089  13.523 -0.2931 -0.3730 -0.1363
  354TMC3     C 5358   0.275   2.900  13.806  0.6031  0.7514 -0.1405
  354TMC3     O 5359   0.164   2.844  13.806  0.6195 -0.4750  0.0467
  354TMC3     H 5360   0.361   3.162  13.826  0.9655  1.0074 -0.2996
  354TMC3    H1 5361   0.273   2.830  13.571  0.5319 -0.4159  0.2525
  354TMC3    H2 5362   0.568   3.106  13.472 -0.2340  1.9072  0.7099
  354TMC3    C7 5363   0.434   2.892  13.375  0.2713 -0.2092 -0.0982
  354TMC3    C8 5364   0.509   3.284  13.670  0.1222 -0.1680 -0.0056
  354TMC3    O1 5365   0.382   2.782  13.382  0.3760 -0.2940  0.1968
  354TMC3    O2 5366   0.526   3.307  13.789 -0.4929  0.0367 -0.0981
  355MPD2     C 5367   0.083   3.671  11.883 -0.2494 -0.1785 -0.4285
  355MPD2    C1 5368   0.121   3.745  11.777 -0.6975  0.3243  0.5545
  355MPD2    C2 5369   0.257   3.764  11.747  0.2636  0.5896  0.0625
  355MPD2    C3 5370   0.354   3.731  11.842  0.2090  0.0811 -0.1371
  355MPD2    C4 5371   0.313   3.675  11.960  0.1075  0.1579  0.4904
  355MPD2    C5 5372   0.182   3.632  11.971 -0.3459  0.1361  0.3060
  355MPD2     H 5373   0.292   3.798  11.650 -1.2118 -0.5815 -0.8710
  355MPD2    H1 5374   0.383   3.629  12.030 -0.5422  1.0236  1.7146
  355MPD2    H2 5375   4.720   3.653  11.922 -0.5191  3.1816  0.3903
  355MPD2    H3 5376   0.155   3.568  12.054  0.2111 -0.4196  0.0577
  355MPD2     N 5377   0.493   3.766  11.833  0.2104 -0.2280  0.2207
  355MPD2    H5 5378   0.551   3.734  11.910  0.9597 -0.1938 -0.3286
  355MPD2    N1 5379   0.019   3.784  11.687 -0.0845  0.6299 -0.0061
  355MPD2    H7 5380   4.666   3.741  11.706 -0.0609  0.8933  0.6929
  356TMC3    C1 5381   0.688   3.863  11.742 -0.2309 -0.2227 -0.6209
  356TMC3    C2 5382   0.747   3.938  11.646  0.4525  0.5444 -0.2745
  356TMC3    C3 5383   0.872   3.986  11.670 -0.0331  0.7084 -0.2683
  356TMC3    C4 5384   0.749   3.840  11.865 -0.3758 -0.4719 -0.7783
  356TMC3    C5 5385   0.867   3.893  11.884 -0.2026  0.4088 -0.4538
  356TMC3    C6 5386   0.929   3.969  11.791  0.4426  0.3246  0.0471
  356TMC3     C 5387   0.545   3.842  11.732  0.4985 -0.0566  0.7551
  356TMC3     O 5388   0.498   3.886  11.627 -0.3657  0.1861  0.0200
  356TMC3     H 5389   0.703   3.957  11.549 -1.6452  1.1548  0.7813
  356TMC3    H1 5390   0.700   3.783  11.943 -2.6020  0.2977 -1.6357
  356TMC3    H2 5391   1.035   3.990  11.795  0.6103 -0.7063  0.8551
  356TMC3    C7 5392   0.930   3.874  12.016 -0.2424 -0.3418 -0.1552
  356TMC3    C8 5393   0.961   4.020  11.559 -0.6783  0.2617 -0.2543
  356TMC3    O1 5394   0.867   3.804  12.100 -0.5912 -0.2255 -0.5717
  356TMC3    O2 5395   0.954   3.949  11.460  0.0229 -0.7060  0.3653
  357MPD2     C 5396   0.210   3.644   1.633 -0.4354 -0.4529  0.8388
  357MPD2    C1 5397   0.159   3.652   1.762  0.4647 -0.7294  0.9495
  357MPD2    C2 5398   0.024   3.667   1.778 -0.1538  0.7762 -0.4241
  357MPD2    C3 5399   4.678   3.673   1.665 -0.9137 -0.2786 -1.0790
  357MPD2    C4 5400   4.731   3.659   1.540  0.2126  0.7306 -0.2504
  357MPD2    C5 5401   0.126   3.626   1.528 -0.3563  0.0053  0.7102
  357MPD2     H 5402   4.724   3.658   1.880  2.9877 -1.8963  0.5038
  357MPD2    H1 5403   4.672   3.662   1.450 -0.2531 -1.4473 -0.0165
  357MPD2    H2 5404   0.315   3.622   1.615 -0.8316  0.0344 -2.0486
  357MPD2    H3 5405   0.177   3.604   1.435 -1.8257  0.4306 -0.1909
  357MPD2     N 5406   4.536   3.688   1.673  0.6774  0.1292 -0.2911
  357MPD2    H5 5407   4.489   3.706   1.585 -0.2420  3.1228  0.8044
  357MPD2    N1 5408   0.250   3.627   1.865  0.1891  0.4719  0.9302
  357MPD2    H7 5409   0.333   3.584   1.825 -0.5360  0.7037 -0.8360
  358TMC3    C1 5410   0.344   3.556   2.070  0.5839 -0.0042 -0.5257
  358TMC3    C2 5411   0.471   3.570   2.008 -0.5475  0.0811  0.9509
  358TMC3    C3 5412   0.563   3.463   2.014 -0.0317  0.6118  0.7448
  358TMC3    C4 5413   0.316   3.449   2.154  0.2497 -0.1760 -0.0734
  358TMC3    C5 5414   0.414   3.357   2.158  0.2730  0.4324 -0.4883
  358TMC3    C6 5415   0.539   3.361   2.102 -0.4730 -0.2132  0.0858
  358TMC3     C 5416   0.225   3.601   2.000 -0.7443 -0.6216 -0.1583
  358TMC3     O 5417   0.124   3.610   2.069 -0.5172 -0.0878  0.0541
  358TMC3     H 5418   0.481   3.639   1.924 -1.5062 -0.6921  0.1946
  358TMC3    H1 5419   0.221   3.425   2.200  1.5287 -0.4278  2.4071
  358TMC3    H2 5420   0.595   3.271   2.080 -1.5022 -0.5180 -1.2899
  358TMC3    C7 5421   0.389   3.244   2.246  0.6746 -0.3279 -0.2141
  358TMC3    C8 5422   0.606   3.420   1.883 -0.0721 -0.5183  0.4073
  358TMC3    O1 5423   0.271   3.215   2.274  0.4741 -0.0163  0.5595
  358TMC3    O2 5424   0.549   3.478   1.791 -0.4620  0.2829  0.1883
  359MPD2     C 5425   1.179   2.515  12.813  0.9093  0.6627  0.3877
  359MPD2    C1 5426   1.121   2.493  12.693 -1.1109 -0.2498 -0.1108
  359MPD2    C2 5427   1.011   2.418  12.678  0.8284  0.2066 -0.1660
  359MPD2    C3 5428   0.942   2.377  12.792 -0.1986 -0.2153 -0.5536
  359MPD2    C4 5429   1.002   2.407  12.915  0.4342  0.4653  0.1517
  359MPD2    C5 5430   1.119   2.470  12.925 -0.2089 -0.2570  0.0970
  359MPD2     H 5431   0.976   2.389  12.579 -1.5419 -0.0071  0.7486
  359MPD2    H1 5432   0.969   2.366  13.010  1.9230 -0.8498  0.1058
  359MPD2    H2 5433   1.270   2.571  12.830  1.3301 -0.2195  1.0494
  359MPD2    H3 5434   1.175   2.487  13.017  0.4934  2.0163 -0.7491
  359MPD2     N 5435   0.820   2.301  12.791  0.0036  0.7870  0.1632
  359MPD2    H5 5436   0.772   2.283  12.879 -2.7343 -0.6118 -1.6102
  359MPD2    N1 5437   1.171   2.556  12.580  0.0366 -0.4972 -0.1190
  359MPD2    H7 5438   1.108   2.549  12.500  0.8577 -1.1319 -0.7073
  360TMC3    C1 5439   1.284   2.710  12.437  0.2823  0.5344 -0.5861
  360TMC3    C2 5440   1.400   2.785  12.418  0.5636  0.8254 -0.2345
  360TMC3    C3 5441   1.405   2.843  12.293 -0.8241 -1.1049  0.2889
  360TMC3    C4 5442   1.173   2.720  12.354  0.7100  0.0184 -1.2990
  360TMC3    C5 5443   1.183   2.789  12.237 -0.5042  0.2637  0.7005
  360TMC3    C6 5444   1.300   2.843  12.207  0.0936  0.2192  0.5526
  360TMC3     C 5445   1.273   2.650  12.571 -0.1600  0.0104  0.3301
  360TMC3     O 5446   1.348   2.693  12.658 -0.3049  0.1993  0.3608
  360TMC3     H 5447   1.493   2.756  12.467  1.3021  1.7599 -1.0644
  360TMC3    H1 5448   1.081   2.667  12.375  0.7057  0.1131 -1.0834
  360TMC3    H2 5449   1.316   2.889  12.110  2.6451  0.3074  1.0235
  360TMC3    C7 5450   1.106   2.740  12.125  0.4296 -0.1658 -0.0165
  360TMC3    C8 5451   1.538   2.840  12.225  0.0285 -0.0785  0.1144
  360TMC3    O1 5452   1.176   2.729  12.024  0.6007  0.4933  0.5712
  360TMC3    O2 5453   1.601   2.941  12.225 -0.6181 -0.5676 -0.7284
  361MPD2     C 5454   2.539   1.678  16.710 -0.2099  0.1451  0.7873
  361MPD2    C1 5455   2.465   1.577  16.772 -0.8151 -0.5838  0.3201
  361MPD2    C2 5456   2.522   1.477  16.846  0.7419 -0.0946  0.1337
  361MPD2    C3 5457   2.657   1.454  16.835 -0.3591 -0.2921 -0.1487
  361MPD2    C4 5458   2.738   1.540  16.756 -0.4806  0.5734  0.6092
  361MPD2    C5 5459   2.674   1.653  16.704  0.2162  0.0503 -0.6864
  361MPD2     H 5460   2.470   1.393  16.891  1.7226  0.2450  1.9104
  361MPD2    H1 5461   2.846   1.531  16.754 -0.4885  1.5243 -2.9947
  361MPD2    H2 5462   2.498   1.764  16.658  0.3576 -0.0661 -0.0088
  361MPD2    H3 5463   2.735   1.731  16.661  1.1837  0.6015  1.6635
  361MPD2     N 5464   2.719   1.348  16.904  0.2604 -0.1321 -0.7168
  361MPD2    H5 5465   2.811   1.316  16.878  0.4453  0.6112 -0.9903
  361MPD2    N1 5466   2.329   1.608  16.778  0.5681 -0.3036  0.2205
  361MPD2    H7 5467   2.303   1.703  16.753  0.7663 -0.5414 -0.8977
  362TMC3    C1 5468   2.104   1.577  16.833 -0.3455  0.4519 -0.3266
  362TMC3    C2 5469   2.015   1.528  16.920  0.1109  0.1998  0.3154
  362TMC3    C3 5470   1.888   1.588  16.920 -0.0403  0.0279 -0.4498
  362TMC3    C4 5471   2.070   1.655  16.729 -0.1321 -0.3702  0.2345
  362TMC3    C5 5472   1.941   1.702  16.715  0.1309  0.0376 -0.1751
  362TMC3    C6 5473   1.857   1.679  16.822 -0.7744 -0.4668 -0.0766
  362TMC3     C 5474   2.238   1.526  16.837  0.0722  0.3959 -0.4006
  362TMC3     O 5475   2.238   1.404  16.850 -0.6910 -0.1305 -0.2552
  362TMC3     H 5476   2.046   1.465  17.003  0.5949 -0.6424 -0.5106
  362TMC3    H1 5477   2.139   1.670  16.647  0.0678 -0.7448  0.3356
  362TMC3    H2 5478   1.764   1.733  16.810 -0.2312  0.7947  1.4122
  362TMC3    C7 5479   1.907   1.771  16.592  0.5638 -0.5914  0.5268
  362TMC3    C8 5480   1.795   1.584  17.036 -0.0285 -0.2105 -0.3695
  362TMC3    O1 5481   2.000   1.821  16.530  0.1336 -0.1180  0.0794
  362TMC3    O2 5482   1.772   1.476  17.086 -0.0996  0.0999  0.3162
  363TMC3    C1 5483   1.062   4.084   9.975  0.5621  0.0768  0.6437
  363TMC3    C2 5484   1.079   3.993  10.072 -0.2125  0.8397 -0.1477
  363TMC3    C3 5485   0.968   3.934  10.131  0.0150  0.1096 -0.2074
  363TMC3    C4 5486   0.938   4.125   9.939 -0.1368 -0.5654  0.5548
  363TMC3    C5 5487   0.829   4.076  10.009  0.3569  0.1427  0.7124
  363TMC3    C6 5488   0.841   3.977  10.103 -0.5937  0.1976 -0.4407
  363TMC3     C 5489   1.164   4.112   9.881  0.1315  0.2681 -0.1449
  363TMC3     O 5490   1.121   4.148   9.771  0.3573 -0.5088 -0.5571
  363TMC3     H 5491   1.176   3.981  10.119 -0.8637  0.7863  1.1696
  363TMC3    H1 5492   0.932   4.205   9.866 -0.8635 -1.6085 -0.5279
  363TMC3    H2 5493   0.766   3.928  10.165  0.9335 -0.0055  1.2646
  363TMC3    C7 5494   0.702   4.105   9.960  0.5281  0.9899  0.0922
  363TMC3    C8 5495   0.991   3.823  10.212  0.3411 -0.3004 -0.5353
  363TMC3    O1 5496   0.691   4.199   9.880 -0.2902 -0.2219 -0.7089
  363TMC3    O2 5497   0.926   3.801  10.310  0.0978 -0.0408  0.0520
  364MPD2     C 5498   4.296   2.934  10.461  1.0220 -0.1848  0.2436
  364MPD2    C1 5499   4.433   2.947  10.451 -0.0144  0.5975 -0.3648
  364MPD2    C2 5500   4.517   2.846  10.479  0.3906 -0.4884  0.7163
  364MPD2    C3 5501   4.469   2.730  10.534  0.0846 -0.0157 -0.1578
  364MPD2    C4 5502   4.334   2.726  10.562  0.4383 -0.2335 -0.1935
  364MPD2    C5 5503   4.247   2.819  10.518 -0.7023  0.0816  0.2022
  364MPD2     H 5504   4.623   2.872  10.479  0.3828 -0.4530 -2.2439
  364MPD2    H1 5505   4.299   2.636  10.612  0.6058 -0.4896 -0.5392
  364MPD2    H2 5506   4.230   3.010  10.422  1.2967 -0.1627 -0.1735
  364MPD2    H3 5507   4.141   2.806  10.536 -0.8366 -2.0155 -2.0793
  364MPD2     N 5508   4.562   2.631  10.586  0.0507 -0.1721 -0.0375
  364MPD2    H5 5509   4.529   2.560  10.650 -0.5823 -0.5631 -0.7868
  364MPD2    N1 5510   4.486   3.073  10.403 -0.2020  0.4174 -0.0853
  364MPD2    H7 5511   4.416   3.147  10.403  1.3340  1.8709  2.2340
  365TMC3    C1 5512   4.644   3.244  10.340 -0.4355 -0.3608 -0.2447
  365TMC3    C2 5513   0.021   3.280  10.276 -0.0933 -0.5800 -0.8199
  365TMC3    C3 5514   0.074   3.400  10.295  0.5502 -0.3040  0.3777
  365TMC3    C4 5515   4.571   3.323  10.421  0.8573  1.1736 -0.4490
  365TMC3    C5 5516   4.619   3.451  10.431 -0.4663 -0.5730 -1.2485
  365TMC3    C6 5517   0.004   3.487  10.370 -0.0565  0.2845 -0.2904
  365TMC3     C 5518   4.614   3.102  10.358 -0.6345  0.5817  0.2843
  365TMC3     O 5519   4.691   3.028  10.294  0.2764  0.0287 -0.3070
  365TMC3     H 5520   0.057   3.208  10.203 -1.0023 -2.6542  0.7505
  365TMC3    H1 5521   4.478   3.293  10.467  1.3503  1.4177  0.7097
  365TMC3    H2 5522   0.051   3.583  10.386 -1.0257  0.4897  1.3375
  365TMC3    C7 5523   4.562   3.552  10.512 -0.5224 -0.2138 -0.4309
  365TMC3    C8 5524   0.214   3.421  10.244  0.1456  0.0501  0.3961
  365TMC3    O1 5525   4.622   3.659  10.508  0.3230  0.0899 -0.3756
  365TMC3    O2 5526   0.240   3.524  10.182 -0.3208  0.2412 -0.0984
  366MPD2     C 5527   2.556   4.136  15.457  0.0092  0.3034  0.1504
  366MPD2    C1 5528   2.677   4.206  15.457  0.7058  0.6828  0.4569
  366MPD2    C2 5529   2.779   4.147  15.388 -0.3043 -0.5788 -0.1062
  366MPD2    C3 5530   2.765   4.023  15.338  0.2619  0.3611  0.7407
  366MPD2    C4 5531   2.645   3.953  15.341  0.0663  0.4021  0.0105
  366MPD2    C5 5532   2.541   4.010  15.409 -0.7397 -0.0184  0.5520
  366MPD2     H 5533   2.876   4.192  15.369 -0.9797  0.4236 -1.1019
  366MPD2    H1 5534   2.635   3.852  15.302 -3.0723  0.5803  0.2988
  366MPD2    H2 5535   2.468   4.178  15.503  0.1656  0.1015  0.6355
  366MPD2    H3 5536   2.452   3.953  15.434 -1.4655  0.1414 -1.6316
  366MPD2     N 5537   2.887   3.979  15.282 -0.2017 -0.0619 -0.1222
  366MPD2    H5 5538   2.966   4.043  15.283 -0.0554 -0.2301 -0.9455
  366MPD2    N1 5539   2.689   4.339  15.502 -0.3916 -0.0090 -0.5026
  366MPD2    H7 5540   2.600   4.386  15.511 -0.2623  0.0882  0.2900
  367TMC3    C1 5541   2.792   4.553  15.535 -0.1240 -0.7302 -0.5279
  367TMC3    C2 5542   2.902   4.616  15.587  0.2996  0.3274 -0.6445
  367TMC3    C3 5543   2.919   0.012  15.560 -0.4036  0.1032  0.4509
  367TMC3    C4 5544   2.694   4.628  15.468  0.3805 -0.0399  0.5493
  367TMC3    C5 5545   2.706   0.028  15.459 -0.5388  0.0411 -1.0298
  367TMC3    C6 5546   2.825   0.086  15.498 -0.3714 -0.3004 -0.1338
  367TMC3     C 5547   2.807   4.407  15.521  0.1079 -0.1414  0.3370
  367TMC3     O 5548   2.918   4.358  15.532  0.7152  0.2912 -0.0738
  367TMC3     H 5549   2.975   4.552  15.634 -0.5714 -0.8188 -0.8530
  367TMC3    H1 5550   2.620   4.582  15.404 -2.5230  1.7805  2.6442
  367TMC3    H2 5551   2.838   0.192  15.482  0.5825 -0.0624  2.1524
  367TMC3    C7 5552   2.593   0.116  15.438 -0.7871 -0.2314 -0.2183
  367TMC3    C8 5553   3.051   0.059  15.559  1.2416 -0.3183 -0.3289
  367TMC3    O1 5554   2.607   0.236  15.433 -0.1800 -0.6243  0.1289
  367TMC3    O2 5555   3.132   0.026  15.642 -0.2767 -0.0515 -0.0551
  368MPD2     C 5556   4.347   0.981  12.812 -0.1371  0.3501 -0.3449
  368MPD2    C1 5557   4.339   1.110  12.766 -0.0742  0.2991  0.8046
  368MPD2    C2 5558   4.443   1.155  12.689  0.6259 -0.2992  0.4919
  368MPD2    C3 5559   4.552   1.077  12.661 -0.0907 -0.2604  0.3532
  368MPD2    C4 5560   4.559   0.946  12.698  0.3826 -0.1449  0.4543
  368MPD2    C5 5561   4.458   0.903  12.781  0.1432  0.1217  0.7557
  368MPD2     H 5562   4.434   1.245  12.629  0.7233 -0.2444  0.5603
  368MPD2    H1 5563   4.647   0.883  12.687 -0.9203 -1.7805 -0.4314
  368MPD2    H2 5564   4.267   0.938  12.871 -0.7816  0.9728 -0.7465
  368MPD2    H3 5565   4.459   0.803  12.824 -0.9324 -0.3030 -0.2127
  368MPD2     N 5566   4.669   1.122  12.602 -0.1280 -0.1021  0.1319
  368MPD2    H5 5567   0.012   1.062  12.618  1.7005  1.8302 -1.8168
  368MPD2    N1 5568   4.235   1.194  12.804  0.8232  0.4577  0.4249
  368MPD2    H7 5569   4.176   1.160  12.879 -1.6534  1.0349 -1.2573
  369TMC3    C1 5570   4.082   1.375  12.816 -0.2411  0.0083  0.0543
  369TMC3    C2 5571   4.059   1.507  12.789  0.4021 -0.1936  0.0351
  369TMC3    C3 5572   3.947   1.569  12.838 -0.4775  0.0084  0.3103
  369TMC3    C4 5573   3.993   1.297  12.877  0.8601  0.0717 -0.1885
  369TMC3    C5 5574   3.881   1.359  12.918 -0.4829 -0.0248  0.1360
  369TMC3    C6 5575   3.856   1.495  12.901 -0.0320 -0.6099  0.1385
  369TMC3     C 5576   4.196   1.311  12.749 -0.2290  0.6139 -0.5736
  369TMC3     O 5577   4.240   1.363  12.652  0.0921 -0.0365 -0.1866
  369TMC3     H 5578   4.127   1.566  12.729  0.3533 -2.2853 -2.0644
  369TMC3    H1 5579   3.991   1.189  12.870 -0.6071 -0.1704  3.8175
  369TMC3    H2 5580   3.770   1.542  12.948 -1.6433 -2.0308 -1.3964
  369TMC3    C7 5581   3.777   1.273  12.972 -0.5743  0.8271  0.1153
  369TMC3    C8 5582   3.950   1.711  12.856 -0.2516  0.6423 -0.2826
  369TMC3    O1 5583   3.805   1.160  13.005  0.1139 -0.0630 -0.6301
  369TMC3    O2 5584   3.846   1.769  12.882 -0.2389  0.4884 -0.0068
  370TMC3    C1 5585   3.581   2.427  16.308 -0.3257  0.2694  0.0214
  370TMC3    C2 5586   3.522   2.365  16.408 -0.2297  0.4554 -0.4828
  370TMC3    C3 5587   3.464   2.238  16.385  0.0232 -0.1253  0.2003
  370TMC3    C4 5588   3.606   2.356  16.193  0.1788 -0.5076 -0.8947
  370TMC3    C5 5589   3.563   2.226  16.185  0.5160  0.0301  0.3818
  370TMC3    C6 5590   3.485   2.162  16.278  0.0033 -0.1770  0.1673
  370TMC3     C 5591   3.695   2.510  16.348 -0.2128 -0.0388  0.2679
  370TMC3     O 5592   3.720   2.517  16.468  0.0022  0.1270 -0.1733
  370TMC3     H 5593   3.508   2.418  16.501  1.6355 -0.3365  0.2537
  370TMC3    H1 5594   3.648   2.406  16.107  1.8473  1.3668  1.0107
  370TMC3    H2 5595   3.453   2.060  16.261 -1.9546 -0.0647  3.2704
  370TMC3    C7 5596   3.599   2.161  16.059  0.1556 -0.5875 -0.8197
  370TMC3    C8 5597   3.441   2.148  16.499 -0.1649 -0.6220  0.2695
  370TMC3    O1 5598   3.636   2.227  15.964  0.7298 -0.4295 -0.0345
  370TMC3    O2 5599   3.451   2.028  16.481 -0.0445  0.0644  0.3329
  371TMC3    C1 5600   0.170   0.610  15.597  0.5756  0.6251 -0.1791
  371TMC3    C2 5601   0.111   0.640  15.711  0.4479  0.6907  0.6413
  371TMC3    C3 5602   0.078   0.766  15.746 -0.0196 -0.0541 -0.6322
  371TMC3    C4 5603   0.204   0.710  15.508  0.0396  0.0484  0.2426
  371TMC3    C5 5604   0.164   0.839  15.542  0.2021  0.5563 -0.1588
  371TMC3    C6 5605   0.099   0.865  15.658 -0.8081  0.1625  0.7571
  371TMC3     C 5606   0.243   0.484  15.597 -0.1587  0.1909 -0.2731
  371TMC3     O 5607   0.351   0.489  15.532  0.0580 -0.0595  0.2319
  371TMC3     H 5608   0.085   0.563  15.783  0.9166 -1.3193 -1.3489
  371TMC3    H1 5609   0.283   0.691  15.436  0.8676 -0.2879  1.2443
  371TMC3    H2 5610   0.079   0.967  15.687  2.3145  0.6532  1.1429
  371TMC3    C7 5611   0.184   0.947  15.447  0.4064 -0.0601  0.4951
  371TMC3    C8 5612   0.037   0.790  15.884 -0.0349 -0.4812 -0.0908
  371TMC3    O1 5613   0.173   1.065  15.486  0.0895 -0.0839  0.5081
  371TMC3    O2 5614   0.046   0.694  15.962 -0.0151 -0.3172 -0.4742
  372MPD2     C 5615   3.819   1.569  13.242  0.1869 -0.3142 -0.0607
  372MPD2    C1 5616   3.951   1.545  13.288  0.2381 -0.0317 -0.2551
  372MPD2    C2 5617   3.977   1.426  13.347  0.3445  0.6653 -0.0529
  372MPD2    C3 5618   3.881   1.326  13.357  0.6499 -0.1969 -0.4762
  372MPD2    C4 5619   3.748   1.352  13.322 -0.2465 -0.0722 -0.2036
  372MPD2    C5 5620   3.726   1.475  13.266 -0.4641  0.4185  0.3300
  372MPD2     H 5621   4.080   1.400  13.367 -0.6261 -1.2165  2.5768
  372MPD2    H1 5622   3.663   1.288  13.339  0.1414 -0.0621  1.7329
  372MPD2    H2 5623   3.795   1.665  13.199 -0.0505 -0.1527  0.4334
  372MPD2    H3 5624   3.628   1.493  13.223  0.1995 -0.4900 -1.5566
  372MPD2     N 5625   3.928   1.200  13.411  0.3024 -0.3063 -0.0239
  372MPD2    H5 5626   4.025   1.198  13.440  0.1253 -0.2191  0.5592
  372MPD2    N1 5627   4.057   1.640  13.275 -0.1720  0.0377 -0.0161
  372MPD2    H7 5628   4.153   1.613  13.295 -0.7968 -1.4973  0.9237
  373TMC3    C1 5629   3.919   0.987  13.495  0.3703  0.5822  0.2595
  373TMC3    C2 5630   3.851   0.921  13.597  0.0116 -0.3079  0.7626
  373TMC3    C3 5631   3.926   0.805  13.638 -0.1228  0.7153  0.4193
  373TMC3    C4 5632   4.028   0.945  13.424 -0.0456  0.3566  0.2377
  373TMC3    C5 5633   4.092   0.836  13.467 -0.1246 -0.7940 -0.5446
  373TMC3    C6 5634   4.041   0.767  13.572 -0.0975 -0.0256  0.6779
  373TMC3     C 5635   3.853   1.089  13.428  0.6192  0.2935  1.0559
  373TMC3     O 5636   3.737   1.072  13.389  0.3673 -0.0160 -0.2931
  373TMC3     H 5637   3.761   0.952  13.648  0.8091  2.3412  0.5114
  373TMC3    H1 5638   4.070   0.997  13.338  0.2529  2.0671  1.4102
  373TMC3    H2 5639   4.094   0.677  13.601  2.5882  1.3386  0.0233
  373TMC3    C7 5640   4.235   0.831  13.459 -0.8226  0.8955 -0.1261
  373TMC3    C8 5641   3.949   0.823  13.778 -0.3973 -0.3510  0.0880
  373TMC3    O1 5642   4.297   0.823  13.565 -0.5023 -0.1666 -0.4634
  373TMC3    O2 5643   3.950   0.933  13.820 -0.1336  0.3096  0.2181
  374TMC3    C1 5644   4.712   1.818   9.962 -0.1971 -0.2379  0.1636
  374TMC3    C2 5645   0.084   1.891  10.014  0.9942 -0.1256  0.1609
  374TMC3    C3 5646   0.170   1.943   9.922 -0.0678  0.3392 -0.1016
  374TMC3    C4 5647   4.688   1.787   9.835 -0.0848 -0.7739  0.4004
  374TMC3    C5 5648   0.040   1.854   9.752  0.0568 -0.3815 -0.3396
  374TMC3    C6 5649   0.149   1.923   9.790 -0.3362 -0.2620 -0.8699
  374TMC3     C 5650   4.618   1.767  10.059 -0.9267 -0.1806 -0.1561
  374TMC3     O 5651   4.666   1.748  10.169 -0.3062 -0.8054  0.0718
  374TMC3     H 5652   0.093   1.912  10.120  0.6039 -0.7497  0.3117
  374TMC3    H1 5653   4.621   1.707   9.806 -1.3859  0.7875 -0.9287
  374TMC3    H2 5654   0.205   1.971   9.711 -1.3202  0.2097 -1.2834
  374TMC3    C7 5655   0.047   1.811   9.614 -0.2336 -0.4940 -0.4941
  374TMC3    C8 5656   0.286   2.023   9.953  0.1200 -0.3057 -0.1248
  374TMC3    O1 5657   0.150   1.834   9.551  0.4718  0.1326 -0.1580
  374TMC3    O2 5658   0.345   2.073   9.860 -0.5629  0.7489  0.1689
  375MPD2     C 5659   0.141   2.393  17.068  0.5155 -0.1932  0.2552
  375MPD2    C1 5660   0.092   2.466  16.961 -0.7334  0.1710  0.4628
  375MPD2    C2 5661   0.121   2.427  16.834 -0.2373 -0.3215 -0.2419
  375MPD2    C3 5662   0.215   2.324  16.819 -0.3321 -0.6931  0.0523
  375MPD2    C4 5663   0.267   2.255  16.930  0.4108  0.0892 -0.1827
  375MPD2    C5 5664   0.226   2.289  17.053 -0.6121  0.3711 -0.2080
  375MPD2     H 5665   0.075   2.478  16.750  0.6715 -1.0582 -1.1673
  375MPD2    H1 5666   0.329   2.168  16.915 -0.6668 -0.2044 -2.9268
  375MPD2    H2 5667   0.113   2.418  17.170 -2.6209 -0.5952 -0.5170
  375MPD2    H3 5668   0.260   2.243  17.145 -0.9981 -0.1639 -0.3301
  375MPD2     N 5669   0.276   2.285  16.695  0.0275  0.4996  0.2318
  375MPD2    H5 5670   0.337   2.205  16.700  1.5804  1.6585 -0.2884
  375MPD2    N1 5671   0.012   2.582  16.983  0.2464 -0.3985 -0.1106
  375MPD2    H7 5672   4.707   2.618  16.898  3.2398  0.9667 -1.0295
  376TMC3    C1 5673   0.354   2.290  16.478  0.0699 -1.2089  0.0492
  376TMC3    C2 5674   0.475   2.335  16.523 -0.5699  0.0621 -0.0416
  376TMC3    C3 5675   0.576   2.354  16.424  0.0343  0.0501 -0.5928
  376TMC3    C4 5676   0.326   2.278  16.350 -0.3034  0.0765 -0.5699
  376TMC3    C5 5677   0.429   2.286  16.253  0.0039 -0.4693  0.3216
  376TMC3    C6 5678   0.547   2.338  16.294  0.2966  0.2183  0.2657
  376TMC3     C 5679   0.256   2.343  16.576  0.0212  0.2919 -0.2560
  376TMC3     O 5680   0.184   2.434  16.546 -0.0462 -0.2164  0.0546
  376TMC3     H 5681   0.488   2.374  16.623  0.5318  0.5570 -0.3805
  376TMC3    H1 5682   0.226   2.244  16.327 -0.1250 -1.0511  0.3350
  376TMC3    H2 5683   0.629   2.345  16.222 -1.2128 -0.5998 -1.5416
  376TMC3    C7 5684   0.399   2.289  16.108 -0.0193  0.3536 -0.1747
  376TMC3    C8 5685   0.709   2.389  16.463  0.2472 -0.5736  0.6746
  376TMC3    O1 5686   0.459   2.378  16.046 -0.7152 -0.5610 -0.4281
  376TMC3    O2 5687   0.781   2.401  16.366 -0.4082  0.6918  0.2797
  377MPD2     C 5688   2.767   1.867  13.257 -0.6933  0.0357  0.3596
  377MPD2    C1 5689   2.882   1.834  13.190  0.3213  0.7805  0.0305
  377MPD2    C2 5690   2.939   1.705  13.195 -0.0145 -0.5686 -0.4538
  377MPD2    C3 5691   2.880   1.604  13.272  0.3403  0.4501  0.4030
  377MPD2    C4 5692   2.756   1.638  13.322 -0.9259 -0.4325  0.1823
  377MPD2    C5 5693   2.702   1.764  13.322  0.4208 -0.3920  0.2905
  377MPD2     H 5694   3.036   1.690  13.150  0.9138 -0.0144  1.3776
  377MPD2    H1 5695   2.694   1.556  13.356 -0.9879 -0.3823  0.1916
  377MPD2    H2 5696   2.716   1.963  13.260  0.6856  0.7930 -0.1299
  377MPD2    H3 5697   2.602   1.778  13.362 -0.5642 -1.0590 -1.9331
  377MPD2     N 5698   2.919   1.472  13.279 -0.9202  0.2008  0.5880
  377MPD2    H5 5699   2.865   1.417  13.346 -0.3422 -0.2365  0.6916
  377MPD2    N1 5700   2.961   1.929  13.115  0.4155 -0.5455 -0.2436
  377MPD2    H7 5701   3.049   1.897  13.079  1.1332  0.1042  0.9190
  378TMC3    C1 5702   3.018   2.271  12.818 -0.5608 -0.1536 -1.0705
  378TMC3    C2 5703   2.940   2.221  12.920  0.4541 -0.8063  1.0814
  378TMC3    C3 5704   3.006   2.128  12.998  0.7066  0.4237 -0.0521
  378TMC3    C4 5705   3.153   2.244  12.803  0.3519  0.1380 -0.1116
  378TMC3    C5 5706   3.213   2.155  12.889  0.1031 -0.0066  0.0867
  378TMC3    C6 5707   3.132   2.100  12.989  0.0336  0.1144  0.1272
  378TMC3     C 5708   2.941   2.316  12.702 -0.8891 -1.3226 -0.9748
  378TMC3     O 5709   3.011   2.367  12.615 -0.1361 -0.2826  0.5670
  378TMC3     H 5710   2.846   2.262  12.954 -0.2407 -0.0122 -1.8176
  378TMC3    H1 5711   3.211   2.297  12.728 -1.3125  0.7560 -0.9656
  378TMC3    H2 5712   3.184   2.039  13.062 -3.0856  0.4455  2.6244
  378TMC3    C7 5713   3.330   2.092  12.841 -0.1819  0.2828 -0.4351
  378TMC3    C8 5714   2.922   2.059  13.094  0.1531 -0.1981 -0.6767
  378TMC3    O1 5715   3.385   2.017  12.922 -0.1401  0.3475 -0.0131
  378TMC3    O2 5716   2.823   2.119  13.131  0.1152  0.2253 -0.1900
  379MPD2     C 5717   3.764   0.206  16.252  0.1280 -0.0569  0.7622
  379MPD2    C1 5718   3.869   0.156  16.181  0.8967 -0.1317  0.6036
  379MPD2    C2 5719   3.967   0.094  16.262 -0.0265 -0.1223 -0.1789
  379MPD2    C3 5720   3.949   0.056  16.395  0.0961 -0.2775 -0.3662
  379MPD2    C4 5721   3.833   0.104  16.460 -0.0572 -1.2480  0.2937
  379MPD2    C5 5722   3.748   0.182  16.390 -0.0101 -0.1119 -0.2944
  379MPD2     H 5723   4.060   0.075  16.209 -0.5444 -2.6834 -0.1665
  379MPD2    H1 5724   3.809   0.078  16.562  0.7883  0.3014  0.8955
  379MPD2    H2 5725   3.677   0.252  16.206  0.8197 -1.2949 -1.8158
  379MPD2    H3 5726   3.665   0.234  16.437  1.2121  0.4962  1.1949
  379MPD2     N 5727   4.037   4.711  16.466  0.3314 -0.5215 -0.3036
  379MPD2    H5 5728   3.996   4.686  16.556 -2.7104  3.0192 -0.6947
  379MPD2    N1 5729   3.893   0.178  16.048  0.2623  0.4787 -0.0845
  379MPD2    H7 5730   3.990   0.170  16.019  0.1697 -1.0187 -0.0105
  380TMC3    C1 5731   3.838   0.225  15.819 -0.4977  0.8775 -0.3775
  380TMC3    C2 5732   3.965   0.277  15.798  0.4023 -1.0400  0.7753
  380TMC3    C3 5733   4.012   0.270  15.668  0.4394  0.0282 -0.2193
  380TMC3    C4 5734   3.753   0.188  15.715  0.9059 -0.2599 -0.6025
  380TMC3    C5 5735   3.802   0.197  15.588  0.1036  0.4001  0.1423
  380TMC3    C6 5736   3.932   0.236  15.562  0.4955  0.0806 -0.3096
  380TMC3     C 5737   3.792   0.198  15.948  0.0164 -0.8139  0.2015
  380TMC3     O 5738   3.670   0.198  15.970  0.6025  0.2738 -0.0336
  380TMC3     H 5739   4.033   0.314  15.874  3.8433 -1.1169 -2.2584
  380TMC3    H1 5740   3.655   0.145  15.734  1.7117 -1.8221  0.0299
  380TMC3    H2 5741   3.961   0.220  15.459  0.5245  0.4127 -0.3551
  380TMC3    C7 5742   3.706   0.179  15.474 -0.5746  0.7071  0.4071
  380TMC3    C8 5743   4.113   0.367  15.628 -0.2727  0.1908 -0.1958
  380TMC3    O1 5744   3.747   0.181  15.360 -0.4107  0.0548 -0.0884
  380TMC3    O2 5745   4.082   0.417  15.519 -0.2795  0.2574 -0.4466
  381TMC3    C1 5746   3.490   1.393  16.357  0.3432 -0.2146  0.1674
  381TMC3    C2 5747   3.553   1.499  16.315 -0.6085 -0.0120 -0.0394
  381TMC3    C3 5748   3.579   1.598  16.406  0.0321 -0.0709  0.2975
  381TMC3    C4 5749   3.480   1.367  16.497 -0.3081  0.2412  0.4909
  381TMC3    C5 5750   3.502   1.472  16.583  0.1646  0.2888 -0.2875
  381TMC3    C6 5751   3.551   1.596  16.540  0.0229  0.6433 -0.4839
  381TMC3     C 5752   3.481   1.286  16.261  0.4060 -0.1495 -0.0382
  381TMC3     O 5753   3.494   1.321  16.143 -0.5011 -0.5480  0.5159
  381TMC3     H 5754   3.554   1.516  16.208 -0.2179 -0.1286 -0.0546
  381TMC3    H1 5755   3.453   1.272  16.543 -2.6556  0.7366  0.1215
  381TMC3    H2 5756   3.567   1.682  16.604 -1.4725  0.6191 -0.0698
  381TMC3    C7 5757   3.506   1.450  16.727  0.7771 -0.3997  0.3595
  381TMC3    C8 5758   3.685   1.692  16.361  0.4999 -0.1586  0.1114
  381TMC3    O1 5759   3.522   1.333  16.760 -0.9424  0.0629  0.2244
  381TMC3    O2 5760   3.751   1.655  16.264  0.0112  0.0928  0.0119
  382MPD2     C 5761   2.992   4.251  16.525  0.2141  0.8677 -0.2544
  382MPD2    C1 5762   2.900   4.279  16.616 -0.4993 -0.1113 -0.5288
  382MPD2    C2 5763   2.831   4.184  16.690  0.4505 -0.1480  0.1517
  382MPD2    C3 5764   2.854   4.051  16.665  0.2719 -0.1048  0.0549
  382MPD2    C4 5765   2.933   4.016  16.552 -0.1225  0.5490 -0.3854
  382MPD2    C5 5766   3.002   4.118  16.481 -0.3209  0.1869  0.5431
  382MPD2     H 5767   2.752   4.220  16.756  0.2308  1.3993 -0.9416
  382MPD2    H1 5768   2.940   3.911  16.527  0.0238  1.0455 -2.3978
  382MPD2    H2 5769   3.026   4.331  16.461 -1.6103 -0.3439 -2.7435
  382MPD2    H3 5770   3.055   4.090  16.391  0.6370 -0.2297  1.2371
  382MPD2     N 5771   2.796   3.946  16.747 -0.0824 -0.3532  0.1687
  382MPD2    H5 5772   2.802   3.851  16.711 -0.2261 -0.5021  0.5378
  382MPD2    N1 5773   2.876   4.414  16.662  0.2770 -0.7283 -0.1386
  382MPD2    H7 5774   2.809   4.421  16.738  1.6123 -2.8705  1.2238
  383TMC3    C1 5775   2.653   3.855  16.907 -0.9223 -0.3538 -0.0478
  383TMC3    C2 5776   2.593   3.781  16.809 -0.7829 -0.3155  0.5980
  383TMC3    C3 5777   2.466   3.744  16.835  0.1831 -0.3139  0.8156
  383TMC3    C4 5778   2.590   3.878  17.027 -0.6508  0.4988 -0.8555
  383TMC3    C5 5779   2.454   3.856  17.035 -0.3792 -0.0347 -0.1773
  383TMC3    C6 5780   2.391   3.792  16.932  0.7619  0.4703 -0.1369
  383TMC3     C 5781   2.742   3.968  16.869 -0.8807  0.4217  0.8108
  383TMC3     O 5782   2.734   4.072  16.932  1.1928 -0.1587  0.4385
  383TMC3     H 5783   2.653   3.730  16.735  1.0056 -0.6153  2.2754
  383TMC3    H1 5784   2.640   3.943  17.097  0.1004 -0.1907 -0.7566
  383TMC3    H2 5785   2.292   3.753  16.957  0.9656 -1.0500 -1.7031
  383TMC3    C7 5786   2.378   3.919  17.147 -0.4926 -0.0168  0.0888
  383TMC3    C8 5787   2.439   3.616  16.776 -0.6302 -0.0659  0.1558
  383TMC3    O1 5788   2.261   3.931  17.130  0.3656  0.2271  0.0689
  383TMC3    O2 5789   2.537   3.542  16.767  0.2214 -0.1634  0.1914
  384MPD2     C 5790   4.186   4.604  11.970  0.1485  0.1133  0.4805
  384MPD2    C1 5791   4.283   4.581  12.059 -0.1515 -0.0094  0.1105
  384MPD2    C2 5792   4.367   4.479  12.029 -0.3467  0.3712  0.4610
  384MPD2    C3 5793   4.369   4.409  11.913 -0.0657 -0.6638 -0.3682
  384MPD2    C4 5794   4.276   4.445  11.814  0.4899  0.6948 -0.0331
  384MPD2    C5 5795   4.182   4.540  11.848 -0.2658 -0.2249 -0.5962
  384MPD2     H 5796   4.441   4.449  12.103 -1.0676  0.3945  1.1959
  384MPD2    H1 5797   4.264   4.388  11.723  1.3612  0.6524 -0.1207
  384MPD2    H2 5798   4.125   4.693  11.971  0.1643  0.1221  0.6125
  384MPD2    H3 5799   4.103   4.556  11.776 -2.0441  1.4857  1.7320
  384MPD2     N 5800   4.460   4.303  11.900 -0.4182  0.0826  0.4190
  384MPD2    H5 5801   4.520   4.294  11.982 -1.7077 -0.4340  1.3233
  384MPD2    N1 5802   4.296   4.642  12.182 -0.0680  0.3893  0.5087
  384MPD2    H7 5803   4.381   4.629  12.236  0.8698 -2.5047 -1.6451
  385TMC3    C1 5804   4.556   4.099  11.837 -0.0800  0.0712 -0.0382
  385TMC3    C2 5805   4.480   3.981  11.857  0.4387  0.4039 -0.4768
  385TMC3    C3 5806   4.506   3.908  11.975 -0.5288  1.0957 -0.0345
  385TMC3    C4 5807   4.645   4.131  11.928 -0.0451 -0.1763  0.8434
  385TMC3    C5 5808   4.660   4.058  12.042  0.4609 -0.5292  0.8739
  385TMC3    C6 5809   4.598   3.942  12.067  0.0177  0.2600 -0.4457
  385TMC3     C 5810   4.475   4.210  11.804  0.3233  0.7638  0.0625
  385TMC3     O 5811   4.409   4.207  11.704  0.0681  0.4952  0.1932
  385TMC3     H 5812   4.391   3.959  11.799  0.8689 -1.3878 -0.4459
  385TMC3    H1 5813   4.694   4.227  11.910 -2.0312  1.0935  2.2455
  385TMC3    H2 5814   4.574   3.905  12.166  0.9192 -0.4108 -0.4794
  385TMC3    C7 5815   4.663   4.146  12.157 -0.0058  1.0054  0.2864
  385TMC3    C8 5816   4.437   3.784  12.012 -0.4371 -0.1658 -0.1655
  385TMC3    O1 5817   4.628   4.257  12.127  0.1591 -0.1753 -0.2519
  385TMC3    O2 5818   4.473   3.718  12.113 -0.3581 -0.0288  0.0832
  386TMC3    C1 5819   4.450   2.136  11.745 -0.6865  0.2768 -0.4145
  386TMC3    C2 5820   4.411   2.139  11.615 -0.1464  0.4014  0.5260
  386TMC3    C3 5821   4.282   2.168  11.588 -0.4815  0.0776  0.0319
  386TMC3    C4 5822   4.362   2.154  11.847 -0.6407 -0.3566 -0.7275
  386TMC3    C5 5823   4.231   2.176  11.814 -0.3978  0.9068  0.2072
  386TMC3    C6 5824   4.195   2.201  11.682 -0.4768  0.0230  0.1948
  386TMC3     C 5825   4.585   2.104  11.770  0.5613 -0.5388 -0.3452
  386TMC3     O 5826   4.651   2.063  11.676  0.2707 -0.2193  1.0319
  386TMC3     H 5827   4.479   2.117  11.534 -0.5107  3.2673 -0.5634
  386TMC3    H1 5828   4.385   2.123  11.948  2.3266  1.2012 -0.9345
  386TMC3    H2 5829   4.095   2.236  11.663  0.2115  0.6404 -2.2485
  386TMC3    C7 5830   4.134   2.155  11.914  0.4417  0.7459  0.1160
  386TMC3    C8 5831   4.246   2.210  11.446 -0.1764  0.0680 -0.1272
  386TMC3    O1 5832   4.163   2.167  12.031 -0.3843  0.1868  0.5316
  386TMC3    O2 5833   4.172   2.302  11.435  0.1352  0.4125  0.6070
  387MPD2     C 5834   2.103   2.247   9.744 -0.9493  0.4102  0.4153
  387MPD2    C1 5835   2.126   2.213   9.873  0.5732 -0.8537  0.1148
  387MPD2    C2 5836   2.159   2.076   9.901  0.1925  0.2481 -0.3839
  387MPD2    C3 5837   2.184   1.982   9.800  0.1736  0.3067 -0.6391
  387MPD2    C4 5838   2.148   2.018   9.674  0.2316  0.7238 -0.1596
  387MPD2    C5 5839   2.107   2.149   9.646 -0.3723 -0.3473 -0.4953
  387MPD2     H 5840   2.175   2.047  10.004 -3.3967  0.8841  0.3764
  387MPD2    H1 5841   2.157   1.957   9.584 -2.2625  0.2260 -0.0743
  387MPD2    H2 5842   2.080   2.347   9.710 -3.3506  0.6005  2.6564
  387MPD2    H3 5843   2.081   2.173   9.543  1.8286 -1.4865 -1.3362
  387MPD2     N 5844   2.233   1.854   9.835  0.6898  0.3434  0.3029
  387MPD2    H5 5845   2.252   1.841   9.934 -1.0305 -1.5711  0.3756
  387MPD2    N1 5846   2.136   2.295   9.985 -0.7222 -0.2733  0.1315
  387MPD2    H7 5847   2.158   2.246  10.071  0.1838 -0.9264 -0.4723
  388TMC3    C1 5848   2.191   2.479  10.108 -0.5476 -0.0637  0.4619
  388TMC3    C2 5849   2.241   2.609  10.099 -0.5964  0.5682 -0.8802
  388TMC3    C3 5850   2.338   2.652  10.193  0.3025  0.2864  0.9976
  388TMC3    C4 5851   2.257   2.388  10.190 -0.1262 -0.0822  0.0392
  388TMC3    C5 5852   2.360   2.429  10.262  0.2932 -0.5761 -0.5042
  388TMC3    C6 5853   2.407   2.556  10.263 -0.1110  0.6902  0.2019
  388TMC3     C 5854   2.144   2.432   9.980 -0.2053  0.2962 -0.1111
  388TMC3     O 5855   2.142   2.516   9.889  0.0450  0.2314  0.0341
  388TMC3     H 5856   2.190   2.684  10.042 -0.6488  1.0556 -0.1928
  388TMC3    H1 5857   2.206   2.297  10.220  2.2562 -1.5802 -0.5505
  388TMC3    H2 5858   2.489   2.590  10.325 -0.5002  1.7166  0.1615
  388TMC3    C7 5859   2.445   2.321  10.327  0.3612  0.4512  0.6374
  388TMC3    C8 5860   2.386   2.785  10.188 -0.0464  0.0803 -0.4139
  388TMC3    O1 5861   2.509   2.344  10.431  0.3012  0.2230 -0.0532
  388TMC3    O2 5862   2.362   2.852  10.089 -0.1312  0.1061  0.3174
  389MPD2     C 5863   1.325   4.707  10.842  0.1978  0.0657  0.9364
  389MPD2    C1 5864   1.204   0.040  10.848  0.8868 -0.8375 -0.0589
  389MPD2    C2 5865   1.107   4.731  10.937 -0.0984  0.3694  0.0655
  389MPD2    C3 5866   1.132   4.631  11.026  0.4173  0.3502  0.1803
  389MPD2    C4 5867   1.243   4.557  11.008  0.2871  0.1552 -0.0782
  389MPD2    C5 5868   1.345   4.597  10.923  0.3035  0.3794 -0.1584
  389MPD2     H 5869   1.018   0.055  10.948 -0.2522  0.0477  0.6203
  389MPD2    H1 5870   1.269   4.481  11.081  0.1702  0.4984  0.3182
  389MPD2    H2 5871   1.402   4.726  10.768 -1.7919  0.3683 -1.0507
  389MPD2    H3 5872   1.441   4.551  10.940  0.4728  0.4192 -1.0178
  389MPD2     N 5873   1.061   4.603  11.145 -0.1747  0.4135 -0.1246
  389MPD2    H5 5874   1.075   4.514  11.191 -0.4769 -0.1807 -1.1951
  389MPD2    N1 5875   1.190   0.158  10.763  0.1426 -1.1942  0.0457
  389MPD2    H7 5876   1.267   0.181  10.702  1.4413 -1.3431  1.6202
  390TMC3    C1 5877   0.949   4.657  11.346  0.0937 -0.3968 -0.3125
  390TMC3    C2 5878   1.003   4.545  11.416 -0.0857  0.7733  0.2425
  390TMC3    C3 5879   0.965   4.532  11.549 -0.8839  0.0287  0.4092
  390TMC3    C4 5880   0.857   0.004  11.405 -0.4552  0.1929  0.4113
  390TMC3    C5 5881   0.817   4.721  11.533 -0.3382  0.5102  0.4152
  390TMC3    C6 5882   0.883   4.627  11.607  0.1337  0.6983  0.7728
  390TMC3     C 5883   0.974   4.686  11.209 -0.5861 -0.2347  0.2030
  390TMC3     O 5884   0.950   0.059  11.173  0.6954 -0.0617  0.0300
  390TMC3     H 5885   1.069   4.470  11.375 -1.3448 -0.8381  1.1781
  390TMC3    H1 5886   0.804   0.081  11.350 -0.0072 -0.7232 -1.2962
  390TMC3    H2 5887   0.854   4.619  11.711  4.5523 -2.5415  1.7497
  390TMC3    C7 5888   0.675   4.705  11.536 -0.2748  0.3314 -0.1256
  390TMC3    C8 5889   0.889   4.407  11.570  0.1595 -0.3387  0.0112
  390TMC3    O1 5890   0.624   4.706  11.422 -0.1443 -0.8021 -0.2538
  390TMC3    O2 5891   0.828   4.358  11.474 -0.3829 -0.2443  0.1474
  391MPD2     C 5892   0.582   1.932  11.536 -0.5160  0.6954  1.1249
  391MPD2    C1 5893   0.715   1.958  11.500  0.0076 -0.1655  0.3279
  391MPD2    C2 5894   0.751   1.954  11.364 -0.1772 -0.0788  0.5153
  391MPD2    C3 5895   0.653   1.949  11.266  0.3013  0.2921 -0.2470
  391MPD2    C4 5896   0.523   1.923  11.300  1.1063  0.0709  0.2602
  391MPD2    C5 5897   0.492   1.916  11.436  0.3311 -0.1528  0.2633
  391MPD2     H 5898   0.853   1.963  11.327  0.4285 -1.0759  1.9256
  391MPD2    H1 5899   0.444   1.908  11.228 -0.2845 -0.7361  1.9338
  391MPD2    H2 5900   0.549   1.934  11.640 -0.4375  0.9347  1.1468
  391MPD2    H3 5901   0.387   1.913  11.462 -0.3444  1.8556 -2.1641
  391MPD2     N 5902   0.690   1.974  11.130  0.1026 -0.1925 -0.6816
  391MPD2    H5 5903   0.788   1.999  11.121 -0.3307  1.2331 -1.3332
  391MPD2    N1 5904   0.806   1.985  11.601 -0.1092 -0.2651  0.2717
  391MPD2    H7 5905   0.765   2.002  11.692 -0.8422  0.2905 -0.1662
  392TMC3    C1 5906   0.682   2.003  10.895  0.8960 -0.1343 -0.2432
  392TMC3    C2 5907   0.606   2.019  10.782  0.4544 -0.1641  1.2091
  392TMC3    C3 5908   0.660   2.072  10.668 -0.1864  1.0494 -0.0403
  392TMC3    C4 5909   0.813   2.042  10.900 -0.6064 -0.2630 -0.2755
  392TMC3    C5 5910   0.861   2.106  10.784 -0.0466 -0.3817 -0.4555
  392TMC3    C6 5911   0.785   2.137  10.671 -0.2939  0.2873 -0.0455
  392TMC3     C 5912   0.610   1.969  11.018  0.4464 -0.3563 -0.3942
  392TMC3     O 5913   0.486   1.953  11.008  0.5179 -0.1725 -0.0849
  392TMC3     H 5914   0.502   1.988  10.780 -0.2890  2.4241  0.7823
  392TMC3    H1 5915   0.881   2.027  10.983 -0.0035  1.3360 -0.4699
  392TMC3    H2 5916   0.822   2.214  10.604  1.5118  0.4698  1.1434
  392TMC3    C7 5917   0.989   2.165  10.800 -0.4970 -0.4998 -0.4786
  392TMC3    C8 5918   0.577   2.068  10.542 -0.0880 -0.3845  0.0274
  392TMC3    O1 5919   1.037   2.171  10.914 -0.1844 -0.6702 -0.1100
  392TMC3    O2 5920   0.483   1.993  10.543  0.0071  0.0883 -0.0057
  393TMC3    C1 5921   3.606   0.234  10.211 -0.1848  0.1102  0.2498
  393TMC3    C2 5922   3.494   0.183  10.163 -0.7229 -0.3043 -0.0310
  393TMC3    C3 5923   3.453   0.065  10.217 -0.3161  0.1063  0.4813
  393TMC3    C4 5924   3.659   0.180  10.331  0.1249 -0.0255 -0.2609
  393TMC3    C5 5925   3.601   0.067  10.390  0.7399  0.3224 -0.2923
  393TMC3    C6 5926   3.498   0.008  10.333 -0.0702  0.5471  0.2994
  393TMC3     C 5927   3.633   0.373  10.170 -0.5666  0.1543 -0.1607
  393TMC3     O 5928   3.542   0.434  10.111 -0.0952  0.3824  0.6965
  393TMC3     H 5929   3.449   0.224  10.074  0.4819 -0.3954 -0.6861
  393TMC3    H1 5930   3.741   0.233  10.378 -0.0293  1.8805 -2.1153
  393TMC3    H2 5931   3.457   4.647  10.357 -1.1209  1.2541  1.3837
  393TMC3    C7 5932   3.616   0.039  10.531 -0.0436 -0.1480 -0.4788
  393TMC3    C8 5933   3.347   4.731  10.146 -0.9383  0.5560  0.2063
  393TMC3    O1 5934   3.521   4.710  10.571  0.1482  0.1886  0.0529
  393TMC3    O2 5935   3.287   4.648  10.212  0.1143 -0.0187 -0.3169
  394TMC3    C1 5936   1.121   0.358  10.665  0.0338 -0.4886 -0.4551
  394TMC3    C2 5937   1.018   0.421  10.596  0.5506  0.4654  0.4177
  394TMC3    C3 5938   1.059   0.517  10.512 -0.2345 -0.3400  0.3401
  394TMC3    C4 5939   1.248   0.396  10.653 -0.5545 -0.0608 -0.3358
  394TMC3    C5 5940   1.286   0.481  10.552  0.1269 -0.1473 -0.2895
  394TMC3    C6 5941   1.189   0.545  10.484 -0.6992  0.6364  0.5265
  394TMC3     C 5942   1.086   0.250  10.751  0.2769  0.3112 -0.3854
  394TMC3     O 5943   0.972   0.246  10.796  0.0274  0.4823 -0.0056
  394TMC3     H 5944   0.915   0.393  10.614  0.6270  1.9228  3.0197
  394TMC3    H1 5945   1.318   0.365  10.730  1.9379  1.7278 -1.8565
  394TMC3    H2 5946   1.213   0.627  10.418 -2.5680  1.4495  0.8458
  394TMC3    C7 5947   1.417   0.537  10.552 -0.0900 -0.0942 -0.1641
  394TMC3    C8 5948   0.962   0.595  10.430 -0.3959  0.6838  0.3027
  394TMC3    O1 5949   1.425   0.656  10.518  0.2135  0.2147 -0.3575
  394TMC3    O2 5950   0.963   0.719  10.438  0.1770  0.3021 -0.1108
  395TMC3    C1 5951   1.580   2.178  14.577 -0.4370 -0.6596  0.4742
  395TMC3    C2 5952   1.447   2.154  14.576  0.3405 -0.2638 -0.3168
  395TMC3    C3 5953   1.353   2.257  14.582 -0.2792 -0.9077 -0.3216
  395TMC3    C4 5954   1.626   2.303  14.574  0.5601 -0.0284  0.5199
  395TMC3    C5 5955   1.536   2.406  14.578 -0.3577 -0.0366 -0.7531
  395TMC3    C6 5956   1.396   2.389  14.591 -0.2864 -0.3608 -0.5776
  395TMC3     C 5957   1.662   2.096  14.663 -0.2462  0.6411  0.0628
  395TMC3     O 5958   1.784   2.107  14.660  0.0585  0.3417 -0.4751
  395TMC3     H 5959   1.425   2.048  14.581 -0.0680 -0.2583 -2.0020
  395TMC3    H1 5960   1.733   2.314  14.586  0.4674  2.5195 -0.7983
  395TMC3    H2 5961   1.331   2.475  14.608  0.9194  0.6624 -1.1066
  395TMC3    C7 5962   1.581   2.536  14.599  0.9493  0.1659  0.9493
  395TMC3    C8 5963   1.243   2.220  14.681 -0.3378  0.7474 -0.3748
  395TMC3    O1 5964   1.508   2.600  14.676 -0.4346  0.2529  0.3094
  395TMC3    O2 5965   1.240   2.295  14.777  0.1318 -0.1543  0.1554
  396MPD2     C 5966   0.866   3.588  17.355 -0.1268 -0.0983 -0.6644
  396MPD2    C1 5967   1.000   3.590  17.392 -0.6536  0.1246  0.0363
  396MPD2    C2 5968   1.069   3.711  17.404 -0.5182 -1.0791 -0.7170
  396MPD2    C3 5969   1.007   3.830  17.371  0.6122  1.2549  0.6934
  396MPD2    C4 5970   0.874   3.827  17.335 -0.6740  0.0949  0.2971
  396MPD2    C5 5971   0.806   3.712  17.323  0.1101 -0.1907  0.0040
  396MPD2     H 5972   1.176   3.716  17.421 -0.6948  1.4522 -0.4081
  396MPD2    H1 5973   0.817   3.914  17.306 -2.2129 -1.2451 -0.7189
  396MPD2    H2 5974   0.797   3.504  17.362 -0.5899  0.2697 -0.8724
  396MPD2    H3 5975   0.699   3.721  17.303  0.5028 -1.3015 -2.6042
  396MPD2     N 5976   1.087   3.951  17.378  0.2557  0.2013  0.1961
  396MPD2    H5 5977   1.188   3.938  17.376  0.2871  0.4342  0.3032
  396MPD2    N1 5978   1.059   3.466  17.434 -0.4587  0.2930  0.1706
  396MPD2    H7 5979   0.997   3.385  17.438  0.7316 -0.6123  0.2662
  397TMC3    C1 5980   1.241   3.314  17.444  0.6719 -0.2932 -0.1030
  397TMC3    C2 5981   1.324   3.300  17.336  0.0255 -0.3103 -0.4860
  397TMC3    C3 5982   1.308   3.195  17.248  0.4465 -0.0935  0.6630
  397TMC3    C4 5983   1.147   3.219  17.464  0.2109 -0.0420  0.1595
  397TMC3    C5 5984   1.146   3.107  17.384  0.1697  0.4193 -0.4663
  397TMC3    C6 5985   1.226   3.091  17.276 -0.2083  0.2775 -0.3163
  397TMC3     C 5986   1.193   3.452  17.454 -0.0342  0.8613 -0.6699
  397TMC3     O 5987   1.290   3.530  17.452 -0.1011  0.6579 -0.0746
  397TMC3     H 5988   1.365   3.390  17.292  0.3352  0.1730  0.8108
  397TMC3    H1 5989   1.085   3.233  17.551 -1.5419 -0.5362 -1.0111
  397TMC3    H2 5990   1.217   3.014  17.200 -1.4185  0.0319  0.0628
  397TMC3    C7 5991   1.055   2.998  17.418 -0.1285 -0.7627  0.1373
  397TMC3    C8 5992   1.307   3.226  17.106  0.3738 -0.3025  0.2369
  397TMC3    O1 5993   1.046   2.911  17.335  0.1823 -0.2939  0.6928
  397TMC3    O2 5994   1.208   3.186  17.042  0.3720  0.3824  0.3821
  398MPD2     C 5995   4.166   0.270   0.543  0.0968  0.1134  0.7343
  398MPD2    C1 5996   4.265   0.174   0.578 -0.1038 -0.2547 -0.3803
  398MPD2    C2 5997   4.390   0.215   0.613 -0.5071  0.2773  0.2164
  398MPD2    C3 5998   4.428   0.346   0.614 -0.0802  0.2592 -0.3925
  398MPD2    C4 5999   4.339   0.437   0.580  0.4546  0.4671  0.6211
  398MPD2    C5 6000   4.207   0.402   0.551  0.0766  0.1974  0.1143
  398MPD2     H 6001   4.473   0.152   0.644  0.1203  0.3864 -1.2480
  398MPD2    H1 6002   4.362   0.543   0.574  1.6272  0.1657 -0.3697
  398MPD2    H2 6003   4.064   0.240   0.519  0.9167 -0.4981 -2.0758
  398MPD2    H3 6004   4.139   0.480   0.520  1.0106 -0.0121 -2.4737
  398MPD2     N 6005   4.555   0.374   0.652 -0.2158 -0.4769 -0.1150
  398MPD2    H5 6006   4.611   0.296   0.685 -0.6069  0.2584  2.3392
  398MPD2    N1 6007   4.249   0.034   0.577 -0.2963 -0.0133  0.8295
  398MPD2    H7 6008   4.338   4.722   0.583  1.1653  2.5612  0.3775
  399TMC3    C1 6009   4.171   4.572   0.500  0.7436  0.3286 -0.7186
  399TMC3    C2 6010   4.241   4.506   0.597 -0.0888 -0.1341  0.3686
  399TMC3    C3 6011   4.284   4.377   0.570  0.4259 -0.2658 -0.2434
  399TMC3    C4 6012   4.140   4.517   0.380  0.0448  0.2036 -0.1693
  399TMC3    C5 6013   4.173   4.384   0.363 -0.0545 -0.3093 -0.7855
  399TMC3    C6 6014   4.256   4.323   0.449  0.1969  1.2674  0.3157
  399TMC3     C 6015   4.139   4.709   0.530 -0.0434  0.0816  0.2792
  399TMC3     O 6016   4.041   0.018   0.478 -0.4189  0.1082 -0.0434
  399TMC3     H 6017   4.261   4.542   0.697 -0.3757  1.4264 -0.1475
  399TMC3    H1 6018   4.108   4.578   0.296  1.2003 -1.0155 -1.5127
  399TMC3    H2 6019   4.310   4.236   0.412 -2.2656  0.3000 -1.0005
  399TMC3    C7 6020   4.120   4.310   0.255  0.4544 -0.9228  0.1535
  399TMC3    C8 6021   4.394   4.327   0.647  0.4010 -0.5537 -0.2102
  399TMC3    O1 6022   4.162   4.196   0.240 -0.2782  0.4770  0.5782
  399TMC3    O2 6023   4.443   4.408   0.730  0.0218 -0.2173  0.0606
  400TMC3    C1 6024   2.644   3.243  16.605 -0.4485 -0.4075 -0.0845
  400TMC3    C2 6025   2.535   3.181  16.548 -0.2785  0.2905 -0.3128
  400TMC3    C3 6026   2.469   3.250  16.448 -0.0397  1.0432 -0.4851
  400TMC3    C4 6027   2.686   3.361  16.566  0.0114 -0.4982  0.3454
  400TMC3    C5 6028   2.621   3.426  16.460 -0.3956 -0.7925 -0.3396
  400TMC3    C6 6029   2.506   3.377  16.412  0.1236 -0.6311 -0.0301
  400TMC3     C 6030   2.679   3.192  16.735  0.5071 -0.3023  0.6707
  400TMC3     O 6031   2.638   3.085  16.779  0.0440  0.5459 -0.4089
  400TMC3     H 6032   2.510   3.077  16.567  0.9448  0.1013  0.2726
  400TMC3    H1 6033   2.765   3.421  16.610  0.7713  0.4210 -2.3071
  400TMC3    H2 6034   2.458   3.431  16.330  1.0038 -0.2216 -0.2791
  400TMC3    C7 6035   2.652   3.569  16.447 -0.5641 -0.3436 -0.5532
  400TMC3    C8 6036   2.327   3.227  16.429 -0.1764 -0.6383 -0.4830
  400TMC3    O1 6037   2.770   3.607  16.464  0.0775  0.0101  0.5146
  400TMC3    O2 6038   2.250   3.322  16.416  0.0063  0.2658 -0.0755
  401MPD2     C 6039   1.007   1.838   0.447 -0.1071 -0.1442 -0.1352
  401MPD2    C1 6040   1.029   1.812   0.580  0.4512  0.1920  0.1188
  401MPD2    C2 6041   1.046   1.681   0.620  0.3814 -0.1009  0.7111
  401MPD2    C3 6042   1.044   1.575   0.537 -0.5603 -0.2863 -0.0526
  401MPD2    C4 6043   1.010   1.598   0.413  0.1047  0.1173 -0.0311
  401MPD2    C5 6044   1.005   1.730   0.366 -0.0503 -0.2622 -0.1680
  401MPD2     H 6045   1.079   1.657   0.720  0.3646 -2.3990  0.1685
  401MPD2    H1 6046   0.992   1.517   0.343 -0.4247 -0.8110  1.1762
  401MPD2    H2 6047   1.008   1.937   0.403 -0.5000  0.4802  1.2684
  401MPD2    H3 6048   1.022   1.743   0.260  4.6257  1.6109  0.8137
  401MPD2     N 6049   1.066   1.447   0.588 -0.2819 -0.4242 -0.1281
  401MPD2    H5 6050   1.105   1.438   0.681 -0.4270  0.6398  0.0364
  401MPD2    N1 6051   1.049   1.913   0.670  0.2508 -0.2932 -0.2087
  401MPD2    H7 6052   1.078   1.888   0.764 -0.8640 -1.3900 -0.1489
  402TMC3    C1 6053   1.088   1.213   0.595  0.1988 -0.3534 -0.4774
  402TMC3    C2 6054   1.040   1.196   0.721 -0.4332  0.0663 -0.0988
  402TMC3    C3 6055   1.064   1.091   0.803 -0.2630  0.0853  0.4585
  402TMC3    C4 6056   1.174   1.112   0.551  0.0435  0.0685  0.8113
  402TMC3    C5 6057   1.192   1.000   0.630 -0.4011  0.1149 -0.3511
  402TMC3    C6 6058   1.133   0.987   0.756 -0.0030 -0.0209  0.0574
  402TMC3     C 6059   1.076   1.330   0.514 -0.8208  0.9028 -0.2619
  402TMC3     O 6060   1.098   1.308   0.395  0.0609 -0.2125 -0.1370
  402TMC3     H 6061   0.979   1.278   0.756  1.3841  1.0537  0.7315
  402TMC3    H1 6062   1.229   1.137   0.461  0.8979  0.1657  1.3672
  402TMC3    H2 6063   1.130   0.891   0.806  0.2601  0.1042  0.3129
  402TMC3    C7 6064   1.270   0.896   0.571 -0.6157  0.5091 -0.2715
  402TMC3    C8 6065   1.037   1.083   0.941 -0.4339 -0.7755  0.4532
  402TMC3    O1 6066   1.293   0.897   0.454  0.5712 -0.0977  0.3198
  402TMC3    O2 6067   1.095   1.003   1.014 -0.1582 -0.4552  0.3712
  403MPD2     C 6068   3.463   4.709  13.863 -0.0064 -0.4195  0.1524
  403MPD2    C1 6069   3.535   4.638  13.770 -0.4213  0.1807 -1.0268
  403MPD2    C2 6070   3.673   4.651  13.761  0.1890  0.3903  0.1397
  403MPD2    C3 6071   3.728   0.023  13.829  0.4404 -0.4102 -0.3509
  403MPD2    C4 6072   3.653   0.103  13.918 -0.5971  0.8299 -0.8241
  403MPD2    C5 6073   3.519   0.072  13.942 -0.0488  0.3721  0.2355
  403MPD2     H 6074   3.735   4.599  13.688  1.1116  0.7996  0.6313
  403MPD2    H1 6075   3.696   0.182  13.978 -0.1276  0.0284 -0.1122
  403MPD2    H2 6076   3.358   4.681  13.860  0.2363 -1.3557  0.7218
  403MPD2    H3 6077   3.448   0.137  13.991  0.0537 -0.4998  1.5459
  403MPD2     N 6078   3.863   0.051  13.820  0.0952  0.2767  0.2988
  403MPD2    H5 6079   3.922   4.729  13.762  0.7283  0.8514  0.3549
  403MPD2    N1 6080   3.462   4.537  13.699 -0.5524 -0.1291  0.4129
  403MPD2    H7 6081   3.362   4.530  13.713 -0.2815 -1.5865  1.6327
  404TMC3    C1 6082   3.419   4.349  13.569  0.0856 -0.0181  0.2993
  404TMC3    C2 6083   3.400   4.241  13.655  0.2013 -0.8518  0.0354
  404TMC3    C3 6084   3.393   4.112  13.607 -0.7021  0.5234 -0.6941
  404TMC3    C4 6085   3.447   4.324  13.439 -0.2175 -0.1835 -0.6791
  404TMC3    C5 6086   3.437   4.196  13.393  0.4300 -0.6340 -0.3938
  404TMC3    C6 6087   3.398   4.089  13.476 -0.5014 -0.1215  0.0160
  404TMC3     C 6088   3.516   4.438  13.617  1.1922 -0.0500 -0.6954
  404TMC3     O 6089   3.632   4.413  13.595 -0.6848  0.1858  0.4489
  404TMC3     H 6090   3.414   4.261  13.761  2.4750  1.4199 -0.6933
  404TMC3    H1 6091   3.482   4.411  13.385 -2.7456 -0.0367 -2.0739
  404TMC3    H2 6092   3.400   3.988  13.437  0.3979 -0.2929  0.5045
  404TMC3    C7 6093   3.491   4.178  13.252  0.0180  0.3516  0.0983
  404TMC3    C8 6094   3.431   3.996  13.692  0.5369  0.2712  0.5185
  404TMC3    O1 6095   3.556   4.272  13.207 -0.3231 -0.0617 -0.2562
  404TMC3    O2 6096   3.491   3.906  13.634  0.0611  0.5557  0.0446
  405MPD2     C 6097   4.234   1.565  14.965  0.1754 -0.4762  0.3045
  405MPD2    C1 6098   4.253   1.465  14.865  0.4362  0.2263 -0.5750
  405MPD2    C2 6099   4.146   1.429  14.780  0.1718 -0.0819  0.1445
  405MPD2    C3 6100   4.035   1.507  14.778 -0.3511 -0.3311 -0.8691
  405MPD2    C4 6101   4.013   1.595  14.876 -0.0847 -0.1851 -0.1047
  405MPD2    C5 6102   4.109   1.629  14.965  0.7454  0.4172  0.8674
  405MPD2     H 6103   4.145   1.342  14.715  0.1380 -0.2680  0.3978
  405MPD2    H1 6104   3.919   1.649  14.873  0.2501  0.5177  2.3515
  405MPD2    H2 6105   4.314   1.577  15.037  1.0825 -4.3052 -0.0519
  405MPD2    H3 6106   4.091   1.694  15.050 -1.9624 -1.1017  1.4416
  405MPD2     N 6107   3.935   1.455  14.690  0.4884  0.9516  0.5287
  405MPD2    H5 6108   3.974   1.399  14.614  0.2642 -1.1995  1.9910
  405MPD2    N1 6109   4.378   1.390  14.866  0.2812 -0.3313  0.2449
  405MPD2    H7 6110   4.442   1.396  14.944  2.2420  0.8403 -1.4701
  406TMC3    C1 6111   3.567   1.305  14.471 -0.3469 -0.1319 -0.4849
  406TMC3    C2 6112   3.638   1.196  14.429 -0.8088  0.3200 -0.7027
  406TMC3    C3 6113   3.763   1.174  14.476  0.9384  0.2967 -0.5374
  406TMC3    C4 6114   3.611   1.402  14.563  0.2245  0.1622 -0.5279
  406TMC3    C5 6115   3.742   1.374  14.605  0.8177 -0.7219 -0.3963
  406TMC3    C6 6116   3.816   1.258  14.567 -0.5895  0.5907 -0.3405
  406TMC3     C 6117   3.423   1.307  14.440  0.0211 -0.9396 -0.4560
  406TMC3     O 6118   3.373   1.418  14.433 -0.4230  0.4088  0.0813
  406TMC3     H 6119   3.599   1.135  14.348 -1.3195  0.9294 -0.9177
  406TMC3    H1 6120   3.559   1.495  14.581 -0.2331  0.2026 -2.0659
  406TMC3    H2 6121   3.902   1.231  14.627 -0.5382  0.6144 -0.4036
  406TMC3    C7 6122   3.799   1.472  14.698  0.0128 -0.5787 -0.2345
  406TMC3    C8 6123   3.835   1.054  14.432  0.3652  0.4042 -0.2973
  406TMC3    O1 6124   3.731   1.542  14.773  0.0958 -0.1589  0.5996
  406TMC3    O2 6125   3.774   0.950  14.418  0.3224  0.2084  0.6746
  407MPD2     C 6126   1.704   1.667   9.522  0.6466  0.1663 -0.5861
  407MPD2    C1 6127   1.832   1.678   9.580  0.0868 -0.5453  0.1105
  407MPD2    C2 6128   1.848   1.772   9.679 -0.5575 -0.2560 -0.9103
  407MPD2    C3 6129   1.740   1.851   9.725 -0.5350  0.1515 -0.0181
  407MPD2    C4 6130   1.618   1.842   9.658  0.3310  0.0500  0.1845
  407MPD2    C5 6131   1.605   1.752   9.555 -0.0540  0.1281  0.1250
  407MPD2     H 6132   1.950   1.789   9.713 -0.7181  1.5311 -1.2983
  407MPD2    H1 6133   1.527   1.897   9.681 -0.1062 -1.5881  2.3662
  407MPD2    H2 6134   1.680   1.600   9.440 -0.8289  1.8111 -1.4908
  407MPD2    H3 6135   1.516   1.742   9.494  0.5668 -1.5597 -0.4990
  407MPD2     N 6136   1.746   1.940   9.830 -0.1731  0.1524 -0.1665
  407MPD2    H5 6137   1.670   2.006   9.846  1.3373  1.9612 -0.3837
  407MPD2    N1 6138   1.948   1.611   9.532 -0.0784 -0.3668 -0.2389
  407MPD2    H7 6139   2.040   1.650   9.553 -0.0353 -0.4471 -0.2766
  408TMC3    C1 6140   2.085   1.453   9.421 -0.2340 -0.2753 -0.0781
  408TMC3    C2 6141   2.119   1.326   9.462 -0.5033  0.0155  0.6324
  408TMC3    C3 6142   2.252   1.300   9.464 -0.2933  0.1033  0.1584
  408TMC3    C4 6143   2.162   1.563   9.397  0.2133 -0.4880  0.1839
  408TMC3    C5 6144   2.292   1.522   9.395 -0.2835 -0.1611  0.2613
  408TMC3    C6 6145   2.340   1.390   9.416 -0.3133 -0.5387 -0.1173
  408TMC3     C 6146   1.953   1.493   9.454 -0.0498  0.7177  0.2819
  408TMC3     O 6147   1.861   1.409   9.452 -0.5488  0.2428  0.2811
  408TMC3     H 6148   2.043   1.250   9.474  0.0782 -0.8781 -1.4283
  408TMC3    H1 6149   2.124   1.654   9.352 -0.2363 -2.0134 -2.5061
  408TMC3    H2 6150   2.443   1.359   9.405  0.0485  1.3021 -1.8610
  408TMC3    C7 6151   2.397   1.612   9.443  0.3809  0.7980  0.0096
  408TMC3    C8 6152   2.310   1.208   9.563 -0.1136 -0.4388  0.2107
  408TMC3    O1 6153   2.482   1.567   9.518  0.0144  0.4463  0.0535
  408TMC3    O2 6154   2.244   1.110   9.583 -0.8979  0.1289 -0.6673
  409MPD2     C 6155   1.115   2.727  16.919 -0.0297  0.3881 -0.4583
  409MPD2    C1 6156   1.251   2.738  16.954  0.5381  0.2990  0.0932
  409MPD2    C2 6157   1.327   2.849  16.912 -0.0382  0.0049 -0.9787
  409MPD2    C3 6158   1.268   2.948  16.834 -0.7916  0.0848  0.0693
  409MPD2    C4 6159   1.134   2.945  16.808 -0.1080  0.3784  0.2801
  409MPD2    C5 6160   1.063   2.840  16.859 -0.5992  0.4570 -0.5067
  409MPD2     H 6161   1.431   2.847  16.941 -0.0563 -1.3289 -1.0091
  409MPD2    H1 6162   1.092   3.030  16.756  1.8295  1.5852  0.7161
  409MPD2    H2 6163   1.054   2.642  16.945 -0.5010  1.1131  0.8318
  409MPD2    H3 6164   0.958   2.845  16.832 -0.0021  0.8550 -2.7120
  409MPD2     N 6165   1.343   3.048  16.771  0.5964  0.0891 -0.5664
  409MPD2    H5 6166   1.294   3.117  16.715  2.4880  0.5403 -1.7070
  409MPD2    N1 6167   1.326   2.641  17.028 -0.4591  1.0070 -0.0770
  409MPD2    H7 6168   1.415   2.673  17.064  0.9352 -1.5781 -1.1469
  410TMC3    C1 6169   1.535   3.162  16.692  1.0403 -0.4980  0.3493
  410TMC3    C2 6170   1.641   3.232  16.737 -0.4504  0.1052  0.1553
  410TMC3    C3 6171   1.695   3.323  16.650  0.1205 -0.0782 -0.1017
  410TMC3    C4 6172   1.484   3.181  16.571 -0.2606  0.7988  0.2010
  410TMC3    C5 6173   1.535   3.271  16.485  0.2191 -0.0145 -0.2271
  410TMC3    C6 6174   1.647   3.338  16.521  0.0569  0.6438 -0.7962
  410TMC3     C 6175   1.478   3.061  16.778 -0.6886  0.0857  0.7953
  410TMC3     O 6176   1.562   2.990  16.835  0.4959  0.6011  0.8663
  410TMC3     H 6177   1.676   3.219  16.839  2.7957 -0.7661 -1.0655
  410TMC3    H1 6178   1.403   3.114  16.543  0.1034  0.0575  0.9419
  410TMC3    H2 6179   1.703   3.406  16.458 -0.3400 -0.3172 -2.1823
  410TMC3    C7 6180   1.515   3.246  16.337  0.2542  0.3880 -0.6415
  410TMC3    C8 6181   1.810   3.390  16.690  0.1232 -0.4499  0.5465
  410TMC3    O1 6182   1.459   3.141  16.304  0.1429  0.3622  0.3138
  410TMC3    O2 6183   1.827   3.506  16.654  0.6091 -0.5421  0.0547
  411MPD2     C 6184   1.288   2.932  14.584 -0.6523  0.0628  0.1133
  411MPD2    C1 6185   1.188   3.011  14.638 -0.5611 -0.6645  0.0011
  411MPD2    C2 6186   1.076   2.951  14.691  0.4595 -0.0074 -0.1518
  411MPD2    C3 6187   1.060   2.818  14.681  0.1652 -0.5989 -0.0579
  411MPD2    C4 6188   1.149   2.745  14.617 -0.4458 -0.0081 -0.0009
  411MPD2    C5 6189   1.261   2.797  14.569  0.0975  0.1927  0.3888
  411MPD2     H 6190   1.008   3.008  14.754 -0.4510  0.0162 -1.1641
  411MPD2    H1 6191   1.123   2.641  14.599 -0.6750  0.1109 -0.3467
  411MPD2    H2 6192   1.375   2.978  14.537 -0.2360 -1.6182 -0.7596
  411MPD2    H3 6193   1.335   2.731  14.525  1.0113 -1.1429  3.9300
  411MPD2     N 6194   0.944   2.748  14.727  0.4021  0.4591  0.1237
  411MPD2    H5 6195   0.911   2.666  14.678  2.1712  0.6789 -1.4606
  411MPD2    N1 6196   1.199   3.150  14.642 -0.2207 -0.4622  0.5835
  411MPD2    H7 6197   1.117   3.204  14.669  0.6489  0.7034  0.9208
  412TMC3    C1 6198   0.740   2.743  14.843 -0.9522  0.7392 -0.2437
  412TMC3    C2 6199   0.636   2.836  14.844 -0.1572  0.6395  0.3653
  412TMC3    C3 6200   0.527   2.800  14.768  0.6080  0.3739 -0.4784
  412TMC3    C4 6201   0.732   2.619  14.797 -0.2498  0.8752  0.4674
  412TMC3    C5 6202   0.621   2.583  14.719 -1.1383 -0.3239 -0.3142
  412TMC3    C6 6203   0.523   2.677  14.708 -0.2514  0.2483  0.5147
  412TMC3     C 6204   0.870   2.801  14.832  0.0034  0.1077 -0.2096
  412TMC3     O 6205   0.904   2.878  14.911  0.5733 -0.0327 -0.1589
  412TMC3     H 6206   0.664   2.932  14.886  3.4378 -0.8239  1.2476
  412TMC3    H1 6207   0.818   2.554  14.811 -0.2486  0.5819 -0.9469
  412TMC3    H2 6208   0.452   2.660  14.628 -0.0577  1.6839  0.0204
  412TMC3    C7 6209   0.654   2.535  14.585 -0.7471  0.2021 -0.1450
  412TMC3    C8 6210   0.466   2.910  14.700 -0.0687 -0.4301 -0.3477
  412TMC3    O1 6211   0.579   2.558  14.489  0.3771  0.4561 -0.9990
  412TMC3    O2 6212   0.519   3.023  14.708  0.7680 -0.3203  0.6162
  413MPD2     C 6213   3.087   2.124  15.721  0.4264  0.3285  0.5933
  413MPD2    C1 6214   3.041   2.080  15.600  0.1966  0.7572  0.1667
  413MPD2    C2 6215   3.133   2.041  15.510  0.5267  0.4658 -0.9336
  413MPD2    C3 6216   3.271   2.055  15.523  0.2810 -0.1616  0.7961
  413MPD2    C4 6217   3.320   2.107  15.644 -0.1854  0.3098  0.2354
  413MPD2    C5 6218   3.229   2.138  15.735  0.1693  0.2358 -0.1788
  413MPD2     H 6219   3.101   1.999  15.415 -1.9417  1.2292 -0.4348
  413MPD2    H1 6220   3.425   2.126  15.663 -0.4669  1.9375  0.2079
  413MPD2    H2 6221   3.023   2.147  15.805 -0.3390  0.0002  0.0917
  413MPD2    H3 6222   3.259   2.180  15.830 -0.1628 -1.4474  0.6745
  413MPD2     N 6223   3.354   2.007  15.420  0.7543 -0.5014  0.5035
  413MPD2    H5 6224   3.310   1.976  15.334 -2.4759 -0.4998  2.1586
  413MPD2    N1 6225   2.903   2.060  15.569  0.5623 -0.3661 -0.2421
  413MPD2    H7 6226   2.881   2.023  15.477 -2.1818 -2.8107  1.3882
  414TMC3    C1 6227   3.568   1.932  15.337 -0.3476  0.2913 -0.6531
  414TMC3    C2 6228   3.666   1.841  15.363 -0.1216 -0.3759 -0.5232
  414TMC3    C3 6229   3.706   1.772  15.250 -0.4916 -0.4685  0.2969
  414TMC3    C4 6230   3.533   1.963  15.211  0.2996 -0.1035  0.1701
  414TMC3    C5 6231   3.569   1.882  15.107  0.0319  0.7996  0.4238
  414TMC3    C6 6232   3.657   1.781  15.127 -0.7906 -0.0851 -0.0378
  414TMC3     C 6233   3.489   1.985  15.453 -0.5882 -0.1295 -0.5284
  414TMC3     O 6234   3.552   1.990  15.556  0.3945  0.0447  0.5983
  414TMC3     H 6235   3.707   1.829  15.463 -3.1300 -2.2485  0.4817
  414TMC3    H1 6236   3.480   2.055  15.187 -2.8820 -1.9924  0.0037
  414TMC3    H2 6237   3.694   1.723  15.043  0.2421 -1.6597  1.5028
  414TMC3    C7 6238   3.618   1.968  15.001 -0.1519 -0.6954  0.4207
  414TMC3    C8 6239   3.827   1.694  15.256  0.0757 -0.4122  1.0145
  414TMC3    O1 6240   3.679   2.074  15.022  0.7728  0.2129 -0.1765
  414TMC3    O2 6241   3.844   1.597  15.185 -0.0017 -0.0568 -0.0835
  415TMC3    C1 6242   4.156   4.069  10.163 -0.2559 -0.4592 -0.1856
  415TMC3    C2 6243   4.281   4.118  10.149 -0.1604  0.4450 -0.4623
  415TMC3    C3 6244   4.369   4.049  10.070  0.3230 -0.1165  0.7408
  415TMC3    C4 6245   4.112   3.965  10.086 -1.0792  0.1842  0.1690
  415TMC3    C5 6246   4.209   3.897  10.021 -0.8159  0.1487 -0.4653
  415TMC3    C6 6247   4.335   3.933  10.008 -0.2044 -0.7243  0.2118
  415TMC3     C 6248   4.063   4.135  10.245  0.1889 -0.7461  1.3345
  415TMC3     O 6249   3.944   4.136  10.211 -0.1839 -0.5691 -0.7027
  415TMC3     H 6250   4.306   4.215  10.189  0.0512  1.0294 -2.0234
  415TMC3    H1 6251   4.010   3.929  10.091 -0.8181 -0.7058 -0.9420
  415TMC3    H2 6252   4.407   3.863   9.967  0.1945 -0.1237 -0.1079
  415TMC3    C7 6253   4.175   3.763   9.968  0.6318 -0.3388  0.0210
  415TMC3    C8 6254   4.511   4.082  10.064  0.4074  0.1816 -0.2852
  415TMC3    O1 6255   4.238   3.719   9.873 -0.0143  0.1566 -0.6908
  415TMC3    O2 6256   4.586   3.998  10.021 -0.0591  0.3609  0.0984
  416MPD2     C 6257   1.231   3.416  11.460 -1.1458  0.0816 -0.2502
  416MPD2    C1 6258   1.171   3.358  11.572 -0.4482 -0.9374 -0.3361
  416MPD2    C2 6259   1.156   3.220  11.564  0.0969  0.7618 -0.7050
  416MPD2    C3 6260   1.206   3.144  11.454  0.5076  0.4069 -0.3630
  416MPD2    C4 6261   1.273   3.207  11.354 -0.2483  0.3091 -0.1163
  416MPD2    C5 6262   1.279   3.341  11.355  0.1159  0.6670  0.7210
  416MPD2     H 6263   1.096   3.173  11.641  2.2439  0.6144  0.8732
  416MPD2    H1 6264   1.290   3.166  11.255  1.1916  0.3891  0.0946
  416MPD2    H2 6265   1.254   3.522  11.452 -0.8540  0.2282  2.5550
  416MPD2    H3 6266   1.312   3.389  11.263 -1.2158  1.3329  0.5931
  416MPD2     N 6267   1.176   3.004  11.445  0.1551  0.0379 -0.0681
  416MPD2    H5 6268   1.119   2.962  11.518 -1.1765  0.9519 -0.5953
  416MPD2    N1 6269   1.114   3.445  11.671  0.0506  0.0960 -0.4287
  416MPD2    H7 6270   1.086   3.538  11.643  2.5737  1.3816  1.3833
  417TMC3    C1 6271   0.983   3.496  11.850 -0.1545 -0.4402  0.3987
  417TMC3    C2 6272   0.987   3.489  11.984 -0.2801 -0.2857  0.6083
  417TMC3    C3 6273   0.869   3.468  12.050  0.8463 -0.0722 -1.0182
  417TMC3    C4 6274   0.874   3.494  11.779 -0.1900  0.3383  0.5465
  417TMC3    C5 6275   0.751   3.466  11.842 -0.6753  0.0598  0.2255
  417TMC3    C6 6276   0.749   3.458  11.981  0.5364 -0.2382  0.3759
  417TMC3     C 6277   1.078   3.400  11.794  0.2231  0.3992  0.2647
  417TMC3     O 6278   1.088   3.291  11.850 -0.1317 -0.5480  0.0899
  417TMC3     H 6279   1.081   3.510  12.034  0.4322 -2.5380  0.2318
  417TMC3    H1 6280   0.872   3.514  11.672 -1.6107  1.8252  0.8508
  417TMC3    H2 6281   0.659   3.450  12.042  0.6171  1.2361  0.6692
  417TMC3    C7 6282   0.636   3.475  11.758  0.5790 -0.6507 -0.2363
  417TMC3    C8 6283   0.871   3.471  12.197  1.0509 -0.0626  0.2239
  417TMC3    O1 6284   0.642   3.534  11.650 -0.3051 -0.0045  0.0163
  417TMC3    O2 6285   0.763   3.478  12.251  0.0445  0.1948  0.3789
  418TMC3    C1 6286   0.216   0.379   0.646  0.1939  0.3748 -0.3605
  418TMC3    C2 6287   0.111   0.452   0.597  0.1506 -0.1742  0.3805
  418TMC3    C3 6288   0.016   0.477   0.689  0.5319  0.2071  0.5983
  418TMC3    C4 6289   0.220   0.314   0.768  0.0640 -0.0668  0.2295
  418TMC3    C5 6290   0.122   0.340   0.856 -0.1009  0.0359 -0.2855
  418TMC3    C6 6291   0.011   0.420   0.812  0.5837  0.1471  0.3936
  418TMC3     C 6292   0.307   0.334   0.542  0.5816 -0.4790 -0.2218
  418TMC3     O 6293   0.305   0.406   0.441  0.3078 -0.1891  0.4275
  418TMC3     H 6294   0.108   0.502   0.501 -4.6292  1.0065  1.1760
  418TMC3    H1 6295   0.311   0.271   0.808 -0.9580 -2.4379 -0.0368
  418TMC3    H2 6296   4.661   0.442   0.872 -0.2017 -0.3009 -0.5964
  418TMC3    C7 6297   0.099   0.242   0.959 -0.4681  0.6874 -0.9504
  418TMC3    C8 6298   4.621   0.486   0.625  0.0102  0.1576 -0.1579
  418TMC3    O1 6299   0.127   0.125   0.921 -0.9301 -0.0730  0.4171
  418TMC3    O2 6300   4.592   0.576   0.539  0.8388 -0.2639  0.1361
  419MPD2     C 6301   2.408   2.977  12.945 -0.1821 -0.3485  0.7177
  419MPD2    C1 6302   2.324   3.073  12.893 -0.0521 -0.9253  1.1484
  419MPD2    C2 6303   2.308   3.190  12.966  0.4208 -0.0044 -0.5976
  419MPD2    C3 6304   2.378   3.207  13.088  0.2234  0.1334  0.1562
  419MPD2    C4 6305   2.456   3.106  13.140 -0.1877  0.3573 -0.0299
  419MPD2    C5 6306   2.474   2.999  13.067 -0.5288 -0.5147 -0.2347
  419MPD2     H 6307   2.249   3.268  12.919 -0.4807 -0.0094  0.5587
  419MPD2    H1 6308   2.513   3.115  13.232 -2.3935  0.4635  1.3006
  419MPD2    H2 6309   2.429   2.882  12.898  2.7444  0.1242  1.0359
  419MPD2    H3 6310   2.555   2.938  13.104 -0.8487 -1.0807 -0.4641
  419MPD2     N 6311   2.366   3.329  13.155 -0.2954 -0.3596  0.2760
  419MPD2    H5 6312   2.294   3.392  13.122  0.0296 -0.4728 -0.6702
  419MPD2    N1 6313   2.261   3.063  12.766  0.6343  0.6367  0.1390
  419MPD2    H7 6314   2.208   3.142  12.730 -2.1564 -1.0889  0.4037
  420TMC3    C1 6315   2.443   3.504  13.309  0.3929 -0.2947  0.3880
  420TMC3    C2 6316   2.318   3.559  13.278  0.1703  1.1687  0.4996
  420TMC3    C3 6317   2.274   3.654  13.372  0.1845 -0.0654 -0.6155
  420TMC3    C4 6318   2.508   3.525  13.426  0.5373  0.0970  0.1802
  420TMC3    C5 6319   2.455   3.612  13.522  0.5129 -0.1579  0.1677
  420TMC3    C6 6320   2.344   3.683  13.484 -0.0687 -0.1127 -0.0684
  420TMC3     C 6321   2.467   3.384  13.229 -0.0470  0.1318 -0.0126
  420TMC3     O 6322   2.578   3.333  13.243 -0.4501 -0.0137 -0.2841
  420TMC3     H 6323   2.274   3.560  13.179  2.3217 -1.1404 -0.5021
  420TMC3    H1 6324   2.599   3.469  13.446 -0.8201 -2.0576  0.3527
  420TMC3    H2 6325   2.301   3.753  13.555 -0.5812  0.5245 -1.0118
  420TMC3    C7 6326   2.455   3.544  13.654  0.0583 -0.1423 -0.0581
  420TMC3    C8 6327   2.158   3.738  13.328 -0.1014  0.1396 -0.4710
  420TMC3    O1 6328   2.553   3.474  13.681 -0.3212  0.3560 -0.5273
  420TMC3    O2 6329   2.119   3.731  13.209  0.2247 -0.0334 -0.8521
  421TMC3    C1 6330   4.063   0.172  13.835 -0.2515  0.5260 -0.1001
  421TMC3    C2 6331   4.118   0.295  13.808 -0.8429  0.3164 -0.3490
  421TMC3    C3 6332   4.253   0.309  13.827  0.5510 -0.9687 -0.2990
  421TMC3    C4 6333   4.135   0.065  13.871 -0.8240 -0.0135 -0.2466
  421TMC3    C5 6334   4.271   0.080  13.887 -0.1451  0.0147 -0.7695
  421TMC3    C6 6335   4.328   0.200  13.863  0.0310  0.0572  0.0211
  421TMC3     C 6336   3.923   0.173  13.860 -0.4302  0.0353 -0.0804
  421TMC3     O 6337   3.862   0.278  13.859  0.3949  0.5215  0.7934
  421TMC3     H 6338   4.056   0.374  13.767 -1.1585  0.1069 -0.2720
  421TMC3    H1 6339   4.080   4.712  13.894 -0.6523 -0.6101 -2.1723
  421TMC3    H2 6340   4.436   0.209  13.862  0.0231  0.2250  0.7972
  421TMC3    C7 6341   4.347   4.709  13.961  0.0019  0.1416  0.0179
  421TMC3    C8 6342   4.313   0.443  13.825 -0.4855 -0.1287  0.1348
  421TMC3    O1 6343   4.450   0.013  14.014 -0.2318  0.3595 -0.6036
  421TMC3    O2 6344   4.261   0.519  13.742  0.8405  0.1322 -0.3490
  422TMC3    C1 6345   1.744   1.505  12.613 -0.5269  0.9885  0.1732
  422TMC3    C2 6346   1.771   1.630  12.668  0.7631 -0.4789 -0.2289
  422TMC3    C3 6347   1.664   1.718  12.675  0.0951  0.4854  0.7525
  422TMC3    C4 6348   1.623   1.462  12.574 -0.2970  0.2746  0.0240
  422TMC3    C5 6349   1.518   1.547  12.594 -0.8167  1.1115 -0.8238
  422TMC3    C6 6350   1.536   1.671  12.647  0.0394  0.3582  0.3017
  422TMC3     C 6351   1.858   1.456  12.538  0.0116  0.0894  0.2395
  422TMC3     O 6352   1.960   1.439  12.603 -0.1570 -0.5780  0.0623
  422TMC3     H 6353   1.874   1.662  12.684  0.1404  0.6772  1.4756
  422TMC3    H1 6354   1.604   1.359  12.548  1.4610  0.2785 -1.2426
  422TMC3    H2 6355   1.450   1.734  12.668  1.0262  1.5951  0.6882
  422TMC3    C7 6356   1.383   1.503  12.563 -0.4298 -0.6581 -0.6838
  422TMC3    C8 6357   1.694   1.854  12.718 -0.6699 -0.0497 -0.0022
  422TMC3    O1 6358   1.293   1.581  12.530 -0.0092 -0.5968  0.1786
  422TMC3    O2 6359   1.786   1.858  12.800  0.4148 -0.0312  0.1712
  423MPD2     C 6360   2.780   2.183   0.607  0.3666 -0.6558  0.5522
  423MPD2    C1 6361   2.891   2.104   0.642 -0.2009  0.0476  0.5387
  423MPD2    C2 6362   2.973   2.064   0.541 -0.0702  0.1814 -0.0046
  423MPD2    C3 6363   2.948   2.097   0.408  0.2930 -0.0690 -0.9171
  423MPD2    C4 6364   2.839   2.170   0.376 -1.7661  0.7593  0.4649
  423MPD2    C5 6365   2.764   2.221   0.476  0.2721 -0.0437 -0.1411
  423MPD2     H 6366   3.059   2.003   0.567 -0.0701  0.3002  0.2763
  423MPD2    H1 6367   2.812   2.198   0.275 -1.4223 -0.3635  0.0570
  423MPD2    H2 6368   2.710   2.213   0.684  0.8349  0.0676  0.7005
  423MPD2    H3 6369   2.678   2.282   0.449 -0.7020 -0.6174  1.6572
  423MPD2     N 6370   3.014   2.035   0.302  0.2549 -0.2706  0.2537
  423MPD2    H5 6371   2.995   2.066   0.207 -0.8512 -1.4819  0.0859
  423MPD2    N1 6372   2.923   2.072   0.773 -0.2126  0.2084 -0.1360
  423MPD2    H7 6373   3.004   2.013   0.790 -0.6889 -0.3131  0.3193
  424TMC3    C1 6374   2.949   2.113   1.008 -0.1149  0.0645 -0.3184
  424TMC3    C2 6375   3.015   1.999   1.028  0.0371 -0.0725  0.7110
  424TMC3    C3 6376   3.056   1.972   1.157 -0.4877 -0.4466 -0.0798
  424TMC3    C4 6377   2.912   2.196   1.113 -0.4764 -0.2771  0.0404
  424TMC3    C5 6378   2.951   2.156   1.241 -0.5049  0.4139  0.1315
  424TMC3    C6 6379   3.022   2.043   1.267 -0.1565 -0.3480 -0.7139
  424TMC3     C 6380   2.874   2.130   0.886 -0.2135  0.6916  0.3509
  424TMC3     O 6381   2.788   2.215   0.899 -0.1579  0.5077  0.5039
  424TMC3     H 6382   3.031   1.925   0.950  1.2368  1.0680 -0.1345
  424TMC3    H1 6383   2.859   2.288   1.089  2.2734  0.9838 -1.1475
  424TMC3    H2 6384   3.046   2.011   1.368  0.5906  0.1238 -0.7412
  424TMC3    C7 6385   2.890   2.211   1.356 -0.1828  0.0891  0.0192
  424TMC3    C8 6386   3.147   1.861   1.184  0.7525 -0.2256 -0.4631
  424TMC3    O1 6387   2.946   2.199   1.467  0.0368  0.8817  0.3277
  424TMC3    O2 6388   3.172   1.776   1.101  0.3591 -0.0684  0.1067
  425MPD2     C 6389   2.358   1.629  17.160  0.0253 -0.0711 -0.5009
  425MPD2    C1 6390   2.265   1.540  17.205 -0.6205 -0.0093 -0.8096
  425MPD2    C2 6391   2.148   1.586  17.261 -0.1955  0.4817  0.7655
  425MPD2    C3 6392   2.130   1.723  17.277  0.2394 -0.0818 -0.3858
  425MPD2    C4 6393   2.220   1.816  17.232 -0.2380 -0.0202  0.1646
  425MPD2    C5 6394   2.334   1.764  17.172 -0.5980 -0.2862  0.2566
  425MPD2     H 6395   2.075   1.516  17.301 -0.0317  0.5792  1.2406
  425MPD2    H1 6396   2.205   1.923  17.241 -0.6486 -0.0072 -0.7388
  425MPD2    H2 6397   2.455   1.601  17.121 -0.1598  0.6193 -1.4477
  425MPD2    H3 6398   2.413   1.830  17.137  0.4179 -0.9340  1.3516
  425MPD2     N 6399   2.010   1.749  17.337 -0.2896 -0.7088 -0.0973
  425MPD2    H5 6400   1.951   1.670  17.360  2.2624 -2.4346  0.5112
  425MPD2    N1 6401   2.284   1.402  17.186  0.6710 -0.3041 -0.0107
  425MPD2    H7 6402   2.370   1.371  17.141  1.8129  0.7302  1.4401
  426TMC3    C1 6403   2.249   1.172  17.172  0.1632  1.0888 -0.6911
  426TMC3    C2 6404   2.300   1.177  17.046 -0.1172  0.6827 -0.5135
  426TMC3    C3 6405   2.347   1.058  16.987 -0.0104  0.7542 -0.0071
  426TMC3    C4 6406   2.234   1.053  17.241  1.0366  0.0771  0.1430
  426TMC3    C5 6407   2.279   0.934  17.179  0.5546  0.9995 -0.3263
  426TMC3    C6 6408   2.337   0.936  17.053 -0.3045  0.6706  0.4267
  426TMC3     C 6409   2.211   1.298  17.235  0.1884 -0.2155  0.0633
  426TMC3     O 6410   2.121   1.295  17.320  0.3951 -0.9422  0.4476
  426TMC3     H 6411   2.314   1.268  16.989  2.6721  0.0424 -0.8530
  426TMC3    H1 6412   2.228   1.058  17.350 -0.9667 -3.3477  0.1816
  426TMC3    H2 6413   2.369   0.843  17.009 -0.7291  1.6869 -2.0781
  426TMC3    C7 6414   2.271   0.813  17.250  0.2399 -0.4160  0.4058
  426TMC3    C8 6415   2.400   1.066  16.849 -0.3434 -0.3978  0.3637
  426TMC3    O1 6416   2.329   0.716  17.204 -0.4572  0.0648  0.2710
  426TMC3    O2 6417   2.474   0.970  16.828  0.1840 -0.0661 -0.2641
  427MPD2     C 6418   0.479   2.978  15.081  0.2625  0.1157  0.2117
  427MPD2    C1 6419   0.553   3.049  15.179  0.2051  0.2271 -0.2900
  427MPD2    C2 6420   0.517   3.183  15.208  0.2051  0.6193 -0.0584
  427MPD2    C3 6421   0.411   3.237  15.138  0.1131 -0.0548  1.0694
  427MPD2    C4 6422   0.346   3.167  15.030 -0.5582  0.0044  0.8796
  427MPD2    C5 6423   0.380   3.037  15.011  0.2764 -0.0327  0.2376
  427MPD2     H 6424   0.564   3.243  15.284 -0.8647  0.5479  0.6621
  427MPD2    H1 6425   0.266   3.212  14.973 -0.4145 -0.6188  0.1813
  427MPD2    H2 6426   0.494   2.872  15.068 -0.4832  0.1336 -0.7622
  427MPD2    H3 6427   0.329   2.980  14.934 -1.3780  0.7563  0.7362
  427MPD2     N 6428   0.370   3.367  15.177 -0.2432 -0.6721 -0.0901
  427MPD2    H5 6429   0.398   3.396  15.270 -0.4568  2.1260 -0.8909
  427MPD2    N1 6430   0.673   2.992  15.237 -0.6321 -0.2089  0.2774
  427MPD2    H7 6431   0.719   3.047  15.309  0.6127 -1.2319  0.2494
  428TMC3    C1 6432   0.867   2.847  15.261  0.0160  0.1544 -0.3703
  428TMC3    C2 6433   0.896   2.722  15.299 -0.1405 -0.1300  0.0647
  428TMC3    C3 6434   1.012   2.708  15.364  0.1203  0.3870 -0.6562
  428TMC3    C4 6435   0.945   2.953  15.281 -0.4780  0.4391 -0.1285
  428TMC3    C5 6436   1.058   2.936  15.359  0.0828 -0.4872  0.1057
  428TMC3    C6 6437   1.096   2.814  15.397 -0.2773  0.2726  0.0233
  428TMC3     C 6438   0.731   2.867  15.208 -0.1555  0.2442  0.0363
  428TMC3     O 6439   0.681   2.768  15.159 -0.1549  0.5929  0.7550
  428TMC3     H 6440   0.833   2.641  15.265  1.4743 -1.1605 -0.4194
  428TMC3    H1 6441   0.924   3.053  15.244 -0.8654  1.6301  3.2654
  428TMC3    H2 6442   1.188   2.804  15.454  0.8924 -1.8279 -2.2044
  428TMC3    C7 6443   1.163   3.032  15.372 -0.4248  0.2971  0.5683
  428TMC3    C8 6444   1.040   2.571  15.401 -1.0504 -0.3162 -0.6527
  428TMC3    O1 6445   1.187   3.042  15.492  0.5722 -0.1344 -0.3666
  428TMC3    O2 6446   0.994   2.477  15.334 -1.1065 -0.5644  0.1827
  429MPD2     C 6447   1.782   3.541  17.248  0.4189 -0.7077 -0.0857
  429MPD2    C1 6448   1.891   3.521  17.161 -0.4105  0.3828  0.6282
  429MPD2    C2 6449   1.921   3.609  17.066  0.1184 -0.3699  0.7044
  429MPD2    C3 6450   1.834   3.717  17.039 -0.0720  0.4252 -0.0222
  429MPD2    C4 6451   1.724   3.740  17.124  0.4951  0.0646  0.0053
  429MPD2    C5 6452   1.699   3.654  17.227  0.8812 -0.0745  0.1739
  429MPD2     H 6453   2.001   3.588  16.996 -0.5534  0.7090 -0.3912
  429MPD2    H1 6454   1.660   3.828  17.118 -0.4569 -0.4664  2.4713
  429MPD2    H2 6455   1.776   3.489  17.342  1.4227 -1.4727 -0.4486
  429MPD2    H3 6456   1.624   3.681  17.300  2.6445  2.0770  1.1710
  429MPD2     N 6457   1.870   3.813  16.941  0.3916 -0.2332  0.8307
  429MPD2    H5 6458   1.958   3.784  16.900  1.0275  2.4031  0.3321
  429MPD2    N1 6459   1.972   3.399  17.157  0.3230  0.1037  0.4479
  429MPD2    H7 6460   2.046   3.407  17.089  0.9025  2.3680  1.3719
  430TMC3    C1 6461   1.879   3.993  16.793  0.1058  0.3037  0.9257
  430TMC3    C2 6462   1.808   4.077  16.706 -0.1327  0.4763 -0.2597
  430TMC3    C3 6463   1.891   4.151  16.620 -0.0272  0.2388 -0.5198
  430TMC3    C4 6464   2.016   3.975  16.787  0.0642 -0.5879  0.1647
  430TMC3    C5 6465   2.088   4.046  16.689 -0.5801  0.1362  0.8093
  430TMC3    C6 6466   2.025   4.129  16.603  0.0605  0.4069  0.1480
  430TMC3     C 6467   1.806   3.932  16.906  0.4023  0.8340 -0.4714
  430TMC3     O 6468   1.692   3.961  16.935 -0.2929 -0.2020 -0.3321
  430TMC3     H 6469   1.700   4.069  16.705 -0.1356  0.0933  2.7115
  430TMC3    H1 6470   2.071   3.916  16.860 -2.3525  0.9857  3.2830
  430TMC3    H2 6471   2.073   4.152  16.508  0.0645  0.7922  0.2428
  430TMC3    C7 6472   2.202   3.969  16.648 -0.3131 -0.8252  0.3289
  430TMC3    C8 6473   1.837   4.171  16.490  0.6055  0.2607  0.1816
  430TMC3    O1 6474   2.214   3.857  16.699  0.4513 -0.3923 -0.7579
  430TMC3    O2 6475   1.744   4.093  16.461  0.3919 -0.3907  0.3116
  431MPD2     C 6476   2.453   3.764  12.541 -0.7927  0.1046  0.7985
  431MPD2    C1 6477   2.544   3.669  12.503 -0.1369 -0.6603 -0.2658
  431MPD2    C2 6478   2.504   3.549  12.444  0.0160 -0.0684 -0.2573
  431MPD2    C3 6479   2.370   3.523  12.447 -0.2886 -0.0797  0.1550
  431MPD2    C4 6480   2.276   3.614  12.482  0.3396 -0.4089  0.4995
  431MPD2    C5 6481   2.322   3.732  12.532  0.4875 -0.3447  0.6724
  431MPD2     H 6482   2.580   3.479  12.409 -0.0130  0.8014 -2.0484
  431MPD2    H1 6483   2.171   3.587  12.474 -0.2477  1.8343  0.6813
  431MPD2    H2 6484   2.481   3.863  12.576 -0.2224  0.2100  0.0554
  431MPD2    H3 6485   2.251   3.811  12.556 -1.6675 -2.3260  0.7460
  431MPD2     N 6486   2.328   3.390  12.422 -0.0947  0.0263  0.7112
  431MPD2    H5 6487   2.239   3.357  12.459  0.4259  0.4593  2.3317
  431MPD2    N1 6488   2.680   3.678  12.532 -0.4716 -0.4676  0.5417
  431MPD2    H7 6489   2.732   3.591  12.526  0.1854  0.0637 -1.2031
  432TMC3    C1 6490   2.353   3.161  12.386  0.4346  0.2459  0.4912
  432TMC3    C2 6491   2.392   3.060  12.295  0.3345 -0.4630  0.8444
  432TMC3    C3 6492   2.378   2.931  12.337  0.1201  0.2224 -0.6907
  432TMC3    C4 6493   2.284   3.137  12.504 -0.4258 -0.2122  0.1109
  432TMC3    C5 6494   2.273   3.002  12.535  0.5022  1.0005 -0.2924
  432TMC3    C6 6495   2.313   2.902  12.460 -0.3321 -0.2630  0.9341
  432TMC3     C 6496   2.404   3.292  12.361  0.1123  0.2317  0.1018
  432TMC3     O 6497   2.501   3.310  12.288  0.6433  0.5511 -0.7493
  432TMC3     H 6498   2.441   3.081  12.201  1.3978 -2.0632  1.0229
  432TMC3    H1 6499   2.240   3.215  12.565  1.1384 -0.4851  1.5648
  432TMC3    H2 6500   2.292   2.799  12.487 -0.6711 -0.6307 -0.7115
  432TMC3    C7 6501   2.305   2.973  12.674  0.6646 -0.6767 -0.1900
  432TMC3    C8 6502   2.455   2.828  12.266  1.0708  0.3968  0.3641
  432TMC3    O1 6503   2.366   2.871  12.685 -0.0058 -0.2090 -0.4838
  432TMC3    O2 6504   2.418   2.712  12.288  0.3987  0.0241 -0.2043
  433MPD2     C 6505   1.422   2.036  10.897 -0.2297 -0.5388 -0.5923
  433MPD2    C1 6506   1.561   2.006  10.906 -0.0580 -0.3646 -0.2592
  433MPD2    C2 6507   1.641   2.073  11.002  0.2153  0.1750 -0.2604
  433MPD2    C3 6508   1.578   2.143  11.104 -0.1134 -0.6262  0.2226
  433MPD2    C4 6509   1.445   2.176  11.090  0.2493 -0.9305 -0.1939
  433MPD2    C5 6510   1.372   2.121  10.991 -0.7426  0.4024  0.8029
  433MPD2     H 6511   1.748   2.052  11.003  0.2351  0.2682 -0.3304
  433MPD2    H1 6512   1.396   2.249  11.153  2.9066 -0.1154  0.9695
  433MPD2    H2 6513   1.362   1.996  10.817 -0.3280 -0.0936 -0.7414
  433MPD2    H3 6514   1.268   2.150  10.985 -0.4960  1.1712  0.3181
  433MPD2     N 6515   1.655   2.189  11.207  0.3989  0.3041 -0.1188
  433MPD2    H5 6516   1.750   2.161  11.226  0.0081 -2.1291 -1.8048
  433MPD2    N1 6517   1.630   1.921  10.818 -0.1214  0.7069 -0.2341
  433MPD2    H7 6518   1.725   1.898  10.844  0.1351  0.3303 -1.5175
  434TMC3    C1 6519   1.666   1.762  10.670 -0.0098 -0.6176  0.0465
  434TMC3    C2 6520   1.711   1.671  10.760  0.5631  0.7363 -0.1795
  434TMC3    C3 6521   1.826   1.612  10.722 -0.3025 -1.4032  0.2228
  434TMC3    C4 6522   1.708   1.775  10.543  0.2852 -0.3785  0.3827
  434TMC3    C5 6523   1.823   1.711  10.513  1.1457  0.5319 -0.0958
  434TMC3    C6 6524   1.879   1.629  10.598  0.2251 -0.0392  0.6951
  434TMC3     C 6525   1.577   1.860  10.715  0.6246  0.9874 -0.2184
  434TMC3     O 6526   1.472   1.870  10.654 -0.0644  0.2017  0.0569
  434TMC3     H 6527   1.674   1.660  10.861 -0.7159 -0.7856 -0.8076
  434TMC3    H1 6528   1.668   1.857  10.484  1.7150 -0.5837 -0.8573
  434TMC3    H2 6529   1.970   1.582  10.563 -1.1478 -2.8858  0.9351
  434TMC3    C7 6530   1.815   1.674  10.379  0.3877  0.4011 -0.3033
  434TMC3    C8 6531   1.891   1.522  10.819 -0.5914  0.8425 -0.0897
  434TMC3    O1 6532   1.902   1.712  10.303 -0.2034 -0.2974 -0.8797
  434TMC3    O2 6533   1.824   1.499  10.915 -0.0399  0.1786 -0.6974
  435MPD2     C 6534   3.796   2.224  15.313  0.1232  0.1717 -0.6680
  435MPD2    C1 6535   3.750   2.256  15.438 -0.0283  0.1583 -0.2712
  435MPD2    C2 6536   3.840   2.242  15.542 -0.0120 -0.3013  0.8634
  435MPD2    C3 6537   3.964   2.192  15.533 -0.3328  0.7733 -0.1393
  435MPD2    C4 6538   4.012   2.167  15.406 -0.1888 -0.2252 -0.2050
  435MPD2    C5 6539   3.920   2.171  15.302 -0.7716 -0.5400  0.0938
  435MPD2     H 6540   3.807   2.262  15.644  1.6607  0.9912  1.1547
  435MPD2    H1 6541   4.111   2.129  15.386 -1.3322 -2.7758 -0.9847
  435MPD2    H2 6542   3.736   2.217  15.223 -0.0709  0.9195 -0.5909
  435MPD2    H3 6543   3.937   2.134  15.201  0.4174 -3.4518  1.3550
  435MPD2     N 6544   4.042   2.176  15.654 -0.8274 -0.0141 -0.1769
  435MPD2    H5 6545   4.002   2.219  15.737 -0.0948 -2.3831  1.3940
  435MPD2    N1 6546   3.623   2.310  15.464  0.9618 -0.3037  0.0310
  435MPD2    H7 6547   3.598   2.330  15.560  0.4048  0.2960 -0.2383
  436TMC3    C1 6548   3.294   2.490  15.597  0.6629 -0.2571  0.7384
  436TMC3    C2 6549   3.413   2.453  15.541 -0.1397 -0.6370 -0.2582
  436TMC3    C3 6550   3.415   2.399  15.418  0.0401 -0.6004  0.0105
  436TMC3    C4 6551   3.173   2.464  15.540  0.2770 -0.5190 -0.5159
  436TMC3    C5 6552   3.179   2.407  15.422 -0.4795 -0.5273 -0.2048
  436TMC3    C6 6553   3.297   2.367  15.358  0.5277  0.1289  0.2056
  436TMC3     C 6554   3.305   2.512  15.744  0.2529  0.6242  0.4482
  436TMC3     O 6555   3.417   2.522  15.792 -0.4072  0.4962  0.3285
  436TMC3     H 6556   3.508   2.491  15.577 -0.9754  0.1893  1.0522
  436TMC3    H1 6557   3.082   2.510  15.576 -0.3102 -2.4042  0.4414
  436TMC3    H2 6558   3.300   2.307  15.268 -0.0011  1.8163 -0.9563
  436TMC3    C7 6559   3.057   2.391  15.348  0.2238  0.8697  0.1454
  436TMC3    C8 6560   3.529   2.328  15.363  0.1566 -0.3674  0.2961
  436TMC3    O1 6561   3.072   2.371  15.226 -0.0498 -0.4221  0.7653
  436TMC3    O2 6562   3.532   2.307  15.239  0.3274  0.4702  0.3149
  437TMC3    C1 6563   2.949   3.466  12.056  0.1145 -0.1797  0.4663
  437TMC3    C2 6564   2.828   3.507  12.116 -0.0316  0.8029 -0.5970
  437TMC3    C3 6565   2.820   3.641  12.128 -0.1037 -0.3985 -0.5786
  437TMC3    C4 6566   3.049   3.548  12.020 -0.8079  0.2716  0.1487
  437TMC3    C5 6567   3.045   3.681  12.046  0.9014 -0.5714 -0.1203
  437TMC3    C6 6568   2.925   3.727  12.098  0.3502 -0.5862  0.3586
  437TMC3     C 6569   2.950   3.328  12.013  0.1605  0.2791 -0.1821
  437TMC3     O 6570   2.861   3.260  12.061  0.1057 -0.6397 -0.3381
  437TMC3     H 6571   2.749   3.441  12.147  0.1389  0.7048 -0.3767
  437TMC3    H1 6572   3.147   3.504  12.007  0.2952  2.3295  1.4314
  437TMC3    H2 6573   2.908   3.834  12.100 -2.0757 -0.9692 -0.1177
  437TMC3    C7 6574   3.169   3.750  12.065 -0.6572  0.3672  0.2853
  437TMC3    C8 6575   2.686   3.680  12.140  0.6685  0.2938 -0.8550
  437TMC3    O1 6576   3.259   3.712  11.992  0.0759 -0.8416 -0.7111
  437TMC3    O2 6577   2.600   3.601  12.117 -0.6353  1.1393  0.0054
  438MPD2     C 6578   4.677   4.565  17.068  0.1713  0.1401 -0.3368
  438MPD2    C1 6579   0.027   4.488  17.136  0.8750 -0.5374  0.1321
  438MPD2    C2 6580   0.014   4.481  17.270 -0.8127  0.0113  0.0567
  438MPD2    C3 6581   4.652   4.536  17.342 -0.8560 -0.8983 -0.5198
  438MPD2    C4 6582   4.553   4.602  17.272 -0.4465 -0.0081  0.3575
  438MPD2    C5 6583   4.570   4.619  17.137  0.3905  0.2653 -0.4932
  438MPD2     H 6584   0.098   4.438  17.324 -0.6756 -2.4412 -2.0928
  438MPD2    H1 6585   4.465   4.642  17.320  1.1847  2.2376  1.4328
  438MPD2    H2 6586   4.673   4.555  16.960  1.8332  1.1913 -0.4938
  438MPD2    H3 6587   4.491   4.665  17.079 -1.1453 -1.9895 -0.2072
  438MPD2     N 6588   4.647   4.538  17.481  0.1368 -0.2829  0.0211
  438MPD2    H5 6589   4.585   4.605  17.526  2.3232  1.4694  0.4552
  438MPD2    N1 6590   0.138   4.425  17.080  0.2126 -0.9588 -0.0404
  438MPD2    H7 6591   0.202   4.387  17.149  0.1193  0.5378  0.8739
  439TMC3    C1 6592   0.296   4.371  16.927  0.3106  0.1144  0.0871
  439TMC3    C2 6593   0.320   4.308  16.806  0.4497  0.3128  0.0662
  439TMC3    C3 6594   0.447   4.266  16.782  0.0690 -0.5333  0.4379
  439TMC3    C4 6595   0.387   4.391  17.024 -0.4348  0.8899  0.6517
  439TMC3    C5 6596   0.513   4.334  17.000  0.1646  0.6246 -0.1282
  439TMC3    C6 6597   0.546   4.283  16.879  0.6335  0.4891  0.5327
  439TMC3     C 6598   0.163   4.413  16.950  0.0365  0.1453  0.2560
  439TMC3     O 6599   0.099   4.439  16.853  0.1471  0.2997  0.3875
  439TMC3     H 6600   0.239   4.291  16.736  0.3284 -0.7384  0.4553
  439TMC3    H1 6601   0.376   4.457  17.108 -0.8935  2.0122 -0.2852
  439TMC3    H2 6602   0.642   4.234  16.861 -0.3878 -0.1180 -3.2447
  439TMC3    C7 6603   0.620   4.409  17.056 -0.5431 -0.4433 -0.5708
  439TMC3    C8 6604   0.467   4.153  16.690  0.0712  0.5333 -0.9263
  439TMC3    O1 6605   0.627   4.424  17.177 -0.0562 -0.1525  0.2079
  439TMC3    O2 6606   0.559   4.078  16.705 -0.5687 -0.2666 -0.0963
  440MPD2     C 6607   3.722   0.976  14.776 -0.0317  0.4531 -0.4181
  440MPD2    C1 6608   3.735   1.087  14.858  0.4721  0.6589  0.4704
  440MPD2    C2 6609   3.860   1.102  14.911  0.1376  0.2276  0.0311
  440MPD2    C3 6610   3.965   1.011  14.887  0.1094 -0.4732  0.4863
  440MPD2    C4 6611   3.948   0.908  14.795 -0.2821  0.3496  0.6192
  440MPD2    C5 6612   3.822   0.886  14.746 -0.1101 -0.1817 -0.1831
  440MPD2     H 6613   3.874   1.184  14.979  0.0911 -0.5544  0.9850
  440MPD2    H1 6614   4.027   0.835  14.781  0.5272  1.7085 -1.8961
  440MPD2    H2 6615   3.626   0.938  14.741  0.8994  0.0841 -2.5650
  440MPD2    H3 6616   3.806   0.815  14.665  1.9190 -1.1500  0.2723
  440MPD2     N 6617   4.086   1.011  14.955  0.6146 -0.0651  0.0030
  440MPD2    H5 6618   4.153   0.938  14.933  0.6195  0.2740 -1.1082
  440MPD2    N1 6619   3.633   1.178  14.886 -0.0589  0.0462 -0.2988
  440MPD2    H7 6620   3.661   1.246  14.957 -0.1220 -2.8004  2.4432
  441TMC3    C1 6621   4.237   1.087  15.126  0.1995  0.1488  0.2527
  441TMC3    C2 6622   4.275   1.196  15.196 -0.3102 -0.5830 -0.1847
  441TMC3    C3 6623   4.344   1.192  15.312  0.7343  0.0671 -0.0964
  441TMC3    C4 6624   4.259   0.961  15.180  0.4448  0.0457  0.4002
  441TMC3    C5 6625   4.307   0.953  15.309 -0.1686  0.8177 -0.6620
  441TMC3    C6 6626   4.360   1.068  15.367 -0.3381 -0.9253 -0.2417
  441TMC3     C 6627   4.118   1.112  15.048  0.5574 -0.9246 -0.1393
  441TMC3     O 6628   4.058   1.211  15.084  0.3304  0.0952  0.3872
  441TMC3     H 6629   4.268   1.290  15.141  1.8295  0.8636  1.9966
  441TMC3    H1 6630   4.199   0.879  15.142  3.0928 -0.7243 -2.0887
  441TMC3    H2 6631   4.407   1.068  15.464  0.6615  3.4242 -0.7338
  441TMC3    C7 6632   4.268   0.835  15.391 -0.4943  0.0498  0.1586
  441TMC3    C8 6633   4.333   1.299  15.410  0.4233  0.0289  0.2460
  441TMC3    O1 6634   4.208   0.740  15.340 -0.0301  0.4784  0.0217
  441TMC3    O2 6635   4.385   1.285  15.521 -0.4111 -0.4596  0.7575
  442MPD2     C 6636   1.683   1.281  16.372 -0.0342 -1.0688  0.0760
  442MPD2    C1 6637   1.678   1.201  16.482 -0.7388 -0.3969 -0.0288
  442MPD2    C2 6638   1.701   1.064  16.477  0.1976  0.5093  0.2464
  442MPD2    C3 6639   1.744   1.009  16.361  0.3873 -0.3829  0.1423
  442MPD2    C4 6640   1.763   1.098  16.257 -0.1208 -0.0255 -0.0504
  442MPD2    C5 6641   1.729   1.231  16.255  0.3467  0.1618 -0.6483
  442MPD2     H 6642   1.682   1.004  16.565  0.2654 -0.3299 -0.3038
  442MPD2    H1 6643   1.800   1.044  16.171 -0.3703 -0.6028  0.1994
  442MPD2    H2 6644   1.659   1.387  16.373  3.2843 -0.3027 -1.8568
  442MPD2    H3 6645   1.759   1.291  16.169 -2.1991  0.4411 -1.3417
  442MPD2     N 6646   1.757   0.874  16.331 -0.1298  0.7123  0.6636
  442MPD2    H5 6647   1.780   0.849  16.236  0.7138  0.6381  0.8894
  442MPD2    N1 6648   1.632   1.258  16.602 -0.4621 -0.0410  0.1169
  442MPD2    H7 6649   1.613   1.192  16.677 -2.3754 -1.3262 -1.5138
  443TMC3    C1 6650   1.557   1.413  16.762 -0.2849  0.0157  0.4331
  443TMC3    C2 6651   1.497   1.536  16.764 -0.2657  0.8065 -0.2121
  443TMC3    C3 6652   1.376   1.551  16.830  0.4673 -0.5043  0.3142
  443TMC3    C4 6653   1.500   1.313  16.836  0.6503 -0.1244  0.2549
  443TMC3    C5 6654   1.380   1.329  16.899  0.4564 -0.2770 -0.4160
  443TMC3    C6 6655   1.315   1.450  16.899  0.1550 -0.3151  0.2487
  443TMC3     C 6656   1.625   1.387  16.636 -0.2507 -0.6252 -0.0836
  443TMC3     O 6657   1.650   1.492  16.573 -0.5894 -0.2047 -0.6363
  443TMC3     H 6658   1.540   1.625  16.719  1.4512  0.1600  0.1589
  443TMC3    H1 6659   1.550   1.224  16.875 -0.4720 -0.8638  0.0029
  443TMC3    H2 6660   1.231   1.470  16.964 -1.5387 -0.6899 -1.7910
  443TMC3    C7 6661   1.356   1.253  17.014 -0.2343 -0.0670  0.0983
  443TMC3    C8 6662   1.301   1.674  16.825 -0.2887 -0.6678  0.1772
  443TMC3    O1 6663   1.367   1.131  16.999  0.1157 -0.1649 -0.0069
  443TMC3    O2 6664   1.265   1.732  16.929 -1.0454  0.1539  0.2706
  444MPD2     C 6665   2.114   0.771  16.887 -0.4499 -0.6762  0.2812
  444MPD2    C1 6666   2.088   0.657  16.975 -0.4658  0.0914  0.4940
  444MPD2    C2 6667   2.148   0.534  16.935  0.4033 -0.6544 -0.4273
  444MPD2    C3 6668   2.222   0.531  16.815 -0.2157 -0.0221  0.5549
  444MPD2    C4 6669   2.244   0.638  16.729  0.3034  0.3209  0.0970
  444MPD2    C5 6670   2.182   0.757  16.770 -0.0701  0.7224  0.6599
  444MPD2     H 6671   2.131   0.443  16.990  0.9817 -1.7230 -2.0218
  444MPD2    H1 6672   2.303   0.631  16.638 -0.6448 -0.3551 -0.4776
  444MPD2    H2 6673   2.060   0.863  16.905  0.0170 -0.6826  1.7377
  444MPD2    H3 6674   2.189   0.846  16.708  0.3153 -0.0098 -0.3325
  444MPD2     N 6675   2.283   0.412  16.785 -0.2999  0.3704 -0.3056
  444MPD2    H5 6676   2.274   0.340  16.856 -0.7457 -0.9601 -1.6956
  444MPD2    N1 6677   2.017   0.651  17.097 -0.9401  0.3279 -0.1024
  444MPD2    H7 6678   2.018   0.556  17.133  2.7477  1.4759  2.8653
  445TMC3    C1 6679   2.429   0.250  16.685 -0.2396 -0.0001 -0.1864
  445TMC3    C2 6680   2.434   0.188  16.804  0.0524  0.4747  1.1772
  445TMC3    C3 6681   2.511   0.079  16.821 -0.0977 -0.1995  0.5368
  445TMC3    C4 6682   2.501   0.199  16.580 -0.3628 -0.1577  0.5986
  445TMC3    C5 6683   2.568   0.088  16.598  0.2311 -0.2354  0.0501
  445TMC3    C6 6684   2.591   0.036  16.721  0.1226  0.0812 -0.3605
  445TMC3     C 6685   2.367   0.382  16.676 -0.2303 -0.0977 -0.8479
  445TMC3     O 6686   2.389   0.442  16.568  0.1519 -0.3554  0.6126
  445TMC3     H 6687   2.365   0.222  16.881  0.2483 -0.7343  1.8997
  445TMC3    H1 6688   2.496   0.243  16.481  2.5691 -1.4582 -0.1331
  445TMC3    H2 6689   2.634   4.673  16.724 -0.3714 -0.1043  0.6699
  445TMC3    C7 6690   2.665   0.040  16.496  0.3598  1.0698  0.3025
  445TMC3    C8 6691   2.483   4.722  16.931 -0.6282  0.2209  0.1851
  445TMC3    O1 6692   2.719   0.123  16.424 -0.1130  0.0123 -0.0025
  445TMC3    O2 6693   2.573   4.644  16.946 -0.0950 -0.2599 -0.3339
  446MPD2     C 6694   1.464   1.269  11.133  0.2204  0.4168 -0.2762
  446MPD2    C1 6695   1.414   1.398  11.114 -0.6853  0.3765  0.0543
  446MPD2    C2 6696   1.496   1.505  11.153  0.3067  0.8466  0.4174
  446MPD2    C3 6697   1.617   1.483  11.208  0.1995 -0.3353  0.5501
  446MPD2    C4 6698   1.660   1.356  11.231  0.3801  0.2551  0.0368
  446MPD2    C5 6699   1.582   1.250  11.199  0.4523 -0.1425  0.2976
  446MPD2     H 6700   1.459   1.606  11.140  0.3486  0.8552  0.3662
  446MPD2    H1 6701   1.755   1.345  11.282  0.5140  1.9380  0.1446
  446MPD2    H2 6702   1.400   1.183  11.115  1.4884 -0.9464  1.7069
  446MPD2    H3 6703   1.617   1.149  11.214 -2.0390 -1.0017  0.3367
  446MPD2     N 6704   1.698   1.598  11.230  0.1195  0.5042 -0.3389
  446MPD2    H5 6705   1.660   1.688  11.204 -2.7960 -0.6528 -0.1112
  446MPD2    N1 6706   1.284   1.418  11.066  0.3052  0.3127 -0.3573
  446MPD2    H7 6707   1.240   1.509  11.073 -1.5158 -0.6024  0.3766
  447TMC3    C1 6708   1.898   1.716  11.269  0.0838 -0.2521  0.0196
  447TMC3    C2 6709   1.899   1.768  11.140  0.2715  0.2266  0.0374
  447TMC3    C3 6710   2.017   1.818  11.087 -0.0124  0.1327  0.2859
  447TMC3    C4 6711   2.009   1.705  11.345 -0.2499  0.4805 -0.4585
  447TMC3    C5 6712   2.127   1.742  11.285 -0.0019 -0.0136  0.3491
  447TMC3    C6 6713   2.138   1.797  11.157 -0.2837  0.5259  0.0556
  447TMC3     C 6714   1.827   1.599  11.284 -0.5680  0.2134 -0.6049
  447TMC3     O 6715   1.892   1.504  11.333 -0.1822 -0.0582 -0.2716
  447TMC3     H 6716   1.806   1.758  11.085  0.6732 -0.5479 -0.4890
  447TMC3    H1 6717   2.009   1.667  11.446 -3.0110  1.3789 -0.1195
  447TMC3    H2 6718   2.231   1.835  11.117 -1.0780  1.3347 -1.0329
  447TMC3    C7 6719   2.257   1.716  11.348  0.0209 -0.1563  0.0651
  447TMC3    C8 6720   2.009   1.859  10.949 -0.4686 -0.5061 -0.1898
  447TMC3    O1 6721   2.354   1.707  11.273 -0.1435 -0.1176 -0.1376
  447TMC3    O2 6722   1.897   1.878  10.909  0.0082  0.1223 -0.0606
  448TMC3    C1 6723   1.002   1.367  17.244 -0.8373 -0.2623 -0.6508
  448TMC3    C2 6724   0.980   1.242  17.200  0.2276  0.3109 -0.0896
  448TMC3    C3 6725   0.940   1.152  17.304 -0.7375  0.0258 -0.2896
  448TMC3    C4 6726   0.993   1.411  17.376  0.3865 -0.6916  0.4926
  448TMC3    C5 6727   0.953   1.317  17.468  0.3407  0.5324  0.0876
  448TMC3    C6 6728   0.917   1.191  17.436  0.5207 -0.2840 -0.2511
  448TMC3     C 6729   1.023   1.469  17.143 -0.2530 -0.3758 -0.2983
  448TMC3     O 6730   1.056   1.582  17.180  0.2747 -0.6605  0.4971
  448TMC3     H 6731   1.013   1.204  17.104 -1.5921  0.7338 -0.8950
  448TMC3    H1 6732   1.018   1.516  17.392 -0.8141 -0.2953 -0.2301
  448TMC3    H2 6733   0.888   1.115  17.508  2.5145  0.3258  1.1878
  448TMC3    C7 6734   0.922   1.366  17.601 -0.0650  0.4885  0.3344
  448TMC3    C8 6735   0.887   1.023  17.269  0.3624  0.2411  0.2269
  448TMC3    O1 6736   0.918   1.487  17.618  0.1308 -0.0625 -0.0688
  448TMC3    O2 6737   0.851   0.954  17.364 -0.2844  0.2567  0.0268
  449MPD2     C 6738   1.412   0.219  14.608  0.1832  0.1617 -0.2008
  449MPD2    C1 6739   1.305   0.137  14.590  0.0461  0.0697  0.0951
  449MPD2    C2 6740   1.255   0.064  14.702 -0.1825  0.3381 -0.3484
  449MPD2    C3 6741   1.319   0.063  14.822  0.6007 -0.0078  0.0677
  449MPD2    C4 6742   1.439   0.129  14.833  0.7596  0.1459 -0.0497
  449MPD2    C5 6743   1.465   0.222  14.734  0.4496 -0.1147 -0.6650
  449MPD2     H 6744   1.174   4.731  14.685  0.7257 -0.8949  0.3367
  449MPD2    H1 6745   1.501   0.124  14.921 -2.0691 -2.2328  1.7598
  449MPD2    H2 6746   1.440   0.291  14.532  0.3890 -0.4703 -0.7299
  449MPD2    H3 6747   1.543   0.294  14.754 -0.0648  0.4411 -0.6376
  449MPD2     N 6748   1.271   4.708  14.913  0.5138  0.0041 -0.6651
  449MPD2    H5 6749   1.194   4.651  14.877 -0.5500  0.8239  0.2941
  449MPD2    N1 6750   1.219   0.143  14.474  0.3939 -0.3469  0.2884
  449MPD2    H7 6751   1.130   0.096  14.487 -0.1236  0.0284 -1.9609
  450TMC3    C1 6752   1.128   0.169  14.275 -0.2774 -0.5003 -0.2282
  450TMC3    C2 6753   1.157   0.080  14.176 -0.4882 -1.0651 -0.4955
  450TMC3    C3 6754   1.065   4.715  14.144 -0.3754 -0.0035  0.1870
  450TMC3    C4 6755   1.017   0.145  14.346 -0.2120 -0.3637  0.2670
  450TMC3    C5 6756   0.941   0.035  14.324  0.8504  0.4039  0.6372
  450TMC3    C6 6757   0.952   4.690  14.214  0.8158 -0.1359  0.2536
  450TMC3     C 6758   1.249   0.193  14.349 -0.0212  0.0081 -0.5799
  450TMC3     O 6759   1.357   0.224  14.293 -0.2579 -0.0171 -0.8370
  450TMC3     H 6760   1.244   0.100  14.114  0.9014  1.0542  2.0745
  450TMC3    H1 6761   0.996   0.201  14.437  1.0873 -1.2246  1.1040
  450TMC3    H2 6762   0.870   4.624  14.187  0.1160  1.0897 -0.6070
  450TMC3    C7 6763   0.929   4.700  14.451  0.0767  0.6174  0.6816
  450TMC3    C8 6764   1.073   4.661  14.005 -0.3888  0.4990  0.1151
  450TMC3    O1 6765   0.998   0.006  14.543 -0.5756 -0.3902  0.2383
  450TMC3    O2 6766   0.970   4.602  13.973 -0.5586 -0.6491  0.4829
  451MPD2     C 6767   2.624   3.190   1.009  1.1619 -0.1084 -0.2499
  451MPD2    C1 6768   2.714   3.283   0.959  0.5207  0.3115 -0.1357
  451MPD2    C2 6769   2.826   3.242   0.883 -0.6240 -0.4773 -0.7955
  451MPD2    C3 6770   2.853   3.111   0.860 -0.8455 -0.1199  0.0138
  451MPD2    C4 6771   2.755   3.021   0.904 -0.4900  0.0322  0.3020
  451MPD2    C5 6772   2.645   3.059   0.984 -0.4281 -0.1916  0.5240
  451MPD2     H 6773   2.889   3.317   0.835  0.3836 -1.9640 -1.7992
  451MPD2    H1 6774   2.753   2.916   0.876  0.7273 -0.4316  1.9423
  451MPD2    H2 6775   2.543   3.225   1.073 -0.2379  0.3828 -2.2561
  451MPD2    H3 6776   2.576   2.981   1.013 -1.8304  0.8251 -0.0907
  451MPD2     N 6777   2.942   3.069   0.757 -0.3680  0.6540  0.8498
  451MPD2    H5 6778   2.931   2.979   0.711  2.5509  0.3081  0.8195
  451MPD2    N1 6779   2.677   3.419   0.978 -0.1050 -0.0187 -0.0818
  451MPD2    H7 6780   2.595   3.430   1.037  0.3362  2.4945  0.0556
  452TMC3    C1 6781   3.097   3.114   0.569  0.4162 -0.2712 -0.0138
  452TMC3    C2 6782   3.026   3.029   0.491 -0.2160  0.1689 -0.1221
  452TMC3    C3 6783   3.055   3.018   0.360 -0.4089 -0.8867  0.4458
  452TMC3    C4 6784   3.195   3.199   0.514  1.4730  0.0288  0.0558
  452TMC3    C5 6785   3.215   3.190   0.375  0.4522 -0.0243 -0.9144
  452TMC3    C6 6786   3.150   3.091   0.309 -0.1052  0.6326 -0.3861
  452TMC3     C 6787   3.034   3.162   0.694  0.1645 -0.4795  0.0623
  452TMC3     O 6788   3.082   3.265   0.739 -0.2506  0.9220 -0.0177
  452TMC3     H 6789   2.937   2.983   0.532 -0.0326  0.5288  0.6776
  452TMC3    H1 6790   3.255   3.269   0.571  4.5377 -1.9781 -0.6883
  452TMC3    H2 6791   3.165   3.093   0.201 -0.4963 -0.2520 -0.4551
  452TMC3    C7 6792   3.304   3.281   0.301 -0.0066  0.2816 -0.0956
  452TMC3    C8 6793   2.975   2.922   0.287 -0.1410 -0.3250  0.6643
  452TMC3    O1 6794   3.339   3.263   0.185  0.0268 -0.0488 -0.8152
  452TMC3    O2 6795   2.905   2.845   0.353 -0.0234  0.4165  0.3206
  453TMC3    C1 6796   3.689   0.788  11.787  0.1946  0.4430  0.2334
  453TMC3    C2 6797   3.625   0.664  11.790  0.1706  0.4980 -0.7290
  453TMC3    C3 6798   3.612   0.598  11.671 -0.3001  0.2488 -0.1875
  453TMC3    C4 6799   3.738   0.843  11.666 -0.5674 -0.1814 -0.3248
  453TMC3    C5 6800   3.727   0.768  11.547  0.0845 -0.5657  1.2716
  453TMC3    C6 6801   3.664   0.647  11.551 -0.5324 -0.2380 -0.2967
  453TMC3     C 6802   3.742   0.850  11.909 -0.3238  0.5635 -0.5953
  453TMC3     O 6803   3.759   0.971  11.908 -0.7585 -0.6242 -0.3997
  453TMC3     H 6804   3.577   0.632  11.882 -0.9251 -1.3779 -1.9430
  453TMC3    H1 6805   3.788   0.939  11.668  0.1765 -0.5757  0.1241
  453TMC3    H2 6806   3.661   0.588  11.460 -0.5922  0.9462 -1.0579
  453TMC3    C7 6807   3.812   0.787  11.433  0.4832  0.6290 -0.4905
  453TMC3    C8 6808   3.536   0.475  11.667 -0.2250  0.2412  0.1698
  453TMC3    O1 6809   3.791   0.717  11.331  0.1128  0.1763  0.0897
  453TMC3    O2 6810   3.499   0.442  11.554 -0.0534 -0.4929 -0.2192
  454MPD2     C 6811   2.908   0.237  15.999  0.5539 -0.1921  0.3099
  454MPD2    C1 6812   2.808   0.286  15.926  0.1607 -0.5450 -0.8265
  454MPD2    C2 6813   2.770   0.418  15.938 -0.0435 -0.0778 -0.5109
  454MPD2    C3 6814   2.810   0.489  16.048  0.0914 -0.6085  0.7062
  454MPD2    C4 6815   2.908   0.436  16.133  0.5009 -0.4577  0.3070
  454MPD2    C5 6816   2.958   0.306  16.103 -0.6770 -0.0319 -0.3881
  454MPD2     H 6817   2.688   0.449  15.875 -0.1974 -3.2623 -1.8574
  454MPD2    H1 6818   2.961   0.484  16.215  1.6632 -1.0311 -0.1061
  454MPD2    H2 6819   2.952   0.139  15.981  0.0587 -0.0298 -1.8021
  454MPD2    H3 6820   3.041   0.262  16.157 -0.9256 -0.4682 -0.3638
  454MPD2     N 6821   2.747   0.607  16.088 -0.0492 -0.1004 -0.2271
  454MPD2    H5 6822   2.762   0.627  16.187  3.1965  1.2110 -0.9858
  454MPD2    N1 6823   2.746   0.212  15.824  0.2467 -0.0476  0.4192
  454MPD2    H7 6824   2.671   0.267  15.781  2.2317  1.1013 -1.5697
  455TMC3    C1 6825   2.521   0.664  16.092  1.2484  0.1458  0.1529
  455TMC3    C2 6826   2.512   0.747  16.195  0.1698 -0.1589  0.1731
  455TMC3    C3 6827   2.414   0.730  16.286  0.2952 -0.2400 -0.0441
  455TMC3    C4 6828   2.454   0.540  16.089 -0.0480  0.0798  0.2903
  455TMC3    C5 6829   2.357   0.520  16.183  0.1793 -0.8928  0.3847
  455TMC3    C6 6830   2.333   0.615  16.282  0.3408  0.3237  0.2923
  455TMC3     C 6831   2.645   0.670  16.017  0.5026  0.6614 -0.5119
  455TMC3     O 6832   2.636   0.667  15.894 -0.3780  0.3274 -0.0133
  455TMC3     H 6833   2.574   0.837  16.194 -1.8739  1.2412 -0.8121
  455TMC3    H1 6834   2.476   0.462  16.017  1.0947  0.2657  0.4317
  455TMC3    H2 6835   2.270   0.591  16.367  1.3790  1.0167  1.2605
  455TMC3    C7 6836   2.307   0.383  16.202  0.8342 -0.2408  0.0662
  455TMC3    C8 6837   2.387   0.838  16.381 -0.0521 -0.1125  0.4376
  455TMC3    O1 6838   2.194   0.366  16.251 -0.2927 -0.1222  0.0753
  455TMC3    O2 6839   2.304   0.816  16.470 -0.5376 -0.3589  0.3433
  456MPD2     C 6840   0.381   4.686  16.774  0.3017 -0.1015  0.0183
  456MPD2    C1 6841   0.517   4.726  16.766  0.1661 -0.2726  0.8711
  456MPD2    C2 6842   0.579   0.021  16.886  0.2576  0.3658  0.3251
  456MPD2    C3 6843   0.517   0.013  17.011 -0.7066  1.0443  0.4185
  456MPD2    C4 6844   0.379   4.714  17.010  0.3200  0.1848  0.8568
  456MPD2    C5 6845   0.317   4.683  16.893  0.1104  0.4363 -0.5095
  456MPD2     H 6846   0.684   0.050  16.886 -0.4305  2.9233 -1.1651
  456MPD2    H1 6847   0.315   4.714  17.098  0.8823 -1.8687  1.2682
  456MPD2    H2 6848   0.324   4.655  16.688 -0.9011 -0.2700  0.8798
  456MPD2    H3 6849   0.211   4.663  16.895 -0.0909  1.6258  0.2865
  456MPD2     N 6850   0.585   0.070  17.124  0.0585 -0.2691  0.3292
  456MPD2    H5 6851   0.669   0.126  17.110 -0.9278  1.6599  2.1322
  456MPD2    N1 6852   0.592   4.730  16.649 -0.5017 -0.2451 -0.0595
  456MPD2    H7 6853   0.690   0.019  16.653  0.0222 -2.2848  0.4269
  457TMC3    C1 6854   0.599   0.180  17.342  0.2085 -0.0251  0.2022
  457TMC3    C2 6855   0.637   0.299  17.288  0.1518 -0.4864 -0.3958
  457TMC3    C3 6856   0.657   0.407  17.372 -0.2092  0.1453  0.4547
  457TMC3    C4 6857   0.584   0.164  17.471  0.3789  0.3060  0.0412
  457TMC3    C5 6858   0.612   0.267  17.555  0.3481  0.0929 -0.3168
  457TMC3    C6 6859   0.652   0.387  17.505  0.1178 -0.6847  0.7631
  457TMC3     C 6860   0.530   0.082  17.248  0.4079  0.7694 -0.4381
  457TMC3     O 6861   0.440   0.018  17.299  0.0845 -0.2986  0.3593
  457TMC3     H 6862   0.620   0.314  17.182 -1.1579 -0.2919 -0.1548
  457TMC3    H1 6863   0.554   0.066  17.508 -1.7459  0.9727  0.0271
  457TMC3    H2 6864   0.692   0.462  17.573 -1.2340 -1.4177  2.3702
  457TMC3    C7 6865   0.667   0.249  17.690 -0.4617  0.7135 -0.3133
  457TMC3    C8 6866   0.690   0.542  17.326 -0.6349 -0.0532 -0.2973
  457TMC3    O1 6867   0.729   0.143  17.707 -0.0020 -0.0338  0.8721
  457TMC3    O2 6868   0.690   0.635  17.409 -0.6928 -0.4236  0.1022
  458MPD2     C 6869   3.507   4.048  12.296 -0.1560  0.2821  0.5786
  458MPD2    C1 6870   3.380   4.063  12.356  0.2389 -0.2363  0.3730
  458MPD2    C2 6871   3.273   3.998  12.306  0.0288 -0.4541 -0.2052
  458MPD2    C3 6872   3.283   3.910  12.203 -0.2000  0.7380 -0.2187
  458MPD2    C4 6873   3.410   3.895  12.141  0.0205  0.3656  0.4037
  458MPD2    C5 6874   3.514   3.972  12.180 -0.8131 -0.2821 -0.5197
  458MPD2     H 6875   3.171   4.010  12.341 -0.0823  0.8694 -0.9670
  458MPD2    H1 6876   3.429   3.832  12.054  2.0625  1.4744  0.0516
  458MPD2    H2 6877   3.603   4.086  12.331  0.0968  0.5377 -0.3842
  458MPD2    H3 6878   3.613   3.973  12.136  0.6240 -0.7167  2.7351
  458MPD2     N 6879   3.163   3.846  12.158 -0.2490  0.8964 -0.1160
  458MPD2    H5 6880   3.072   3.863  12.200 -0.0910 -2.2836  1.4945
  458MPD2    N1 6881   3.380   4.143  12.468  0.1618  0.5066 -0.3114
  458MPD2    H7 6882   3.470   4.176  12.500 -0.3793  1.2132  0.4928
  459TMC3    C1 6883   3.306   4.270  12.654 -0.2776 -0.1843 -0.4752
  459TMC3    C2 6884   3.431   4.322  12.656 -1.4172 -0.5140  0.1250
  459TMC3    C3 6885   3.470   4.380  12.784 -0.4234 -0.2218  0.1984
  459TMC3    C4 6886   3.211   4.266  12.755 -0.1345  0.4353  0.6428
  459TMC3    C5 6887   3.252   4.330  12.874  0.3680  0.0660 -0.1176
  459TMC3    C6 6888   3.381   4.377  12.888  0.2654  0.6662 -0.0421
  459TMC3     C 6889   3.271   4.178  12.545 -0.3441  0.5971  0.4985
  459TMC3     O 6890   3.151   4.148  12.541  0.2128 -0.4686  0.4199
  459TMC3     H 6891   3.492   4.342  12.569 -0.0375  1.0100  1.4215
  459TMC3    H1 6892   3.117   4.213  12.754  0.6767 -0.9829 -0.1599
  459TMC3    H2 6893   3.417   4.407  12.986  1.2605  0.1420 -0.2396
  459TMC3    C7 6894   3.161   4.329  12.984  0.6891  0.7748  0.6916
  459TMC3    C8 6895   3.612   4.373  12.792 -0.4728  0.1982 -0.1965
  459TMC3    O1 6896   3.059   4.265  12.970 -0.6760 -0.0922 -0.2133
  459TMC3    O2 6897   3.681   4.344  12.690  0.0072  0.2274  0.2659
  460MPD2     C 6898   2.277   1.948  10.709 -0.3102 -0.8672  0.3385
  460MPD2    C1 6899   2.148   1.923  10.752  0.0229 -0.4816 -0.1103
  460MPD2    C2 6900   2.048   1.968  10.665  0.3231 -0.1323  0.4607
  460MPD2    C3 6901   2.081   2.016  10.542  0.1271  0.1876 -0.1511
  460MPD2    C4 6902   2.208   2.014  10.498 -0.1237  0.1599  0.2920
  460MPD2    C5 6903   2.309   1.989  10.584  0.3073 -0.4901 -0.0565
  460MPD2     H 6904   1.942   1.958  10.688  0.4747 -2.4323  0.1794
  460MPD2    H1 6905   2.241   2.052  10.402  0.9669 -0.4881  0.4068
  460MPD2    H2 6906   2.362   1.936  10.775  0.0756  0.4904  0.0996
  460MPD2    H3 6907   2.413   1.999  10.555  0.3330 -2.0414 -0.5285
  460MPD2     N 6908   1.981   2.059  10.452 -0.2226 -0.5642 -0.2830
  460MPD2    H5 6909   1.885   2.055  10.484 -0.4920  0.0361 -1.0176
  460MPD2    N1 6910   2.128   1.874  10.878  0.5525 -0.2196  0.2722
  460MPD2    H7 6911   2.218   1.858  10.922  0.6073  1.7883  0.8801
  461TMC3    C1 6912   1.870   2.118  10.246  0.5030 -0.2986 -0.1675
  461TMC3    C2 6913   1.861   2.019  10.148 -0.2196 -0.0972 -0.1458
  461TMC3    C3 6914   1.825   2.045  10.024  0.1504  0.4715 -0.5465
  461TMC3    C4 6915   1.845   2.251  10.204 -0.9674  0.2089 -0.3714
  461TMC3    C5 6916   1.799   2.272  10.077 -0.7786  0.9946  0.0763
  461TMC3    C6 6917   1.789   2.170   9.984  0.1076 -0.4734 -1.3678
  461TMC3     C 6918   1.992   2.101  10.316 -0.3995  0.2515  0.1491
  461TMC3     O 6919   2.089   2.101  10.237  0.1120 -0.0785 -0.3313
  461TMC3     H 6920   1.875   1.915  10.174  1.1576  1.0887  3.8270
  461TMC3    H1 6921   1.868   2.331  10.273  1.0674 -0.2601 -0.5233
  461TMC3    H2 6922   1.766   2.192   9.880  0.1427 -0.7384 -1.4327
  461TMC3    C7 6923   1.785   2.410  10.030 -0.3459  0.6709  0.2372
  461TMC3    C8 6924   1.842   1.939   9.924  0.1468 -0.3242  0.0827
  461TMC3    O1 6925   1.733   2.432   9.920 -0.4838 -0.7550 -0.3768
  461TMC3    O2 6926   1.903   1.841   9.957 -0.2001 -0.2268  0.0803
  462TMC3    C1 6927   1.969   3.800  17.435  0.9525  0.1606 -0.2340
  462TMC3    C2 6928   2.061   3.747  17.348  0.5283  0.0865 -0.0943
  462TMC3    C3 6929   2.121   3.624  17.371 -0.2656 -0.4999  0.5365
  462TMC3    C4 6930   1.921   3.715  17.536  0.1929  0.2484  0.1202
  462TMC3    C5 6931   1.981   3.595  17.548  0.6423  0.2272 -0.1452
  462TMC3    C6 6932   2.089   3.553  17.482  0.5184 -0.4687  0.3747
  462TMC3     C 6933   1.889   3.910  17.391  0.0605 -0.0759  0.3382
  462TMC3     O 6934   1.799   3.945  17.468  0.0543 -0.0370 -0.6078
  462TMC3     H 6935   2.101   3.804  17.264 -0.0800  0.9827  0.2237
  462TMC3    H1 6936   1.829   3.734  17.590 -0.0499 -0.3590 -0.0784
  462TMC3    H2 6937   2.099   3.445  17.486  0.1451 -0.5185 -0.0233
  462TMC3    C7 6938   1.910   3.491  17.623  0.2419 -0.3140 -0.1073
  462TMC3    C8 6939   2.223   3.578  17.273 -0.5658 -0.3676  0.0423
  462TMC3    O1 6940   1.978   3.408  17.677 -0.2855 -0.0551 -0.5785
  462TMC3    O2 6941   2.217   3.607  17.153  0.1508  0.2656 -0.2346
  463MPD2     C 6942   3.388   1.487   1.840 -0.3013  0.0070  0.3033
  463MPD2    C1 6943   3.262   1.535   1.819 -0.3800 -0.5328  0.2205
  463MPD2    C2 6944   3.245   1.670   1.794 -0.1270  0.2067  0.2741
  463MPD2    C3 6945   3.353   1.758   1.792 -0.5050 -0.8465 -0.6377
  463MPD2    C4 6946   3.481   1.705   1.808  0.1441  0.1484 -0.4488
  463MPD2    C5 6947   3.498   1.571   1.840  0.8455 -0.4299  0.6196
  463MPD2     H 6948   3.146   1.713   1.783  0.3951  1.0508 -1.1208
  463MPD2    H1 6949   3.568   1.769   1.798  0.0330  0.3278 -0.2638
  463MPD2    H2 6950   3.413   1.386   1.870  1.1899  0.9796  2.3025
  463MPD2    H3 6951   3.600   1.540   1.860  0.4680 -1.6786  0.5969
  463MPD2     N 6952   3.336   1.898   1.774  0.3383 -0.4590  0.5113
  463MPD2    H5 6953   3.416   1.956   1.753 -0.6664  0.5266 -0.5382
  463MPD2    N1 6954   3.145   1.454   1.820 -0.0072  0.2018  0.4181
  463MPD2    H7 6955   3.063   1.505   1.790  1.5229  1.6062 -1.3927
  464TMC3    C1 6956   3.005   1.286   1.848 -0.1324 -0.1754  0.1608
  464TMC3    C2 6957   2.927   1.373   1.926 -0.2319 -0.3148  0.4695
  464TMC3    C3 6958   2.789   1.355   1.888 -0.2784  0.1122 -0.2496
  464TMC3    C4 6959   2.972   1.187   1.759 -0.2063 -1.0754  0.6721
  464TMC3    C5 6960   2.839   1.173   1.746  0.2915 -0.2383  0.0284
  464TMC3    C6 6961   2.746   1.257   1.803  0.4452  0.0899  0.3666
  464TMC3     C 6962   3.141   1.325   1.862  0.7360 -0.6477  0.0687
  464TMC3     O 6963   3.225   1.239   1.863 -0.1015  0.2923 -0.1162
  464TMC3     H 6964   2.971   1.449   1.989 -2.0235 -0.0358  1.3895
  464TMC3    H1 6965   3.048   1.122   1.716  0.7372  0.4564  0.0377
  464TMC3    H2 6966   2.642   1.228   1.792  0.0985  1.3968  0.2127
  464TMC3    C7 6967   2.813   1.101   1.622 -0.3172 -0.4809 -0.2303
  464TMC3    C8 6968   2.714   1.477   1.879  0.5805  0.4572  0.1681
  464TMC3    O1 6969   2.910   1.047   1.568 -0.2877 -0.3753  0.1510
  464TMC3    O2 6970   2.632   1.492   1.790  0.0525 -0.4892  0.5899
  465MPD2     C 6971   4.290   0.153  16.912 -1.4076  0.3292 -0.5508
  465MPD2    C1 6972   4.184   0.211  16.985 -0.0278 -0.0327  0.3220
  465MPD2    C2 6973   4.086   0.273  16.911 -0.7227  0.2508 -0.6297
  465MPD2    C3 6974   4.101   0.295  16.778 -0.3342  0.7153  0.0801
  465MPD2    C4 6975   4.203   0.240  16.711 -0.4429 -0.1854 -0.1270
  465MPD2    C5 6976   4.297   0.169  16.783  0.9451  0.5270  0.7471
  465MPD2     H 6977   3.997   0.323  16.947  1.0214  2.8261  0.1154
  465MPD2    H1 6978   4.215   0.247  16.604  0.3419 -4.1559 -0.2987
  465MPD2    H2 6979   4.378   0.108  16.958 -1.1486 -0.3540 -1.7194
  465MPD2    H3 6980   4.390   0.139  16.736  0.3777 -0.6083  0.3545
  465MPD2     N 6981   3.994   0.358  16.716  0.1505  0.1603 -0.1003
  465MPD2    H5 6982   3.912   0.379  16.771 -0.7868 -1.0647 -1.0426
  465MPD2    N1 6983   4.177   0.217  17.132 -0.2753 -0.7040 -0.7500
  465MPD2    H7 6984   4.090   0.261  17.160 -0.2608 -1.4260  0.4472
  466TMC3    C1 6985   3.673   0.549  16.662 -0.1966  0.4820  0.3810
  466TMC3    C2 6986   3.704   0.673  16.606 -0.3336 -0.9185 -0.8607
  466TMC3    C3 6987   3.811   0.696  16.525  0.4010 -0.3407 -0.4890
  466TMC3    C4 6988   3.771   0.456  16.636 -0.7844  0.6211 -0.0245
  466TMC3    C5 6989   3.879   0.475  16.553 -0.0556  0.1070 -0.5028
  466TMC3    C6 6990   3.897   0.594  16.486  0.1111  0.3017  0.1085
  466TMC3     C 6991   3.628   0.545  16.799  0.6103 -0.2864 -0.6445
  466TMC3     O 6992   3.711   0.498  16.880  0.6482 -0.2752 -0.5113
  466TMC3     H 6993   3.633   0.754  16.619 -1.1240 -1.1219 -3.9378
  466TMC3    H1 6994   3.759   0.355  16.674 -0.2061  1.3055  1.9768
  466TMC3    H2 6995   3.987   0.614  16.430 -0.6808  2.3620 -0.4275
  466TMC3    C7 6996   3.998   0.405  16.585  0.0634  0.3975  0.1163
  466TMC3    C8 6997   3.828   0.819  16.450  0.2184  0.5833  0.9162
  466TMC3    O1 6998   4.097   0.425  16.517 -0.4749 -0.6402 -0.1807
  466TMC3    O2 6999   3.868   0.810  16.337  0.1887  0.2980  0.1467
  467TMC3    C1 7000   4.674   4.080  14.007  0.0237  0.3883  0.1024
  467TMC3    C2 7001   4.680   4.207  13.962 -0.1571  0.4354  0.5901
  467TMC3    C3 7002   4.634   4.242  13.839  0.0381  0.9882 -1.0821
  467TMC3    C4 7003   4.596   3.988  13.946  0.7931  0.4952  0.1872
  467TMC3    C5 7004   4.532   4.031  13.828  0.1403 -0.6640  0.0784
  467TMC3    C6 7005   4.555   4.158  13.773 -0.8722 -0.2832  0.0655
  467TMC3     C 7006   0.069   4.033  14.046 -0.8539 -0.2711 -0.4310
  467TMC3     O 7007   0.118   4.061  14.156  0.5305 -0.4795 -0.3819
  467TMC3     H 7008   0.023   4.268  14.003 -0.8231 -0.7038  3.5211
  467TMC3    H1 7009   4.590   3.882  13.966 -0.1385  0.7625  1.3624
  467TMC3    H2 7010   4.499   4.190  13.686 -1.8726  2.7196  1.7958
  467TMC3    C7 7011   4.425   3.942  13.773 -0.0675  0.3065 -0.0044
  467TMC3    C8 7012   4.737   4.312  13.767  0.2360  0.2628  0.1145
  467TMC3    O1 7013   4.397   3.952  13.655  0.0911  0.1443 -0.0736
  467TMC3    O2 7014   0.047   4.417  13.814  0.6880 -0.1803 -0.0507
  468MPD2     C 7015   3.321   1.789  10.919 -0.4938  0.1963 -0.1969
  468MPD2    C1 7016   3.427   1.843  10.977  0.0647 -0.1548  0.4367
  468MPD2    C2 7017   3.497   1.758  11.058  0.2220 -0.3645 -0.0784
  468MPD2    C3 7018   3.455   1.626  11.096  0.6220 -0.1228  0.3217
  468MPD2    C4 7019   3.329   1.584  11.048  0.1825  0.5823  0.0328
  468MPD2    C5 7020   3.279   1.670  10.956  0.2162  0.0994  0.4855
  468MPD2     H 7021   3.592   1.789  11.100  1.7199 -2.5819 -1.8444
  468MPD2    H1 7022   3.299   1.481  11.060 -0.0789  0.5235 -1.0857
  468MPD2    H2 7023   3.273   1.838  10.834 -1.0580 -1.9963 -1.1389
  468MPD2    H3 7024   3.193   1.626  10.905 -0.2067  0.6990  0.6770
  468MPD2     N 7025   3.537   1.526  11.164 -0.2989 -0.0193  0.0438
  468MPD2    H5 7026   3.494   1.434  11.174 -0.6560  0.0947 -0.4792
  468MPD2    N1 7027   3.489   1.968  10.944  0.8170  0.2863 -0.0482
  468MPD2    H7 7028   3.554   2.002  11.014  1.2536 -0.9334  0.1431
  469TMC3    C1 7029   3.535   2.173  10.843  0.0801  0.4744  0.2683
  469TMC3    C2 7030   3.667   2.160  10.827 -0.1286 -0.4229  0.0679
  469TMC3    C3 7031   3.755   2.241  10.898 -0.2678  0.7877 -0.2370
  469TMC3    C4 7032   3.492   2.267  10.930  0.1986  0.5268 -0.4557
  469TMC3    C5 7033   3.577   2.355  10.981  0.0815  0.4618  0.6047
  469TMC3    C6 7034   3.710   2.342  10.979  0.7698 -0.1469  0.1348
  469TMC3     C 7035   3.455   2.051  10.844  0.5664 -0.0077 -0.3130
  469TMC3     O 7036   3.353   2.063  10.778  0.0576 -0.9616 -0.4620
  469TMC3     H 7037   3.694   2.070  10.773 -0.7190 -0.3471 -0.3482
  469TMC3    H1 7038   3.388   2.253  10.959 -0.0918 -1.1401 -2.2508
  469TMC3    H2 7039   3.776   2.406  11.036  2.0187 -0.3004 -1.1316
  469TMC3    C7 7040   3.513   2.450  11.080 -0.4186 -0.1697 -0.2967
  469TMC3    C8 7041   3.897   2.219  10.884  0.3079 -0.2168  0.3839
  469TMC3    O1 7042   3.399   2.486  11.054 -0.1491 -0.0061 -0.3422
  469TMC3    O2 7043   3.927   2.138  10.799  0.0857 -0.1579  0.2445
  470TMC3    C1 7044   1.332   2.707   0.679  0.5894 -0.0786 -0.5901
  470TMC3    C2 7045   1.393   2.816   0.731 -0.6044  0.6064 -0.7426
  470TMC3    C3 7046   1.398   2.812   0.866  0.0554  0.2689 -0.7953
  470TMC3    C4 7047   1.271   2.605   0.752  0.4075 -0.2625  0.4295
  470TMC3    C5 7048   1.252   2.629   0.888 -0.9324 -0.5503 -0.5100
  470TMC3    C6 7049   1.311   2.737   0.946 -0.5186 -0.1993 -0.2370
  470TMC3     C 7050   1.342   2.690   0.534  0.2935 -0.0534 -0.0019
  470TMC3     O 7051   1.426   2.761   0.483 -0.3233 -0.2498  0.4662
  470TMC3     H 7052   1.432   2.896   0.670  1.2243  0.0917 -0.2702
  470TMC3    H1 7053   1.227   2.518   0.705  0.2687 -1.2253  2.3181
  470TMC3    H2 7054   1.301   2.768   1.049 -0.6766  1.0500 -0.6242
  470TMC3    C7 7055   1.149   2.557   0.960 -0.1838 -0.2673  0.2960
  470TMC3    C8 7056   1.474   2.913   0.935  0.3792  0.8247 -0.3505
  470TMC3    O1 7057   1.068   2.494   0.895 -0.1378  0.6654  0.6352
  470TMC3    O2 7058   1.460   2.940   1.057 -0.4983 -0.5227 -0.1455
  471MPD2     C 7059   1.739   4.400  16.055  0.0377  0.8308  0.0341
  471MPD2    C1 7060   1.742   4.266  16.089  0.1883  0.1369 -0.2356
  471MPD2    C2 7061   1.791   4.228  16.218  0.4642  0.4509 -0.2955
  471MPD2    C3 7062   1.836   4.329  16.303 -0.1946 -0.0286  0.1044
  471MPD2    C4 7063   1.842   4.459  16.260 -0.7928 -0.5921 -0.6224
  471MPD2    C5 7064   1.790   4.495  16.139  1.1188  0.3639  0.8181
  471MPD2     H 7065   1.782   4.124  16.248 -0.1805 -0.0184 -2.1015
  471MPD2    H1 7066   1.889   4.536  16.321  0.4074 -1.2096 -0.7729
  471MPD2    H2 7067   1.705   4.416  15.953  0.1793  0.8856 -0.0032
  471MPD2    H3 7068   1.781   4.601  16.122  0.6018 -0.5728 -4.9834
  471MPD2     N 7069   1.870   4.294  16.435  0.0418 -0.2469 -0.3141
  471MPD2    H5 7070   1.920   4.362  16.491  2.8702 -1.5971 -1.2032
  471MPD2    N1 7071   1.697   4.160  16.004 -0.5009 -0.0054  0.6718
  471MPD2    H7 7072   1.705   4.063  16.032  0.2241  0.2186  1.2390
  472TMC3    C1 7073   1.612   4.050  15.825 -0.3581  0.6219  0.1856
  472TMC3    C2 7074   1.506   4.034  15.745  0.7071  0.3525 -0.3994
  472TMC3    C3 7075   1.475   3.904  15.716  0.0163 -0.5966  0.4540
  472TMC3    C4 7076   1.698   3.949  15.855 -0.2150  0.3319 -0.1040
  472TMC3    C5 7077   1.665   3.822  15.814 -0.0093 -0.2142 -0.9827
  472TMC3    C6 7078   1.553   3.799  15.748 -0.4397  0.3673 -0.1110
  472TMC3     C 7079   1.630   4.179  15.887 -0.0559 -0.3276  0.1501
  472TMC3     O 7080   1.598   4.275  15.813  0.0380  0.3198 -0.2300
  472TMC3     H 7081   1.447   4.118  15.712 -1.2994 -0.8899  0.0245
  472TMC3    H1 7082   1.791   3.959  15.909 -1.7754  0.5721  2.5652
  472TMC3    H2 7083   1.511   3.701  15.728 -1.3403  0.4963  1.1112
  472TMC3    C7 7084   1.695   3.712  15.902 -0.7277  0.6923  0.2483
  472TMC3    C8 7085   1.332   3.870  15.688 -0.0332  0.1914 -0.5744
  472TMC3    O1 7086   1.751   3.741  16.008 -0.0577 -0.3569 -0.3659
  472TMC3    O2 7087   1.259   3.950  15.630  1.1206  0.1869 -0.1718
  473MPD2     C 7088   1.656   1.043  14.015  0.3612 -0.0095 -0.2505
  473MPD2    C1 7089   1.596   1.154  13.959  0.1706  0.4128  0.1192
  473MPD2    C2 7090   1.625   1.282  14.001 -0.0955 -0.1591 -0.1526
  473MPD2    C3 7091   1.723   1.298  14.099  0.5934  0.7242 -0.6700
  473MPD2    C4 7092   1.798   1.191  14.137 -0.8166  0.3189 -0.2469
  473MPD2    C5 7093   1.755   1.067  14.111 -0.0533  0.8736  0.4327
  473MPD2     H 7094   1.571   1.366  13.960 -0.1287 -0.3127 -0.4210
  473MPD2    H1 7095   1.873   1.200  14.215  0.3706 -2.1603 -1.0861
  473MPD2    H2 7096   1.637   0.939  13.995 -0.7152  0.1964 -0.3077
  473MPD2    H3 7097   1.801   0.981  14.158  0.5426  0.8120 -0.2648
  473MPD2     N 7098   1.745   1.423  14.164 -0.4441 -0.0047  0.4595
  473MPD2    H5 7099   1.831   1.423  14.218 -0.5287 -1.4851  0.5965
  473MPD2    N1 7100   1.503   1.136  13.852  0.0330 -0.1100 -0.2859
  473MPD2    H7 7101   1.472   1.220  13.804 -2.1178 -0.6709  0.1133
  474TMC3    C1 7102   1.750   1.655  14.218 -0.0798  0.0428  0.5356
  474TMC3    C2 7103   1.682   1.772  14.210 -0.3903  0.3343  0.1295
  474TMC3    C3 7104   1.736   1.879  14.272  0.1528 -0.0658 -0.4684
  474TMC3    C4 7105   1.854   1.636  14.312 -0.8886 -0.1304 -0.0292
  474TMC3    C5 7106   1.890   1.739  14.393 -0.0967 -0.3141 -0.7110
  474TMC3    C6 7107   1.833   1.865  14.368 -0.2451  0.3502  0.3192
  474TMC3     C 7108   1.690   1.548  14.141 -0.1847  0.3422  0.2564
  474TMC3     O 7109   1.597   1.579  14.064  0.2636  0.3377 -0.2198
  474TMC3     H 7110   1.603   1.793  14.139  1.9136  1.7741 -2.0294
  474TMC3    H1 7111   1.912   1.545  14.326  1.2032  0.8208 -2.5913
  474TMC3    H2 7112   1.848   1.946  14.438  1.8206 -1.2455  1.7343
  474TMC3    C7 7113   1.967   1.701  14.512 -0.2768  0.2162 -0.9100
  474TMC3    C8 7114   1.630   1.976  14.284  0.7674 -0.5403 -0.1017
  474TMC3    O1 7115   1.990   1.581  14.519 -0.1201  0.3208  0.5538
  474TMC3    O2 7116   1.517   1.933  14.308  0.1249 -0.4562 -0.3600
  475MPD2     C 7117   3.845   4.710  10.978 -0.1106  0.0314  0.3243
  475MPD2    C1 7118   3.936   0.042  10.906  0.0106  0.2884 -0.3325
  475MPD2    C2 7119   3.892   0.070  10.771 -0.5998 -0.1963  0.1045
  475MPD2    C3 7120   3.762   0.049  10.723 -0.9064  1.1573  0.0110
  475MPD2    C4 7121   3.669   4.736  10.818  0.2800 -0.7818  0.6467
  475MPD2    C5 7122   3.717   4.696  10.941 -0.4500  0.0773 -0.6973
  475MPD2     H 7123   3.972   0.101  10.705 -0.8769 -0.4279 -0.3358
  475MPD2    H1 7124   3.567   4.709  10.794  0.6590 -0.6289 -1.2142
  475MPD2    H2 7125   3.864   4.675  11.079  0.2151 -0.9402 -0.0761
  475MPD2    H3 7126   3.651   4.654  11.016 -0.4119  1.1183 -0.0870
  475MPD2     N 7127   3.730   0.078  10.592  0.5383 -0.1738  0.2763
  475MPD2    H5 7128   3.801   0.124  10.537  1.4304  1.3507  2.7085
  475MPD2    N1 7129   4.072   0.075  10.939 -0.0761 -0.5922 -0.0423
  475MPD2    H7 7130   4.132   0.113  10.867  1.9744 -0.4660  1.7400
  476TMC3    C1 7131   4.260   0.111  11.102  0.4747 -0.3525  0.2869
  476TMC3    C2 7132   4.356   0.114  11.005  0.3907  1.1170 -0.3295
  476TMC3    C3 7133   4.483   0.157  11.036  0.4479  0.0127  0.6638
  476TMC3    C4 7134   4.288   0.161  11.230  0.3237  0.4352  0.2287
  476TMC3    C5 7135   4.415   0.204  11.251 -0.2115  0.2287 -0.9419
  476TMC3    C6 7136   4.511   0.207  11.157  0.7328  0.1165 -1.2294
  476TMC3     C 7137   4.119   0.065  11.069  0.1100 -0.1005  0.3546
  476TMC3     O 7138   4.048   0.057  11.170  0.1549  0.5215 -0.2272
  476TMC3     H 7139   4.331   0.077  10.906 -1.2824  0.6806  0.2572
  476TMC3    H1 7140   4.221   0.138  11.311 -1.8418  0.4304 -1.5694
  476TMC3    H2 7141   4.608   0.250  11.179  0.2100  0.8297 -0.2858
  476TMC3    C7 7142   4.445   0.228  11.393  0.3111  0.3502 -0.6180
  476TMC3    C8 7143   4.588   0.171  10.937 -0.2327 -0.4620  0.9096
  476TMC3    O1 7144   4.387   0.165  11.475 -0.0019  0.9046  0.7872
  476TMC3    O2 7145   4.685   0.235  10.968  0.2502  1.0605  0.4673
  477MPD2     C 7146   2.585   1.127  11.933  0.4537 -0.1851  0.3183
  477MPD2    C1 7147   2.478   1.056  11.903  0.1622  0.6564 -0.8288
  477MPD2    C2 7148   2.455   0.934  11.970 -0.0970  0.4209  0.1809
  477MPD2    C3 7149   2.532   0.896  12.074 -0.0364  0.1372  0.2986
  477MPD2    C4 7150   2.640   0.973  12.111 -0.4567 -0.1325 -0.1512
  477MPD2    C5 7151   2.663   1.087  12.043 -0.0865 -0.1597  0.1745
  477MPD2     H 7152   2.375   0.869  11.935  0.9690 -0.2879 -0.9205
  477MPD2    H1 7153   2.714   0.940  12.184  1.5122  1.5006 -1.3977
  477MPD2    H2 7154   2.615   1.219  11.883 -0.8372  1.7715  3.1406
  477MPD2    H3 7155   2.750   1.148  12.068  0.4617 -0.4324 -1.0639
  477MPD2     N 7156   2.496   0.784  12.153  0.2355 -1.0298 -0.3326
  477MPD2    H5 7157   2.435   0.711  12.118 -0.8081 -0.9685  1.3875
  477MPD2    N1 7158   2.391   1.109  11.795  0.4811 -0.2998  0.2786
  477MPD2    H7 7159   2.428   1.196  11.757  2.5463 -0.6597  1.4226
  478TMC3    C1 7160   2.173   1.158  11.693 -0.5315  0.6484 -0.6796
  478TMC3    C2 7161   2.038   1.160  11.709 -0.2644  0.7813  0.6996
  478TMC3    C3 7162   1.960   1.215  11.612 -1.1625 -0.3818 -0.0496
  478TMC3    C4 7163   2.237   1.193  11.576  0.2278  0.5072  0.9934
  478TMC3    C5 7164   2.151   1.246  11.480  0.3749 -0.8290  0.4337
  478TMC3    C6 7165   2.016   1.255  11.494  0.4487  0.3963  0.1169
  478TMC3     C 7166   2.253   1.079  11.790  0.1805  0.2312 -0.2138
  478TMC3     O 7167   2.185   1.019  11.872  0.1987  0.5945 -0.0265
  478TMC3     H 7168   1.992   1.147  11.807 -1.0754 -1.1645  0.0493
  478TMC3    H1 7169   2.344   1.193  11.563  0.0845 -3.3154 -0.2415
  478TMC3    H2 7170   1.954   1.301  11.418  0.4535  0.7244  0.3120
  478TMC3    C7 7171   2.209   1.276  11.346 -0.3284 -0.4298 -0.3662
  478TMC3    C8 7172   1.831   1.264  11.661 -0.2186  0.1223 -0.7098
  478TMC3    O1 7173   2.313   1.213  11.314 -0.0240  0.2246 -0.1313
  478TMC3    O2 7174   1.780   1.215  11.757 -0.3589 -0.0073  0.1562
  479MPD2     C 7175   1.271   3.247  15.105 -0.9492 -0.1234 -0.8758
  479MPD2    C1 7176   1.260   3.216  15.241  1.2959 -0.2998 -0.0707
  479MPD2    C2 7177   1.330   3.295  15.334 -0.5908  0.0335  0.2995
  479MPD2    C3 7178   1.400   3.409  15.295 -0.3591  0.1357  0.1561
  479MPD2    C4 7179   1.408   3.441  15.159 -0.5635  1.0409 -0.7733
  479MPD2    C5 7180   1.346   3.360  15.073 -0.2476 -0.7079  0.2404
  479MPD2     H 7181   1.322   3.266  15.438  0.1690  0.4058  0.4681
  479MPD2    H1 7182   1.464   3.527  15.125  1.6413  0.1741  0.7032
  479MPD2    H2 7183   1.229   3.179  15.031 -0.2399  2.5568 -3.7821
  479MPD2    H3 7184   1.372   3.391  14.973 -1.3614 -0.1331  0.1303
  479MPD2     N 7185   1.467   3.484  15.395  0.3709 -0.5028  0.0230
  479MPD2    H5 7186   1.536   3.553  15.368 -1.9065  0.8366 -2.3432
  479MPD2    N1 7187   1.182   3.101  15.256 -0.0158  0.0564  0.2369
  479MPD2    H7 7188   1.152   3.053  15.171 -0.6027  0.6874  0.0886
  480TMC3    C1 7189   1.169   3.338  15.734 -0.8058 -0.4298 -0.1129
  480TMC3    C2 7190   1.058   3.367  15.660 -0.2075  0.0660  0.4685
  480TMC3    C3 7191   1.073   3.459  15.559 -0.3480 -0.0601  1.0306
  480TMC3    C4 7192   1.290   3.383  15.702 -0.0959  0.4914 -0.1594
  480TMC3    C5 7193   1.308   3.456  15.584  0.6514  0.0185  0.2949
  480TMC3    C6 7194   1.194   3.512  15.520 -0.5533  0.0641  0.0826
  480TMC3     C 7195   1.164   3.235  15.841  0.1143  0.5843  0.0695
  480TMC3     O 7196   1.260   3.162  15.850 -0.5283  0.2153 -0.1127
  480TMC3     H 7197   0.964   3.315  15.674 -0.4334  0.5214  0.6345
  480TMC3    H1 7198   1.378   3.360  15.762  0.5724  1.4158 -0.7838
  480TMC3    H2 7199   1.221   3.570  15.432 -1.8530  0.3856 -0.1012
  480TMC3    C7 7200   1.445   3.482  15.530 -0.1211 -0.3574 -0.0766
  480TMC3    C8 7201   0.968   3.472  15.459 -0.1042 -0.3247 -0.1739
  480TMC3    O1 7202   1.538   3.490  15.609 -0.7596 -0.1707 -0.1943
  480TMC3    O2 7203   0.861   3.420  15.488  0.1723  0.1861  0.3616
  481MPD2     C 7204   2.969   2.537  13.905 -0.3067 -0.2868 -0.2018
  481MPD2    C1 7205   2.880   2.633  13.956  0.1622  0.0707  0.7126
  481MPD2    C2 7206   2.903   2.702  14.077 -0.2996 -0.0379  0.3365
  481MPD2    C3 7207   3.008   2.663  14.157 -0.6240  0.0103  0.3958
  481MPD2    C4 7208   3.099   2.574  14.110  0.0190 -0.7098 -0.9358
  481MPD2    C5 7209   3.082   2.511  13.984  0.1315 -0.2264  0.4773
  481MPD2     H 7210   2.838   2.786  14.101 -1.2828 -1.1120  1.4313
  481MPD2    H1 7211   3.178   2.548  14.180 -0.0643 -1.9411 -1.3050
  481MPD2    H2 7212   2.948   2.477  13.818 -0.3438  0.2662 -0.5711
  481MPD2    H3 7213   3.143   2.424  13.963  0.5678  0.4617 -1.0803
  481MPD2     N 7214   3.022   2.705  14.293 -0.2411  1.0437  0.3854
  481MPD2    H5 7215   3.092   2.655  14.347 -0.6155  0.2385  0.1387
  481MPD2    N1 7216   2.764   2.663  13.870  0.0280 -0.3204 -0.1076
  481MPD2    H7 7217   2.755   2.638  13.772  0.4696 -3.6017  0.6669
  482TMC3    C1 7218   2.544   2.747  13.814 -0.4880 -0.4253 -1.0321
  482TMC3    C2 7219   2.483   2.626  13.774  0.0987  0.3668 -0.5873
  482TMC3    C3 7220   2.357   2.624  13.728  0.3044  0.5968  0.3117
  482TMC3    C4 7221   2.477   2.864  13.819  0.2616 -0.6597  0.5611
  482TMC3    C5 7222   2.343   2.856  13.775 -0.3456 -0.0453 -0.1405
  482TMC3    C6 7223   2.285   2.742  13.735 -0.2754 -0.3837  0.3926
  482TMC3     C 7224   2.660   2.750  13.900  0.0347 -0.0911  0.0776
  482TMC3     O 7225   2.648   2.824  14.000  0.2724  0.4401 -0.2068
  482TMC3     H 7226   2.534   2.531  13.785 -0.2967  0.5309  2.8780
  482TMC3    H1 7227   2.520   2.953  13.862  0.9277 -1.4189  1.4551
  482TMC3    H2 7228   2.187   2.745  13.689 -0.4359  0.9246  0.8295
  482TMC3    C7 7229   2.253   2.973  13.787 -0.3756  0.2407 -0.2699
  482TMC3    C8 7230   2.289   2.487  13.720 -0.3559 -0.0610 -0.0162
  482TMC3    O1 7231   2.134   2.956  13.782  0.0880  0.0662  0.5608
  482TMC3    O2 7232   2.358   2.387  13.706  0.1970 -0.7089 -0.2066
  483TMC3    C1 7233   1.082   2.125   0.763  0.3294 -0.1646  0.0898
  483TMC3    C2 7234   1.192   2.200   0.736 -0.2835 -0.8509  0.8520
  483TMC3    C3 7235   1.284   2.230   0.833 -0.5589 -0.1074 -0.3778
  483TMC3    C4 7236   1.065   2.080   0.892  0.5450  0.0452 -0.5136
  483TMC3    C5 7237   1.157   2.099   0.988  0.4851  0.4250 -0.1668
  483TMC3    C6 7238   1.273   2.173   0.958 -0.4951 -0.5329 -0.0371
  483TMC3     C 7239   1.044   2.049   0.644  0.0643 -0.0580 -0.0640
  483TMC3     O 7240   1.027   2.112   0.541  0.7651 -0.2149  0.3854
  483TMC3     H 7241   1.204   2.237   0.635  2.4905 -0.8337  1.1901
  483TMC3    H1 7242   0.982   2.012   0.907  0.6094 -0.2884 -1.7271
  483TMC3    H2 7243   1.346   2.186   1.037  0.3643  2.1744 -1.2602
  483TMC3    C7 7244   1.176   1.982   1.080 -0.1325  0.4066  0.8361
  483TMC3    C8 7245   1.396   2.314   0.785 -0.6683 -0.2579 -0.6917
  483TMC3    O1 7246   1.106   1.888   1.053  0.3494  0.0054 -0.2316
  483TMC3    O2 7247   1.414   2.308   0.665 -0.4335  0.1837  0.0894
  484MPD2     C 7248   3.816   4.497  13.071  0.2609  0.0051 -0.4283
  484MPD2    C1 7249   3.781   4.467  12.943  0.1499  0.0936  0.4012
  484MPD2    C2 7250   3.874   4.493  12.844 -0.3082 -0.3743 -0.1259
  484MPD2    C3 7251   3.993   4.556  12.875 -0.2542 -0.2948 -0.7430
  484MPD2    C4 7252   4.022   4.593  12.999  0.3129 -0.6015 -0.5127
  484MPD2    C5 7253   3.932   4.561  13.097 -0.1444  0.2495 -0.4617
  484MPD2     H 7254   3.850   4.470  12.740 -0.2612 -1.5958  0.1336
  484MPD2    H1 7255   4.108   4.645  13.040 -1.0593 -0.8637  2.7022
  484MPD2    H2 7256   3.750   4.470  13.153 -0.5374 -1.7343 -1.6445
  484MPD2    H3 7257   3.948   4.587  13.201  1.2818 -1.7923 -0.1565
  484MPD2     N 7258   4.094   4.587  12.778 -0.2313 -0.1007 -0.3851
  484MPD2    H5 7259   4.167   4.647  12.815  0.1224 -0.1169 -1.0572
  484MPD2    N1 7260   3.657   4.415  12.917 -0.2498 -0.1451 -0.1129
  484MPD2    H7 7261   3.597   4.395  12.996  0.4998 -2.9192 -0.2559
  485TMC3    C1 7262   4.196   4.641  12.580  0.2918 -0.2939  0.2115
  485TMC3    C2 7263   4.323   4.614  12.613 -0.3507  0.3403 -0.7163
  485TMC3    C3 7264   4.416   4.651  12.524  0.0139 -0.1086 -0.6689
  485TMC3    C4 7265   4.158   4.706  12.464 -0.5027 -0.5955 -0.1192
  485TMC3    C5 7266   4.251   0.004  12.381  0.2524  0.6329  0.2997
  485TMC3    C6 7267   4.383   4.726  12.418 -0.1861 -0.5681  0.5369
  485TMC3     C 7268   4.083   4.572  12.643 -0.2729 -0.1696  0.7893
  485TMC3     O 7269   3.991   4.532  12.578  0.2246  0.0513  0.7665
  485TMC3     H 7270   4.347   4.551  12.698 -0.8382  0.6158 -0.3741
  485TMC3    H1 7271   4.054   4.709  12.434  0.0559 -3.8548 -2.3929
  485TMC3    H2 7272   4.463   0.021  12.353 -1.4942 -2.8701 -2.2227
  485TMC3    C7 7273   4.212   4.732  12.240  0.6277 -0.0746 -0.7191
  485TMC3    C8 7274   4.502   4.538  12.475 -0.5288 -0.1856 -0.2447
  485TMC3    O1 7275   4.106   0.035  12.201  0.0399 -0.2840  0.4140
  485TMC3    O2 7276   4.520   4.536  12.352  0.0223  0.1852  0.8944
  486MPD2     C 7277   1.068   3.702  13.383 -0.0319 -0.3479 -0.1664
  486MPD2    C1 7278   1.071   3.665  13.250 -0.0505 -0.2931  0.5313
  486MPD2    C2 7279   1.048   3.764  13.152 -0.2251 -0.9069  0.1682
  486MPD2    C3 7280   1.026   3.895  13.186  0.5454 -0.1026  0.1201
  486MPD2    C4 7281   1.029   3.926  13.323  0.7097  0.7775 -1.2101
  486MPD2    C5 7282   1.048   3.833  13.419 -0.9316  0.2262  0.1535
  486MPD2     H 7283   1.048   3.748  13.045 -1.1531  4.0159 -0.5602
  486MPD2    H1 7284   1.019   4.026  13.361 -0.9891  0.5981 -1.1768
  486MPD2    H2 7285   1.077   3.630  13.463 -0.0992  1.3804  1.3955
  486MPD2    H3 7286   1.038   3.857  13.524  2.7921  0.9848  0.3564
  486MPD2     N 7287   0.993   3.992  13.089 -0.0544  1.0664  0.0818
  486MPD2    H5 7288   1.008   3.968  12.991 -0.7535  2.3758 -0.3424
  486MPD2    N1 7289   1.096   3.528  13.213 -0.3113  0.2859 -0.3475
  486MPD2    H7 7290   1.104   3.468  13.294  0.8529  0.6149 -0.2210
  487TMC3    C1 7291   1.132   3.338  13.071  0.4835 -0.5042 -0.4191
  487TMC3    C2 7292   1.069   3.279  12.961  0.1853 -0.4125 -0.3281
  487TMC3    C3 7293   1.043   3.143  12.962  0.4862 -0.2180 -0.6976
  487TMC3    C4 7294   1.183   3.266  13.174  0.1433 -0.3171 -0.0747
  487TMC3    C5 7295   1.161   3.130  13.162  0.1536  0.0617 -0.2224
  487TMC3    C6 7296   1.106   3.063  13.053 -0.6245  1.2259  0.1058
  487TMC3     C 7297   1.105   3.476  13.084 -0.7113 -0.0522 -0.1273
  487TMC3     O 7298   1.095   3.540  12.979 -0.4016  0.1844 -0.1912
  487TMC3     H 7299   1.016   3.344  12.892  1.9572  0.6618 -0.6917
  487TMC3    H1 7300   1.227   3.316  13.259  1.3434 -0.5092 -0.5905
  487TMC3    H2 7301   1.088   2.956  13.064  1.1988  1.0809  1.6504
  487TMC3    C7 7302   1.126   3.076  13.290  0.3247 -0.3604  0.2375
  487TMC3    C8 7303   0.900   3.105  12.962 -0.5425  0.4601  0.3071
  487TMC3    O1 7304   1.147   3.151  13.385  0.1895 -1.0181 -0.2987
  487TMC3    O2 7305   0.820   3.191  12.992 -0.1889 -0.1664 -0.0636
  488MPD2     C 7306   1.291   0.491  16.659  0.4183 -0.0911  1.0753
  488MPD2    C1 7307   1.334   0.619  16.699 -0.7646  0.7711 -0.7607
  488MPD2    C2 7308   1.359   0.642  16.834  0.2718 -0.2265  0.5489
  488MPD2    C3 7309   1.354   0.537  16.922 -0.8622 -0.4809  0.2542
  488MPD2    C4 7310   1.299   0.420  16.879  0.6426 -0.2330  1.3201
  488MPD2    C5 7311   1.262   0.396  16.751  0.4144 -0.1653 -0.6531
  488MPD2     H 7312   1.391   0.741  16.865 -0.1334  0.0672  0.0221
  488MPD2    H1 7313   1.283   0.339  16.949 -1.0998  0.3372  1.5737
  488MPD2    H2 7314   1.261   0.458  16.560 -0.0928  2.0142  0.5274
  488MPD2    H3 7315   1.210   0.305  16.725 -0.5044  0.2978 -0.4290
  488MPD2     N 7316   1.379   0.567  17.056  0.1717  0.0659  0.1698
  488MPD2    H5 7317   1.389   0.665  17.078 -0.2656 -0.5850  3.3169
  488MPD2    N1 7318   1.357   0.729  16.611  0.1798  0.8375 -0.4680
  488MPD2    H7 7319   1.390   0.818  16.647 -0.4269  1.7696 -2.1641
  489TMC3    C1 7320   1.351   0.549  17.278 -0.0491 -0.6375 -0.5329
  489TMC3    C2 7321   1.306   0.678  17.280 -0.4114  0.5169  0.0696
  489TMC3    C3 7322   1.311   0.748  17.396  0.0247 -0.5560 -0.3604
  489TMC3    C4 7323   1.381   0.488  17.395  0.0500 -0.4345 -0.0003
  489TMC3    C5 7324   1.386   0.561  17.507  0.0881  0.0275  0.8109
  489TMC3    C6 7325   1.349   0.697  17.516 -0.2534 -0.3646  0.1942
  489TMC3     C 7326   1.360   0.479  17.156  0.5058 -0.1316 -0.2259
  489TMC3     O 7327   1.363   0.356  17.159 -0.0436  0.0879  0.0449
  489TMC3     H 7328   1.256   0.723  17.195 -0.9704  0.2801  0.2716
  489TMC3    H1 7329   1.409   0.383  17.395  0.8282 -0.2334  1.9127
  489TMC3    H2 7330   1.341   0.749  17.611  0.8260 -0.1053  0.1404
  489TMC3    C7 7331   1.389   0.490  17.634  0.2045 -0.2412 -1.0374
  489TMC3    C8 7332   1.255   0.886  17.382  0.2058 -0.2813 -0.0789
  489TMC3    O1 7333   1.414   0.560  17.733  0.0133 -0.4701  0.3562
  489TMC3    O2 7334   1.180   0.903  17.290 -0.4723  0.3534 -0.0311
  490MPD2     C 7335   2.624   4.483   0.043  0.0762  0.0560 -0.0647
  490MPD2    C1 7336   2.496   4.530   0.048 -0.0150  0.7424 -0.0357
  490MPD2    C2 7337   2.477   4.661  17.741 -0.4836 -0.0107  0.0543
  490MPD2    C3 7338   2.578   4.737  17.706 -0.3544 -0.2524  0.3533
  490MPD2    C4 7339   2.700   4.680  17.680 -0.3130  0.0469  0.0915
  490MPD2    C5 7340   2.723   4.554  17.730  0.0665 -0.6852 -0.2365
  490MPD2     H 7341   2.373   4.692  17.733 -0.2563  1.0490  1.2041
  490MPD2    H1 7342   2.782   4.737  17.640  1.2651 -1.3536  1.3406
  490MPD2    H2 7343   2.648   4.386   0.084  0.3968 -0.3636 -1.2556
  490MPD2    H3 7344   2.825   4.520  17.742  1.0983  2.5469  0.0770
  490MPD2     N 7345   2.567   0.135  17.675  0.5636  0.5164 -0.0615
  490MPD2    H5 7346   2.650   0.178  17.636  0.9759 -0.3818 -0.1636
  490MPD2    N1 7347   2.388   4.454   0.100  0.3639  0.6453  0.4725
  490MPD2    H7 7348   2.292   4.485   0.101  0.1476 -0.0789  2.2160
  491TMC3    C1 7349   2.278   4.291   0.225  0.4191  0.2593  0.4161
  491TMC3    C2 7350   2.296   4.242   0.348  0.6901  0.1744 -0.3028
  491TMC3    C3 7351   2.213   4.135   0.378 -0.8295 -0.3160 -0.5400
  491TMC3    C4 7352   2.168   4.274   0.147  0.4042 -0.4237 -0.6477
  491TMC3    C5 7353   2.082   4.185   0.189  0.1259  0.2121 -0.3636
  491TMC3    C6 7354   2.106   4.104   0.306 -0.5737 -0.8482 -0.4665
  491TMC3     C 7355   2.403   4.335   0.168  0.0818  0.5203  0.0034
  491TMC3     O 7356   2.503   4.282   0.204 -0.3165 -0.2290 -0.0991
  491TMC3     H 7357   2.387   4.253   0.406 -1.2434  0.7385  2.6363
  491TMC3    H1 7358   2.158   4.326   0.053  0.5823 -3.0517 -2.1443
  491TMC3    H2 7359   2.055   4.011   0.329 -1.6661 -0.6506 -2.0905
  491TMC3    C7 7360   1.956   4.172   0.113 -0.2317 -0.0067 -0.7304
  491TMC3    C8 7361   2.206   4.095   0.522  0.0443  0.9230  0.0852
  491TMC3    O1 7362   1.959   4.234   0.008  0.0839 -0.0191  0.1491
  491TMC3    O2 7363   2.111   4.028   0.558  0.5380  0.0172  1.3308
  492MPD2     C 7364   1.834   4.683  11.651 -0.2539  0.3792  0.0975
  492MPD2    C1 7365   1.852   4.594  11.548  0.4148  0.0572  0.5229
  492MPD2    C2 7366   1.780   4.473  11.542 -0.3905  0.4337  0.1130
  492MPD2    C3 7367   1.683   4.444  11.632  0.0925  0.1819  0.1484
  492MPD2    C4 7368   1.659   4.536  11.727 -0.6412 -0.6012 -0.5672
  492MPD2    C5 7369   1.731   4.655  11.738 -0.0750  0.1111 -0.0579
  492MPD2     H 7370   1.810   4.401  11.467  0.8846 -0.5907  1.6079
  492MPD2    H1 7371   1.584   4.518  11.803 -0.0655  1.1135  0.4179
  492MPD2    H2 7372   1.884   0.042  11.649  0.5160 -0.0685 -1.9811
  492MPD2    H3 7373   1.696   4.727  11.811  0.8556  0.2835  0.2235
  492MPD2     N 7374   1.607   4.318  11.625  0.1295 -0.0934  0.4640
  492MPD2    H5 7375   1.544   4.297  11.702 -1.2332  2.7869  0.1079
  492MPD2    N1 7376   1.925   4.644  11.431  0.1684  0.0762 -0.0179
  492MPD2    H7 7377   1.968   4.734  11.452 -0.2621  0.0793  0.8488
  493TMC3    C1 7378   1.990   4.656  11.207 -0.9941  1.4480  0.5469
  493TMC3    C2 7379   2.001   0.055  11.214  0.1335 -0.2123  0.3153
  493TMC3    C3 7380   2.036   0.122  11.099  1.6822  0.3791 -0.0287
  493TMC3    C4 7381   1.973   4.603  11.081 -0.0161  1.2847 -0.3814
  493TMC3    C5 7382   1.978   4.678  10.964  0.4421  0.0968  0.2533
  493TMC3    C6 7383   2.020   0.071  10.968 -0.8920  0.3342 -0.4222
  493TMC3     C 7384   1.924   4.584  11.308  0.4431 -0.2483 -0.1564
  493TMC3     O 7385   1.851   4.501  11.261  0.4416  0.3926  0.3875
  493TMC3     H 7386   1.990   0.106  11.309 -1.2650  0.7439 -0.3621
  493TMC3    H1 7387   1.964   4.495  11.073 -0.8228  1.5777 -3.5310
  493TMC3    H2 7388   2.019   0.140  10.884  2.0873 -0.1873 -0.8591
  493TMC3    C7 7389   1.919   4.628  10.841 -0.4825 -0.4171 -0.1987
  493TMC3    C8 7390   2.106   0.254  11.124 -0.1647 -0.5986  0.8909
  493TMC3    O1 7391   1.842   4.709  10.787  0.2207  0.2343 -0.1262
  493TMC3    O2 7392   2.127   0.274  11.245 -0.0566  0.2074 -0.8068
  494TMC3    C1 7393   2.558   1.830   0.622 -0.3555 -0.3526 -0.6673
  494TMC3    C2 7394   2.561   1.695   0.608 -0.3840 -0.1315 -0.2496
  494TMC3    C3 7395   2.547   1.648   0.484 -0.0196 -0.1142  0.3244
  494TMC3    C4 7396   2.554   1.915   0.513 -0.2195 -0.3552  0.4272
  494TMC3    C5 7397   2.555   1.862   0.388  0.0842  0.4660  0.2816
  494TMC3    C6 7398   2.553   1.727   0.369  0.3950 -0.1424  0.3244
  494TMC3     C 7399   2.587   1.885   0.756 -0.8734  0.0283  0.2400
  494TMC3     O 7400   2.532   1.986   0.794  0.0534 -0.2913 -0.3331
  494TMC3     H 7401   2.551   1.626   0.692 -1.0390 -0.8169 -0.8886
  494TMC3    H1 7402   2.570   2.022   0.525  0.7364 -0.4698  0.2023
  494TMC3    H2 7403   2.555   1.680   0.271  0.0132 -0.4851  0.4800
  494TMC3    C7 7404   2.615   1.939   0.277 -0.2741  0.7640 -0.0568
  494TMC3    C8 7405   2.558   1.503   0.472 -0.4863  0.4746 -0.2977
  494TMC3    O1 7406   2.704   1.874   0.224  0.2797  0.0469  0.1557
  494TMC3    O2 7407   2.584   1.439   0.573  0.3402 -0.1223 -0.5108
  495TMC3    C1 7408   1.260   3.356  14.594 -0.3759  0.9470 -0.7820
  495TMC3    C2 7409   1.190   3.374  14.480 -0.7355  0.1808  0.1531
  495TMC3    C3 7410   1.105   3.488  14.476  0.1071  0.6785  0.2435
  495TMC3    C4 7411   1.256   3.445  14.695 -0.5411  0.3489  0.2499
  495TMC3    C5 7412   1.175   3.552  14.687  0.4217 -0.6387  0.2426
  495TMC3    C6 7413   1.095   3.574  14.580  0.0289 -0.0116 -0.3499
  495TMC3     C 7414   1.311   3.221  14.618 -0.7941  0.8914 -0.1496
  495TMC3     O 7415   1.430   3.196  14.600 -0.0770  0.2175 -0.1021
  495TMC3     H 7416   1.185   3.288  14.415 -0.9565 -0.5234  1.0971
  495TMC3    H1 7417   1.307   3.413  14.785 -0.0681  1.1357  0.2558
  495TMC3    H2 7418   1.028   3.659  14.574  0.9423  0.6130 -1.7691
  495TMC3    C7 7419   1.135   3.577  14.819 -0.3940 -0.2680  0.5110
  495TMC3    C8 7420   1.003   3.492  14.376 -0.2060  1.3605  0.3794
  495TMC3    O1 7421   1.216   3.622  14.901 -0.6787  0.4453 -0.1934
  495TMC3    O2 7422   0.904   3.562  14.402  0.3491  0.0654  0.5142
  496MPD2     C 7423   3.035   3.990  15.608 -0.5618 -0.6984  0.4015
  496MPD2    C1 7424   3.131   3.897  15.607 -0.3539 -0.3041  0.6693
  496MPD2    C2 7425   3.109   3.766  15.645  0.3129 -0.3653  0.6554
  496MPD2    C3 7426   2.981   3.722  15.672 -0.2911 -0.4632  0.4762
  496MPD2    C4 7427   2.886   3.813  15.679  0.3238  0.2026  0.0640
  496MPD2    C5 7428   2.913   3.945  15.636 -0.0470 -0.5764 -0.1839
  496MPD2     H 7429   3.188   3.696  15.623 -1.6623 -2.0309 -1.1984
  496MPD2    H1 7430   2.786   3.794  15.717  0.0465  1.3529 -0.0600
  496MPD2    H2 7431   3.055   4.092  15.576  0.1939 -1.3511 -1.1879
  496MPD2    H3 7432   2.842   4.025  15.650  2.3916  1.1836  2.1426
  496MPD2     N 7433   2.955   3.587  15.697  0.2561 -0.0077  0.2019
  496MPD2    H5 7434   3.036   3.526  15.686  0.2783 -0.6061  3.5679
  496MPD2    N1 7435   3.257   3.944  15.564 -0.2433 -0.1915 -0.1402
  496MPD2    H7 7436   3.277   4.037  15.528 -0.0299 -1.4034 -3.1344
  497TMC3    C1 7437   2.850   3.387  15.684  0.5039  0.7500  0.2516
  497TMC3    C2 7438   2.843   3.334  15.560 -0.1755 -0.3970  0.2898
  497TMC3    C3 7439   2.940   3.242  15.529 -0.3382 -0.3063 -0.3142
  497TMC3    C4 7440   2.942   3.347  15.771  0.1152  0.4444 -0.0935
  497TMC3    C5 7441   3.028   3.240  15.744  0.1013  0.3205 -0.1413
  497TMC3    C6 7442   3.027   3.180  15.620  0.4275 -0.1681 -0.0381
  497TMC3     C 7443   2.826   3.528  15.681  0.3708 -0.2682 -0.2623
  497TMC3     O 7444   2.712   3.569  15.653 -0.3129  0.5590 -0.1766
  497TMC3     H 7445   2.780   3.380  15.485  1.0017 -0.4274 -0.7251
  497TMC3    H1 7446   2.946   3.391  15.870 -1.3354 -1.0649  0.6343
  497TMC3    H2 7447   3.091   3.095  15.598  0.9297  0.4622 -1.0157
  497TMC3    C7 7448   3.096   3.189  15.862 -0.3688  0.3110  0.0703
  497TMC3    C8 7449   2.941   3.208  15.388  0.5243  0.0757  0.0592
  497TMC3    O1 7450   3.064   3.074  15.896  0.4711  0.5318  0.2006
  497TMC3    O2 7451   2.838   3.230  15.324  0.5602 -0.0246  0.4237
  498MPD2     C 7452   0.178   4.369  10.206 -0.1203  0.7976  0.2751
  498MPD2    C1 7453   0.070   4.448  10.202 -0.0157  0.0396 -0.0053
  498MPD2    C2 7454   4.682   4.397  10.169  0.1664  0.8888 -0.2842
  498MPD2    C3 7455   4.664   4.263  10.142 -0.1334 -0.3633  0.0995
  498MPD2    C4 7456   0.037   4.181  10.151 -0.3535 -0.2743 -0.3888
  498MPD2    C5 7457   0.162   4.228  10.189 -1.0473 -0.2957  0.5770
  498MPD2     H 7458   4.590   4.455  10.167  0.0335  0.7820  2.3540
  498MPD2    H1 7459   0.039   4.080  10.111 -0.4331  0.0848 -1.2833
  498MPD2    H2 7460   0.280   4.399  10.227 -0.1518  0.5417  0.8102
  498MPD2    H3 7461   0.244   4.158  10.196  0.3450  1.4916  2.2336
  498MPD2     N 7462   4.536   4.211  10.107 -0.1993  0.1882 -0.0344
  498MPD2    H5 7463   4.454   4.269  10.120  1.2191  1.7346  2.0400
  498MPD2    N1 7464   0.083   4.591  10.226 -0.3121  0.4130 -0.2080
  498MPD2    H7 7465   4.735   4.646  10.220  0.6514  1.7828 -1.1842
  499TMC3    C1 7466   0.176   0.065  10.251  0.5082  0.2933 -0.1545
  499TMC3    C2 7467   0.250   0.147  10.329  0.1318 -0.6641  0.1700
  499TMC3    C3 7468   0.212   0.283  10.343  0.1439  0.3637 -0.3871
  499TMC3    C4 7469   0.073   0.119  10.177 -0.6888  0.6458 -0.1596
  499TMC3    C5 7470   0.049   0.250  10.185  0.6109 -0.7349 -0.0971
  499TMC3    C6 7471   0.122   0.335  10.262 -0.7285 -0.1934 -0.4157
  499TMC3     C 7472   0.195   4.662  10.256 -0.1952  0.5403  0.8267
  499TMC3     O 7473   0.304   4.629  10.296  0.0111  0.5981  0.3243
  499TMC3     H 7474   0.315   0.098  10.401  0.9945  0.4481  0.1617
  499TMC3    H1 7475   0.011   0.051  10.120 -1.0456 -0.1463  1.1780
  499TMC3    H2 7476   0.101   0.441  10.257  2.1240  0.3542 -0.7212
  499TMC3    C7 7477   4.659   0.307  10.130 -0.2723 -0.0867  0.2390
  499TMC3    C8 7478   0.298   0.376  10.409  0.1797  0.7940 -0.5771
  499TMC3    O1 7479   4.634   0.424  10.146 -0.6065 -0.3212 -0.0147
  499TMC3    O2 7480   0.289   0.494  10.389 -0.3735 -0.0980  0.0899
  500MPD2     C 7481   1.001   1.017  10.762  0.7769 -0.3899 -0.4617
  500MPD2    C1 7482   0.968   1.001  10.627 -0.4672 -0.0233 -0.0761
  500MPD2    C2 7483   0.835   0.989  10.595 -0.3250  0.3379  0.0330
  500MPD2    C3 7484   0.739   0.991  10.696  0.9252  0.4369 -0.4088
  500MPD2    C4 7485   0.776   1.007  10.829 -0.1598  0.0920  0.0325
  500MPD2    C5 7486   0.906   1.027  10.858 -0.3313 -0.1781 -0.5888
  500MPD2     H 7487   0.799   0.985  10.493 -3.2206  3.0597  0.9749
  500MPD2    H1 7488   0.706   1.001  10.912  0.7207  3.3019  1.0068
  500MPD2    H2 7489   1.103   1.033  10.795  0.2092  0.0800  1.0514
  500MPD2    H3 7490   0.939   1.038  10.961 -2.3916 -1.1754  0.1905
  500MPD2     N 7491   0.599   0.998  10.660  0.1576  0.3767 -0.1495
  500MPD2    H5 7492   0.542   1.031  10.736 -2.4860  1.4066 -2.5777
  500MPD2    N1 7493   1.062   0.994  10.518 -0.0109  0.9579  0.3286
  500MPD2    H7 7494   1.016   0.984  10.428  2.7879  0.0852 -0.9912
  501TMC3    C1 7495   1.283   1.010  10.417  0.0424 -0.0419  0.0342
  501TMC3    C2 7496   1.240   1.095  10.311  0.5598  0.2800 -0.8874
  501TMC3    C3 7497   1.339   1.152  10.235 -0.8538  0.2137 -0.2486
  501TMC3    C4 7498   1.415   0.971  10.423  0.1447  0.7028 -0.1559
  501TMC3    C5 7499   1.508   1.038  10.355 -0.8255  0.2498 -0.6091
  501TMC3    C6 7500   1.471   1.130  10.262 -0.7512 -0.4976  0.2901
  501TMC3     C 7501   1.202   0.993  10.537 -0.2465  0.1745  0.5301
  501TMC3     O 7502   1.266   0.984  10.639  0.4780  0.2834  0.2290
  501TMC3     H 7503   1.137   1.129  10.304  0.0110 -0.9962  1.0041
  501TMC3    H1 7504   1.447   0.896  10.494  3.0913 -0.8350 -3.1640
  501TMC3    H2 7505   1.551   1.181  10.210 -0.5930  0.0710  1.0788
  501TMC3    C7 7506   1.646   1.022  10.397  0.3650 -0.2270 -0.1719
  501TMC3    C8 7507   1.308   1.290  10.212 -0.0267  1.2116  0.0324
  501TMC3    O1 7508   1.678   0.911  10.436 -0.2878 -0.1234 -0.3946
  501TMC3    O2 7509   1.262   1.347  10.312  0.6267 -0.2196  0.4404
  502TMC3    C1 7510   0.810   0.175  15.612 -0.1304  0.1517 -0.2841
  502TMC3    C2 7511   0.761   0.271  15.530 -0.4524  0.1016 -0.2498
  502TMC3    C3 7512   0.659   0.245  15.443 -0.4823  0.0662  0.2664
  502TMC3    C4 7513   0.766   0.046  15.602  1.1069 -0.1045 -0.7542
  502TMC3    C5 7514   0.663   0.021  15.518  0.0694 -0.0200  0.3257
  502TMC3    C6 7515   0.617   0.115  15.430 -0.3758 -0.3889  0.1535
  502TMC3     C 7516   0.914   0.207  15.707 -0.6674  0.0432 -0.4109
  502TMC3     O 7517   0.976   0.311  15.690 -0.7140 -0.1980 -0.1687
  502TMC3     H 7518   0.796   0.372  15.542 -1.0842  0.3036 -0.1213
  502TMC3    H1 7519   0.791   4.703  15.671  0.1288 -1.0802 -1.5244
  502TMC3    H2 7520   0.540   0.094  15.357 -0.1805  2.4023 -0.8635
  502TMC3    C7 7521   0.602   4.626  15.526 -0.4442 -0.3471 -0.1199
  502TMC3    C8 7522   0.620   0.347  15.347 -0.1118  0.4068  0.3511
  502TMC3    O1 7523   0.652   4.560  15.615 -0.1173 -0.1386 -0.4177
  502TMC3    O2 7524   0.707   0.430  15.331 -0.9527 -0.2340  0.1695
  503MPD2     C 7525   2.997   0.645  16.742 -0.7584  0.0135 -0.6464
  503MPD2    C1 7526   2.997   0.659  16.882 -0.1431  0.1586  0.3843
  503MPD2    C2 7527   3.081   0.579  16.956  0.4178  0.3302  0.5046
  503MPD2    C3 7528   3.149   0.470  16.904 -0.6378 -0.4244 -0.1929
  503MPD2    C4 7529   3.146   0.447  16.761  0.5320  0.4560 -0.3992
  503MPD2    C5 7530   3.068   0.540  16.690  0.4490  0.2607 -1.2797
  503MPD2     H 7531   3.077   0.597  17.063  0.5677  1.5078  0.3112
  503MPD2    H1 7532   3.210   0.376  16.710  1.2203  0.1766  0.8453
  503MPD2    H2 7533   2.951   0.717  16.675  0.7883  1.2395 -0.3943
  503MPD2    H3 7534   3.071   0.525  16.583 -2.3991  1.4703 -1.5117
  503MPD2     N 7535   3.219   0.389  16.990 -0.1683  0.6149  0.3830
  503MPD2    H5 7536   3.211   0.401  17.091  1.0503 -1.9196  0.7955
  503MPD2    N1 7537   2.924   0.751  16.962 -0.4462 -0.5269  0.4214
  503MPD2    H7 7538   2.929   0.740  17.063 -1.5080  0.3365  0.5644
  504TMC3    C1 7539   3.361   0.220  17.078 -0.3361 -0.1911  0.1847
  504TMC3    C2 7540   3.336   0.254  17.207  0.1796  0.0700 -0.0657
  504TMC3    C3 7541   3.409   0.191  17.309 -0.1760 -0.3742 -0.0034
  504TMC3    C4 7542   3.455   0.123  17.052 -0.3160 -0.9752 -0.4223
  504TMC3    C5 7543   3.537   0.082  17.156  0.5532  0.3033  0.4897
  504TMC3    C6 7544   3.516   0.111  17.287  0.0189  0.1917 -0.0835
  504TMC3     C 7545   3.295   0.276  16.959  0.4955  0.9199 -0.3134
  504TMC3     O 7546   3.309   0.216  16.852  0.2512 -0.2646  0.2132
  504TMC3     H 7547   3.257   0.324  17.233 -0.4987 -0.1282 -1.5831
  504TMC3    H1 7548   3.473   0.100  16.948 -1.5923  1.8424 -1.2846
  504TMC3    H2 7549   3.563   0.058  17.369 -0.8116  2.0044  1.5680
  504TMC3    C7 7550   3.654   0.008  17.118 -0.3525  0.2200  0.9053
  504TMC3    C8 7551   3.356   0.211  17.446  0.3778  0.1162 -0.2003
  504TMC3    O1 7552   3.643   4.701  17.001  0.0765  0.8218 -0.1431
  504TMC3    O2 7553   3.254   0.282  17.448 -0.3522  0.4879  0.4613
  505MPD2     C 7554   3.202   3.750  10.199  0.4004  0.3873  0.4397
  505MPD2    C1 7555   3.252   3.756  10.323 -0.2468  0.9523  0.0025
  505MPD2    C2 7556   3.262   3.877  10.389 -0.1224  0.0492  0.5222
  505MPD2    C3 7557   3.218   3.993  10.333  0.5232  0.5434  0.3198
  505MPD2    C4 7558   3.171   3.989  10.204  0.9541  0.1523  0.4166
  505MPD2    C5 7559   3.157   3.864  10.140 -0.4421 -0.2809 -0.4937
  505MPD2     H 7560   3.326   3.886  10.477 -1.7245 -0.4558  1.7325
  505MPD2    H1 7561   3.150   4.082  10.151  2.3675 -0.9422 -2.0600
  505MPD2    H2 7562   3.210   3.654  10.149  0.6395  0.6653 -0.0590
  505MPD2    H3 7563   3.121   3.859  10.038 -0.7241  1.0737 -0.4605
  505MPD2     N 7564   3.237   4.116  10.395  0.3482 -0.3641 -0.7257
  505MPD2    H5 7565   3.221   4.201  10.342  0.6058 -1.0880 -1.9455
  505MPD2    N1 7566   3.309   3.638  10.374 -0.5396 -0.4322  0.4916
  505MPD2    H7 7567   3.322   3.559  10.311  1.7355  0.6842 -0.4393
  506TMC3    C1 7568   3.416   3.490  10.526  0.3105 -0.2566  0.6612
  506TMC3    C2 7569   3.503   3.461  10.421 -0.1822  0.0225  0.3682
  506TMC3    C3 7570   3.638   3.452  10.448  0.7747 -0.7182  0.1113
  506TMC3    C4 7571   3.452   3.490  10.659  0.7110  0.0826  0.1018
  506TMC3    C5 7572   3.591   3.488  10.678  0.8030 -0.6181  0.2387
  506TMC3    C6 7573   3.684   3.460  10.576 -0.0196 -0.1936  0.2823
  506TMC3     C 7574   3.337   3.611  10.504 -0.7761 -0.2134 -0.7509
  506TMC3     O 7575   3.317   3.684  10.603 -0.1840 -0.9201 -0.0632
  506TMC3     H 7576   3.478   3.460  10.316 -1.7340  0.5124  0.7376
  506TMC3    H1 7577   3.389   3.514  10.744 -0.8692  0.6922 -1.2383
  506TMC3    H2 7578   3.787   3.481  10.601  0.4019 -3.3186  1.2385
  506TMC3    C7 7579   3.630   3.571  10.787  0.1065 -0.0454  0.4206
  506TMC3    C8 7580   3.739   3.493  10.351 -0.3372  0.5230  0.1037
  506TMC3    O1 7581   3.722   3.547  10.860 -0.4990 -0.3943 -0.1224
  506TMC3    O2 7582   3.810   3.582  10.391 -0.1556 -0.1949 -0.3007
  507TMC3    C1 7583   4.611   1.037  14.933 -0.4504  0.0135  0.8334
  507TMC3    C2 7584   4.648   0.960  14.826  0.3701 -0.2423 -0.6757
  507TMC3    C3 7585   4.597   0.999  14.700 -0.6595  0.6452  0.3151
  507TMC3    C4 7586   4.534   1.149  14.919  0.1389  0.2232  0.4638
  507TMC3    C5 7587   4.519   1.204  14.798 -0.9598 -0.3311  0.3277
  507TMC3    C6 7588   4.550   1.130  14.689  0.3182  0.1535 -0.2965
  507TMC3     C 7589   4.617   0.978  15.065 -0.5882  0.2489  0.4138
  507TMC3     O 7590   4.603   1.061  15.156  0.4964 -0.0492  0.8851
  507TMC3     H 7591   4.713   0.877  14.849 -1.3476 -1.4929 -0.3620
  507TMC3    H1 7592   4.513   1.201  15.012  2.7044  0.8236  0.6886
  507TMC3    H2 7593   4.549   1.181  14.594 -2.1355 -1.7458 -1.2954
  507TMC3    C7 7594   4.410   1.300  14.768  0.0478  0.1883 -0.6254
  507TMC3    C8 7595   4.520   0.904  14.627  0.4865 -0.2422  0.0183
  507TMC3    O1 7596   4.354   1.272  14.661  0.0463 -0.0687  0.3191
  507TMC3    O2 7597   4.553   0.787  14.620 -0.0425 -0.4342 -0.0091
  508MPD2     C 7598   0.136   2.103  15.921  0.1508 -0.2949  0.4163
  508MPD2    C1 7599   0.240   2.184  15.945 -0.5072 -0.2103  0.0188
  508MPD2    C2 7600   0.278   2.263  15.835 -0.0919  0.6839  0.9170
  508MPD2    C3 7601   0.219   2.258  15.710 -0.3739 -0.4007 -0.2287
  508MPD2    C4 7602   0.129   2.156  15.688  0.2882 -0.3458 -0.6832
  508MPD2    C5 7603   0.082   2.085  15.794 -0.4828  0.5211 -0.6356
  508MPD2     H 7604   0.367   2.325  15.832  0.3168 -0.0546 -1.4926
  508MPD2    H1 7605   0.087   2.145  15.589 -1.3633  0.2954 -0.0585
  508MPD2    H2 7606   0.095   2.035  15.994 -1.5025  1.5665  1.2292
  508MPD2    H3 7607   4.737   2.016  15.777  0.0320 -0.5826  1.3885
  508MPD2     N 7608   0.279   2.337  15.606  0.5872 -0.0640  0.0407
  508MPD2    H5 7609   0.351   2.400  15.639  0.2504  0.4555 -0.2204
  508MPD2    N1 7610   0.297   2.197  16.074 -0.5299  0.3092 -0.6699
  508MPD2    H7 7611   0.268   2.132  16.147  0.4344 -0.5136 -1.0128
  509TMC3    C1 7612   0.307   2.623  15.262 -0.1003  0.4622 -0.2026
  509TMC3    C2 7613   0.412   2.694  15.320  0.9634 -0.2187 -0.0250
  509TMC3    C3 7614   0.479   2.616  15.409 -0.0823 -0.3085 -0.2257
  509TMC3    C4 7615   0.262   2.498  15.298 -0.9623 -0.7025 -0.3490
  509TMC3    C5 7616   0.321   2.442  15.406 -1.1769  0.5367  0.0372
  509TMC3    C6 7617   0.432   2.497  15.464 -0.1665  0.0688 -0.1607
  509TMC3     C 7618   0.213   2.692  15.178  0.4448  0.1011  0.3842
  509TMC3     O 7619   0.160   2.640  15.081  0.2765 -0.3590  0.0928
  509TMC3     H 7620   0.461   2.774  15.267  1.4630 -0.2263  0.4213
  509TMC3    H1 7621   0.167   2.467  15.257  0.3879 -2.3716 -2.2196
  509TMC3    H2 7622   0.499   2.439  15.527  0.2858 -0.1187 -0.8119
  509TMC3    C7 7623   0.242   2.347  15.475  0.1486 -0.0748  0.1180
  509TMC3    C8 7624   0.594   2.663  15.470  0.2140 -0.5582  0.0014
  509TMC3    O1 7625   0.151   2.294  15.408  0.6159 -0.9865 -0.3676
  509TMC3    O2 7626   0.691   2.589  15.476 -0.2510  0.4405 -0.2756
  510MPD2     C 7627   2.591   4.228  14.677  0.4297 -0.3705 -0.4264
  510MPD2    C1 7628   2.633   4.114  14.737 -0.0463 -1.0711  0.4496
  510MPD2    C2 7629   2.761   4.070  14.712  0.3351  0.3922 -0.6834
  510MPD2    C3 7630   2.847   4.132  14.631 -0.3167  0.0231 -0.3886
  510MPD2    C4 7631   2.801   4.245  14.568  1.1055 -0.4062 -0.7958
  510MPD2    C5 7632   2.674   4.294  14.587 -0.0239  0.7341 -0.2453
  510MPD2     H 7633   2.794   3.984  14.769  1.7538  0.5367 -1.2625
  510MPD2    H1 7634   2.870   4.304  14.507  1.1817 -1.1058 -1.3787
  510MPD2    H2 7635   2.486   4.254  14.663  0.5157  0.4101  0.3854
  510MPD2    H3 7636   2.637   4.384  14.539  1.1071  0.8425 -0.9155
  510MPD2     N 7637   2.975   4.066  14.611  0.1505  0.0907 -0.8720
  510MPD2    H5 7638   2.990   3.985  14.670  0.0285 -0.9397 -2.2916
  510MPD2    N1 7639   2.538   4.051  14.820 -0.4861 -0.6367 -0.5145
  510MPD2    H7 7640   2.442   4.084  14.814 -1.0320 -2.2084 -0.1531
  511TMC3    C1 7641   2.440   3.878  14.943 -0.7005 -0.7455  0.9813
  511TMC3    C2 7642   2.354   3.956  15.015 -0.0741 -0.0143 -0.0641
  511TMC3    C3 7643   2.242   3.903  15.078 -0.1435  0.0167  0.1366
  511TMC3    C4 7644   2.415   3.744  14.924  0.1419  0.0574 -0.6472
  511TMC3    C5 7645   2.297   3.696  14.978 -0.3221  1.1797  0.1587
  511TMC3    C6 7646   2.213   3.771  15.054  0.4580 -0.1618  0.2332
  511TMC3     C 7647   2.558   3.925  14.878  0.4190  0.4049 -0.2303
  511TMC3     O 7648   2.645   3.844  14.857 -0.2194  0.0712  0.4290
  511TMC3     H 7649   2.384   4.058  15.035 -2.2095  0.2851  1.5115
  511TMC3    H1 7650   2.473   3.675  14.864  3.2625 -0.2112  2.6553
  511TMC3    H2 7651   2.119   3.728  15.089  1.1777 -1.1751  0.9098
  511TMC3    C7 7652   2.247   3.583  14.900 -0.8808  0.5089  0.3495
  511TMC3    C8 7653   2.216   3.966  15.207 -0.7061 -0.0513 -0.7489
  511TMC3    O1 7654   2.294   3.564  14.790  0.5216 -0.4817  0.1141
  511TMC3    O2 7655   2.225   4.090  15.203  0.5206 -0.3083  0.3581
  512TMC3    C1 7656   1.376   3.666  13.594  0.2554 -0.0001 -0.7995
  512TMC3    C2 7657   1.431   3.629  13.711 -0.1886 -0.2779  0.5308
  512TMC3    C3 7658   1.500   3.510  13.715 -0.5342 -0.1852  0.2900
  512TMC3    C4 7659   1.388   3.597  13.475 -0.1798  0.6889 -0.2052
  512TMC3    C5 7660   1.454   3.479  13.483  0.6951 -0.1536  0.2323
  512TMC3    C6 7661   1.503   3.430  13.600 -0.1274 -0.3938  0.2625
  512TMC3     C 7662   1.361   3.806  13.587  0.1718  0.7804 -0.1623
  512TMC3     O 7663   1.434   3.869  13.514 -0.3202 -0.4278  0.0407
  512TMC3     H 7664   1.436   3.690  13.801 -0.1231  0.6520 -0.1019
  512TMC3    H1 7665   1.358   3.644  13.382 -1.1798 -1.1420 -0.8106
  512TMC3    H2 7666   1.575   3.348  13.602  0.6182  0.2644  0.5449
  512TMC3    C7 7667   1.475   3.405  13.364  0.0973  0.1258  0.2846
  512TMC3    C8 7668   1.589   3.463  13.829 -0.2650 -0.3446 -0.0316
  512TMC3    O1 7669   1.421   3.452  13.263 -0.0924 -0.3232  0.1615
  512TMC3    O2 7670   1.645   3.352  13.824  0.6667  0.6555  0.1595
  513MPD2     C 7671   3.685   3.072  13.077  0.2027  0.4270 -0.2832
  513MPD2    C1 7672   3.743   3.194  13.103 -0.4990  0.0302 -0.0655
  513MPD2    C2 7673   3.707   3.270  13.219 -0.6177  0.8719  0.1252
  513MPD2    C3 7674   3.612   3.217  13.303  0.2332 -0.2023  0.0702
  513MPD2    C4 7675   3.554   3.097  13.277 -0.5169 -0.5914 -0.0727
  513MPD2    C5 7676   3.588   3.026  13.167 -0.0253  0.7417 -0.8387
  513MPD2     H 7677   3.740   3.370  13.246 -1.5095  1.2517 -0.1681
  513MPD2    H1 7678   3.480   3.043  13.334 -0.5217  0.3398  0.8057
  513MPD2    H2 7679   3.726   3.003  13.004 -3.6820 -1.5386 -0.5783
  513MPD2    H3 7680   3.547   2.927  13.156 -0.3764  0.8502 -0.4948
  513MPD2     N 7681   3.569   3.306  13.407 -0.3962  0.3963 -0.3517
  513MPD2    H5 7682   3.604   3.400  13.396 -3.4823  1.3555 -2.0769
  513MPD2    N1 7683   3.831   3.247  13.002  0.1465 -0.3996  0.1775
  513MPD2    H7 7684   3.845   3.201  12.913 -1.0125 -2.5929  1.1300
  514TMC3    C1 7685   3.933   3.440  12.877  0.4382  0.1804 -0.1525
  514TMC3    C2 7686   3.841   3.426  12.780 -0.7676  0.3873 -0.4664
  514TMC3    C3 7687   3.798   3.529  12.714 -0.6583  0.3516 -0.1076
  514TMC3    C4 7688   3.983   3.565  12.904 -0.2268  0.2425 -0.3070
  514TMC3    C5 7689   3.934   3.672  12.834  0.5893  0.2994 -0.0781
  514TMC3    C6 7690   3.844   3.654  12.733  0.2718 -0.0557  0.1224
  514TMC3     C 7691   3.892   3.375  13.008 -0.5420 -0.3188 -0.7644
  514TMC3     O 7692   3.873   3.460  13.093  0.2287  0.2574 -0.1856
  514TMC3     H 7693   3.795   3.330  12.762  4.3869 -2.3151  0.6588
  514TMC3    H1 7694   4.046   3.578  12.992  0.6212 -1.1282 -0.7091
  514TMC3    H2 7695   3.795   3.743  12.693 -1.4662 -0.9917  0.1860
  514TMC3    C7 7696   3.922   3.792  12.905  0.3822  0.0123 -0.0555
  514TMC3    C8 7697   3.652   3.528  12.685 -0.6859 -0.0984  0.5603
  514TMC3    O1 7698   3.906   3.899  12.843 -0.4158  0.4786  0.0917
  514TMC3    O2 7699   3.584   3.616  12.735  0.1575 -0.0407  0.3597
  515MPD2     C 7700   1.450   0.736  15.495  0.6224 -0.5407 -0.1284
  515MPD2    C1 7701   1.474   0.685  15.365 -0.1717  0.1872  0.1434
  515MPD2    C2 7702   1.598   0.711  15.309 -0.2561 -0.2498 -0.4088
  515MPD2    C3 7703   1.692   0.787  15.383 -0.4177 -0.9563  0.5897
  515MPD2    C4 7704   1.657   0.835  15.503 -0.4861 -0.0797 -0.8856
  515MPD2    C5 7705   1.542   0.802  15.565  0.0961  0.4029 -0.3613
  515MPD2     H 7706   1.618   0.666  15.213  1.2083  0.3960 -0.4000
  515MPD2    H1 7707   1.723   0.896  15.562 -2.4962  1.5557 -0.3392
  515MPD2    H2 7708   1.358   0.713  15.548  0.2383  1.9581  0.2773
  515MPD2    H3 7709   1.512   0.857  15.653 -1.8783  0.1837 -0.9078
  515MPD2     N 7710   1.824   0.815  15.329 -0.0150 -0.1034  0.4889
  515MPD2    H5 7711   1.877   0.884  15.382 -1.4188  0.5489  1.0502
  515MPD2    N1 7712   1.386   0.601  15.296  0.2930  0.0236  0.2704
  515MPD2    H7 7713   1.409   0.563  15.205  0.6750  3.5988 -1.1371
  516TMC3    C1 7714   1.180   0.474  15.259  0.4747 -0.0163 -0.2260
  516TMC3    C2 7715   1.186   0.480  15.123 -0.2243 -0.0312  0.6536
  516TMC3    C3 7716   1.139   0.370  15.054 -0.2541  0.3093 -0.9832
  516TMC3    C4 7717   1.149   0.357  15.328 -0.0704  0.4372  0.5565
  516TMC3    C5 7718   1.101   0.254  15.257 -0.4072  0.1461 -0.1304
  516TMC3    C6 7719   1.094   0.258  15.119  0.8904  0.3895 -0.3757
  516TMC3     C 7720   1.255   0.573  15.337  0.3556  0.0307  0.5205
  516TMC3     O 7721   1.203   0.598  15.444 -0.2823 -0.0633  0.0840
  516TMC3     H 7722   1.207   0.580  15.087  2.0883 -0.6168  0.3964
  516TMC3    H1 7723   1.142   0.362  15.436  1.7859  0.2642  0.6858
  516TMC3    H2 7724   1.073   0.164  15.070 -0.2392 -0.1246  1.0876
  516TMC3    C7 7725   1.092   0.126  15.327 -0.4721 -0.6969 -0.2547
  516TMC3    C8 7726   1.126   0.374  14.909 -0.2669 -0.0562 -0.3407
  516TMC3    O1 7727   1.149   0.129  15.435  0.4189  0.2237 -0.5197
  516TMC3    O2 7728   1.048   0.298  14.859  0.0788 -0.4787  0.3253
  517MPD2     C 7729   1.336   2.189  17.566  0.5360  0.5629  0.5440
  517MPD2    C1 7730   1.469   2.180  17.605 -0.2126 -0.9086  0.0632
  517MPD2    C2 7731   1.519   2.281  17.689 -0.2063  0.5308 -0.5224
  517MPD2    C3 7732   1.446   2.395  17.718 -0.1082  0.6835  0.7683
  517MPD2    C4 7733   1.323   2.412  17.658  0.8944  0.3187  0.1991
  517MPD2    C5 7734   1.270   2.310  17.583  0.5530  0.3008  0.5540
  517MPD2     H 7735   1.622   2.270  17.724 -0.4925 -0.0761  0.1274
  517MPD2    H1 7736   1.270   2.505  17.674 -1.2735 -0.8652 -0.0799
  517MPD2    H2 7737   1.298   2.113  17.498 -1.1009  0.6466  1.3848
  517MPD2    H3 7738   1.167   2.315  17.550  0.5708 -0.2927  0.4222
  517MPD2     N 7739   1.490   2.504   0.052  0.0368  0.6311 -0.2293
  517MPD2    H5 7740   1.429   2.583   0.072 -2.5509 -1.3608 -0.3158
  517MPD2    N1 7741   1.554   2.068  17.582  0.1661  0.0509  0.4780
  517MPD2    H7 7742   1.651   2.093  17.595  1.0152 -2.5071 -1.0100
  518TMC3    C1 7743   1.635   1.859  17.528 -0.0074  0.0100 -0.0411
  518TMC3    C2 7744   1.642   1.738  17.593 -0.1245  0.0507 -0.3775
  518TMC3    C3 7745   1.756   1.666  17.589  0.2963 -0.0483  0.5740
  518TMC3    C4 7746   1.750   1.915  17.474  0.1176  0.4770  0.9394
  518TMC3    C5 7747   1.855   1.834  17.464  0.4243 -0.5651 -0.4246
  518TMC3    C6 7748   1.866   1.711  17.529 -0.9553 -0.0328  0.1861
  518TMC3     C 7749   1.517   1.946  17.544 -0.1140 -0.2303 -0.0241
  518TMC3     O 7750   1.408   1.891  17.557  0.5053  0.1359  0.2076
  518TMC3     H 7751   1.548   1.696  17.628  0.5859 -1.5214 -0.3741
  518TMC3    H1 7752   1.758   1.997  17.403 -1.3938 -0.5507 -0.4221
  518TMC3    H2 7753   1.949   1.642  17.540 -2.1725 -1.5135  0.1125
  518TMC3    C7 7754   1.963   1.870  17.379 -0.0836  0.8564  0.0984
  518TMC3    C8 7755   1.739   1.520  17.572  0.1876  0.1366 -0.0588
  518TMC3    O1 7756   1.991   1.984  17.345 -0.1285  0.0059 -0.4401
  518TMC3    O2 7757   1.784   1.473  17.466 -0.2661  0.1772 -0.1184
  519MPD2     C 7758   3.069   0.128  14.905  0.0253 -0.0851  1.1890
  519MPD2    C1 7759   3.012   0.179  14.798 -0.3572 -0.1343 -1.0477
  519MPD2    C2 7760   3.029   0.126  14.674  0.3512  0.4495  0.3190
  519MPD2    C3 7761   3.120   0.024  14.659 -0.4623 -0.2408  0.1972
  519MPD2    C4 7762   3.188   4.717  14.768  0.1157  0.8091 -0.0451
  519MPD2    C5 7763   3.153   0.026  14.891  0.7648 -0.2674 -0.5147
  519MPD2     H 7764   2.963   0.156  14.593  0.8279 -3.0529 -1.3316
  519MPD2    H1 7765   3.257   4.633  14.777 -0.8060  0.0576 -0.0385
  519MPD2    H2 7766   3.053   0.180  14.998 -2.9042 -2.1383  1.8032
  519MPD2    H3 7767   3.212   4.725  14.974  1.6202  0.8002 -0.6389
  519MPD2     N 7768   3.171   4.709  14.534 -0.2450  0.4648  0.1690
  519MPD2    H5 7769   3.240   4.636  14.540 -0.2588  0.5622  1.6361
  519MPD2    N1 7770   2.908   0.271  14.817  0.7972  0.1476  0.3683
  519MPD2    H7 7771   2.878   0.280  14.914  0.1755 -1.0237  0.2768
  520TMC3    C1 7772   3.172   4.679  14.299 -0.0743 -0.0190 -0.2603
  520TMC3    C2 7773   3.106   4.674  14.180  0.5081 -0.3246  0.2386
  520TMC3    C3 7774   3.157   4.605  14.076 -0.2932  0.7363  0.1401
  520TMC3    C4 7775   3.299   4.614  14.303  0.1786 -0.7755  0.5235
  520TMC3    C5 7776   3.344   4.545  14.191  0.2017 -0.3538  0.5705
  520TMC3    C6 7777   3.277   4.546  14.074 -0.3093 -0.1000 -0.3185
  520TMC3     C 7778   3.102   4.729  14.419  0.2989  0.2841  0.2583
  520TMC3     O 7779   2.988   0.036  14.400  0.5134 -0.7803  0.4371
  520TMC3     H 7780   3.019   0.001  14.166  0.6992 -0.0745  0.2092
  520TMC3    H1 7781   3.364   4.620  14.389 -0.1748 -0.3829  0.7616
  520TMC3    H2 7782   3.309   4.502  13.980  1.2716 -0.0821  0.2163
  520TMC3    C7 7783   3.469   4.471  14.201  0.8089 -0.6360 -0.0278
  520TMC3    C8 7784   3.095   4.619  13.939 -1.0464 -0.2090 -0.5272
  520TMC3    O1 7785   3.522   4.467  14.313 -1.2670 -0.1079  0.1928
  520TMC3    O2 7786   3.156   4.570  13.845 -0.4014  0.5313  0.5984
  521MPD2     C 7787   4.015   3.149  17.575  0.0562  0.7766  0.3917
  521MPD2    C1 7788   3.953   3.083  17.473  0.4893  0.8597 -0.5696
  521MPD2    C2 7789   4.034   3.018  17.378 -0.0877 -0.2977  0.2248
  521MPD2    C3 7790   4.170   3.009  17.395 -0.4782 -0.3506 -0.6744
  521MPD2    C4 7791   4.227   3.066  17.508  0.4391 -0.7310  0.2458
  521MPD2    C5 7792   4.149   3.140  17.599  0.8188 -0.2141 -0.2529
  521MPD2     H 7793   3.984   2.969  17.296  0.3403  0.0321 -0.2297
  521MPD2    H1 7794   4.331   3.069  17.535  0.3559  0.7982  0.4234
  521MPD2    H2 7795   3.953   3.205  17.644  2.3464  1.9180  1.5280
  521MPD2    H3 7796   4.188   3.190  17.687 -1.5201  1.0280  0.0610
  521MPD2     N 7797   4.242   2.932  17.302 -0.0275  0.0574  0.1579
  521MPD2    H5 7798   4.194   2.878  17.230 -1.9154  2.8184 -0.6621
  521MPD2    N1 7799   3.812   3.081  17.480 -0.0331  0.3353  0.4420
  521MPD2    H7 7800   3.764   3.123  17.559 -0.1590  0.7017  0.1716
  522TMC3    C1 7801   4.430   2.846  17.187  0.0553 -0.4039  0.2339
  522TMC3    C2 7802   4.547   2.777  17.202  0.7709 -0.7778  0.1008
  522TMC3    C3 7803   4.621   2.746  17.097 -0.2835  0.4651 -0.1195
  522TMC3    C4 7804   4.396   2.898  17.068 -0.2593  0.4426  0.3589
  522TMC3    C5 7805   4.478   2.873  16.957 -0.2575  0.5108 -0.5351
  522TMC3    C6 7806   4.587   2.794  16.975  0.3307 -0.1083  0.4721
  522TMC3     C 7807   4.378   2.912  17.309 -0.3157 -0.0189 -0.1319
  522TMC3     O 7808   4.464   2.941  17.397  0.5845  0.4518  0.3443
  522TMC3     H 7809   4.563   2.736  17.302 -1.6378 -0.9525  0.4214
  522TMC3    H1 7810   4.310   2.963  17.056  1.2160  2.1439 -1.0932
  522TMC3    H2 7811   4.656   2.791  16.891  0.6873  0.0212  0.7606
  522TMC3    C7 7812   4.458   2.934  16.828  0.1030 -0.3076  0.5178
  522TMC3    C8 7813   4.721   2.640  17.106  0.2048  1.0380 -0.0731
  522TMC3    O1 7814   4.558   2.980  16.775 -0.4225 -0.3228  0.1418
  522TMC3    O2 7815   0.034   2.613  17.213  0.2902  0.1110  0.1281
  523MPD2     C 7816   1.930   2.699  10.201 -0.2525  0.2869  0.8688
  523MPD2    C1 7817   1.852   2.634  10.111 -0.0817 -0.3696  0.5408
  523MPD2    C2 7818   1.779   2.705  10.020 -0.3151 -0.3295  0.3515
  523MPD2    C3 7819   1.786   2.846  10.030  0.1404 -0.1910  0.3987
  523MPD2    C4 7820   1.875   2.907  10.114 -0.4154  0.4040  0.2203
  523MPD2    C5 7821   1.944   2.833  10.199  0.3872  0.3950  0.2749
  523MPD2     H 7822   1.706   2.663   9.951  2.0365 -2.1203 -1.0694
  523MPD2    H1 7823   1.884   3.015  10.105  0.4274  0.2075 -1.2822
  523MPD2    H2 7824   1.989   2.656  10.281  2.9457 -0.0247 -1.6394
  523MPD2    H3 7825   2.004   2.882  10.274  0.4860  1.9525 -0.8094
  523MPD2     N 7826   1.714   2.937   9.954 -0.4517  0.2762 -0.3091
  523MPD2    H5 7827   1.726   3.037   9.960  0.8963  0.0522  0.7441
  523MPD2    N1 7828   1.853   2.499  10.112 -0.0440 -0.2321  0.5936
  523MPD2    H7 7829   1.897   2.458  10.194  0.4120 -2.3073 -0.6798
  524TMC3    C1 7830   1.532   3.012   9.834  0.4206 -0.0560  0.0677
  524TMC3    C2 7831   1.471   3.018   9.714  0.8747  0.2100 -0.6128
  524TMC3    C3 7832   1.364   3.096   9.700 -0.0382 -0.2189  0.1000
  524TMC3    C4 7833   1.476   3.062   9.946  0.6641 -0.5225 -0.1984
  524TMC3    C5 7834   1.372   3.141   9.931 -0.3086  0.6499  0.3559
  524TMC3    C6 7835   1.315   3.161   9.809 -0.4428 -0.0294 -0.0499
  524TMC3     C 7836   1.623   2.905   9.860 -0.7588 -0.0394  0.3257
  524TMC3     O 7837   1.584   2.799   9.811 -0.1923  0.2689 -0.3027
  524TMC3     H 7838   1.518   2.967   9.630  1.0737 -0.5057 -0.0722
  524TMC3    H1 7839   1.514   3.039  10.045  0.8100  1.9736  0.3225
  524TMC3    H2 7840   1.223   3.217   9.802  0.3067  0.9517 -2.2122
  524TMC3    C7 7841   1.318   3.206  10.049 -0.1441 -0.3830 -0.3502
  524TMC3    C8 7842   1.312   3.137   9.569 -0.0910  0.1340 -0.5026
  524TMC3    O1 7843   1.346   3.149  10.153 -0.1361 -0.7721  0.7590
  524TMC3    O2 7844   1.236   3.231   9.553  0.3457  0.0382 -0.1822
  525MPD2     C 7845   4.274   4.305  14.492  0.3027  0.8403  0.0113
  525MPD2    C1 7846   4.383   4.345  14.568  0.4148 -0.1917  0.1541
  525MPD2    C2 7847   4.431   4.473  14.558 -0.3038 -0.4241 -0.0155
  525MPD2    C3 7848   4.374   4.567  14.471 -0.4808 -0.6004  0.5845
  525MPD2    C4 7849   4.270   4.525  14.388 -0.2362  1.1491  0.1545
  525MPD2    C5 7850   4.224   4.392  14.398  0.6244 -0.4526  0.1687
  525MPD2     H 7851   4.511   4.500  14.626 -1.1643 -0.2040  0.9196
  525MPD2    H1 7852   4.220   4.600  14.327 -1.5488 -0.1235 -0.3278
  525MPD2    H2 7853   4.227   4.208  14.505 -0.2299  0.8955 -1.4725
  525MPD2    H3 7854   4.154   4.358  14.322  1.1572  2.2519 -1.5575
  525MPD2     N 7855   4.424   4.697  14.455 -0.6181  0.2026 -0.2633
  525MPD2    H5 7856   4.358   0.030  14.422 -0.5029  0.0996 -0.7133
  525MPD2    N1 7857   4.443   4.258  14.662  0.0777  0.0386  0.3921
  525MPD2    H7 7858   4.536   4.282  14.693 -0.8017 -0.0471  3.1440
  526TMC3    C1 7859   4.446   4.101  14.843  0.9505  0.2303 -0.1073
  526TMC3    C2 7860   4.376   4.041  14.947 -0.0877 -0.1312 -0.0982
  526TMC3    C3 7861   4.439   3.965  15.039 -0.2186 -0.1661  0.4678
  526TMC3    C4 7862   4.579   4.082  14.826  0.1691 -0.3938  0.3913
  526TMC3    C5 7863   4.641   4.006  14.917 -1.5828  0.1589  0.3630
  526TMC3    C6 7864   4.570   3.954  15.022  0.1559 -0.0176  0.2850
  526TMC3     C 7865   4.367   4.167  14.735  0.1846 -0.0638  0.2331
  526TMC3     O 7866   4.245   4.158  14.743  0.1110 -1.2451  0.1812
  526TMC3     H 7867   4.271   4.063  14.957 -0.3181  0.1036 -3.0020
  526TMC3    H1 7868   4.636   4.132  14.748 -1.0460  2.1944  1.1927
  526TMC3    H2 7869   4.638   3.905  15.092 -0.7969  1.3203  2.1340
  526TMC3    C7 7870   0.036   3.942  14.890  0.0862 -0.0314  0.3905
  526TMC3    C8 7871   4.406   3.980  15.183 -0.1300 -0.0432 -0.4438
  526TMC3    O1 7872   0.109   3.913  14.982 -0.1658  0.4708 -0.8704
  526TMC3    O2 7873   4.495   3.971  15.267 -0.5840 -0.5095  0.4533
  527MPD2     C 7874   2.498   2.480   1.538  0.1971 -0.4118  0.0162
  527MPD2    C1 7875   2.479   2.454   1.405 -0.0622  0.1590  0.1392
  527MPD2    C2 7876   2.581   2.396   1.335  0.1328  0.2749 -0.1676
  527MPD2    C3 7877   2.693   2.358   1.401 -0.6903  0.3322 -0.0939
  527MPD2    C4 7878   2.709   2.380   1.533  0.3127  0.4246  0.2883
  527MPD2    C5 7879   2.611   2.444   1.602 -0.2682 -0.0339 -0.4107
  527MPD2     H 7880   2.569   2.370   1.231  0.8010 -0.7373  0.0096
  527MPD2    H1 7881   2.802   2.361   1.584  0.0990  0.7384  0.7944
  527MPD2    H2 7882   2.425   2.539   1.593  1.6735  2.0990 -0.7032
  527MPD2    H3 7883   2.618   2.469   1.708  2.2106 -1.7176 -0.1798
  527MPD2     N 7884   2.783   2.287   1.317 -0.7315  0.1655 -0.3561
  527MPD2    H5 7885   2.752   2.268   1.222  0.5941 -0.7326 -0.6130
  527MPD2    N1 7886   2.361   2.471   1.334 -0.0007  0.4017  0.4760
  527MPD2    H7 7887   2.368   2.448   1.235 -0.7281  1.9920  0.0447
  528TMC3    C1 7888   2.125   2.501   1.301  0.1061 -0.3487 -0.0806
  528TMC3    C2 7889   2.143   2.499   1.170  0.0070 -0.8309  0.1821
  528TMC3    C3 7890   2.037   2.463   1.092  0.5197 -0.4563  0.5010
  528TMC3    C4 7891   1.997   2.479   1.354  0.4254  0.0147 -0.7861
  528TMC3    C5 7892   1.894   2.450   1.268 -0.5792 -0.3135 -0.9080
  528TMC3    C6 7893   1.910   2.446   1.136  0.0282 -0.9514 -0.1473
  528TMC3     C 7894   2.241   2.508   1.390 -0.6044  0.5321  0.0000
  528TMC3     O 7895   2.216   2.520   1.511  0.2459 -0.3030  0.6073
  528TMC3     H 7896   2.235   2.531   1.123  0.1151  2.6152  2.7032
  528TMC3    H1 7897   1.997   2.474   1.462 -1.5311  0.5182 -0.7602
  528TMC3    H2 7898   1.829   2.420   1.068  0.0786 -0.0976 -0.5281
  528TMC3    C7 7899   1.758   2.434   1.316  0.4593 -0.3079 -0.1776
  528TMC3    C8 7900   2.058   2.470   0.949  0.2222  1.2275 -0.0211
  528TMC3    O1 7901   1.674   2.400   1.236 -0.4074  0.6592  0.2160
  528TMC3    O2 7902   2.155   2.537   0.909 -0.5379 -0.5047 -0.9926
  529MPD2     C 7903   0.023   0.720   1.029  0.1407  0.0937  0.3445
  529MPD2    C1 7904   0.159   0.686   1.042 -0.0419 -0.3062 -0.1847
  529MPD2    C2 7905   0.250   0.700   0.937 -0.5467  0.4297 -0.6872
  529MPD2    C3 7906   0.202   0.746   0.820  0.7189  0.0113 -0.0686
  529MPD2    C4 7907   0.072   0.790   0.806 -0.1578 -0.5082  0.8455
  529MPD2    C5 7908   4.725   0.785   0.913  0.0976 -0.0343  0.5456
  529MPD2     H 7909   0.352   0.665   0.946 -1.1664 -1.2217 -0.0131
  529MPD2    H1 7910   0.036   0.844   0.719  2.2350  1.3828  1.0339
  529MPD2    H2 7911   4.694   0.733   1.114  0.4092 -1.9670  0.8793
  529MPD2    H3 7912   4.625   0.826   0.909  0.3232  0.6855  2.2485
  529MPD2     N 7913   0.286   0.761   0.712  0.1750 -0.3795  0.3925
  529MPD2    H5 7914   0.247   0.793   0.624  2.1939  0.8896 -0.0282
  529MPD2    N1 7915   0.218   0.645   1.160  0.6400 -0.7143  0.8749
  529MPD2    H7 7916   0.319   0.655   1.165  0.7533 -0.5052 -1.9939
  530TMC3    C1 7917   0.226   0.548   1.373 -0.3622 -0.1597 -0.8816
  530TMC3    C2 7918   0.311   0.632   1.429  0.0890  0.2211  0.0971
  530TMC3    C3 7919   0.390   0.582   1.525 -0.4582 -0.4257  0.6149
  530TMC3    C4 7920   0.204   0.419   1.419  0.4469 -0.4113 -0.2272
  530TMC3    C5 7921   0.287   0.376   1.517  0.3818  0.4669  0.2760
  530TMC3    C6 7922   0.384   0.455   1.562  0.5670 -0.4037  0.7729
  530TMC3     C 7923   0.143   0.591   1.266  0.9598  0.7710 -0.1134
  530TMC3     O 7924   0.023   0.559   1.269  0.6287  0.8786 -0.4766
  530TMC3     H 7925   0.318   0.733   1.390 -0.4468  0.7394  1.3297
  530TMC3    H1 7926   0.139   0.350   1.367 -1.0973 -0.3049  1.5618
  530TMC3    H2 7927   0.435   0.407   1.645  0.2126 -2.9677 -0.4902
  530TMC3    C7 7928   0.297   0.228   1.537  0.6958 -0.8449 -0.1542
  530TMC3    C8 7929   0.488   0.671   1.580  0.0342  0.5986 -0.2951
  530TMC3    O1 7930   0.416   0.187   1.554  0.0871 -0.1441  0.2796
  530TMC3    O2 7931   0.439   0.786   1.593 -0.0091  0.3994 -0.4760
  531MPD2     C 7932   3.769   3.982  13.362 -0.7385 -1.0986 -0.3507
  531MPD2    C1 7933   3.739   3.848  13.352 -0.0202 -0.5678  0.6116
  531MPD2    C2 7934   3.778   3.773  13.240 -0.1709 -0.2760  0.1628
  531MPD2    C3 7935   3.836   3.837  13.134 -0.5581 -0.6730  0.8789
  531MPD2    C4 7936   3.850   3.976  13.139 -0.2861 -0.2809 -0.4462
  531MPD2    C5 7937   3.828   4.044  13.255  0.1078 -0.2242 -0.0260
  531MPD2     H 7938   3.748   3.672  13.215 -2.1481 -0.0497  1.7067
  531MPD2    H1 7939   3.897   4.034  13.060  1.5021 -0.9886  0.1093
  531MPD2    H2 7940   3.741   4.040  13.448 -1.4627  0.4435 -1.6232
  531MPD2    H3 7941   3.845   4.150  13.260  1.7182 -0.4685 -0.3345
  531MPD2     N 7942   3.878   3.760  13.027 -0.0629 -0.4721 -0.1857
  531MPD2    H5 7943   3.866   3.660  13.043 -1.5565 -0.2454  0.0412
  531MPD2    N1 7944   3.664   3.785  13.456 -0.6750  0.3807  0.0509
  531MPD2    H7 7945   3.630   3.850  13.526  0.8593 -0.7986  1.9028
  532TMC3    C1 7946   3.558   3.603  13.590 -0.0523  0.1371  0.0365
  532TMC3    C2 7947   3.482   3.503  13.543 -0.7246  0.0726  0.4945
  532TMC3    C3 7948   3.479   3.384  13.609  0.0123 -0.0084  0.4687
  532TMC3    C4 7949   3.609   3.598  13.717 -0.2084  0.1335 -0.3140
  532TMC3    C5 7950   3.583   3.484  13.785 -0.8231  0.4415  0.4832
  532TMC3    C6 7951   3.530   3.379  13.732 -0.8660 -0.5248  0.1065
  532TMC3     C 7952   3.646   3.649  13.485  0.2311  0.2663 -0.5463
  532TMC3     O 7953   3.693   3.558  13.417 -0.3695  0.9338 -0.2173
  532TMC3     H 7954   3.446   3.523  13.443  0.5148  1.5719  0.3517
  532TMC3    H1 7955   3.673   3.675  13.758 -0.6994  0.5974 -0.4190
  532TMC3    H2 7956   3.529   3.282  13.781 -1.3579 -0.7655 -0.3872
  532TMC3    C7 7957   3.673   3.471  13.901 -0.5284  0.7925 -0.1858
  532TMC3    C8 7958   3.509   3.266  13.528  0.1093  0.0499 -0.4346
  532TMC3    O1 7959   3.690   3.553  13.989 -0.0937  0.1206  0.0535
  532TMC3    O2 7960   3.466   3.153  13.561 -0.6020 -0.8984  0.0245
  533TMC3    C1 7961   4.555   0.134  14.539 -1.2234 -0.5684 -0.4562
  533TMC3    C2 7962   4.685   0.165  14.567  0.2881  0.1144  0.2839
  533TMC3    C3 7963   4.715   0.244  14.673 -0.2742 -0.0522  0.4402
  533TMC3    C4 7964   4.453   0.176  14.623 -0.5607  0.5417 -0.2567
  533TMC3    C5 7965   4.489   0.263  14.723  0.8447  0.8422  0.0143
  533TMC3    C6 7966   4.614   0.301  14.750  0.7836  0.0481 -0.0581
  533TMC3     C 7967   4.549   4.736  14.498  0.1067  0.0498  0.2986
  533TMC3     O 7968   4.647   4.668  14.530 -0.0785  0.2966  0.2589
  533TMC3     H 7969   0.027   0.129  14.502 -0.3040 -1.2079  0.2996
  533TMC3    H1 7970   4.351   0.149  14.598 -0.8896  0.7940  0.7913
  533TMC3    H2 7971   4.650   0.348  14.841 -0.1396 -2.0107  1.3750
  533TMC3    C7 7972   4.395   0.264  14.838 -0.0131  0.2324  0.2912
  533TMC3    C8 7973   0.107   0.290  14.704  0.4519 -0.6938  0.6472
  533TMC3    O1 7974   4.331   0.158  14.844 -0.1251  0.0328 -0.0430
  533TMC3    O2 7975   0.119   0.397  14.766  0.1968 -0.1426 -0.5207
  534MPD2     C 7976   2.705   1.007   1.360  0.3023  0.2980 -0.2405
  534MPD2    C1 7977   2.631   1.062   1.458 -0.4632 -0.3156 -0.4713
  534MPD2    C2 7978   2.497   1.078   1.436  0.4741 -0.2565  0.0662
  534MPD2    C3 7979   2.435   1.045   1.322  0.4481 -0.0276  0.2212
  534MPD2    C4 7980   2.515   0.983   1.222 -0.1671 -1.0547 -0.7496
  534MPD2    C5 7981   2.647   0.963   1.243  0.0869 -0.0933 -0.5467
  534MPD2     H 7982   2.435   1.121   1.514 -1.1246 -0.1928 -1.2508
  534MPD2    H1 7983   2.474   0.942   1.130  0.1015 -0.7753 -0.9936
  534MPD2    H2 7984   2.811   0.992   1.374  0.4488  2.0917  0.6290
  534MPD2    H3 7985   2.706   0.924   1.160  1.3422 -0.6037  0.5947
  534MPD2     N 7986   2.296   1.081   1.300  0.0236 -0.0029 -0.7072
  534MPD2    H5 7987   2.251   1.037   1.220 -0.3777  1.7020 -1.4173
  534MPD2    N1 7988   2.681   1.112   1.583  0.4434  0.2024  0.1484
  534MPD2    H7 7989   2.618   1.162   1.645 -1.3783 -3.0936  0.9347
  535TMC3    C1 7990   2.066   1.125   1.332  0.0614 -0.0706  0.1311
  535TMC3    C2 7991   1.962   1.134   1.424 -0.1903  0.0375  0.2365
  535TMC3    C3 7992   1.839   1.160   1.376 -0.2192 -0.0217 -0.7086
  535TMC3    C4 7993   2.044   1.142   1.199  0.5822 -0.6291 -0.8555
  535TMC3    C5 7994   1.911   1.171   1.161 -0.1526 -0.2186 -1.3887
  535TMC3    C6 7995   1.807   1.187   1.249 -0.3839  1.1553  0.1802
  535TMC3     C 7996   2.204   1.146   1.389 -0.3435  0.0542  0.1032
  535TMC3     O 7997   2.211   1.205   1.496  0.0449  0.7095  0.3685
  535TMC3     H 7998   1.976   1.116   1.530 -3.4652  1.2636  0.8653
  535TMC3    H1 7999   2.126   1.140   1.129  1.2123  0.1034 -0.1381
  535TMC3    H2 8000   1.704   1.210   1.223 -0.9373 -1.6972 -0.1440
  535TMC3    C7 8001   1.891   1.207   1.020 -0.2952 -0.7348 -0.1048
  535TMC3    C8 8002   1.728   1.128   1.465 -0.0700 -0.4119 -0.3888
  535TMC3    O1 8003   1.977   1.184   0.940  0.0715  0.0824 -0.2346
  535TMC3    O2 8004   1.622   1.093   1.415  0.5490 -0.2835 -0.5230
  536MPD2     C 8005   1.612   4.381  16.894  0.0384  0.2498  0.5523
  536MPD2    C1 8006   1.481   4.356  16.914 -0.1860 -0.3033 -0.2381
  536MPD2    C2 8007   1.393   4.334  16.797  0.4048 -1.2613 -0.0239
  536MPD2    C3 8008   1.455   4.339  16.672  0.8963 -0.5039  1.0929
  536MPD2    C4 8009   1.589   4.374  16.659  0.6730 -0.5229  0.5463
  536MPD2    C5 8010   1.671   4.386  16.769  0.2712  0.4042  0.2275
  536MPD2     H 8011   1.285   4.330  16.796  0.4028 -1.1215 -0.3445
  536MPD2    H1 8012   1.645   4.370  16.566 -0.9203  0.3471 -0.4471
  536MPD2    H2 8013   1.673   4.385  16.984  0.7098 -1.4101  0.1688
  536MPD2    H3 8014   1.775   4.414  16.755 -0.3233  2.0580 -0.8627
  536MPD2     N 8015   1.376   4.334  16.553  0.0596  0.0780 -0.3581
  536MPD2    H5 8016   1.424   4.347  16.465 -3.1930 -0.6679 -2.2242
  536MPD2    N1 8017   1.429   4.356  17.043 -0.3771  0.3809  0.6655
  536MPD2    H7 8018   1.486   4.404  17.112  0.9525 -0.2231 -0.0324
  537TMC3    C1 8019   1.291   4.296  17.218  0.2015  0.1590  0.2652
  537TMC3    C2 8020   1.406   4.271  17.299  0.0181  0.3630 -0.0387
  537TMC3    C3 8021   1.388   4.197  17.415 -0.2940  0.8636  0.2156
  537TMC3    C4 8022   1.168   4.251  17.248 -0.3439 -0.0700 -1.0332
  537TMC3    C5 8023   1.157   4.179  17.368  0.0451 -0.0365  0.5198
  537TMC3    C6 8024   1.266   4.142  17.441 -1.0623  0.2703  0.5833
  537TMC3     C 8025   1.301   4.323  17.075  0.0894  0.8058  0.3203
  537TMC3     O 8026   1.213   4.269  17.005 -0.1305  0.7451 -0.9079
  537TMC3     H 8027   1.504   4.303  17.264 -0.1971 -1.3135 -2.1894
  537TMC3    H1 8028   1.081   4.253  17.183 -0.4624 -1.9494 -0.9258
  537TMC3    H2 8029   1.247   4.073  17.523  0.6777  0.6056  1.2693
  537TMC3    C7 8030   1.043   4.083  17.368 -0.2245  0.3754  0.7221
  537TMC3    C8 8031   1.494   4.190  17.519  0.1722 -0.1775  0.5297
  537TMC3    O1 8032   0.936   4.131  17.331  0.4071  0.4345 -0.6409
  537TMC3    O2 8033   1.575   4.281  17.521 -0.0404 -0.3749  0.4742
  538TMC3    C1 8034   2.403   2.096  11.121 -0.0925  0.1081  0.7711
  538TMC3    C2 8035   2.533   2.053  11.086 -0.2702 -0.0740  0.5112
  538TMC3    C3 8036   2.586   2.109  10.967  0.8176  0.3680 -0.2298
  538TMC3    C4 8037   2.321   2.165  11.033  0.2819  0.6525  0.1766
  538TMC3    C5 8038   2.374   2.201  10.909 -1.2917  0.4747 -0.2046
  538TMC3    C6 8039   2.505   2.183  10.884  0.3637 -0.2769  0.5098
  538TMC3     C 8040   2.352   2.079  11.252  0.0977  0.4115 -0.3584
  538TMC3     O 8041   2.231   2.088  11.268 -0.5575  0.2497  0.2546
  538TMC3     H 8042   2.593   1.979  11.138  2.1117  0.3338 -1.6196
  538TMC3    H1 8043   2.216   2.184  11.053  0.3615  1.6197 -0.3114
  538TMC3    H2 8044   2.541   2.215  10.786  0.2152  0.4023  0.6764
  538TMC3    C7 8045   2.305   2.330  10.881  0.2749 -0.3114 -0.1062
  538TMC3    C8 8046   2.709   2.052  10.915 -0.7971  0.5497  0.4340
  538TMC3    O1 8047   2.188   2.325  10.837 -0.0762  0.2780 -1.2392
  538TMC3    O2 8048   2.747   1.943  10.961 -0.3807  0.3357  0.2446
  539MPD2     C 8049   1.580   1.421  11.708 -0.2243  0.0879 -0.2326
  539MPD2    C1 8050   1.689   1.473  11.642 -0.2986  0.1512  0.9367
  539MPD2    C2 8051   1.701   1.609  11.619  0.5833 -0.1755 -0.6905
  539MPD2    C3 8052   1.594   1.696  11.648 -0.3137 -0.7062  0.3103
  539MPD2    C4 8053   1.481   1.647  11.707  0.4619  0.0245 -0.3147
  539MPD2    C5 8054   1.480   1.511  11.737  0.0928  0.8397  0.1271
  539MPD2     H 8055   1.792   1.654  11.581  0.7339 -1.0282 -1.3444
  539MPD2    H1 8056   1.411   1.723  11.739  2.1241  1.0614  0.9123
  539MPD2    H2 8057   1.568   1.317  11.735  1.2072  0.1738  0.7521
  539MPD2    H3 8058   1.384   1.479  11.775 -0.3319 -0.2404 -1.8266
  539MPD2     N 8059   1.599   1.838  11.632 -0.8729  0.0501  0.0869
  539MPD2    H5 8060   1.511   1.878  11.663 -0.8425  0.5184 -0.4391
  539MPD2    N1 8061   1.805   1.386  11.604 -0.5801 -0.5745 -0.0038
  539MPD2    H7 8062   1.860   1.418  11.525 -0.8098  0.8106  0.3860
  540TMC3    C1 8063   1.661   2.056  11.569 -0.7380  0.3815  0.0894
  540TMC3    C2 8064   1.700   2.111  11.453 -0.1545  0.4092  0.4488
  540TMC3    C3 8065   1.666   2.242  11.439  0.1201 -0.5830 -0.0640
  540TMC3    C4 8066   1.610   2.126  11.677  0.4047  0.0990  0.2987
  540TMC3    C5 8067   1.611   2.260  11.662  0.0700 -0.7705 -0.1881
  540TMC3    C6 8068   1.628   2.320  11.543  0.4308  0.5533 -0.0101
  540TMC3     C 8069   1.700   1.914  11.582  0.2482 -0.1342 -0.8922
  540TMC3     O 8070   1.813   1.886  11.549 -0.3854 -0.0675 -0.1372
  540TMC3     H 8071   1.715   2.044  11.369  0.3867 -0.8631  1.5808
  540TMC3    H1 8072   1.602   2.092  11.780  1.2677  0.7657  0.5838
  540TMC3    H2 8073   1.630   2.427  11.529  1.0689  0.3549 -1.4895
  540TMC3    C7 8074   1.597   2.359  11.774 -0.1033 -0.1251  0.8519
  540TMC3    C8 8075   1.597   2.270  11.309  0.8157 -0.5679  0.3555
  540TMC3    O1 8076   1.532   2.325  11.872 -0.0796 -0.2550  0.9042
  540TMC3    O2 8077   1.509   2.352  11.308 -0.3027  0.1654  0.3708
  541MPD2     C 8078   0.613   3.560  13.661 -0.2947  0.2012  0.1568
  541MPD2    C1 8079   0.607   3.478  13.553 -0.0504  0.2797  0.1274
  541MPD2    C2 8080   0.635   3.524  13.428 -0.3345  0.3971 -0.0987
  541MPD2    C3 8081   0.687   3.651  13.410  0.1391  0.7970 -0.3253
  541MPD2    C4 8082   0.703   3.729  13.521  0.2030  0.9341  0.0870
  541MPD2    C5 8083   0.673   3.679  13.640  0.1432 -0.1044  0.3188
  541MPD2     H 8084   0.619   3.460  13.343 -0.2148 -1.2462  1.1241
  541MPD2    H1 8085   0.740   3.830  13.510 -1.0595  1.4164  0.2359
  541MPD2    H2 8086   0.585   3.530  13.762  4.1099  2.4212  2.0282
  541MPD2    H3 8087   0.689   3.739  13.730  1.7848  1.7557 -1.2163
  541MPD2     N 8088   0.711   3.713  13.284  0.7730  0.3714 -0.6377
  541MPD2    H5 8089   0.728   3.812  13.295 -0.0614  0.1681  2.4117
  541MPD2    N1 8090   0.557   3.349  13.559 -0.3540 -0.6746  0.2438
  541MPD2    H7 8091   0.541   3.301  13.471 -3.1446  0.9003 -0.1039
  542TMC3    C1 8092   0.731   3.741  13.054  0.4954 -0.5508 -0.9966
  542TMC3    C2 8093   0.801   3.691  12.945 -0.3639  0.0585 -0.0440
  542TMC3    C3 8094   0.809   3.762  12.837  0.1183 -0.3031 -0.8621
  542TMC3    C4 8095   0.670   3.860  13.058 -0.2182 -0.9839  0.0754
  542TMC3    C5 8096   0.681   3.928  12.940 -0.9361 -0.6901 -0.1870
  542TMC3    C6 8097   0.740   3.879  12.829 -0.3715  0.1680 -0.1647
  542TMC3     C 8098   0.716   3.652  13.163  0.1200  0.0987 -0.7039
  542TMC3     O 8099   0.705   3.533  13.131 -0.2027 -0.1514  0.8827
  542TMC3     H 8100   0.850   3.594  12.945  0.2824  0.3859 -0.8896
  542TMC3    H1 8101   0.600   3.890  13.135  0.9965 -0.8120  1.1001
  542TMC3    H2 8102   0.750   3.932  12.735 -0.7392  0.3825 -0.0795
  542TMC3    C7 8103   0.612   4.058  12.927 -0.5696 -0.4616 -0.2955
  542TMC3    C8 8104   0.847   3.702  12.714 -1.2133  0.4412  0.2758
  542TMC3    O1 8105   0.594   4.098  12.814 -0.4031 -0.1776 -0.3378
  542TMC3    O2 8106   0.781   3.731  12.613  0.0497 -0.0152  0.0638
  543TMC3    C1 8107   4.731   4.496  17.707  0.9383  0.2492 -0.4418
  543TMC3    C2 8108   0.062   4.415   0.045 -0.3836  0.1181  0.3308
  543TMC3    C3 8109   0.131   4.484   0.139  0.0052 -0.3450  0.2853
  543TMC3    C4 8110   4.714   4.631  17.739  0.3979  0.3421  0.0717
  543TMC3    C5 8111   0.039   4.685   0.102  0.1923 -0.3806 -0.0724
  543TMC3    C6 8112   0.122   4.616   0.178 -0.1459 -0.4801 -0.2009
  543TMC3     C 8113   4.720   4.454  17.566  0.1191  0.2110  0.4847
  543TMC3     O 8114   0.042   4.352  17.534  0.0523  0.6295 -0.0809
  543TMC3     H 8115   0.096   4.317   0.016 -0.9619  0.3901 -1.2664
  543TMC3    H1 8116   4.651   4.700  17.684 -1.1147 -1.5580 -0.5805
  543TMC3    H2 8117   0.185   4.659   0.254  1.2213 -1.1737 -0.9465
  543TMC3    C7 8118   4.714   0.054   0.171 -0.5291 -0.3423 -0.9582
  543TMC3    C8 8119   0.204   4.402   0.232 -0.2151  0.8037 -0.4027
  543TMC3    O1 8120   4.731   0.065   0.293 -0.2821 -0.2134  0.7608
  543TMC3    O2 8121   0.275   4.312   0.190 -0.9296  0.1973  0.1262
  544MPD2     C 8122   0.153   4.097   0.629 -0.1337  1.0742  0.6848
  544MPD2    C1 8123   0.152   4.069   0.492  0.1008 -0.5765 -0.8674
  544MPD2    C2 8124   0.143   4.181   0.406 -0.2072  0.2861 -0.0580
  544MPD2    C3 8125   0.159   4.312   0.451  0.5869  0.0038 -0.1302
  544MPD2    C4 8126   0.152   4.335   0.586  0.1894 -0.2393  0.9511
  544MPD2    C5 8127   0.149   4.229   0.671  0.1612  0.0677  0.0392
  544MPD2     H 8128   0.130   4.156   0.301 -0.6775 -0.6279  0.2159
  544MPD2    H1 8129   0.160   4.435   0.627 -2.5802 -0.2033  1.3972
  544MPD2    H2 8130   0.157   4.011   0.695 -1.8437  1.9674  1.9468
  544MPD2    H3 8131   0.137   4.256   0.776  0.4267  1.4552 -0.2855
  544MPD2     N 8132   0.158   4.417   0.358 -0.4901 -0.0445 -0.3725
  544MPD2    H5 8133   0.135   4.508   0.397 -0.4377 -0.1454 -0.1110
  544MPD2    N1 8134   0.145   3.933   0.455  0.4204 -0.3449 -0.0047
  544MPD2    H7 8135   0.147   3.870   0.535  0.2530 -0.0970  0.1968
  545TMC3    C1 8136   0.080   3.750   0.320  0.5007 -0.6237 -0.4307
  545TMC3    C2 8137   0.044   3.715   0.190 -0.0297 -0.3274 -0.1298
  545TMC3    C3 8138   4.694   3.605   0.171  0.7650 -0.3110 -0.0276
  545TMC3    C4 8139   0.033   3.680   0.435  0.6125 -0.5004 -0.0124
  545TMC3    C5 8140   4.680   3.583   0.408  0.6277 -0.0901  0.2809
  545TMC3    C6 8141   4.629   3.555   0.281  0.9688  0.0477 -0.6144
  545TMC3     C 8142   0.137   3.885   0.327 -0.2352  0.2387 -0.3957
  545TMC3     O 8143   0.162   3.942   0.223 -0.0093  0.4115 -0.2045
  545TMC3     H 8144   0.106   3.753   0.110 -2.1519  0.2041 -1.5468
  545TMC3    H1 8145   0.069   3.704   0.534 -2.2593 -1.3246  1.2439
  545TMC3    H2 8146   4.563   3.471   0.264  2.5081 -0.9640 -1.6548
  545TMC3    C7 8147   4.632   3.498   0.509 -0.3588  0.2121  0.1088
  545TMC3    C8 8148   4.624   3.602   0.044 -0.4837 -0.4442 -0.1429
  545TMC3    O1 8149   4.520   3.451   0.496  0.0009 -0.0456  0.2372
  545TMC3    O2 8150   4.521   3.539   0.036  0.1863  0.6360  0.1016
  546MPD2     C 8151   1.764   0.004   0.004  0.6800  0.7019 -0.3574
  546MPD2    C1 8152   1.694   0.026  17.634 -0.2287 -0.5642  0.0061
  546MPD2    C2 8153   1.714   0.144  17.560 -0.2311 -0.1639  0.8916
  546MPD2    C3 8154   1.803   0.240  17.600  0.0078  0.0774 -0.2735
  546MPD2    C4 8155   1.866   0.223  17.727  0.0522 -0.1258 -0.1517
  546MPD2    C5 8156   1.845   0.107   0.050  0.7035 -0.8021 -0.2022
  546MPD2     H 8157   1.659   0.155  17.468  1.7623 -1.1324 -0.4231
  546MPD2    H1 8158   1.937   0.299   0.009 -1.8460  0.1589  3.6963
  546MPD2    H2 8159   1.760   4.652   0.065  1.5186  0.9152  0.0102
  546MPD2    H3 8160   1.891   0.103   0.148 -0.2213 -0.4583  0.2487
  546MPD2     N 8161   1.809   0.368  17.535 -0.8247  0.4727 -0.0024
  546MPD2    H5 8162   1.859   0.439  17.588  0.7733 -0.5741 -0.0999
  546MPD2    N1 8163   1.594   4.664  17.603  0.3747  0.5779 -0.1719
  546MPD2    H7 8164   1.588   4.583  17.664 -0.3178 -0.9358 -2.2604
  547TMC3    C1 8165   1.387   4.602  17.513  0.5700 -0.8727  0.6170
  547TMC3    C2 8166   1.281   4.624  17.427  0.2824  0.2182 -0.4425
  547TMC3    C3 8167   1.155   4.571  17.457  0.6682  0.3031 -0.0206
  547TMC3    C4 8168   1.374   4.519  17.621  0.3172  0.4520  0.0275
  547TMC3    C5 8169   1.247   4.474  17.651  0.3431  0.2064 -0.7176
  547TMC3    C6 8170   1.143   4.490  17.568 -0.0997  0.5868  0.2088
  547TMC3     C 8171   1.507   4.678  17.497 -0.1205  0.1771  0.1119
  547TMC3     O 8172   1.520   0.005  17.396  0.3787 -0.0621 -0.7346
  547TMC3     H 8173   1.294   4.691  17.343  2.1785 -0.3002 -0.5541
  547TMC3    H1 8174   1.454   4.492  17.689 -1.7743 -1.0369  1.8708
  547TMC3    H2 8175   1.045   4.456  17.598 -0.6262  2.1596  0.2643
  547TMC3    C7 8176   1.241   4.375   0.011 -0.2410 -0.3289  0.1372
  547TMC3    C8 8177   1.061   4.552  17.353  0.1178 -0.2526 -0.2215
  547TMC3    O1 8178   1.324   4.385   0.101 -0.0635 -0.4399  0.4081
  547TMC3    O2 8179   0.976   4.463  17.364  0.0987  0.2081 -0.1588
  548MPD2     C 8180   0.733   0.347  12.212 -0.4456 -0.1821 -0.3786
  548MPD2    C1 8181   0.695   0.272  12.319 -0.1110 -0.3031 -0.5407
  548MPD2    C2 8182   0.796   0.192  12.379 -0.2861 -0.3086 -0.0155
  548MPD2    C3 8183   0.922   0.178  12.315 -0.4805 -0.5196 -0.9126
  548MPD2    C4 8184   0.954   0.257  12.205 -0.6828  0.1501 -0.1069
  548MPD2    C5 8185   0.858   0.339  12.149 -0.2517 -0.5889  0.8400
  548MPD2     H 8186   0.772   0.141  12.472 -0.9280  1.2125  0.6505
  548MPD2    H1 8187   1.049   0.250  12.154 -0.2888 -2.9440  1.0434
  548MPD2    H2 8188   0.665   0.423  12.175 -0.7330  0.3403  1.2146
  548MPD2    H3 8189   0.872   0.398  12.059 -2.6269 -0.8904  0.2864
  548MPD2     N 8190   1.004   0.070  12.361 -0.5619 -0.4379  0.1208
  548MPD2    H5 8191   0.973   0.012  12.439 -0.5958 -0.4919  0.0675
  548MPD2    N1 8192   0.559   0.270  12.352 -0.0048 -0.2521 -0.0247
  548MPD2    H7 8193   0.505   0.342  12.305 -0.5613 -2.6153 -3.0198
  549TMC3    C1 8194   0.356   0.237  12.470  0.2247 -0.0827  0.6158
  549TMC3    C2 8195   0.309   0.359  12.447 -0.5413  0.1621 -0.0188
  549TMC3    C3 8196   0.233   0.422  12.536 -0.6146 -0.7826  0.1091
  549TMC3    C4 8197   0.329   0.165  12.589 -0.2155 -0.4561  0.1502
  549TMC3    C5 8198   0.263   0.242  12.683  0.0395 -0.3961 -0.5231
  549TMC3    C6 8199   0.206   0.363  12.663  0.4458  0.7650 -0.0233
  549TMC3     C 8200   0.496   0.195  12.448  0.6633 -0.1071 -0.5400
  549TMC3     O 8201   0.540   0.109  12.524  0.9588 -0.1106  0.2283
  549TMC3     H 8202   0.317   0.399  12.346  0.2720 -1.1472 -0.4708
  549TMC3    H1 8203   0.339   0.058  12.596 -0.5350 -0.3007  2.9325
  549TMC3    H2 8204   0.147   0.412  12.739 -3.5934 -1.9348 -1.3695
  549TMC3    C7 8205   0.300   0.221  12.826 -0.7279 -0.0037 -0.1120
  549TMC3    C8 8206   0.168   0.543  12.493  0.3191  0.2168 -0.0153
  549TMC3    O1 8207   0.234   0.269  12.920  0.2164  1.0419  0.0377
  549TMC3    O2 8208   0.064   0.572  12.550  0.1190 -0.0006  0.5596
  550TMC3    C1 8209   4.546   2.891  12.144  0.5324 -0.1494 -0.3534
  550TMC3    C2 8210   4.575   2.984  12.233  0.2625 -0.7617  0.2459
  550TMC3    C3 8211   4.476   3.060  12.284 -0.2483  0.2284  0.5291
  550TMC3    C4 8212   4.423   2.881  12.095  0.3082 -0.0331 -0.1100
  550TMC3    C5 8213   4.331   2.973  12.129  0.0747 -0.4567  0.2676
  550TMC3    C6 8214   4.348   3.062  12.227 -0.0152  0.3646  0.1797
  550TMC3     C 8215   4.662   2.802  12.099 -0.6771 -0.4566 -0.9701
  550TMC3     O 8216   0.034   2.797  12.155  0.2941  0.2616  0.3271
  550TMC3     H 8217   4.669   2.998  12.285  0.0268 -0.3153  0.5543
  550TMC3    H1 8218   4.400   2.791  12.039  1.4681 -0.7763  0.6229
  550TMC3    H2 8219   4.274   3.136  12.258  2.6902  3.0751  0.1313
  550TMC3    C7 8220   4.195   2.970  12.076  0.4436  1.1970 -1.0856
  550TMC3    C8 8221   4.494   3.158  12.384 -0.7011 -0.6854  0.6353
  550TMC3    O1 8222   4.105   2.981  12.157 -0.5628 -0.3400 -0.6945
  550TMC3    O2 8223   4.419   3.254  12.374  0.6222 -0.0239  0.6035
  551TMC3    C1 8224   1.995   0.913  13.713 -0.4608 -0.1515 -0.0364
  551TMC3    C2 8225   2.107   0.828  13.682 -0.1984  0.1057  0.2230
  551TMC3    C3 8226   2.225   0.862  13.737  0.0324  0.3246 -0.1227
  551TMC3    C4 8227   2.013   1.024  13.791 -0.6944 -0.0739 -0.4148
  551TMC3    C5 8228   2.137   1.051  13.837 -0.2443 -0.3147 -0.4414
  551TMC3    C6 8229   2.243   0.977  13.802 -0.2578 -0.6951  0.0381
  551TMC3     C 8230   1.877   0.893  13.628  0.1712  0.3788 -0.9804
  551TMC3     O 8231   1.883   0.780  13.576 -0.0287 -0.0361 -0.3343
  551TMC3     H 8232   2.096   0.742  13.618  1.2823  0.3704 -0.3859
  551TMC3    H1 8233   1.925   1.080  13.821  2.3813  2.2284  4.1877
  551TMC3    H2 8234   2.342   1.018  13.819 -0.2020 -0.6967 -0.2813
  551TMC3    C7 8235   2.158   1.169  13.919 -0.2064 -0.1999  0.1852
  551TMC3    C8 8236   2.333   0.769  13.711 -0.2863  1.0390 -0.6381
  551TMC3    O1 8237   2.261   1.169  13.986 -0.0815 -0.0522 -0.5463
  551TMC3    O2 8238   2.303   0.651  13.714 -0.1912  0.1744  0.4248
  552MPD2     C 8239   3.614   3.156  14.238 -0.4736 -0.7783  0.0501
  552MPD2    C1 8240   3.703   3.054  14.207  0.0546 -0.7904 -0.6185
  552MPD2    C2 8241   3.798   3.028  14.296  0.3833  0.2420 -0.2495
  552MPD2    C3 8242   3.820   3.102  14.409  0.4560  0.0366  0.5824
  552MPD2    C4 8243   3.729   3.200  14.444  0.7276 -0.0654  0.7720
  552MPD2    C5 8244   3.636   3.237  14.352 -0.5864 -0.9385  0.2971
  552MPD2     H 8245   3.862   2.942  14.277 -0.0649 -0.0852 -0.2938
  552MPD2    H1 8246   3.758   3.265  14.527  0.4722  0.1094  0.7247
  552MPD2    H2 8247   3.537   3.189  14.170 -1.4984  0.0198  1.5940
  552MPD2    H3 8248   3.567   3.317  14.376  0.7518 -0.0531  1.1632
  552MPD2     N 8249   3.928   3.079  14.491 -0.1890  0.2826  0.6511
  552MPD2    H5 8250   3.943   3.157  14.555  2.1033  0.1900  0.2308
  552MPD2    N1 8251   3.694   2.967  14.096 -0.3358  0.0874  0.6088
  552MPD2    H7 8252   3.764   2.898  14.073  0.3862  0.5725  1.3541
  553TMC3    C1 8253   3.639   2.905  13.885  0.0912 -0.0931  0.1150
  553TMC3    C2 8254   3.615   2.964  13.763  0.1670  0.2102 -1.5309
  553TMC3    C3 8255   3.651   2.888  13.658 -0.3810  0.5292 -0.5354
  553TMC3    C4 8256   3.682   2.780  13.905 -0.3471  0.4243  0.4680
  553TMC3    C5 8257   3.714   2.701  13.789  0.0970  0.4312  0.4189
  553TMC3    C6 8258   3.684   2.753  13.667  0.7242 -0.5831 -0.1131
  553TMC3     C 8259   3.608   2.994  13.992  0.2490 -0.2659  0.0286
  553TMC3     O 8260   3.526   3.077  13.960  0.4779 -0.1263 -0.4174
  553TMC3     H 8261   3.602   3.070  13.742 -1.2889  0.6185  1.4260
  553TMC3    H1 8262   3.698   2.726  13.998 -0.0544 -1.0707 -0.4387
  553TMC3    H2 8263   3.732   2.696  13.588  0.1866 -1.3502  0.1191
  553TMC3    C7 8264   3.816   2.599  13.801 -0.3367 -0.0245 -0.0847
  553TMC3    C8 8265   3.735   2.961  13.570 -0.1386  0.1014  0.6065
  553TMC3    O1 8266   3.836   2.534  13.698 -0.1764 -0.1580  0.2097
  553TMC3    O2 8267   3.808   3.036  13.632  0.0985 -0.1048 -0.1879
  554TMC3    C1 8268   1.224   2.032  11.816  0.5418  0.4061 -0.0638
  554TMC3    C2 8269   1.127   1.959  11.752  0.6366  0.5190 -0.4683
  554TMC3    C3 8270   1.006   2.022  11.712 -0.2420 -0.4791 -0.2640
  554TMC3    C4 8271   1.220   2.170  11.820 -0.2383  0.4871 -0.1631
  554TMC3    C5 8272   1.111   2.223  11.762  0.4602  0.2023  0.6539
  554TMC3    C6 8273   0.997   2.159  11.713  0.4601  0.1481 -0.5289
  554TMC3     C 8274   1.332   1.963  11.896  0.0954  0.1567 -0.0108
  554TMC3     O 8275   1.420   2.034  11.943  0.4362  0.1903  0.4407
  554TMC3     H 8276   1.145   1.856  11.724  0.7433  1.1095 -2.5563
  554TMC3    H1 8277   1.310   2.227  11.840  0.6409  0.2231 -3.4268
  554TMC3    H2 8278   0.914   2.206  11.661 -0.8316 -0.2017  1.2128
  554TMC3    C7 8279   1.138   2.341  11.680  0.7906 -0.0436 -0.0117
  554TMC3    C8 8280   0.939   1.970  11.599 -0.6551  1.0267 -0.1740
  554TMC3    O1 8281   1.109   2.336  11.559  0.1116 -0.5791 -0.3530
  554TMC3    O2 8282   1.000   1.902  11.517  0.0425 -0.2472  0.1095
  555TMC3    C1 8283   0.402   1.689  14.964  1.0495  0.0817  0.8966
  555TMC3    C2 8284   0.440   1.775  15.060  0.5696 -0.0318  0.6937
  555TMC3    C3 8285   0.457   1.736  15.186 -0.3444 -0.1336 -0.5709
  555TMC3    C4 8286   0.370   1.562  14.995 -0.2023  1.2461  0.1170
  555TMC3    C5 8287   0.380   1.524  15.128  0.0089 -0.5278 -0.2106
  555TMC3    C6 8288   0.441   1.603  15.223  0.3078  0.2039 -0.0186
  555TMC3     C 8289   0.379   1.736  14.826  0.1104  0.9223 -0.4356
  555TMC3     O 8290   0.323   1.659  14.750  0.1672 -0.2192  0.1432
  555TMC3     H 8291   0.455   1.881  15.039  0.1837  0.2020  1.6180
  555TMC3    H1 8292   0.326   1.504  14.915  0.9052 -0.4658  0.7461
  555TMC3    H2 8293   0.465   1.562  15.321 -1.9994 -3.0451 -0.8035
  555TMC3    C7 8294   0.350   1.389  15.175 -0.6760  0.2725  0.2954
  555TMC3    C8 8295   0.503   1.835  15.283  0.4813 -0.3990  0.3351
  555TMC3    O1 8296   0.350   1.366  15.295 -0.1655  0.3704  0.0099
  555TMC3    O2 8297   0.560   1.934  15.232  0.4991  0.3475 -0.2072
  556MPD2     C 8298   3.556   3.110  10.545  0.3356 -0.9101  0.5997
  556MPD2    C1 8299   3.448   3.061  10.618  0.5322 -0.4547  0.3166
  556MPD2    C2 8300   3.375   2.959  10.566 -0.0566  0.4495 -0.0492
  556MPD2    C3 8301   3.385   2.918  10.431  0.4545  0.8075 -0.1962
  556MPD2    C4 8302   3.494   2.966  10.353  0.1484 -0.0163  0.4996
  556MPD2    C5 8303   3.577   3.059  10.418  0.5645  0.5250 -0.0161
  556MPD2     H 8304   3.294   2.917  10.625 -0.8763  1.7492 -0.2567
  556MPD2    H1 8305   3.519   2.933  10.253 -3.5241 -0.7561 -0.1964
  556MPD2    H2 8306   3.629   3.184  10.576 -0.7314  0.6807 -0.6880
  556MPD2    H3 8307   3.663   3.104  10.369  1.8030  0.5877  2.1990
  556MPD2     N 8308   3.293   2.817  10.391  0.4010 -0.0585  0.1167
  556MPD2    H5 8309   3.210   2.804  10.449  0.3531  0.4296  0.1551
  556MPD2    N1 8310   3.423   3.092  10.751 -0.4510 -0.5964 -0.3574
  556MPD2    H7 8311   3.349   3.041  10.798  0.9449 -2.2224  0.0834
  557TMC3    C1 8312   3.198   2.657  10.261  0.1983 -0.2198  0.6520
  557TMC3    C2 8313   3.174   2.604  10.141  0.3353  0.0562  0.3122
  557TMC3    C3 8314   3.149   2.469  10.133  0.5030 -0.1616 -0.1944
  557TMC3    C4 8315   3.174   2.581  10.380  0.4363 -0.0574 -0.3511
  557TMC3    C5 8316   3.138   2.446  10.357  0.4539  0.2468 -0.9006
  557TMC3    C6 8317   3.130   2.383  10.239  0.2518 -0.9222 -0.1688
  557TMC3     C 8318   3.285   2.767  10.267 -0.1941 -0.3484  0.0653
  557TMC3     O 8319   3.343   2.797  10.162 -0.6254  0.4448 -0.4460
  557TMC3     H 8320   3.188   2.671  10.057  2.7128  1.8368  2.1113
  557TMC3    H1 8321   3.183   2.618  10.481  0.4423 -1.7393  0.2754
  557TMC3    H2 8322   3.092   2.282  10.232 -0.5943 -0.5468 -1.1283
  557TMC3    C7 8323   3.087   2.379  10.472 -0.5106  0.0912 -0.0554
  557TMC3    C8 8324   3.108   2.424  10.005  0.1172  0.6043  0.7656
  557TMC3    O1 8325   3.070   2.450  10.572  0.5832 -0.4747  0.0406
  557TMC3    O2 8326   3.072   2.516   9.932 -0.0634 -0.1122  0.0829
  558TMC3    C1 8327   0.410   1.014  10.504  0.6526 -0.5414  0.0903
  558TMC3    C2 8328   0.316   1.045  10.603 -0.4950 -0.1280 -0.2295
  558TMC3    C3 8329   0.186   1.060  10.559 -0.0621  0.1540 -0.7610
  558TMC3    C4 8330   0.378   1.008  10.375  1.0759 -0.2113  0.1236
  558TMC3    C5 8331   0.247   1.020  10.335 -0.0745 -0.9148 -0.3489
  558TMC3    C6 8332   0.151   1.055  10.427  0.2849 -0.0954 -0.2631
  558TMC3     C 8333   0.542   0.965  10.538  0.7118  0.0468  0.6892
  558TMC3     O 8334   0.594   0.885  10.460 -0.3698  0.3953  0.3094
  558TMC3     H 8335   0.360   1.051  10.702  0.5400  1.5084 -0.7765
  558TMC3    H1 8336   0.453   0.975  10.304 -0.1028 -0.4193 -1.0073
  558TMC3    H2 8337   0.054   1.086  10.389  1.6089  2.9011 -1.1988
  558TMC3    C7 8338   0.226   1.042  10.200 -0.0008  0.1515 -0.1886
  558TMC3    C8 8339   0.074   1.074  10.645 -0.0104 -0.0530 -0.2697
  558TMC3    O1 8340   0.315   1.099  10.138 -0.4499 -0.0632 -0.4279
  558TMC3    O2 8341   4.705   1.077  10.580 -0.4165  0.0550 -0.1833
  559MPD2     C 8342   0.460   1.370  10.344  0.2159 -0.0327 -0.0509
  559MPD2    C1 8343   0.417   1.426  10.466 -0.1522 -0.2396 -0.2495
  559MPD2    C2 8344   0.512   1.433  10.567 -1.0168  0.1092  0.0286
  559MPD2    C3 8345   0.641   1.384  10.559  0.5684 -0.0071  0.1289
  559MPD2    C4 8346   0.682   1.328  10.439  0.3746 -0.3397  0.5450
  559MPD2    C5 8347   0.589   1.320  10.334  0.7567  0.1104 -0.2288
  559MPD2     H 8348   0.484   1.472  10.664  0.7603 -0.7788  0.8983
  559MPD2    H1 8349   0.775   1.277  10.418 -0.3545 -0.5952 -2.1471
  559MPD2    H2 8350   0.385   1.357  10.267 -2.3894 -2.9604  2.9646
  559MPD2    H3 8351   0.605   1.258  10.247  0.9364  1.2441 -1.0100
  559MPD2     N 8352   0.721   1.395  10.679  0.5278 -0.0968 -0.7237
  559MPD2    H5 8353   0.674   1.431  10.761  0.7805 -1.9946  0.2473
  559MPD2    N1 8354   0.277   1.453  10.481 -0.4744 -0.4271  0.7100
  559MPD2    H7 8355   0.214   1.443  10.402 -1.7174 -0.3244  1.6733
  560TMC3    C1 8356   0.899   1.362  10.832 -0.1327 -0.0990  0.7688
  560TMC3    C2 8357   0.813   1.345  10.933  0.0355 -0.4321  0.6714
  560TMC3    C3 8358   0.871   1.317  11.054 -0.4000 -0.0022 -0.2454
  560TMC3    C4 8359   1.029   1.377  10.852  0.6335 -0.3470 -0.0654
  560TMC3    C5 8360   1.082   1.372  10.979  0.3444 -0.6594 -0.3587
  560TMC3    C6 8361   1.004   1.324  11.076  0.3612  0.1612 -0.2185
  560TMC3     C 8362   0.857   1.376  10.690 -0.6083  0.1390 -0.2133
  560TMC3     O 8363   0.935   1.372  10.601  0.0126 -0.4282  0.4321
  560TMC3     H 8364   0.707   1.329  10.916 -0.0631 -0.2082  1.0756
  560TMC3    H1 8365   1.104   1.402  10.778  1.7226 -1.6191  0.6028
  560TMC3    H2 8366   1.040   1.326  11.178  0.5906  0.0126 -0.2965
  560TMC3    C7 8367   1.213   1.326  10.995  0.0452  0.1242  0.1154
  560TMC3    C8 8368   0.784   1.242  11.143 -0.0402 -0.1797 -1.0369
  560TMC3    O1 8369   1.243   1.220  10.943 -0.1995  0.6884  0.9648
  560TMC3    O2 8370   0.664   1.242  11.116  0.3118 -0.1252 -0.1834
  561TMC3    C1 8371   3.202   0.403  11.382  0.1553 -0.3992  0.7174
  561TMC3    C2 8372   3.102   0.326  11.424 -0.6789 -0.3127  0.1458
  561TMC3    C3 8373   3.051   0.354  11.547  0.0431  0.4141 -0.6170
  561TMC3    C4 8374   3.249   0.513  11.449  0.3933 -0.2321 -0.4271
  561TMC3    C5 8375   3.181   0.551  11.559 -0.3955 -0.5811  0.1816
  561TMC3    C6 8376   3.083   0.468  11.616  0.4262 -0.6174  0.7727
  561TMC3     C 8377   3.284   0.346  11.275 -0.5674  0.2236  0.3032
  561TMC3     O 8378   3.226   0.275  11.191  0.7803 -0.1850 -0.3728
  561TMC3     H 8379   3.082   0.227  11.384  0.7999  0.5558 -2.6681
  561TMC3    H1 8380   3.331   0.574  11.414  1.6454 -0.2553  2.4267
  561TMC3    H2 8381   3.045   0.494  11.714  1.5951 -0.8448  1.2909
  561TMC3    C7 8382   3.229   0.658  11.644 -1.2678  0.6645 -0.2564
  561TMC3    C8 8383   2.969   0.257  11.612  0.9019 -0.7727 -0.1931
  561TMC3    O1 8384   3.208   0.650  11.766 -0.0134  0.2773  0.2819
  561TMC3    O2 8385   3.012   0.144  11.615 -0.7884  0.2119  0.1466
  562TMC3    C1 8386   4.557   2.251  16.585  0.1418 -0.2807  0.2635
  562TMC3    C2 8387   4.572   2.374  16.524 -1.0822 -0.5027  0.2980
  562TMC3    C3 8388   4.580   2.380  16.391 -0.3888  0.3551  0.0087
  562TMC3    C4 8389   4.563   2.133  16.524  0.2572  0.3418 -0.5192
  562TMC3    C5 8390   4.575   2.145  16.389 -0.2780  0.3599 -0.1092
  562TMC3    C6 8391   4.576   2.262  16.325  0.1115 -0.4356  0.1023
  562TMC3     C 8392   4.558   2.253  16.729 -0.1634  0.1117 -0.6516
  562TMC3     O 8393   4.589   2.149  16.786  0.1022 -0.5532 -0.1607
  562TMC3     H 8394   4.558   2.465  16.582  0.2737  0.4593 -0.8948
  562TMC3    H1 8395   4.540   2.036  16.568 -1.1539  0.4447 -1.0344
  562TMC3    H2 8396   4.584   2.262  16.216 -0.8192 -0.8111  0.0344
  562TMC3    C7 8397   4.550   2.033  16.306  0.3344  0.3607 -0.6600
  562TMC3    C8 8398   4.576   2.515  16.331 -0.0668 -0.0824 -0.0295
  562TMC3    O1 8399   4.485   2.053  16.205 -0.3297 -0.4650  0.2226
  562TMC3    O2 8400   4.609   2.608  16.402 -0.4006  0.0640 -0.2863
  563MPD2     C 8401   2.173   3.272  15.487 -0.1441 -0.2757  0.4714
  563MPD2    C1 8402   2.221   3.335  15.606 -0.1591 -0.2677  0.3217
  563MPD2    C2 8403   2.338   3.281  15.656  0.7134 -0.2176 -0.2512
  563MPD2    C3 8404   2.417   3.186  15.586 -0.0936 -0.3275  0.1009
  563MPD2    C4 8405   2.364   3.131  15.474 -0.4044  0.3838 -0.0097
  563MPD2    C5 8406   2.244   3.174  15.423 -0.1720 -0.3147  0.0145
  563MPD2     H 8407   2.374   3.306  15.755 -0.3515  1.3632 -0.2703
  563MPD2    H1 8408   2.416   3.056  15.415  2.7403  2.7776 -0.2836
  563MPD2    H2 8409   2.074   3.299  15.451 -0.7348 -0.0795  2.2594
  563MPD2    H3 8410   2.205   3.148  15.325  1.0535  2.8894 -1.3407
  563MPD2     N 8411   2.535   3.132  15.649  0.5368  0.2725  0.0117
  563MPD2    H5 8412   2.556   3.159  15.744  0.3115 -0.9328  0.4006
  563MPD2    N1 8413   2.146   3.419  15.686 -0.4034 -0.3043  0.1416
  563MPD2    H7 8414   2.046   3.400  15.688  0.2564 -3.6043  0.9448
  564TMC3    C1 8415   2.141   3.472  15.916 -0.3986 -0.5778 -0.6523
  564TMC3    C2 8416   2.009   3.427  15.923 -0.0706 -0.7803  0.1233
  564TMC3    C3 8417   1.984   3.341  16.024 -0.5096  1.3072 -0.1643
  564TMC3    C4 8418   2.237   3.429  16.006 -0.8129 -0.1049  0.0947
  564TMC3    C5 8419   2.201   3.341  16.104 -1.1652  0.5887  0.3780
  564TMC3    C6 8420   2.077   3.307  16.114 -0.2901  0.2537  0.0188
  564TMC3     C 8421   2.204   3.501  15.789 -0.2576  1.0474 -0.7639
  564TMC3     O 8422   2.319   3.536  15.789  0.5193 -0.5004  0.0950
  564TMC3     H 8423   1.932   3.463  15.856  1.0762 -1.1220 -1.3964
  564TMC3    H1 8424   2.343   3.442  15.988 -0.4276  0.5312  2.7340
  564TMC3    H2 8425   2.051   3.231  16.187 -1.0799 -0.4414 -0.9866
  564TMC3    C7 8426   2.296   3.225  16.085  0.1183 -0.9601 -0.1409
  564TMC3    C8 8427   1.904   3.217  15.993 -0.5786  0.7520 -0.2079
  564TMC3    O1 8428   2.419   3.242  16.097  0.2311 -0.0599 -0.4547
  564TMC3    O2 8429   1.874   3.144  16.084  0.0334 -0.2071 -0.5589
  565TMC3    C1 8430   2.547   4.338  10.362  0.0309 -0.0756 -0.1269
  565TMC3    C2 8431   2.554   4.236  10.455 -0.2324 -1.4177  0.6565
  565TMC3    C3 8432   2.479   4.125  10.428 -0.1741 -0.0955  0.1251
  565TMC3    C4 8433   2.459   4.331  10.253 -0.6044 -0.9112 -0.8759
  565TMC3    C5 8434   2.391   4.213  10.235 -0.0161  0.6878 -0.5509
  565TMC3    C6 8435   2.399   4.105  10.315 -0.0358  0.3580 -0.1109
  565TMC3     C 8436   2.621   4.463  10.384 -0.3064 -0.1509 -0.3985
  565TMC3     O 8437   2.643   4.527  10.285 -0.1881 -0.0597 -0.4534
  565TMC3     H 8438   2.616   4.248  10.544  1.1903 -0.0367 -0.5311
  565TMC3    H1 8439   2.446   4.414  10.186  0.0423  0.3390  0.5423
  565TMC3    H2 8440   2.309   4.045  10.319 -0.3086  0.8246  0.8403
  565TMC3    C7 8441   2.287   4.203  10.135 -1.0850  0.0540  0.5328
  565TMC3    C8 8442   2.506   4.023  10.523  0.0754  0.0154 -0.6513
  565TMC3    O1 8443   2.264   4.091  10.089  0.3428 -0.5039  0.3718
  565TMC3    O2 8444   2.547   4.057  10.634 -0.8607 -0.7672 -0.5098
  566MPD2     C 8445   4.208   0.651  14.177  0.7044 -0.4567  0.1018
  566MPD2    C1 8446   4.218   0.768  14.103  1.3850  0.0501 -0.4955
  566MPD2    C2 8447   4.137   0.779  13.993 -0.3498 -0.7412 -0.5288
  566MPD2    C3 8448   4.051   0.682  13.952  0.2925 -0.5023  0.8327
  566MPD2    C4 8449   4.038   0.568  14.029 -0.0259  0.0917  0.0064
  566MPD2    C5 8450   4.130   0.548  14.128 -0.4732  0.0511  0.5030
  566MPD2     H 8451   4.146   0.868  13.932  0.3389 -0.8455 -0.5804
  566MPD2    H1 8452   3.980   0.480  14.003  0.0565 -0.0086  0.1637
  566MPD2    H2 8453   4.272   0.620  14.258 -0.1861 -2.7654 -0.0709
  566MPD2    H3 8454   4.124   0.451  14.175 -0.4808  0.4163  1.2547
  566MPD2     N 8455   3.975   0.700  13.836 -0.2209 -0.1303 -0.2936
  566MPD2    H5 8456   3.950   0.618  13.781  0.3722 -1.3290  1.2451
  566MPD2    N1 8457   4.318   0.866  14.135  0.1886  0.2885 -0.2602
  566MPD2    H7 8458   4.387   0.831  14.201 -0.3588 -0.9617 -0.3518
  567TMC3    C1 8459   4.442   1.068  14.098 -0.6301 -0.1286  0.0465
  567TMC3    C2 8460   4.459   1.150  13.988 -0.9559 -0.0514  0.5286
  567TMC3    C3 8461   4.544   1.255  14.008  0.2657 -0.0929 -0.4303
  567TMC3    C4 8462   4.505   1.085  14.221  0.2412 -0.3829 -1.0706
  567TMC3    C5 8463   4.592   1.192  14.231  0.1044  0.0485  0.0192
  567TMC3    C6 8464   4.619   1.278  14.122 -0.6189 -0.0321 -0.1078
  567TMC3     C 8465   4.322   0.994  14.088  0.4803 -0.2835 -0.1879
  567TMC3     O 8466   4.237   1.055  14.022 -0.0585 -0.1325  0.2798
  567TMC3     H 8467   4.418   1.127  13.891  2.4298  0.1907 -0.9632
  567TMC3    H1 8468   4.500   1.014  14.303 -0.4602  1.2643  0.3317
  567TMC3    H2 8469   4.695   1.356  14.125  2.8111 -3.4063  0.5275
  567TMC3    C7 8470   4.666   1.219  14.352  0.1696 -0.1156  0.1109
  567TMC3    C8 8471   4.530   1.357  13.905 -0.2136  0.9291  0.2828
  567TMC3    O1 8472   4.693   1.120  14.418  0.2268  0.5203  0.3808
  567TMC3    O2 8473   4.423   1.354  13.844  0.2706  0.2591 -0.1212
  568MPD2     C 8474   1.585   1.831  16.438 -0.3422  0.6108  0.4773
  568MPD2    C1 8475   1.711   1.858  16.475 -0.0315 -0.4089  0.2995
  568MPD2    C2 8476   1.769   1.973  16.427 -0.7022 -0.1727  0.1547
  568MPD2    C3 8477   1.704   2.052  16.339 -0.0137 -0.6541  0.7161
  568MPD2    C4 8478   1.574   2.024  16.300 -0.1587  0.6643  0.4631
  568MPD2    C5 8479   1.515   1.908  16.352 -0.8206  0.4682  0.6944
  568MPD2     H 8480   1.866   2.008  16.463 -0.3571 -2.5630  1.6040
  568MPD2    H1 8481   1.520   2.089  16.232 -0.4369  0.5976  0.6193
  568MPD2    H2 8482   1.527   1.747  16.476 -0.0207  0.3592  0.4130
  568MPD2    H3 8483   1.410   1.890  16.331 -0.3773 -1.0931 -0.2148
  568MPD2     N 8484   1.773   2.166  16.287  0.0973 -0.4032  0.1391
  568MPD2    H5 8485   1.856   2.201  16.334 -1.1934  2.0471  0.6089
  568MPD2    N1 8486   1.773   1.777  16.572 -0.3198 -0.4102  0.5086
  568MPD2    H7 8487   1.709   1.726  16.633  3.0961 -0.6062  3.9170
  569TMC3    C1 8488   1.819   2.348  16.148 -1.1048  0.0273  0.9405
  569TMC3    C2 8489   1.888   2.405  16.255  0.0891  0.0101  0.2835
  569TMC3    C3 8490   1.980   2.502  16.228  0.1228 -0.0748  0.0974
  569TMC3    C4 8491   1.835   2.397  16.015  0.2944  0.6465 -0.4356
  569TMC3    C5 8492   1.927   2.494  15.998  0.6473 -0.1720 -0.3560
  569TMC3    C6 8493   2.002   2.551  16.103 -0.1267 -0.0210  0.6205
  569TMC3     C 8494   1.732   2.234  16.180  0.8187 -0.1916 -0.3454
  569TMC3     O 8495   1.660   2.201  16.088  0.3268  0.6714 -0.4583
  569TMC3     H 8496   1.877   2.382  16.360  1.8045 -0.0606  0.4588
  569TMC3    H1 8497   1.781   2.348  15.935  0.9805  0.6767 -0.9189
  569TMC3    H2 8498   2.078   2.626  16.083 -1.1546  0.9671  0.4224
  569TMC3    C7 8499   1.925   2.569  15.879  0.2744 -0.7201  0.5152
  569TMC3    C8 8500   1.976   2.602  16.330  0.4622  0.3508 -0.0768
  569TMC3    O1 8501   1.894   2.516  15.774  0.7811  0.1442  0.7563
  569TMC3    O2 8502   1.889   2.594  16.415  0.2940 -0.5995  0.3659
  570TMC3    C1 8503   1.358   0.850  16.416 -0.3746  0.1243  0.1900
  570TMC3    C2 8504   1.385   0.851  16.279 -0.1032  0.7297 -0.5335
  570TMC3    C3 8505   1.394   0.968  16.209  0.8322  0.2156  0.6931
  570TMC3    C4 8506   1.333   0.967  16.479  0.8040 -0.0425 -0.4415
  570TMC3    C5 8507   1.333   1.088  16.403 -0.3906  0.9106  0.1003
  570TMC3    C6 8508   1.372   1.092  16.270 -0.0092  0.2655 -0.9161
  570TMC3     C 8509   1.328   0.727  16.477  0.2910 -0.3548  0.0873
  570TMC3     O 8510   1.301   0.635  16.401  0.1912  0.0046 -0.4268
  570TMC3     H 8511   1.408   0.754  16.237  2.3470  1.8081 -1.6696
  570TMC3    H1 8512   1.318   0.978  16.586  1.6524  0.7894 -0.4079
  570TMC3    H2 8513   1.396   1.185  16.219  2.0301  0.0153 -0.3877
  570TMC3    C7 8514   1.308   1.217  16.470  0.1632  0.5549 -0.6281
  570TMC3    C8 8515   1.482   0.981  16.095  0.3301 -0.0987  0.2955
  570TMC3    O1 8516   1.288   1.214  16.588  0.7298 -0.5680  0.1099
  570TMC3    O2 8517   1.483   1.089  16.037 -0.4870 -0.1137 -0.2100
  571MPD2     C 8518   4.176   2.778   0.003 -0.3167  0.4976  0.0049
  571MPD2    C1 8519   4.045   2.816   0.010  0.2160  0.4218  0.4478
  571MPD2    C2 8520   4.013   2.923   0.091 -0.2282 -1.1132  0.1765
  571MPD2    C3 8521   4.117   3.003   0.137 -0.3428  0.0958  0.7283
  571MPD2    C4 8522   4.248   2.963   0.118  0.2062  0.1927 -0.0363
  571MPD2    C5 8523   4.277   2.850   0.053 -0.0478  0.2122  0.0391
  571MPD2     H 8524   3.908   2.947   0.107  0.4208  1.8692  0.0044
  571MPD2    H1 8525   4.324   3.035   0.149  1.5865 -0.4704 -1.9263
  571MPD2    H2 8526   4.206   2.685  17.704 -1.6394 -1.3146  2.7957
  571MPD2    H3 8527   4.382   2.821   0.046 -0.0351  0.1681  0.4248
  571MPD2     N 8528   4.095   3.122   0.210  0.3155 -0.0276 -0.5838
  571MPD2    H5 8529   4.178   3.171   0.242  1.4231 -1.8602 -0.6328
  571MPD2    N1 8530   3.946   2.728  17.695 -0.0397 -0.0933 -0.2275
  571MPD2    H7 8531   3.987   2.650  17.644  1.6220 -0.6818  2.0102
  572TMC3    C1 8532   4.004   3.317   0.283  0.2625 -0.0225 -0.7358
  572TMC3    C2 8533   3.913   3.375   0.368 -0.4777  0.1160 -0.0371
  572TMC3    C3 8534   3.959   3.484   0.443  0.3006 -0.5691 -0.7205
  572TMC3    C4 8535   4.108   3.387   0.233 -0.4731 -0.1885  0.5416
  572TMC3    C5 8536   4.138   3.512   0.294  0.0865 -0.5802 -0.0644
  572TMC3    C6 8537   4.066   3.559   0.397  0.2616 -0.7056  0.5630
  572TMC3     C 8538   3.977   3.187   0.224  0.0011  0.1298  0.0051
  572TMC3     O 8539   3.862   3.144   0.232 -0.2651  0.0789  0.5518
  572TMC3     H 8540   3.842   3.299   0.399 -2.4585  2.5667  1.4518
  572TMC3    H1 8541   4.162   3.360   0.143  0.0393 -1.1116  1.1155
  572TMC3    H2 8542   4.085   3.659   0.434  0.2272 -0.2111 -0.7597
  572TMC3    C7 8543   4.197   3.617   0.210  0.3606 -0.2067  0.5339
  572TMC3    C8 8544   3.855   3.561   0.516 -0.0364 -0.2785 -0.0830
  572TMC3    O1 8545   4.195   3.613   0.087  0.6047 -0.6561  0.0293
  572TMC3    O2 8546   3.880   3.682   0.526  0.0848 -0.2462 -0.0237
  573MPD2     C 8547   0.893   3.218   1.790  0.0996  0.2281 -0.6713
  573MPD2    C1 8548   0.769   3.277   1.774  1.1387  0.2505  0.4517
  573MPD2    C2 8549   0.699   3.268   1.654  0.3973 -0.0580  0.4916
  573MPD2    C3 8550   0.753   3.186   1.551  0.0805 -0.3264 -0.0421
  573MPD2    C4 8551   0.875   3.125   1.571 -0.6188  0.1624  0.7937
  573MPD2    C5 8552   0.939   3.133   1.688 -0.3669  0.3551 -0.0766
  573MPD2     H 8553   0.598   3.305   1.648  0.1760 -0.7873 -0.2531
  573MPD2    H1 8554   0.918   3.049   1.507 -0.3645 -0.2987  1.5094
  573MPD2    H2 8555   0.932   3.208   1.891  1.1717  0.1251 -1.1040
  573MPD2    H3 8556   1.023   3.069   1.714  0.0075  1.0472  0.4274
  573MPD2     N 8557   0.690   3.167   1.427  0.1733  0.6202  0.3766
  573MPD2    H5 8558   0.747   3.120   1.358 -1.2417 -0.7928  0.1567
  573MPD2    N1 8559   0.715   3.344   1.884 -0.1315  0.0735  0.3604
  573MPD2    H7 8560   0.756   3.322   1.974 -0.4767  1.1002  0.7653
  574TMC3    C1 8561   0.515   3.131   1.279  0.2908  0.9445  0.6326
  574TMC3    C2 8562   0.380   3.137   1.243 -0.5615  0.1321 -0.0149
  574TMC3    C3 8563   0.342   3.166   1.115  0.2670  0.0383  0.5969
  574TMC3    C4 8564   0.606   3.138   1.179  0.1993 -0.6424 -0.3777
  574TMC3    C5 8565   0.565   3.151   1.046  1.2021  0.0844  0.6157
  574TMC3    C6 8566   0.434   3.173   1.009  0.5197  0.0795 -0.1410
  574TMC3     C 8567   0.552   3.164   1.414  0.4996 -0.0683  1.0984
  574TMC3     O 8568   0.460   3.199   1.492 -0.5434 -0.3624  0.6648
  574TMC3     H 8569   0.302   3.151   1.316 -2.1994 -0.5519 -1.6400
  574TMC3    H1 8570   0.709   3.107   1.192  1.2341  2.8331 -0.3753
  574TMC3    H2 8571   0.401   3.202   0.910  1.1923  0.5264 -0.2353
  574TMC3    C7 8572   0.668   3.141   0.948  0.1924 -0.3568 -0.5560
  574TMC3    C8 8573   0.199   3.192   1.093 -0.3362 -0.3164 -0.5093
  574TMC3    O1 8574   0.776   3.096   0.982  0.2347  0.6837 -0.4092
  574TMC3    O2 8575   0.116   3.154   1.171  0.0503  0.7139  0.1454
  575TMC3    C1 8576   2.964   3.682  11.194  0.5461 -0.7100  0.3395
  575TMC3    C2 8577   2.922   3.563  11.250  0.4411  0.5524  0.0189
  575TMC3    C3 8578   2.829   3.483  11.186  0.3931 -0.2642 -0.4493
  575TMC3    C4 8579   2.907   3.720  11.073 -0.2920 -0.1061 -0.3169
  575TMC3    C5 8580   2.818   3.637  11.014 -0.3312  0.0401 -0.3047
  575TMC3    C6 8581   2.779   3.514  11.065  0.5475  0.6358  0.7664
  575TMC3     C 8582   3.057   3.762  11.269 -0.5611 -0.3816  0.2102
  575TMC3     O 8583   3.096   3.716  11.379  0.3093  0.0493 -0.4069
  575TMC3     H 8584   2.956   3.537  11.349  0.3930 -1.2127 -0.4243
  575TMC3    H1 8585   2.925   3.816  11.025 -0.3569  0.2370  0.3417
  575TMC3    H2 8586   2.716   3.450  11.005  1.4908  0.9069 -0.5088
  575TMC3    C7 8587   2.751   3.690  10.895 -0.2353  0.4187 -0.4022
  575TMC3    C8 8588   2.771   3.378  11.269  0.4384  0.3082  0.5122
  575TMC3    O1 8589   2.775   3.804  10.871  0.3457 -0.4884 -0.5051
  575TMC3    O2 8590   2.832   3.349  11.373  0.5544  0.2062 -0.4738
  576MPD2     C 8591   2.242   0.480  12.865 -0.1643 -0.1285 -0.0719
  576MPD2    C1 8592   2.346   0.564  12.827 -0.0954  0.7741 -0.0964
  576MPD2    C2 8593   2.380   0.672  12.914  0.4676 -0.1343 -0.0252
  576MPD2    C3 8594   2.309   0.683  13.034 -0.1748  0.5806 -0.3399
  576MPD2    C4 8595   2.207   0.602  13.069  0.1190 -0.1521 -0.0809
  576MPD2    C5 8596   2.179   0.504  12.979  0.2700  0.0590 -0.0370
  576MPD2     H 8597   2.452   0.747  12.884 -0.6622  1.4824  1.3146
  576MPD2    H1 8598   2.152   0.603  13.162  0.5327  0.6149  0.1580
  576MPD2    H2 8599   2.195   0.399  12.811  0.1838 -0.6963  0.4659
  576MPD2    H3 8600   2.090   0.446  13.003  0.5949 -0.0554  0.8946
  576MPD2     N 8601   2.341   0.796  13.110  0.1048  0.1818 -0.7231
  576MPD2    H5 8602   2.427   0.845  13.086 -1.1310  1.9165 -1.6691
  576MPD2    N1 8603   2.414   0.547  12.706  0.4426 -0.0750 -0.3184
  576MPD2    H7 8604   2.494   0.609  12.692  0.7234 -0.2494  0.4787
  577TMC3    C1 8605   2.446   0.480  12.486  0.2466 -0.0594 -0.5977
  577TMC3    C2 8606   2.450   0.374  12.400  0.9295 -0.3729  0.5276
  577TMC3    C3 8607   2.504   0.400  12.275  0.3206  0.1485  0.1043
  577TMC3    C4 8608   2.477   0.612  12.452  0.2910 -0.2477 -0.5083
  577TMC3    C5 8609   2.508   0.629  12.321  0.3385 -0.0660 -0.0744
  577TMC3    C6 8610   2.527   0.526  12.231  0.4021 -0.1633 -0.5617
  577TMC3     C 8611   2.384   0.446  12.619  0.3704 -0.3214  0.0989
  577TMC3     O 8612   2.315   0.346  12.623  0.3123 -0.3361  0.1569
  577TMC3     H 8613   2.432   0.275  12.439 -0.9866  0.0069  0.6061
  577TMC3    H1 8614   2.467   0.699  12.517  0.8833  1.6196 -2.9372
  577TMC3    H2 8615   2.565   0.547  12.131  1.2886  0.4475 -0.1037
  577TMC3    C7 8616   2.539   0.764  12.281 -0.2650 -0.5069  0.3658
  577TMC3    C8 8617   2.588   0.288  12.224  1.2625 -0.4334 -1.1582
  577TMC3    O1 8618   2.595   0.843  12.360 -0.5275 -0.5096  0.5048
  577TMC3    O2 8619   2.559   0.175  12.256  0.4748 -0.4735  0.6082
  578MPD2     C 8620   0.741   1.243   1.099  0.1608  0.4940  0.1302
  578MPD2    C1 8621   0.857   1.163   1.100  0.1825 -0.7697 -0.5466
  578MPD2    C2 8622   0.882   1.075   1.200  0.4785  0.3254 -0.2275
  578MPD2    C3 8623   0.828   1.091   1.325  0.3870 -0.1932 -0.3076
  578MPD2    C4 8624   0.727   1.193   1.334  0.4547  0.1166  0.0894
  578MPD2    C5 8625   0.682   1.261   1.222 -0.1474 -0.0515 -0.6377
  578MPD2     H 8626   0.944   0.987   1.187 -0.4200 -0.1813 -1.1546
  578MPD2    H1 8627   0.682   1.227   1.426  2.2338  1.2094  0.5486
  578MPD2    H2 8628   0.712   1.294   1.008  1.4610  0.6107 -0.2146
  578MPD2    H3 8629   0.610   1.342   1.231  0.4609  0.5390 -1.1035
  578MPD2     N 8630   0.879   1.020   1.443  0.6797  0.4924  0.1480
  578MPD2    H5 8631   0.949   0.951   1.420  0.7283  0.7188 -0.3814
  578MPD2    N1 8632   0.921   1.153   0.971  0.9451  0.6408 -0.0971
  578MPD2    H7 8633   0.872   1.191   0.891  0.6899 -0.0851 -0.2805
  579TMC3    C1 8634   0.923   0.942   1.650 -0.2699  0.0722 -0.7630
  579TMC3    C2 8635   1.000   1.010   1.744  0.5894 -0.6857  0.1461
  579TMC3    C3 8636   1.109   0.941   1.780 -0.1848 -0.0987  0.1697
  579TMC3    C4 8637   0.952   0.814   1.599  0.3911  0.0582  0.1325
  579TMC3    C5 8638   1.056   0.742   1.665 -0.1888 -0.1827  0.4236
  579TMC3    C6 8639   1.139   0.808   1.751  0.3642 -0.5667  0.0085
  579TMC3     C 8640   0.844   1.034   1.571  0.0791 -0.4533 -0.0742
  579TMC3     O 8641   0.775   1.124   1.622  0.4401 -0.2351 -0.1745
  579TMC3     H 8642   0.990   1.112   1.777 -1.8663 -0.6267 -0.8430
  579TMC3    H1 8643   0.892   0.766   1.523 -0.9025  0.0667  1.1383
  579TMC3    H2 8644   1.227   0.761   1.793  0.8147 -0.8448 -1.2398
  579TMC3    C7 8645   1.091   0.600   1.645 -0.6342 -0.0734 -0.5988
  579TMC3    C8 8646   1.212   1.024   1.838 -0.0324 -0.0327  0.2232
  579TMC3    O1 8647   1.147   0.545   1.739  0.5623 -0.3060  0.1060
  579TMC3    O2 8648   1.180   1.120   1.910  0.1105  0.2774  0.3183
  580TMC3    C1 8649   0.104   4.541  12.322 -0.0231  0.5873  0.4548
  580TMC3    C2 8650   0.075   4.521  12.191 -0.3087  0.1583  0.3240
  580TMC3    C3 8651   0.152   4.434  12.123  0.5677 -0.5797 -0.6454
  580TMC3    C4 8652   0.192   4.462  12.394 -0.6919 -0.1058 -0.6367
  580TMC3    C5 8653   0.267   4.383  12.321  0.3509  0.4106 -0.3304
  580TMC3    C6 8654   0.264   4.373  12.185 -0.0016  0.2359  0.5669
  580TMC3     C 8655   0.077   4.660  12.391  0.2834 -0.1241 -0.2191
  580TMC3     O 8656   0.053   4.664  12.508  0.2706  0.7796  0.0711
  580TMC3     H 8657   0.005   4.590  12.146 -0.3235 -1.6383 -2.4405
  580TMC3    H1 8658   0.213   4.478  12.499  0.2922 -1.0354 -0.6966
  580TMC3    H2 8659   0.337   4.315  12.129  0.6465  1.6327 -0.0185
  580TMC3    C7 8660   0.386   4.338  12.393 -0.3656  0.2035 -0.3149
  580TMC3    C8 8661   0.156   4.450  11.983 -0.6938  0.6695 -0.2278
  580TMC3    O1 8662   0.419   4.398  12.497 -0.5962  0.2171 -0.2312
  580TMC3    O2 8663   0.045   4.462  11.927  0.2907  0.6854  0.4714
  581MPD2     C 8664   2.923   4.487  14.734 -0.5229 -0.1814  0.0826
  581MPD2    C1 8665   2.873   4.422  14.839 -0.6750  0.5051  0.1422
  581MPD2    C2 8666   2.752   4.467  14.892 -0.0729  0.6275 -0.5900
  581MPD2    C3 8667   2.686   4.572  14.839  0.4064 -0.4984 -0.8486
  581MPD2    C4 8668   2.735   4.638  14.729 -0.3285  0.6001  0.2303
  581MPD2    C5 8669   2.849   4.587  14.673  1.0650 -0.0385 -0.1816
  581MPD2     H 8670   2.714   4.411  14.976  2.7205  0.3064  0.4909
  581MPD2    H1 8671   2.671   4.715  14.688  0.6640  0.3268 -1.8160
  581MPD2    H2 8672   3.017   4.466  14.684 -0.3367  0.5143  0.1440
  581MPD2    H3 8673   2.886   4.641  14.587  0.7452 -2.4770 -1.8564
  581MPD2     N 8674   2.566   4.621  14.896  0.6786 -0.7246  0.1975
  581MPD2    H5 8675   2.519   4.692  14.841  2.6901 -0.0729 -0.6794
  581MPD2    N1 8676   2.952   4.309  14.878  0.2932  0.0454  0.0880
  581MPD2    H7 8677   3.048   4.295  14.845  0.4780  0.9899  0.2304
  582TMC3    C1 8678   3.011   4.111  14.989 -0.2101  0.7585 -0.2083
  582TMC3    C2 8679   3.126   4.154  15.046  0.3295  0.4440  0.3066
  582TMC3    C3 8680   3.181   4.076  15.141 -0.1341  0.6001 -0.4150
  582TMC3    C4 8681   2.955   3.992  15.022  0.8029 -0.3440 -0.2982
  582TMC3    C5 8682   3.010   3.915  15.115 -0.5797 -0.0955  0.1570
  582TMC3    C6 8683   3.122   3.960  15.183 -0.0521  0.8473 -0.8148
  582TMC3     C 8684   2.908   4.218  14.972  0.2972  0.4313 -0.0622
  582TMC3     O 8685   2.794   4.192  15.008  0.5152 -0.9073 -0.2419
  582TMC3     H 8686   3.158   4.255  15.026  1.1888  0.3109  0.9773
  582TMC3    H1 8687   2.871   3.950  14.967  1.1827 -0.5390 -0.7334
  582TMC3    H2 8688   3.162   3.906  15.268  0.3843  0.3218 -1.3531
  582TMC3    C7 8689   2.905   3.871  15.199  0.1158  0.1448  0.3648
  582TMC3    C8 8690   3.233   4.142  15.253 -0.3496  0.4193  0.9541
  582TMC3    O1 8691   2.818   3.799  15.149  0.4018  0.2640  0.1903
  582TMC3    O2 8692   3.187   4.125  15.366  0.1303  0.1179 -0.0548
  583MPD2     C 8693   3.475   1.442  17.020 -0.0973  0.4318 -0.1762
  583MPD2    C1 8694   3.427   1.548  16.940 -0.1995 -0.7405  0.0374
  583MPD2    C2 8695   3.341   1.643  16.994 -0.0130 -0.2346  0.2714
  583MPD2    C3 8696   3.299   1.636  17.125  0.7289  0.3306 -0.4096
  583MPD2    C4 8697   3.344   1.536  17.204 -0.0136 -0.4800  0.3631
  583MPD2    C5 8698   3.434   1.441  17.151 -0.3838  0.0700  0.4815
  583MPD2     H 8699   3.315   1.729  16.934 -0.5581 -0.1796  0.5841
  583MPD2    H1 8700   3.333   1.531  17.311  2.0052 -0.9938  0.5386
  583MPD2    H2 8701   3.544   1.364  16.992  0.6278  0.5433  1.2838
  583MPD2    H3 8702   3.469   1.371  17.225 -1.6439 -0.9223  0.1375
  583MPD2     N 8703   3.213   1.740  17.171  0.2879  0.6269  0.3129
  583MPD2    H5 8704   3.189   1.808  17.100 -0.2807 -0.5252 -0.6120
  583MPD2    N1 8705   3.452   1.556  16.799  0.2175  0.1657 -0.5839
  583MPD2    H7 8706   3.413   1.634  16.747 -0.5279  1.2691  1.6476
  584TMC3    C1 8707   3.111   1.891  17.315  0.3381  0.2025 -0.2362
  584TMC3    C2 8708   3.115   1.996  17.224  0.2754  0.0401 -1.0985
  584TMC3    C3 8709   3.058   2.112  17.251 -0.4853 -0.9279  0.4684
  584TMC3    C4 8710   3.047   1.917  17.434  0.2127  0.0806 -0.1323
  584TMC3    C5 8711   2.985   2.039  17.460 -0.1309 -0.2450 -0.3139
  584TMC3    C6 8712   2.985   2.139  17.364  0.3788  0.3053 -0.0004
  584TMC3     C 8713   3.171   1.759  17.300  0.5676 -0.3573  0.8136
  584TMC3     O 8714   3.190   1.694  17.403  0.0597  0.1464 -0.3146
  584TMC3     H 8715   3.153   1.979  17.124 -0.6644 -1.1998 -1.2486
  584TMC3    H1 8716   3.043   1.835  17.506  0.4425 -0.0145 -0.2250
  584TMC3    H2 8717   2.927   2.230  17.374 -2.6218 -1.7761  1.4212
  584TMC3    C7 8718   2.899   2.042  17.583 -0.0716 -0.0764  0.2726
  584TMC3    C8 8719   3.062   2.217  17.150  0.2937  0.0959  0.0932
  584TMC3    O1 8720   2.910   1.949  17.660  0.5621  0.2472 -0.0159
  584TMC3    O2 8721   3.078   2.179  17.034 -0.5111 -1.0045  0.3010
  585MPD2     C 8722   2.217   0.897   0.424  0.3203 -0.5012 -0.5130
  585MPD2    C1 8723   2.189   0.932   0.295  0.7733 -0.6934  0.6014
  585MPD2    C2 8724   2.250   0.860   0.191  0.6250  0.4694 -0.7606
  585MPD2    C3 8725   2.344   0.760   0.225 -0.3367  0.1904 -0.1425
  585MPD2    C4 8726   2.367   0.733   0.356  0.6509 -0.4448  0.4837
  585MPD2    C5 8727   2.301   0.800   0.455  0.1194 -0.1415  0.2909
  585MPD2     H 8728   2.217   0.874   0.088  0.3531 -0.4244 -0.7953
  585MPD2    H1 8729   2.432   0.648   0.374 -0.4993 -1.6377 -0.9985
  585MPD2    H2 8730   2.173   0.946   0.510  1.4698 -1.7676  0.7829
  585MPD2    H3 8731   2.333   0.782   0.557 -1.1938  0.4829  0.8056
  585MPD2     N 8732   2.408   0.675   0.134  0.0971 -0.5348  0.6023
  585MPD2    H5 8733   2.462   0.597   0.170  0.3075 -0.0043  1.4295
  585MPD2    N1 8734   2.080   1.021   0.274 -0.2069  0.1380  0.2887
  585MPD2    H7 8735   2.062   1.073   0.360  0.7851 -2.4889  2.0939
  586TMC3    C1 8736   2.462   0.579  17.677  0.1152 -0.5896  0.3094
  586TMC3    C2 8737   2.494   0.596  17.542 -0.2593  0.7521  0.0227
  586TMC3    C3 8738   2.536   0.489  17.471  0.6191 -0.7926  0.5477
  586TMC3    C4 8739   2.444   0.459  17.731 -0.2310  0.2156 -0.3543
  586TMC3    C5 8740   2.496   0.353  17.661  0.3095  0.5998  0.6085
  586TMC3    C6 8741   2.543   0.365  17.536  0.5159  0.0653 -0.9248
  586TMC3     C 8742   2.411   0.695  17.745  0.5913  0.4660  0.2242
  586TMC3     O 8743   2.387   0.799  17.689  0.8676  0.8006 -0.2218
  586TMC3     H 8744   2.505   0.694  17.497  1.4283  0.7166  0.3407
  586TMC3    H1 8745   2.398   0.437   0.080 -1.3059  2.7212 -0.2927
  586TMC3    H2 8746   2.576   0.278  17.480  1.7683 -1.0634  1.5851
  586TMC3    C7 8747   2.470   0.221  17.703 -0.1105 -0.2566  0.1083
  586TMC3    C8 8748   2.620   0.488  17.350 -0.8071 -0.3469 -0.4702
  586TMC3    O1 8749   2.359   0.202   0.002  0.0547 -0.3613  0.5580
  586TMC3    O2 8750   2.725   0.427  17.346 -0.0953 -0.5455  0.0041
  587TMC3    C1 8751   4.698   3.629  16.074  0.6633  0.0262 -0.0133
  587TMC3    C2 8752   4.696   3.689  16.201 -0.4929  0.0997 -0.4369
  587TMC3    C3 8753   0.041   3.647  16.296  0.6451 -0.0490 -0.0045
  587TMC3    C4 8754   0.056   3.545  16.039  0.5440  0.0116  0.1898
  587TMC3    C5 8755   0.137   3.497  16.142 -0.0532  0.1915 -0.6594
  587TMC3    C6 8756   0.136   3.552  16.267  0.8670  0.0800 -0.0398
  587TMC3     C 8757   4.587   3.632  15.978  0.1030 -0.4734 -0.5255
  587TMC3     O 8758   4.612   3.651  15.857  0.2474 -0.0916 -0.1615
  587TMC3     H 8759   4.629   3.775  16.205  0.2618  0.6355  0.7071
  587TMC3    H1 8760   0.053   3.495  15.942  0.6657 -2.0925  1.2819
  587TMC3    H2 8761   0.205   3.516  16.342 -0.3984 -1.5171  0.3594
  587TMC3    C7 8762   0.224   3.373  16.133  0.1406 -0.2585 -0.7133
  587TMC3    C8 8763   0.065   3.729  16.411 -0.8438 -0.3244 -1.1122
  587TMC3    O1 8764   0.307   3.358  16.222  0.7622  0.1868  0.1509
  587TMC3    O2 8765   0.170   3.711  16.468  0.9165  0.1597  0.1044
  588TMC3    C1 8766   2.294   1.630   9.818 -0.7847  0.1607 -0.3231
  588TMC3    C2 8767   2.238   1.504   9.807 -0.3328  0.2173  0.3766
  588TMC3    C3 8768   2.261   1.410   9.913 -0.2987 -0.4238  0.3320
  588TMC3    C4 8769   2.359   1.667   9.936 -0.1645 -0.1534  0.2695
  588TMC3    C5 8770   2.372   1.578  10.037  1.1594 -0.1834 -0.2226
  588TMC3    C6 8771   2.337   1.444  10.018  0.5253 -0.9280  0.6363
  588TMC3     C 8772   2.235   1.740   9.749  0.3172  0.1764 -0.9051
  588TMC3     O 8773   2.167   1.726   9.650 -0.1495  0.4414  0.3405
  588TMC3     H 8774   2.183   1.483   9.716  0.7690  1.6238 -0.6061
  588TMC3    H1 8775   2.420   1.757   9.931  1.5748 -1.3189  0.3234
  588TMC3    H2 8776   2.380   1.373  10.088  3.4703 -0.3055 -0.5355
  588TMC3    C7 8777   2.442   1.622  10.151  0.6755 -0.1970 -0.0110
  588TMC3    C8 8778   2.220   1.274   9.891 -0.4682  0.4836  0.6498
  588TMC3    O1 8779   2.544   1.563  10.184 -0.3704  0.1252  0.4229
  588TMC3    O2 8780   2.131   1.267   9.810 -0.1680 -0.4389 -0.1216
  589TMC3    C1 8781   1.451   3.673   1.324  0.2699  0.3505 -0.0115
  589TMC3    C2 8782   1.554   3.719   1.400 -0.1059  0.4045 -0.2342
  589TMC3    C3 8783   1.682   3.667   1.378  0.2817  0.3351 -0.3015
  589TMC3    C4 8784   1.471   3.577   1.228  0.2872 -0.7809  0.1094
  589TMC3    C5 8785   1.592   3.520   1.221  0.1385  0.9897  0.7324
  589TMC3    C6 8786   1.697   3.564   1.292  0.2531  0.8506  0.1749
  589TMC3     C 8787   1.315   3.736   1.330  0.4269  0.4054 -0.6191
  589TMC3     O 8788   1.241   3.705   1.239 -0.4910  0.2708  0.2649
  589TMC3     H 8789   1.538   3.799   1.472  1.4347  1.4065 -0.9927
  589TMC3    H1 8790   1.393   3.538   1.164  0.3231 -0.4165 -0.1535
  589TMC3    H2 8791   1.783   3.498   1.302  0.0124  0.4826 -0.2067
  589TMC3    C7 8792   1.581   3.396   1.150  0.3040  0.6682  0.3988
  589TMC3    C8 8793   1.805   3.742   1.420 -0.4083  0.3870  0.5829
  589TMC3    O1 8794   1.480   3.324   1.158  0.1128  0.1712  0.3187
  589TMC3    O2 8795   1.783   3.828   1.503 -0.2405 -0.3835  0.3613
  590MPD2     C 8796   0.886   2.292  16.766 -0.5297  0.1549  0.3386
  590MPD2    C1 8797   0.867   2.364  16.653 -0.5315  0.6995 -0.5759
  590MPD2    C2 8798   0.971   2.433  16.596 -0.4919  0.1793 -0.1390
  590MPD2    C3 8799   1.095   2.441  16.661  0.4340  0.1821  1.1119
  590MPD2    C4 8800   1.120   2.351  16.765 -0.1632 -0.4328  0.7150
  590MPD2    C5 8801   1.014   2.280  16.812 -0.4135  0.1636 -0.9332
  590MPD2     H 8802   0.963   2.482  16.499  1.5396 -0.8727 -0.8428
  590MPD2    H1 8803   1.215   2.348  16.817 -0.3594 -0.9141  1.0461
  590MPD2    H2 8804   0.820   2.214  16.802 -0.6789  0.7331  1.2983
  590MPD2    H3 8805   1.032   2.211  16.894  1.0960  0.4035 -1.0665
  590MPD2     N 8806   1.188   2.526  16.607 -0.0415  0.0916 -0.2097
  590MPD2    H5 8807   1.150   2.594  16.542 -2.0759 -0.7075  0.1140
  590MPD2    N1 8808   0.742   2.350  16.592 -0.2589  0.1868 -0.3385
  590MPD2    H7 8809   0.673   2.289  16.636 -0.2868 -2.8375 -4.5092
  591TMC3    C1 8810   1.393   2.633  16.572  0.0487 -0.5200 -0.4928
  591TMC3    C2 8811   1.495   2.602  16.484  0.2806 -0.4021  0.4469
  591TMC3    C3 8812   1.511   2.684  16.377  0.1781  0.6350  0.2079
  591TMC3    C4 8813   1.331   2.749  16.564 -0.0083 -0.1514 -0.7318
  591TMC3    C5 8814   1.351   2.828  16.451  0.2350 -0.0616  0.3681
  591TMC3    C6 8815   1.448   2.797  16.358  0.0988  0.4704  0.4471
  591TMC3     C 8816   1.321   2.525  16.625 -0.1959 -0.3240 -0.5137
  591TMC3     O 8817   1.396   2.435  16.671 -0.1647 -0.2727 -0.5512
  591TMC3     H 8818   1.547   2.507  16.482 -1.9173 -1.6280  0.5730
  591TMC3    H1 8819   1.255   2.772  16.638 -0.2189 -0.2763 -0.9095
  591TMC3    H2 8820   1.443   2.839  16.258 -0.4771  4.1543  2.0372
  591TMC3    C7 8821   1.223   2.884  16.407 -0.7568 -0.5120 -0.7158
  591TMC3    C8 8822   1.576   2.619  16.259  0.0416  0.7055  0.0599
  591TMC3    O1 8823   1.122   2.843  16.469  0.2827 -0.1156 -0.3809
  591TMC3    O2 8824   1.563   2.497  16.265 -0.0094 -0.1005 -0.7177
  592MPD2     C 8825   1.310   4.324  11.321  0.2046  0.8433  0.0678
  592MPD2    C1 8826   1.291   4.372  11.452  0.1559 -0.2201 -0.1028
  592MPD2    C2 8827   1.212   4.296  11.540  0.4996 -1.0197  0.2832
  592MPD2    C3 8828   1.144   4.181  11.499  0.4317  0.3330  0.1071
  592MPD2    C4 8829   1.163   4.138  11.365  0.2099 -0.3223 -0.1202
  592MPD2    C5 8830   1.245   4.211  11.281  0.4996  0.6583  0.0073
  592MPD2     H 8831   1.200   4.324  11.644 -0.6274 -2.0264  0.4160
  592MPD2    H1 8832   1.109   4.052  11.328  0.6025 -1.5800  2.2844
  592MPD2    H2 8833   1.372   4.380  11.251  1.2153 -2.0531 -1.3317
  592MPD2    H3 8834   1.260   4.191  11.175 -1.3005  0.7360 -0.2757
  592MPD2     N 8835   1.052   4.122  11.587  0.7728 -0.0108  1.1441
  592MPD2    H5 8836   1.056   4.164  11.680  1.6177 -0.8455  1.4811
  592MPD2    N1 8837   1.344   4.500  11.481  0.6137 -0.5786  0.5022
  592MPD2    H7 8838   1.372   4.554  11.400 -1.7308 -0.8428 -0.4847
  593TMC3    C1 8839   1.387   4.699  11.599 -0.6173  0.3491 -0.2599
  593TMC3    C2 8840   1.362   0.030  11.714 -0.4672  0.0363 -0.5545
  593TMC3    C3 8841   1.434   0.147  11.732  0.4196  0.3081 -0.9592
  593TMC3    C4 8842   1.487   4.730  11.507 -0.0257  0.4685  0.7568
  593TMC3    C5 8843   1.550   0.119  11.526 -0.2716  0.1782 -0.2426
  593TMC3    C6 8844   1.518   0.202  11.633  0.3249  0.0545 -0.1848
  593TMC3     C 8845   1.351   4.553  11.602 -1.1289 -0.8555  0.0831
  593TMC3     O 8846   1.320   4.508  11.713 -0.4495 -0.0119 -0.0328
  593TMC3     H 8847   1.301   4.736  11.798 -0.4418  0.3784 -0.4117
  593TMC3    H1 8848   1.520   4.663  11.429  2.2488  0.6706  1.5644
  593TMC3    H2 8849   1.569   0.297  11.648  0.2419  0.1389 -0.4360
  593TMC3    C7 8850   1.630   0.171  11.419 -0.1699 -0.2379  0.4112
  593TMC3    C8 8851   1.384   0.232  11.838 -0.8760  0.6490 -0.0545
  593TMC3    O1 8852   1.714   0.251  11.455  0.7898  0.4944 -0.3407
  593TMC3    O2 8853   1.265   0.216  11.867 -0.0610 -0.4165 -0.1519
  594MPD2     C 8854   4.580   2.980  14.112  1.0318  0.8892  0.3400
  594MPD2    C1 8855   4.572   3.057  14.219 -0.1126  0.4016  0.4615
  594MPD2    C2 8856   4.657   3.170  14.213  0.7918 -0.0917 -0.2905
  594MPD2    C3 8857   4.734   3.204  14.101 -0.6295  0.5058  0.3321
  594MPD2    C4 8858   0.001   3.122  13.994 -0.3474  0.0395 -0.0805
  594MPD2    C5 8859   4.650   3.014  13.998  0.7910 -0.2216 -0.5237
  594MPD2     H 8860   4.658   3.232  14.302  2.7243  0.2077 -0.5207
  594MPD2    H1 8861   0.052   3.139  13.900 -0.5679  0.9847 -0.0325
  594MPD2    H2 8862   4.515   2.894  14.104  0.6385  1.4784 -2.9050
  594MPD2    H3 8863   4.647   2.943  13.916  1.7006 -0.2534 -0.5242
  594MPD2     N 8864   0.071   3.323  14.107 -0.3232 -0.1326 -0.0709
  594MPD2    H5 8865   0.093   3.372  14.193  1.3783 -1.6722  0.3544
  594MPD2    N1 8866   4.488   3.021  14.333 -0.0222 -0.3580  0.1499
  594MPD2    H7 8867   4.430   2.938  14.328 -1.1530  0.3944  0.6952
  595TMC3    C1 8868   0.420   3.581  14.094  0.5145 -0.4476 -0.5264
  595TMC3    C2 8869   0.356   3.489  14.014 -0.1291  0.3747  0.4904
  595TMC3    C3 8870   0.223   3.486  14.036  0.1456  0.1773  0.1344
  595TMC3    C4 8871   0.361   3.679  14.166  0.5672 -0.0512  0.0494
  595TMC3    C5 8872   0.228   3.672  14.169 -0.1365 -0.2178 -0.5429
  595TMC3    C6 8873   0.157   3.579  14.114  0.5039  0.0245 -0.0616
  595TMC3     C 8874   0.566   3.575  14.103  0.0196  0.7320  0.5760
  595TMC3     O 8875   0.620   3.652  14.186 -0.1859  0.1830  0.6839
  595TMC3     H 8876   0.402   3.414  13.952  0.3905  0.5912  0.6138
  595TMC3    H1 8877   0.417   3.756  14.218 -1.3799  0.5354  1.2657
  595TMC3    H2 8878   0.052   3.580  14.141  0.9435  0.0809  1.6666
  595TMC3    C7 8879   0.171   3.739  14.284  0.5481  0.3307  0.3548
  595TMC3    C8 8880   0.161   3.360  14.006 -0.4324  0.4174 -0.1824
  595TMC3    O1 8881   0.059   3.788  14.300 -0.2550 -0.4799  0.0943
  595TMC3    O2 8882   0.212   3.297  13.912  0.3333 -0.4239 -0.1567
  596MPD2     C 8883   4.225   1.491  16.892 -0.2416  0.1548 -0.5698
  596MPD2    C1 8884   4.177   1.591  16.813 -0.0558 -0.3637  0.0110
  596MPD2    C2 8885   4.176   1.572  16.675  0.1515 -0.8447 -0.1906
  596MPD2    C3 8886   4.213   1.456  16.611  0.3654  0.1895  0.4664
  596MPD2    C4 8887   4.261   1.354  16.694  0.3604  0.6723 -0.5314
  596MPD2    C5 8888   4.270   1.378  16.828  0.3040 -0.1635 -0.4586
  596MPD2     H 8889   4.141   1.661  16.624  2.3435  0.3966  0.4863
  596MPD2    H1 8890   4.292   1.253  16.669 -0.5092  0.2162  0.2128
  596MPD2    H2 8891   4.228   1.504  17.000  0.5956  3.8599 -1.0439
  596MPD2    H3 8892   4.306   1.305  16.899  1.0017  0.8064  0.1859
  596MPD2     N 8893   4.206   1.443  16.471 -0.0757  0.1749  0.4069
  596MPD2    H5 8894   4.236   1.351  16.441 -1.4973 -0.2781  0.3403
  596MPD2    N1 8895   4.113   1.707  16.869 -0.3858  0.8989 -0.1195
  596MPD2    H7 8896   4.104   1.781  16.800 -0.4813 -0.7765 -1.8899
  597TMC3    C1 8897   4.077   1.881  17.029 -0.2167 -1.3956 -0.0935
  597TMC3    C2 8898   4.091   1.971  16.931  0.5706  0.7434 -0.4074
  597TMC3    C3 8899   4.040   2.097  16.957 -0.0878  0.7924 -0.1506
  597TMC3    C4 8900   4.011   1.905  17.143 -1.1266 -0.2942  0.1388
  597TMC3    C5 8901   3.959   2.030  17.167 -0.5633 -0.2088  0.0887
  597TMC3    C6 8902   3.973   2.129  17.072 -0.5761  0.1987  0.3561
  597TMC3     C 8903   4.113   1.750  17.003 -0.1454  0.2062 -0.0585
  597TMC3     O 8904   4.133   1.679  17.101  0.2502  0.3948 -0.3791
  597TMC3     H 8905   4.152   1.953  16.844  0.5485 -0.1487 -0.2370
  597TMC3    H1 8906   3.985   1.824  17.210 -1.7493  0.4796  0.8302
  597TMC3    H2 8907   3.928   2.228  17.079  2.6895  1.6845  0.3331
  597TMC3    C7 8908   3.851   2.039  17.263 -0.4327  0.1073 -0.4071
  597TMC3    C8 8909   4.058   2.210  16.859  0.5857 -0.6622  0.0433
  597TMC3    O1 8910   3.845   1.957  17.355  0.3509  0.0773 -0.6979
  597TMC3    O2 8911   4.035   2.327  16.897 -0.0035  0.2732  0.1981
  598TMC3    C1 8912   2.043   2.795  15.370  0.5398  0.5321  0.1866
  598TMC3    C2 8913   1.967   2.678  15.371  0.0275  0.4813  0.4688
  598TMC3    C3 8914   1.872   2.664  15.274  0.1627  0.1412 -0.4126
  598TMC3    C4 8915   2.023   2.891  15.275 -0.1706  0.2985 -0.8257
  598TMC3    C5 8916   1.913   2.884  15.187  0.0751 -0.4806  0.9334
  598TMC3    C6 8917   1.835   2.769  15.191 -0.4312 -0.0535  0.4475
  598TMC3     C 8918   2.178   2.756  15.413 -0.0637  0.3438 -0.1522
  598TMC3     O 8919   2.193   2.707  15.524 -0.5831 -0.4172 -0.2632
  598TMC3     H 8920   1.996   2.601  15.441 -2.5896  1.1166  2.2569
  598TMC3    H1 8921   2.085   2.980  15.271  0.3586 -0.0252  0.2973
  598TMC3    H2 8922   1.753   2.765  15.119 -0.7435  0.4931  0.7720
  598TMC3    C7 8923   1.916   2.959  15.064 -0.4535 -0.5539  0.7105
  598TMC3    C8 8924   1.790   2.545  15.276 -0.1784  0.0427  0.3342
  598TMC3    O1 8925   1.867   2.903  14.969  0.0663 -0.4585  0.1279
  598TMC3    O2 8926   1.777   2.491  15.385  0.3729 -0.0704  0.1156
  599MPD2     C 8927   2.329   0.554  15.783  0.2571  0.3754 -0.5677
  599MPD2    C1 8928   2.262   0.443  15.804  0.7572 -0.1499  0.9053
  599MPD2    C2 8929   2.159   0.441  15.892 -0.3943  0.3963 -0.6535
  599MPD2    C3 8930   2.116   0.561  15.947 -0.6788  0.6708  0.8694
  599MPD2    C4 8931   2.180   0.675  15.923  0.1282  0.1531  0.3517
  599MPD2    C5 8932   2.294   0.674  15.833  0.1868  0.1988 -0.0358
  599MPD2     H 8933   2.110   0.350  15.924  1.8533  0.4966  2.9803
  599MPD2    H1 8934   2.149   0.773  15.960 -0.0730  0.3758 -0.3954
  599MPD2    H2 8935   2.407   0.547  15.708  0.4600 -1.9210 -0.1187
  599MPD2    H3 8936   2.339   0.771  15.815 -0.6153  0.7082  0.6619
  599MPD2     N 8937   2.012   0.571  16.040 -0.3633  0.3221 -1.0832
  599MPD2    H5 8938   2.000   0.662  16.083  1.4631  0.8234 -1.6437
  599MPD2    N1 8939   2.320   0.320  15.769  0.6953  0.3060 -0.1436
  599MPD2    H7 8940   2.407   0.336  15.719 -0.9922  1.6003 -2.6223
  600TMC3    C1 8941   1.854   0.496  16.206 -0.7652 -0.1886  0.2040
  600TMC3    C2 8942   1.817   0.381  16.268 -0.2821 -0.6409  0.5043
  600TMC3    C3 8943   1.738   0.397  16.374 -0.1088  0.3041  1.0006
  600TMC3    C4 8944   1.825   0.625  16.243  0.1447 -0.1464 -0.2450
  600TMC3    C5 8945   1.759   0.633  16.365  0.3752  1.1308  0.5357
  600TMC3    C6 8946   1.715   0.522  16.432 -0.2716  0.2522  0.1708
  600TMC3     C 8947   1.928   0.470  16.080  0.0821  0.1103 -0.0777
  600TMC3     O 8948   1.925   0.354  16.044 -0.2230 -0.4108  0.3583
  600TMC3     H 8949   1.854   0.281  16.253 -1.7131 -0.6389 -2.9322
  600TMC3    H1 8950   1.859   0.708  16.182 -2.3963 -0.5198 -2.1687
  600TMC3    H2 8951   1.659   0.530  16.525 -1.3015 -2.2044 -0.2473
  600TMC3    C7 8952   1.728   0.770  16.419 -0.6557  0.0652  0.4953
  600TMC3    C8 8953   1.682   0.278  16.436  0.1683  0.1113  0.7439
  600TMC3    O1 8954   1.701   0.780  16.536  0.2207 -0.3766 -0.4058
  600TMC3    O2 8955   1.760   0.186  16.459 -0.3512 -0.6611 -0.3248
  601MPD2     C 8956   4.548   3.987   0.175  0.3042 -0.2342 -0.7439
  601MPD2    C1 8957   4.452   3.955   0.082 -0.1338 -0.0704 -0.3958
  601MPD2    C2 8958   4.360   3.855   0.114 -0.4789 -0.1716  0.6711
  601MPD2    C3 8959   4.356   3.803   0.245 -0.1896 -0.1469  0.0631
  601MPD2    C4 8960   4.441   3.851   0.339  0.0984  0.4370 -0.3746
  601MPD2    C5 8961   4.541   3.937   0.299 -0.1903 -0.7252  0.2385
  601MPD2     H 8962   4.290   3.830   0.035 -0.0622  0.1389  0.1998
  601MPD2    H1 8963   4.444   3.804   0.437  2.7183 -0.8878 -1.0758
  601MPD2    H2 8964   4.624   4.060   0.150  0.3389 -0.8836 -2.5028
  601MPD2    H3 8965   4.615   3.977   0.368 -1.0286 -0.8632  1.2256
  601MPD2     N 8966   4.274   3.702   0.286 -0.5398 -0.2736  0.0544
  601MPD2    H5 8967   4.287   3.672   0.382  0.6167  0.5296  0.1582
  601MPD2    N1 8968   4.436   4.031  17.710  0.4763 -0.3028 -0.6468
  601MPD2    H7 8969   4.346   4.014  17.667  0.2012 -2.4896  0.7373
  602TMC3    C1 8970   4.477   4.209  17.564  0.0239  0.4180  0.1925
  602TMC3    C2 8971   4.346   4.255  17.572  0.0382  0.4160  0.0664
  602TMC3    C3 8972   4.273   4.284  17.463  0.4158  0.3599  0.8566
  602TMC3    C4 8973   4.536   4.181  17.443  0.4146 -0.4828  0.3340
  602TMC3    C5 8974   4.459   4.221  17.331 -0.6579 -0.5634  0.3152
  602TMC3    C6 8975   4.326   4.263  17.337 -0.5720  0.2075  1.4376
  602TMC3     C 8976   4.528   4.115  17.658  0.3806 -0.0610  0.8346
  602TMC3     O 8977   4.649   4.129  17.678 -0.5140  0.5912 -0.3561
  602TMC3     H 8978   4.301   4.262  17.671 -1.3101  0.2973 -0.5348
  602TMC3    H1 8979   4.638   4.147  17.428  1.2236  2.8928 -1.9422
  602TMC3    H2 8980   4.285   4.309  17.248  0.9758  0.4190  0.8420
  602TMC3    C7 8981   4.502   4.158  17.211  0.2373  0.5446  0.1980
  602TMC3    C8 8982   4.133   4.324  17.474  0.2589 -0.5988 -0.4308
  602TMC3    O1 8983   4.623   4.145  17.189 -0.1819 -0.7002  0.6818
  602TMC3    O2 8984   4.108   4.421  17.538 -0.7880 -0.3479 -0.3143
  603TMC3    C1 8985   2.194   3.584  10.804 -0.1413 -0.3530 -0.1925
  603TMC3    C2 8986   2.260   3.562  10.920  0.1572  0.1778 -0.3646
  603TMC3    C3 8987   2.306   3.675  10.989 -0.1577 -0.1603  0.6772
  603TMC3    C4 8988   2.165   3.713  10.754  0.2507 -0.5904 -0.3624
  603TMC3    C5 8989   2.208   3.824  10.829 -0.2085  0.6093 -0.1204
  603TMC3    C6 8990   2.281   3.802  10.948 -0.3170 -0.5102  0.3001
  603TMC3     C 8991   2.144   3.482  10.715 -0.3413 -0.6522  0.5155
  603TMC3     O 8992   2.062   3.516  10.633 -0.4403  0.4101 -0.4292
  603TMC3     H 8993   2.286   3.463  10.955  1.5483  1.1795  1.4701
  603TMC3    H1 8994   2.117   3.721  10.657 -0.2951 -0.2317 -0.0611
  603TMC3    H2 8995   2.334   3.882  10.998  0.6898 -0.3070 -1.0731
  603TMC3    C7 8996   2.209   3.963  10.772 -0.4851 -0.8138  0.1437
  603TMC3    C8 8997   2.395   3.645  11.104 -0.0851 -0.1010 -0.4523
  603TMC3    O1 8998   2.273   4.048  10.831 -0.3432 -0.0537 -0.4654
  603TMC3    O2 8999   2.407   3.526  11.129  0.4854  0.1342 -0.3545
  604MPD2     C 9000   3.162   2.494  16.236 -0.2404  0.1877  0.6396
  604MPD2    C1 9001   3.052   2.453  16.159  0.6188 -0.2255 -0.1493
  604MPD2    C2 9002   3.063   2.457  16.018  0.2218 -0.5361 -0.3131
  604MPD2    C3 9003   3.179   2.499  15.960  0.4747 -0.1159  0.7029
  604MPD2    C4 9004   3.280   2.547  16.035 -0.5037 -0.0076 -0.2983
  604MPD2    C5 9005   3.271   2.547  16.175  0.3789 -0.3540 -1.0670
  604MPD2     H 9006   2.987   2.405  15.961 -0.4648  0.3847 -0.2320
  604MPD2    H1 9007   3.367   2.601  16.000 -0.4712 -0.9762 -1.7464
  604MPD2    H2 9008   3.162   2.510  16.344 -0.2557 -1.8894  0.9349
  604MPD2    H3 9009   3.343   2.606  16.230  1.0203 -2.4965  0.3603
  604MPD2     N 9010   3.187   2.497  15.821 -0.2783 -0.1034 -0.4126
  604MPD2    H5 9011   3.099   2.479  15.774  0.1672  0.4778 -1.4658
  604MPD2    N1 9012   2.934   2.425  16.230  0.0388  0.0432 -0.1953
  604MPD2    H7 9013   2.949   2.438  16.330 -0.8381 -1.5583  0.1373
  605TMC3    C1 9014   2.718   2.453  16.287 -0.1445  0.5058  0.3338
  605TMC3    C2 9015   2.774   2.465  16.408  0.5342  0.0941 -0.5622
  605TMC3    C3 9016   2.761   2.581  16.479 -0.2625 -0.3786 -0.3922
  605TMC3    C4 9017   2.630   2.554  16.246  0.1336  0.4547  0.1380
  605TMC3    C5 9018   2.627   2.672  16.311 -0.4439 -0.0267 -0.0974
  605TMC3    C6 9019   2.697   2.689  16.424 -0.1487 -0.2082 -0.1635
  605TMC3     C 9020   2.806   2.417  16.182 -0.0559  0.5453 -0.5131
  605TMC3     O 9021   2.770   2.418  16.064  0.4473  0.5238 -0.0480
  605TMC3     H 9022   2.833   2.382  16.446 -0.5371  0.1772  1.2880
  605TMC3    H1 9023   2.585   2.528  16.150  0.3529 -0.1962  0.2071
  605TMC3    H2 9024   2.681   2.785  16.472 -0.6834  0.0609 -0.8792
  605TMC3    C7 9025   2.551   2.782  16.256 -0.2893 -0.1260  0.2792
  605TMC3    C8 9026   2.879   2.613  16.561  0.6066 -0.5989  0.5029
  605TMC3    O1 9027   2.513   2.871  16.330 -0.1670  0.1484  0.3180
  605TMC3    O2 9028   2.977   2.537  16.553  0.3632 -0.0662 -0.0655
  606TMC3    C1 9029   0.313   0.878  17.107 -1.4415  0.4503 -0.3086
  606TMC3    C2 9030   0.373   0.834  17.219  0.8763  0.4257 -0.4771
  606TMC3    C3 9031   0.301   0.746  17.295  0.0204  0.1443  0.3126
  606TMC3    C4 9032   0.190   0.844  17.069 -0.3976  0.0519  0.6120
  606TMC3    C5 9033   0.113   0.766  17.152 -0.2296 -0.3821 -1.0332
  606TMC3    C6 9034   0.171   0.704  17.257  0.5591  0.3183  0.3670
  606TMC3     C 9035   0.375   0.996  17.042  0.3618  0.0338 -0.1138
  606TMC3     O 9036   0.378   1.014  16.922 -0.5229  0.2691 -0.2509
  606TMC3     H 9037   0.473   0.863  17.248 -0.0013  1.6834  1.3118
  606TMC3    H1 9038   0.139   0.897  16.989  1.6994 -2.3220 -2.3171
  606TMC3    H2 9039   0.114   0.624  17.303 -0.7729  0.6443 -0.7071
  606TMC3    C7 9040   0.008   0.708  17.079  0.1912 -0.0144 -0.1423
  606TMC3    C8 9041   0.324   0.724  17.434  0.2921  0.0671 -0.5075
  606TMC3    O1 9042   0.020   0.677  16.957  0.5501 -0.0905 -0.2061
  606TMC3    O2 9043   0.395   0.799  17.502 -0.4884  0.3246 -0.3516
  607MPD2     C 9044   1.595   3.529  11.224 -0.2672  0.0351  0.1491
  607MPD2    C1 9045   1.575   3.556  11.355 -0.7840  0.3377  0.4787
  607MPD2    C2 9046   1.578   3.451  11.444 -0.2142  0.5322 -0.2921
  607MPD2    C3 9047   1.606   3.320  11.408  0.0519 -0.1802 -0.2347
  607MPD2    C4 9048   1.648   3.302  11.282  0.2969  0.0967  0.2365
  607MPD2    C5 9049   1.638   3.400  11.192 -0.3079  0.3531  0.1094
  607MPD2     H 9050   1.562   3.467  11.550  0.8207  0.3419 -0.1032
  607MPD2    H1 9051   1.688   3.206  11.251  3.7363  0.9471  2.0391
  607MPD2    H2 9052   1.582   3.600  11.143  0.5567 -0.3692 -0.3386
  607MPD2    H3 9053   1.663   3.380  11.089  0.3378  2.0953 -0.0682
  607MPD2     N 9054   1.602   3.221  11.504 -0.3244  0.4430 -0.4143
  607MPD2    H5 9055   1.567   3.250  11.595 -0.9304  2.8799 -1.4297
  607MPD2    N1 9056   1.548   3.685  11.414  0.0130 -0.5127 -0.1893
  607MPD2    H7 9057   1.537   3.707  11.512 -1.7372 -0.6090 -0.3757
  608TMC3    C1 9058   1.488   3.906  11.424  0.1552 -0.1160  0.6146
  608TMC3    C2 9059   1.395   3.875  11.521 -0.5457 -0.6877 -0.4695
  608TMC3    C3 9060   1.380   3.963  11.627  0.2735  0.4952  0.3697
  608TMC3    C4 9061   1.568   4.013  11.438 -0.2150  0.3146 -0.0975
  608TMC3    C5 9062   1.545   4.104  11.538  0.1220  0.1342 -0.4071
  608TMC3    C6 9063   1.450   4.080  11.631 -0.8541 -0.1556  0.7895
  608TMC3     C 9064   1.535   3.799  11.341  1.3360  0.4141  0.1748
  608TMC3     O 9065   1.569   3.818  11.228 -0.1777  0.2349  0.3402
  608TMC3     H 9066   1.318   3.801  11.503  0.2392 -1.3034 -1.2757
  608TMC3    H1 9067   1.633   4.034  11.354  0.4456  0.2345  0.4014
  608TMC3    H2 9068   1.421   4.156  11.703  1.2130 -0.4412  1.9279
  608TMC3    C7 9069   1.636   4.220  11.537  0.8456 -0.0771  0.3505
  608TMC3    C8 9070   1.326   3.912  11.753  0.4472  0.4746 -0.5084
  608TMC3    O1 9071   1.729   4.207  11.463  0.3861 -0.5714  0.8794
  608TMC3    O2 9072   1.306   3.988  11.850  0.0205 -0.3404 -0.7212
  609TMC3    C1 9073   0.657   3.230   9.527  0.1720 -0.0987  0.0059
  609TMC3    C2 9074   0.682   3.300   9.414 -0.1022  0.1525 -0.1606
  609TMC3    C3 9075   0.817   3.301   9.373  0.2669  0.7878  0.3669
  609TMC3    C4 9076   0.738   3.136   9.580 -0.2520 -0.0733  0.0251
  609TMC3    C5 9077   0.842   3.106   9.505  0.7962  0.9296 -0.4940
  609TMC3    C6 9078   0.894   3.192   9.408  0.1614  0.3780 -0.1288
  609TMC3     C 9079   0.542   3.241   9.608 -0.1733 -0.5017  0.3810
  609TMC3     O 9080   0.488   3.149   9.668  0.2584  0.1203 -0.7263
  609TMC3     H 9081   0.614   3.375   9.375  0.3537  1.5317  1.6961
  609TMC3    H1 9082   0.707   3.065   9.655 -2.5441  1.3894  0.4467
  609TMC3    H2 9083   0.997   3.187   9.374  0.1754  1.4012 -0.2559
  609TMC3    C7 9084   0.934   3.007   9.555 -0.2368 -0.8121  0.9323
  609TMC3    C8 9085   0.875   3.404   9.284  0.3807  0.1011 -0.2488
  609TMC3    O1 9086   0.912   2.976   9.670 -0.7669 -0.4196 -0.5701
  609TMC3    O2 9087   0.997   3.388   9.255 -0.0226  0.0680  0.3735
  610TMC3    C1 9088   1.638   4.335  12.881  0.6350 -0.9756 -0.5209
  610TMC3    C2 9089   1.624   4.295  12.750 -0.0010 -0.6935 -0.3883
  610TMC3    C3 9090   1.676   4.168  12.722  0.1799 -0.2771 -0.5995
  610TMC3    C4 9091   1.714   4.264  12.975 -0.0060 -0.8090 -0.3394
  610TMC3    C5 9092   1.762   4.143  12.933 -0.1104 -0.5571 -0.4560
  610TMC3    C6 9093   1.742   4.093  12.815 -0.5167  0.1869 -0.4251
  610TMC3     C 9094   1.614   4.470  12.916 -0.1747 -0.1247 -0.9051
  610TMC3     O 9095   1.588   4.491  13.033 -0.2736  0.8260  0.1137
  610TMC3     H 9096   1.578   4.361  12.677 -1.4581 -1.6918 -0.3717
  610TMC3    H1 9097   1.758   4.311  13.062 -3.3582  0.9177  0.4594
  610TMC3    H2 9098   1.790   3.998  12.793 -0.8484 -0.1343  0.2550
  610TMC3    C7 9099   1.830   4.061  13.032  0.1348 -0.5797 -0.7445
  610TMC3    C8 9100   1.618   4.109  12.605 -0.3069 -0.2604 -0.7359
  610TMC3    O1 9101   1.924   3.986  12.998  0.4213  0.4578 -0.2122
  610TMC3    O2 9102   1.575   4.191  12.526 -0.0631  0.3816  0.1037
  611MPD2     C 9103   0.888   4.163  10.450  0.9791  0.3995 -0.1739
  611MPD2    C1 9104   1.008   4.102  10.488 -0.4728 -0.4367  0.3027
  611MPD2    C2 9105   1.129   4.145  10.433 -0.5128  0.4564  0.4732
  611MPD2    C3 9106   1.133   4.244  10.338  0.3505  0.6012  0.4495
  611MPD2    C4 9107   1.016   4.297  10.298  0.0686  0.3849 -0.7735
  611MPD2    C5 9108   0.897   4.262  10.356 -0.2562 -0.1226 -0.0203
  611MPD2     H 9109   1.218   4.084  10.441 -0.0491  1.1050  0.2603
  611MPD2    H1 9110   1.010   4.368  10.216 -1.3720  0.9919 -0.1425
  611MPD2    H2 9111   0.800   4.127  10.502  0.2401  0.6102 -1.2760
  611MPD2    H3 9112   0.805   4.311  10.327 -0.4445  1.3903  3.1331
  611MPD2     N 9113   1.250   4.299  10.277  0.4034 -0.9110 -0.4213
  611MPD2    H5 9114   1.236   4.362  10.198  1.4622 -0.2652 -0.0909
  611MPD2    N1 9115   1.000   3.997  10.587  0.0354  0.3901 -0.0398
  611MPD2    H7 9116   0.907   3.966  10.615 -0.5875 -0.6679 -3.3454
  612TMC3    C1 9117   1.488   4.314  10.227  0.0021  0.4096 -0.2000
  612TMC3    C2 9118   1.615   4.293  10.267  0.3855  0.6227  1.1249
  612TMC3    C3 9119   1.717   4.317  10.174 -0.7316 -0.2734 -0.6656
  612TMC3    C4 9120   1.468   4.367  10.100  0.3411 -0.1144 -0.1768
  612TMC3    C5 9121   1.577   4.391  10.013  0.5092 -0.4129  0.1602
  612TMC3    C6 9122   1.707   4.378  10.057 -0.1746 -1.2017 -0.4143
  612TMC3     C 9123   1.377   4.259  10.308  0.4980 -0.6195 -0.6817
  612TMC3     O 9124   1.416   4.188  10.402 -0.2717  0.0966 -0.4670
  612TMC3     H 9125   1.634   4.267  10.371  0.9519  2.5081  1.4998
  612TMC3    H1 9126   1.365   4.373  10.065  0.6117  3.9488 -0.3219
  612TMC3    H2 9127   1.795   4.408  10.001 -1.0535  0.4397 -0.9414
  612TMC3    C7 9128   1.537   4.445   9.885  0.0680 -0.2143  0.4882
  612TMC3    C8 9129   1.850   4.314  10.224 -0.0127 -0.1578  0.2330
  612TMC3    O1 9130   1.428   4.424   9.838  0.0394  0.2137  0.0994
  612TMC3    O2 9131   1.921   4.405  10.195 -0.3876  0.0305  0.0310
  613MPD2     C 9132   0.517   1.797  16.822 -0.5400  0.2638  0.2086
  613MPD2    C1 9133   0.452   1.766  16.707  0.1261  0.7511 -0.7664
  613MPD2    C2 9134   0.343   1.683  16.714 -0.1132  0.2405  0.3545
  613MPD2    C3 9135   0.299   1.624  16.837 -0.7230  0.0227  0.2607
  613MPD2    C4 9136   0.373   1.648  16.953 -0.2548  0.1764 -0.7890
  613MPD2    C5 9137   0.470   1.742  16.944 -0.3943 -0.7939  0.3651
  613MPD2     H 9138   0.281   1.661  16.627 -1.7205 -0.5049  1.6935
  613MPD2    H1 9139   0.344   1.606  17.048 -1.4627  1.8366 -0.4170
  613MPD2    H2 9140   0.604   1.861  16.817  1.2239 -1.9347  3.0385
  613MPD2    H3 9141   0.510   1.782  17.036 -0.7635  0.4241 -0.0090
  613MPD2     N 9142   0.208   1.522  16.844  0.1969 -0.2108 -0.0561
  613MPD2    H5 9143   0.208   1.466  16.929  1.1517 -1.2081 -0.7150
  613MPD2    N1 9144   0.496   1.826  16.586 -0.8108 -0.2156 -0.3377
  613MPD2    H7 9145   0.579   1.885  16.583  0.3712 -1.8432  0.5802
  614TMC3    C1 9146   0.519   1.827  16.362  0.7968 -0.8319 -0.2390
  614TMC3    C2 9147   0.577   1.706  16.357  0.2749 -0.2183  0.3898
  614TMC3    C3 9148   0.585   1.636  16.237 -0.0474 -0.1292  0.2022
  614TMC3    C4 9149   0.472   1.885  16.247 -0.2539  0.0616  0.5060
  614TMC3    C5 9150   0.472   1.816  16.136  0.5372 -0.2489 -0.8259
  614TMC3    C6 9151   0.525   1.688  16.126 -0.3539 -0.5254  0.0264
  614TMC3     C 9152   0.426   1.820  16.474  0.9821 -0.6864 -0.2671
  614TMC3     O 9153   0.309   1.793  16.440 -0.3023 -0.3471  0.1049
  614TMC3     H 9154   0.600   1.656  16.451 -1.9344 -4.5047 -1.3659
  614TMC3    H1 9155   0.423   1.982  16.246 -0.1564  0.0702 -2.1839
  614TMC3    H2 9156   0.528   1.629  16.035  0.7548 -2.6622  1.4591
  614TMC3    C7 9157   0.507   1.899  16.025 -0.2247  0.3162  0.2751
  614TMC3    C8 9158   0.556   1.494  16.263 -1.0625  0.2792 -0.0933
  614TMC3    O1 9159   0.551   2.010  16.055  0.2573 -0.2188  0.2599
  614TMC3    O2 9160   0.454   1.444  16.217 -0.5834  0.1245  0.3449
  615MPD2     C 9161   0.032   2.629  15.666 -0.0724 -0.8063 -0.5219
  615MPD2    C1 9162   4.685   2.711  15.742 -0.0200 -0.5186  0.0334
  615MPD2    C2 9163   4.593   2.786  15.689 -0.1328  0.4869 -1.0537
  615MPD2    C3 9164   4.590   2.815  15.556 -0.1515  0.6136 -0.4130
  615MPD2    C4 9165   4.689   2.760  15.479  0.3315  0.2488  0.6500
  615MPD2    C5 9166   0.034   2.662  15.533  0.4284  0.6437  0.4977
  615MPD2     H 9167   4.525   2.843  15.752 -1.3560 -2.0913 -0.0574
  615MPD2    H1 9168   4.698   2.774  15.372  0.9820 -1.3217  0.5039
  615MPD2    H2 9169   0.112   2.564  15.700 -1.1996 -0.6120  2.4536
  615MPD2    H3 9170   0.122   2.629  15.479 -0.4353 -0.7370 -0.0752
  615MPD2     N 9171   4.490   2.895  15.499  0.2171 -0.2169 -0.0194
  615MPD2    H5 9172   4.503   2.923  15.403 -3.6069 -0.3655 -0.5701
  615MPD2    N1 9173   4.702   2.728  15.884  0.6144  0.2910 -0.7649
  615MPD2    H7 9174   4.637   2.794  15.925  0.5564  0.7032 -1.5140
  616TMC3    C1 9175   0.087   2.743  16.091 -0.2265  0.1452 -0.3412
  616TMC3    C2 9176   0.180   2.695  16.179 -0.0005  0.1527 -0.7736
  616TMC3    C3 9177   0.222   2.774  16.278 -0.8921  0.4808  0.3518
  616TMC3    C4 9178   0.027   2.864  16.102 -0.0006 -0.0910  0.1621
  616TMC3    C5 9179   0.061   2.935  16.212 -0.5987  0.8749 -0.2587
  616TMC3    C6 9180   0.160   2.893  16.297 -0.1144 -0.0480  0.0985
  616TMC3     C 9181   0.058   2.666  15.965  0.0480 -0.9398  0.3791
  616TMC3     O 9182   0.143   2.586  15.936  0.1421  0.3850 -0.2847
  616TMC3     H 9183   0.212   2.593  16.165  1.4938  0.5289 -0.0416
  616TMC3    H1 9184   4.694   2.906  16.030  0.1346 -1.1223 -0.5678
  616TMC3    H2 9185   0.185   2.952  16.384 -4.0483  1.9377 -0.1124
  616TMC3    C7 9186   4.730   3.064  16.226 -0.4595  0.3295  0.0445
  616TMC3    C8 9187   0.349   2.745  16.342  0.3448  0.5312  0.3492
  616TMC3    O1 9188   4.653   3.101  16.144 -0.3042 -0.0822 -0.6700
  616TMC3    O2 9189   0.388   2.633  16.343 -0.0746  0.2135  0.4888
  617MPD2     C 9190   2.770   1.220  14.004 -0.1001 -0.0792  0.1174
  617MPD2    C1 9191   2.767   1.125  14.113  0.5047  0.6065  0.8035
  617MPD2    C2 9192   2.658   1.109  14.197 -0.7547 -0.0438  0.8034
  617MPD2    C3 9193   2.548   1.189  14.187  0.0860  1.1608  0.1221
  617MPD2    C4 9194   2.543   1.279  14.084 -0.0664  0.0452 -0.5959
  617MPD2    C5 9195   2.657   1.303  14.004  0.0219  0.3629  0.8536
  617MPD2     H 9196   2.667   1.035  14.276  1.5277 -0.5552  0.0479
  617MPD2    H1 9197   2.456   1.340  14.063  0.3216 -0.0400 -2.4289
  617MPD2    H2 9198   2.854   1.237  13.938 -0.3522 -0.2085 -0.2364
  617MPD2    H3 9199   2.653   1.380  13.928  0.3869 -0.5391 -0.0961
  617MPD2     N 9200   2.429   1.167  14.265  0.6305 -0.2129 -0.5274
  617MPD2    H5 9201   2.339   1.212  14.246  0.0188  0.3400  3.6339
  617MPD2    N1 9202   2.869   1.030  14.131 -0.7641 -0.5716 -0.2409
  617MPD2    H7 9203   2.838   0.958  14.196  0.6642  0.6664  1.8076
  618TMC3    C1 9204   3.081   0.932  14.140 -0.9213  0.6671 -0.2410
  618TMC3    C2 9205   3.026   0.806  14.154 -0.6143 -0.5977  0.3231
  618TMC3    C3 9206   3.107   0.694  14.170 -0.2523 -0.7813  0.3246
  618TMC3    C4 9207   3.218   0.949  14.135 -0.1285  0.2239  0.3084
  618TMC3    C5 9208   3.290   0.831  14.122 -0.0155 -0.1500 -0.3553
  618TMC3    C6 9209   3.242   0.709  14.151 -0.0543  0.5348  0.5146
  618TMC3     C 9210   3.002   1.042  14.093  0.9446 -0.6903  0.3417
  618TMC3     O 9211   3.053   1.141  14.040 -0.3360  0.4093 -0.0877
  618TMC3     H 9212   2.919   0.791  14.151 -0.6653  0.0755 -1.7472
  618TMC3    H1 9213   3.272   1.042  14.144 -0.8765  0.8079 -1.1411
  618TMC3    H2 9214   3.311   0.630  14.178  1.7453  1.5734 -1.0328
  618TMC3    C7 9215   3.431   0.845  14.140  0.2461  0.4871  0.3148
  618TMC3    C8 9216   3.055   0.577  14.112 -0.0527 -0.0471  0.3971
  618TMC3    O1 9217   3.468   0.905  14.234 -0.1326 -0.3036 -0.4694
  618TMC3    O2 9218   2.934   0.568  14.105 -0.0037 -0.0215  0.3064
  619MPD2     C 9219   4.460   2.375  13.651  0.2358  1.0936 -0.9755
  619MPD2    C1 9220   4.334   2.437  13.644  0.0173 -0.2234  0.3770
  619MPD2    C2 9221   4.220   2.365  13.606  0.5886 -0.2936 -0.2852
  619MPD2    C3 9222   4.232   2.227  13.600 -0.3437 -0.4480 -0.2578
  619MPD2    C4 9223   4.350   2.166  13.629 -0.3271  0.2401 -0.1134
  619MPD2    C5 9224   4.462   2.241  13.645  0.3268 -0.5656 -0.2052
  619MPD2     H 9225   4.124   2.416  13.601  1.0697  0.5393 -1.0421
  619MPD2    H1 9226   4.367   2.060  13.638 -0.4928 -0.0916 -3.6862
  619MPD2    H2 9227   4.546   2.440  13.653 -1.0938  2.8159 -0.2222
  619MPD2    H3 9228   4.554   2.183  13.646 -0.4552 -1.8048  1.0828
  619MPD2     N 9229   4.114   2.158  13.570 -0.3278 -0.0327 -0.8826
  619MPD2    H5 9230   4.030   2.212  13.549 -0.5187 -0.6281 -1.6609
  619MPD2    N1 9231   4.319   2.575  13.664 -0.0247 -0.2136 -0.2868
  619MPD2    H7 9232   4.238   2.621  13.622 -0.2763 -0.3624  0.0415
  620TMC3    C1 9233   4.349   2.794  13.745  0.0095 -0.4086  0.2460
  620TMC3    C2 9234   4.345   2.857  13.625  0.7659 -0.0072 -0.2791
  620TMC3    C3 9235   4.349   2.995  13.623 -0.2213 -0.6217  0.0568
  620TMC3    C4 9236   4.348   2.857  13.858  0.3074 -0.1619  0.1346
  620TMC3    C5 9237   4.349   2.992  13.853  0.5134  0.2170  0.2649
  620TMC3    C6 9238   4.349   3.062  13.739  0.7128  0.2915  0.4941
  620TMC3     C 9239   4.406   2.655  13.737 -0.1630  0.6259  0.1336
  620TMC3     O 9240   4.487   2.618  13.821 -0.6888 -0.2582  0.5154
  620TMC3     H 9241   4.354   2.798  13.535  0.1087 -0.8927  0.2394
  620TMC3    H1 9242   4.341   2.803  13.952 -1.1835 -0.8950 -0.3947
  620TMC3    H2 9243   4.345   3.171  13.742 -0.3760  0.2228  1.8452
  620TMC3    C7 9244   4.272   3.049  13.961 -0.6274  0.0698  0.7770
  620TMC3    C8 9245   4.251   3.052  13.532  0.2214 -0.0294 -0.1597
  620TMC3    O1 9246   4.270   2.997  14.072  0.0131  0.9312 -0.1280
  620TMC3    O2 9247   4.170   3.124  13.578  0.3055 -0.1208  0.1948
  621MPD2     C 9248   0.091   2.272  10.085  0.4744  0.0005  0.0721
  621MPD2    C1 9249   0.133   2.296  10.211 -0.0642  0.1920  0.0255
  621MPD2    C2 9250   0.250   2.365  10.229  0.0056 -0.1659 -0.1049
  621MPD2    C3 9251   0.318   2.418  10.123  0.3524  0.0512 -0.0984
  621MPD2    C4 9252   0.278   2.390   9.996 -0.6420  0.1848 -0.8931
  621MPD2    C5 9253   0.158   2.324   9.983 -0.1931 -0.4323  1.1279
  621MPD2     H 9254   0.288   2.382  10.329 -2.5838  1.4810  0.6005
  621MPD2    H1 9255   0.343   2.411   9.912  0.0504  1.4666 -0.0494
  621MPD2    H2 9256   0.003   2.214  10.058 -1.1583  1.2442  2.7277
  621MPD2    H3 9257   0.114   2.305   9.885  0.5670  1.0818  0.4869
  621MPD2     N 9258   0.429   2.500  10.161 -0.1593 -0.4490 -0.3280
  621MPD2    H5 9259   0.443   2.524  10.259  0.2425 -0.6510 -0.3336
  621MPD2    N1 9260   0.066   2.240  10.324 -0.1674  0.3990 -0.0594
  621MPD2    H7 9261   0.105   2.254  10.416 -2.1836  1.8653  0.5672
  622TMC3    C1 9262   4.672   2.081  10.450 -0.6011 -0.4715  0.4078
  622TMC3    C2 9263   4.635   2.177  10.536  0.4932 -0.0357  0.6162
  622TMC3    C3 9264   4.515   2.168  10.600 -0.3433  0.8027 -0.3480
  622TMC3    C4 9265   4.578   1.983  10.421  0.0986  0.8184  0.2830
  622TMC3    C5 9266   4.457   1.969  10.485 -0.1389  0.0678 -0.0806
  622TMC3    C6 9267   4.425   2.058  10.591  0.2721 -0.5301 -0.4736
  622TMC3     C 9268   4.714   2.135  10.318  0.0442  0.3933 -0.1870
  622TMC3     O 9269   4.657   2.088  10.221  0.2286 -0.4886 -0.1737
  622TMC3     H 9270   4.696   2.265  10.553  0.4645  0.1021  0.0042
  622TMC3    H1 9271   4.603   1.912  10.344 -0.4563  0.7866  0.1285
  622TMC3    H2 9272   4.335   2.035  10.645 -0.1320 -0.1636 -0.9930
  622TMC3    C7 9273   4.338   1.963  10.395  0.5596 -0.0390 -0.0790
  622TMC3    C8 9274   4.467   2.284  10.676 -0.1434  0.1788  0.1734
  622TMC3    O1 9275   4.234   1.957  10.454  0.4675  0.0491  0.3270
  622TMC3    O2 9276   4.539   2.378  10.706  0.1398  0.1683  0.1091
  623MPD2     C 9277   3.357   2.824  15.686 -0.3580 -1.0226  0.0492
  623MPD2    C1 9278   3.262   2.844  15.787 -0.4618 -0.4304  0.4492
  623MPD2    C2 9279   3.302   2.884  15.908 -0.2249  0.5113 -0.0757
  623MPD2    C3 9280   3.430   2.913  15.938  0.1867  0.3308 -1.1132
  623MPD2    C4 9281   3.526   2.899  15.840 -0.2922 -0.4275 -0.4747
  623MPD2    C5 9282   3.489   2.862  15.709  0.0391  0.4862  0.7347
  623MPD2     H 9283   3.222   2.890  15.981  0.4593 -0.5497  0.7622
  623MPD2    H1 9284   3.632   2.913  15.861 -0.3272 -1.4851  0.4290
  623MPD2    H2 9285   3.338   2.786  15.586  0.7869 -0.0073 -0.5438
  623MPD2    H3 9286   3.562   2.843  15.631  1.8557  2.0961  2.0355
  623MPD2     N 9287   3.449   2.945  16.074  0.0728  0.6119  0.0466
  623MPD2    H5 9288   3.364   2.958  16.129 -0.3289  0.4462 -0.5378
  623MPD2    N1 9289   3.122   2.829  15.771  0.4351 -0.0546 -0.4314
  623MPD2    H7 9290   3.077   2.844  15.861 -1.2149 -0.3250 -1.2186
  624TMC3    C1 9291   3.725   2.899  16.464  0.0101  0.7418  0.2922
  624TMC3    C2 9292   3.622   2.841  16.524 -0.3198  0.6642 -0.0863
  624TMC3    C3 9293   3.505   2.819  16.456 -0.1191 -0.5880  0.2427
  624TMC3    C4 9294   3.709   2.960  16.337  0.2132  0.3298  0.3833
  624TMC3    C5 9295   3.579   2.955  16.278 -0.7122 -0.0919 -0.3340
  624TMC3    C6 9296   3.480   2.884  16.337 -0.6015  0.4653  0.6405
  624TMC3     C 9297   3.853   2.909  16.543  0.1157 -0.3526  0.0227
  624TMC3     O 9298   3.857   2.869  16.660 -0.1480  0.4335  0.0831
  624TMC3     H 9299   3.641   2.791  16.618 -0.0468  0.9900  0.0294
  624TMC3    H1 9300   3.793   2.997  16.279  1.3087 -0.2255  1.6277
  624TMC3    H2 9301   3.380   2.869  16.298  0.3353 -4.6417  0.1519
  624TMC3    C7 9302   3.568   2.984  16.134 -0.5710  0.2572 -0.1824
  624TMC3    C8 9303   3.384   2.784  16.527  0.1265  0.1191 -0.0799
  624TMC3    O1 9304   3.670   3.022  16.071  0.3307  0.0629  0.1139
  624TMC3    O2 9305   3.337   2.674  16.499 -0.3397 -0.4468  0.2990
  625MPD2     C 9306   4.038   4.156   0.628  0.1581  0.2703 -0.1115
  625MPD2    C1 9307   4.008   4.271   0.695  0.2507  0.3671  0.1972
  625MPD2    C2 9308   4.049   4.277   0.831  0.6860 -0.3042  0.1949
  625MPD2    C3 9309   4.138   4.182   0.887 -0.1145  0.4755 -0.0070
  625MPD2    C4 9310   4.153   4.069   0.821  0.5889  0.0030 -0.3056
  625MPD2    C5 9311   4.111   4.056   0.691  0.1286  0.1855 -0.0471
  625MPD2     H 9312   4.030   4.369   0.885  1.4941  1.5077 -2.6044
  625MPD2    H1 9313   4.204   3.981   0.859 -0.3366 -0.8713 -1.0870
  625MPD2    H2 9314   3.994   4.135   0.531 -0.2107 -1.1845  0.3601
  625MPD2    H3 9315   4.131   3.962   0.642  0.8214 -1.2507  2.9904
  625MPD2     N 9316   4.197   4.217   1.012  0.4385  0.2220 -0.7906
  625MPD2    H5 9317   4.179   4.309   1.051 -0.8469 -0.5981  0.5663
  625MPD2    N1 9318   3.935   4.379   0.639 -0.3340 -0.0668 -0.2404
  625MPD2    H7 9319   3.918   4.456   0.702 -1.5437 -1.6392  1.3896
  626TMC3    C1 9320   3.765   4.467   0.510 -0.0161  0.3417 -0.4102
  626TMC3    C2 9321   3.725   4.507   0.388 -0.2076  0.7219  0.1891
  626TMC3    C3 9322   3.638   4.613   0.388 -0.0595 -0.5030  0.3398
  626TMC3    C4 9323   3.724   4.528   0.629 -0.3158 -0.0453 -0.3507
  626TMC3    C5 9324   3.655   4.646   0.615  0.3166 -0.8315  0.6736
  626TMC3    C6 9325   3.612   4.688   0.495 -0.0580 -0.3280  0.1226
  626TMC3     C 9326   3.870   4.368   0.517  0.0696  0.0752  1.0241
  626TMC3     O 9327   3.866   4.284   0.431  0.1461 -0.0769 -0.3507
  626TMC3     H 9328   3.757   4.453   0.300 -1.6806 -1.8681  1.2439
  626TMC3    H1 9329   3.753   4.494   0.727  0.6517 -0.2319 -0.6953
  626TMC3    H2 9330   3.570   0.051   0.495  1.1680  0.1898 -0.5523
  626TMC3    C7 9331   3.593   4.690   0.741 -0.9641 -0.5773  0.0645
  626TMC3    C8 9332   3.588   4.669   0.255 -0.5311  0.2736 -0.3628
  626TMC3    O1 9333   3.656   4.666   0.847 -0.0516 -1.0480 -0.3812
  626TMC3    O2 9334   3.644   4.643   0.151  0.2084 -0.0538  1.0532
  627MPD2     C 9335   1.889   4.552  14.639 -0.7206  0.3330 -0.4256
  627MPD2    C1 9336   1.926   4.498  14.762  0.2881  0.0565 -0.1998
  627MPD2    C2 9337   1.861   4.377  14.804 -0.1847  0.4331  0.2606
  627MPD2    C3 9338   1.749   4.325  14.729 -0.1852 -0.4661 -0.2607
  627MPD2    C4 9339   1.703   4.401  14.621  0.4568 -0.8479 -0.2350
  627MPD2    C5 9340   1.772   4.508  14.577  0.2295  0.3698  0.0487
  627MPD2     H 9341   1.897   4.330  14.895  0.6257 -0.1629 -0.3571
  627MPD2    H1 9342   1.612   4.374  14.568 -1.3450 -0.5531  2.7183
  627MPD2    H2 9343   1.939   4.643  14.609  0.3995 -0.0084  0.4392
  627MPD2    H3 9344   1.734   4.565  14.493  0.5948  2.2288  1.1293
  627MPD2     N 9345   1.692   4.199  14.768  0.0800  0.4396  0.8649
  627MPD2    H5 9346   1.713   4.170  14.863  0.2128  1.0304  1.0160
  627MPD2    N1 9347   2.026   4.552  14.843  0.0872  0.2712 -0.6298
  627MPD2    H7 9348   2.073   4.473  14.887 -0.4255  0.5854  0.4729
  628TMC3    C1 9349   2.186   4.710  14.920 -0.5582  0.2767  0.2087
  628TMC3    C2 9350   2.276   4.605  14.942 -0.0062 -0.3198  0.1484
  628TMC3    C3 9351   2.387   4.640  15.017  0.0793  0.3902  0.5155
  628TMC3    C4 9352   2.218   0.105  14.949  0.3341 -0.1642  0.0900
  628TMC3    C5 9353   2.342   0.131  15.012  0.1498 -0.1551 -0.2982
  628TMC3    C6 9354   2.413   0.028  15.065 -0.3721 -0.2486  0.4639
  628TMC3     C 9355   2.074   4.680  14.827 -0.2365 -0.1770 -0.5070
  628TMC3     O 9356   2.019   0.040  14.775  0.8755  0.1771 -0.7108
  628TMC3     H 9357   2.270   4.502  14.909 -0.2339 -0.7068  1.4032
  628TMC3    H1 9358   2.152   0.182  14.909  0.6451  0.0544 -0.0032
  628TMC3    H2 9359   2.505   0.045  15.121 -0.3909 -0.4067  0.5432
  628TMC3    C7 9360   2.389   0.266  15.043  0.0478  0.3567  0.3257
  628TMC3    C8 9361   2.508   4.575  15.007 -0.4441 -0.0718 -0.2504
  628TMC3    O1 9362   2.493   0.279  15.108  0.3143  0.3424 -0.6469
  628TMC3    O2 9363   2.571   4.559  15.113  0.0233 -0.4313  0.3033
  629MPD2     C 9364   0.790   2.897  16.551 -0.4757  0.4568 -0.4596
  629MPD2    C1 9365   0.732   3.002  16.480 -0.1814  0.3810 -0.1847
  629MPD2    C2 9366   0.596   2.992  16.436 -0.2915  0.1617 -0.5097
  629MPD2    C3 9367   0.536   2.869  16.442 -0.2974 -0.7768 -0.5690
  629MPD2    C4 9368   0.599   2.765  16.507 -0.0657  0.3552  0.9942
  629MPD2    C5 9369   0.728   2.774  16.553 -0.2436 -0.1848  0.2649
  629MPD2     H 9370   0.546   3.074  16.386 -1.0612 -1.1460 -1.8608
  629MPD2    H1 9371   0.553   2.667  16.506  1.4099 -0.3434  1.1146
  629MPD2    H2 9372   0.894   2.901  16.582 -0.1921 -0.2919 -1.3138
  629MPD2    H3 9373   0.779   2.688  16.594  1.7166  2.0164  2.3863
  629MPD2     N 9374   0.415   2.861  16.378  0.0192  0.4552  0.2474
  629MPD2    H5 9375   0.370   2.950  16.364  2.3489  1.6497  0.3561
  629MPD2    N1 9376   0.813   3.114  16.456  0.3503 -0.0475 -0.3939
  629MPD2    H7 9377   0.903   3.113  16.502 -0.7152 -0.5255  1.6877
  630TMC3    C1 9378   0.877   3.334  16.387  0.1285  0.8277  0.4898
  630TMC3    C2 9379   0.928   3.373  16.268 -0.6515 -0.3926  0.4609
  630TMC3    C3 9380   1.059   3.418  16.265  0.7918  0.3702  0.1142
  630TMC3    C4 9381   0.962   3.338  16.493  0.8481  0.5183 -0.6879
  630TMC3    C5 9382   1.087   3.376  16.485 -0.1316 -0.3267 -0.3209
  630TMC3    C6 9383   1.145   3.413  16.365 -0.2326 -0.0853  0.3346
  630TMC3     C 9384   0.781   3.226  16.374 -0.7455 -0.8855  0.3970
  630TMC3     O 9385   0.693   3.240  16.286  0.5356  0.6134 -0.0533
  630TMC3     H 9386   0.866   3.357  16.181 -1.1743 -1.0551  0.9550
  630TMC3    H1 9387   0.929   3.307  16.592  3.0880  0.2398 -0.0338
  630TMC3    H2 9388   1.250   3.439  16.360 -0.5633  1.6584  2.5043
  630TMC3    C7 9389   1.163   3.351  16.602 -0.6599  0.2458  0.1916
  630TMC3    C8 9390   1.105   3.467  16.138  0.6122 -0.0723 -0.2563
  630TMC3    O1 9391   1.150   3.233  16.645 -0.1234 -0.3329 -0.9352
  630TMC3    O2 9392   1.226   3.475  16.130 -0.0956 -0.2589 -0.0372
  631MPD2     C 9393   3.605   3.492  15.666  0.0296 -0.3231 -0.2896
  631MPD2    C1 9394   3.712   3.562  15.611 -0.0200  0.1081 -0.1837
  631MPD2    C2 9395   3.816   3.497  15.551  0.1903  0.5574 -0.2352
  631MPD2    C3 9396   3.825   3.359  15.557 -0.4020  0.8405  0.0578
  631MPD2    C4 9397   3.717   3.294  15.612  0.3488 -0.1875  0.8736
  631MPD2    C5 9398   3.603   3.355  15.665  1.2277  0.5697 -0.8365
  631MPD2     H 9399   3.897   3.554  15.507  1.4483  0.0335  1.3650
  631MPD2    H1 9400   3.705   3.186  15.605  0.4391 -0.1528  0.2077
  631MPD2    H2 9401   3.532   3.558  15.710  1.3378  1.5118 -0.8275
  631MPD2    H3 9402   3.525   3.289  15.703 -0.7635  2.9297 -0.8322
  631MPD2     N 9403   3.939   3.292  15.499 -0.2155 -0.0465 -0.3257
  631MPD2    H5 9404   4.014   3.353  15.468 -1.4251  0.1562 -2.8684
  631MPD2    N1 9405   3.698   3.701  15.620  0.0450 -1.1136 -0.1692
  631MPD2    H7 9406   3.606   3.732  15.649  0.6253  0.6650 -0.2304
  632TMC3    C1 9407   3.723   3.935  15.566  0.5954 -1.2353  0.0794
  632TMC3    C2 9408   3.601   3.920  15.617 -0.3964  0.9174 -0.1730
  632TMC3    C3 9409   3.494   3.942  15.540  0.0872  0.1721 -0.1882
  632TMC3    C4 9410   3.746   3.978  15.441  0.0121 -0.0571  0.6261
  632TMC3    C5 9411   3.643   3.990  15.357 -0.2557 -0.4644  0.1573
  632TMC3    C6 9412   3.517   3.969  15.408 -0.3324  0.4482 -0.2273
  632TMC3     C 9413   3.781   3.801  15.573  0.4614  0.5790  0.5629
  632TMC3     O 9414   3.881   3.788  15.506 -0.2819  0.3728  0.5316
  632TMC3     H 9415   3.588   3.895  15.722 -3.0560  0.7082 -0.5552
  632TMC3    H1 9416   3.845   3.975  15.396 -1.1551 -1.0318 -1.8741
  632TMC3    H2 9417   3.442   3.962  15.329 -0.8424  0.9671  0.2075
  632TMC3    C7 9418   3.664   3.928  15.226  0.0321  0.5876  0.1473
  632TMC3    C8 9419   3.372   3.869  15.578 -0.1991 -0.5626 -1.4516
  632TMC3    O1 9420   3.600   3.955  15.126 -0.0573  0.0133  0.2574
  632TMC3    O2 9421   3.398   3.769  15.650 -0.1491  0.8152 -0.6341
  633MPD2     C 9422   3.625   1.397  17.457 -0.2379  0.1741 -0.4602
  633MPD2    C1 9423   3.737   1.354  17.383 -0.0236 -0.2059  0.7599
  633MPD2    C2 9424   3.778   1.224  17.395  0.1050 -0.6242  0.3188
  633MPD2    C3 9425   3.713   1.134  17.480 -0.2589  0.4141  0.7925
  633MPD2    C4 9426   3.610   1.177  17.560 -0.2313  0.0296 -0.8178
  633MPD2    C5 9427   3.573   1.313  17.552 -0.1962 -0.6042 -0.1076
  633MPD2     H 9428   3.855   1.189  17.326  1.3290 -1.6734  2.2131
  633MPD2    H1 9429   3.557   1.117  17.633 -0.7729 -0.3143 -1.4892
  633MPD2    H2 9430   3.587   1.497  17.441 -1.1834 -0.6058 -3.1705
  633MPD2    H3 9431   3.502   1.345  17.626  1.8921  0.8525  1.2569
  633MPD2     N 9432   3.749   0.997  17.486 -0.0315  0.5541  0.1445
  633MPD2    H5 9433   3.697   0.940  17.552 -0.3299  0.8466  0.1616
  633MPD2    N1 9434   3.785   1.426  17.267  0.0171 -0.5893  0.3877
  633MPD2    H7 9435   3.863   1.384  17.218  0.0174  2.0587 -1.8522
  634TMC3    C1 9436   3.827   1.581  17.106  0.4968 -0.1323 -1.1542
  634TMC3    C2 9437   3.875   1.481  17.019  0.3852  0.4664  0.2181
  634TMC3    C3 9438   3.856   1.496  16.881  0.2452 -0.1328  0.3009
  634TMC3    C4 9439   3.775   1.696  17.050 -0.3237 -0.4156  0.0203
  634TMC3    C5 9440   3.764   1.708  16.918 -0.3655  0.5405  0.1872
  634TMC3    C6 9441   3.806   1.609  16.832  0.2978  0.3263 -1.1374
  634TMC3     C 9442   3.779   1.563  17.246 -0.1683 -0.3403 -0.0283
  634TMC3     O 9443   3.713   1.646  17.304 -0.1090 -0.8285 -0.3796
  634TMC3     H 9444   3.916   1.387  17.054  1.4438  0.4212 -1.1291
  634TMC3    H1 9445   3.743   1.780  17.110 -2.0513 -1.8140  1.0612
  634TMC3    H2 9446   3.810   1.621  16.724 -0.5636  1.0193 -1.0958
  634TMC3    C7 9447   3.679   1.815  16.859  0.5264 -0.1329 -0.3479
  634TMC3    C8 9448   3.825   1.381  16.802  0.4971  0.1097  0.1953
  634TMC3    O1 9449   3.702   1.827  16.740 -0.1155 -0.7814  0.1986
  634TMC3    O2 9450   3.812   1.277  16.864 -0.4709  0.2407 -0.1311
  635TMC3    C1 9451   3.729   2.668  17.618 -0.5198  0.0936 -0.6780
  635TMC3    C2 9452   3.781   2.647  17.496 -0.3070  0.0816  0.3570
  635TMC3    C3 9453   3.679   2.626  17.402  0.1245 -0.0884  0.4211
  635TMC3    C4 9454   3.605   2.641  17.664 -0.0665 -0.2522  0.3951
  635TMC3    C5 9455   3.505   2.618  17.567  0.2370  0.9219 -0.6834
  635TMC3    C6 9456   3.548   2.603  17.437 -0.3672  0.2621  0.3362
  635TMC3     C 9457   3.810   2.753  17.709  0.2835 -0.3153  0.0113
  635TMC3     O 9458   3.755   2.809   0.057 -0.2829 -0.9536  0.1559
  635TMC3     H 9459   3.884   2.669  17.472 -0.5901  1.6995  0.6294
  635TMC3    H1 9460   3.567   2.667   0.015  2.0900 -2.4846  1.8049
  635TMC3    H2 9461   3.471   2.580  17.364 -1.3262  2.3015  0.7154
  635TMC3    C7 9462   3.369   2.589  17.608  0.8678 -0.4159 -0.5224
  635TMC3    C8 9463   3.720   2.587  17.268 -0.4782  0.1176  0.8312
  635TMC3    O1 9464   3.275   2.614  17.532  0.0778 -0.2858 -0.2233
  635TMC3    O2 9465   3.836   2.549  17.259  0.5612 -0.2609 -0.5299
  636MPD2     C 9466   4.483   1.763  16.214 -0.1827  0.1215  0.9720
  636MPD2    C1 9467   4.565   1.791  16.319 -0.6240  0.1168 -0.4135
  636MPD2    C2 9468   4.609   1.684  16.386  0.9284  0.0720  0.1139
  636MPD2    C3 9469   4.574   1.550  16.360 -0.7505 -0.2260 -0.3170
  636MPD2    C4 9470   4.500   1.517  16.245  1.2679  0.3743  0.7892
  636MPD2    C5 9471   4.460   1.630  16.167  0.7126  0.1612 -0.2403
  636MPD2     H 9472   4.669   1.701  16.475 -0.6964 -0.2057  1.2507
  636MPD2    H1 9473   4.478   1.416  16.214 -0.6163  1.5578 -1.7595
  636MPD2    H2 9474   4.447   1.842  16.150  0.1231 -0.4680  0.0740
  636MPD2    H3 9475   4.402   1.613  16.078  0.7124 -2.1205  0.1940
  636MPD2     N 9476   4.614   1.459  16.465 -0.3833 -0.0182  0.0805
  636MPD2    H5 9477   4.666   1.497  16.544  0.6821  0.1951 -0.7368
  636MPD2    N1 9478   4.598   1.919  16.362 -0.1866 -0.5398  0.0620
  636MPD2    H7 9479   4.652   1.928  16.447  1.7968  0.5739 -1.2932
  637TMC3    C1 9480   4.649   1.279  16.596 -0.1848  0.3631  0.1796
  637TMC3    C2 9481   4.665   1.360  16.712  0.3840 -0.1085  0.0905
  637TMC3    C3 9482   0.052   1.362  16.776 -0.3397  0.7028  0.0344
  637TMC3    C4 9483   0.002   1.182  16.576  0.0146  0.0717 -0.3672
  637TMC3    C5 9484   0.116   1.182  16.649  0.3975 -0.1237  0.3405
  637TMC3    C6 9485   0.138   1.264  16.755  0.4986  0.6166 -0.1914
  637TMC3     C 9486   4.593   1.330  16.479 -0.2461 -0.5624 -0.6296
  637TMC3     O 9487   4.570   1.245  16.393 -0.1322  0.2782  0.2128
  637TMC3     H 9488   4.609   1.452  16.727  0.9318 -0.0035  1.4449
  637TMC3    H1 9489   0.001   1.122  16.485 -0.4718 -0.4003 -0.0532
  637TMC3    H2 9490   0.237   1.271  16.799  0.3667  0.5347  0.1161
  637TMC3    C7 9491   0.229   1.184  16.555 -0.0908 -0.3789 -0.4509
  637TMC3    C8 9492   0.112   1.492  16.746 -0.1229 -0.2213 -0.6439
  637TMC3    O1 9493   0.202   1.228  16.445 -0.1068  0.1124 -0.7076
  637TMC3    O2 9494   0.074   1.564  16.655  0.0957 -0.3108 -0.2909
  638MPD2     C 9495   4.386   0.475  15.144  0.1633  0.1120  0.5808
  638MPD2    C1 9496   4.384   0.364  15.061  0.8282 -0.2744  0.0742
  638MPD2    C2 9497   4.364   0.243  15.124 -0.1743  0.2379 -0.2964
  638MPD2    C3 9498   4.329   0.228  15.257 -0.1250 -0.8976 -0.2931
  638MPD2    C4 9499   4.325   0.338  15.336 -0.2679  0.2930 -0.4902
  638MPD2    C5 9500   4.350   0.458  15.279  0.1035  0.3151  0.7416
  638MPD2     H 9501   4.357   0.151  15.068  2.0872  0.0827 -0.3033
  638MPD2    H1 9502   4.300   0.323  15.440 -3.0539  4.9532 -0.5029
  638MPD2    H2 9503   4.411   0.576  15.111 -0.2213 -0.1243 -0.4322
  638MPD2    H3 9504   4.341   0.542  15.347  0.9511  2.1959 -1.4804
  638MPD2     N 9505   4.322   0.092  15.301 -0.1723 -0.3641 -0.4897
  638MPD2    H5 9506   4.327   0.020  15.230 -0.9733 -1.3621  0.4872
  638MPD2    N1 9507   4.413   0.370  14.926 -0.7972 -0.1096 -0.1318
  638MPD2    H7 9508   4.449   0.460  14.896 -1.0279 -0.3695 -1.1872
  639TMC3    C1 9509   4.342   4.633  15.416 -0.1315 -0.1233  0.2564
  639TMC3    C2 9510   4.273   4.572  15.315  0.0046 -0.8789  0.5301
  639TMC3    C3 9511   4.320   4.460  15.265  0.5789 -0.6667  0.0130
  639TMC3    C4 9512   4.469   4.596  15.447 -0.0400 -0.6490  0.2656
  639TMC3    C5 9513   4.521   4.479  15.395  0.3787 -0.1611 -0.5247
  639TMC3    C6 9514   4.441   4.411  15.306  0.0715  0.4075  0.0508
  639TMC3     C 9515   4.322   0.045  15.427  0.0086 -0.0911 -0.0061
  639TMC3     O 9516   4.342   0.108  15.527 -0.6095  0.9378 -0.0466
  639TMC3     H 9517   4.183   4.618  15.277  0.5215  0.2992  0.7345
  639TMC3    H1 9518   4.528   4.658  15.514  0.9313 -0.7135 -0.5298
  639TMC3    H2 9519   4.492   4.327  15.261 -0.3185  0.0429  0.2885
  639TMC3    C7 9520   4.640   4.415  15.446  0.6316  0.3037 -0.4743
  639TMC3    C8 9521   4.252   4.384  15.162  0.2651 -0.0392  0.2526
  639TMC3    O1 9522   4.632   4.288  15.455  0.2616  0.2154 -0.0024
  639TMC3    O2 9523   4.317   4.295  15.113  0.2037 -0.1627 -0.4100
  640MPD2     C 9524   0.317   3.410  10.621 -0.0357  0.0518  0.5128
  640MPD2    C1 9525   0.391   3.508  10.558  0.5244  0.0008 -0.2272
  640MPD2    C2 9526   0.336   3.635  10.553 -0.3000  0.4007 -0.6612
  640MPD2    C3 9527   0.207   3.655  10.598 -0.2334  0.1529  0.3325
  640MPD2    C4 9528   0.137   3.552  10.659  0.0476 -0.1539 -0.2996
  640MPD2    C5 9529   0.188   3.427  10.658  0.1093 -0.9339 -0.1366
  640MPD2     H 9530   0.380   3.722  10.505 -1.0475  0.5548 -1.0522
  640MPD2    H1 9531   0.036   3.563  10.697  1.0106 -1.9441  2.7671
  640MPD2    H2 9532   0.352   3.307  10.624  0.9702  0.4238  1.5363
  640MPD2    H3 9533   0.142   3.340  10.704 -1.3575 -0.8650 -1.4885
  640MPD2     N 9534   0.144   3.778  10.580 -0.0534 -0.1708 -0.3543
  640MPD2    H5 9535   0.044   3.772  10.597  0.2158  0.6823  1.5979
  640MPD2    N1 9536   0.504   3.461  10.487 -0.3938  0.2848  0.2873
  640MPD2    H7 9537   0.520   3.362  10.474 -0.7069  0.2569  0.1062
  641TMC3    C1 9538   0.680   3.498  10.341 -0.3412  0.0994  0.6119
  641TMC3    C2 9539   0.742   3.381  10.362 -0.3749 -0.1630  0.0699
  641TMC3    C3 9540   0.829   3.339  10.272  0.2650 -1.0494  0.0796
  641TMC3    C4 9541   0.707   3.572  10.228 -0.0446 -0.3365 -0.0077
  641TMC3    C5 9542   0.794   3.529  10.135  0.6670  0.1196 -0.1766
  641TMC3    C6 9543   0.858   3.405  10.157  0.0971 -0.8042 -0.6308
  641TMC3     C 9544   0.595   3.557  10.441 -0.3086 -0.1905  0.0064
  641TMC3     O 9545   0.597   3.677  10.452  0.2881  0.3952 -0.0941
  641TMC3     H 9546   0.722   3.318  10.448  2.7231  0.1269  0.9792
  641TMC3    H1 9547   0.648   3.662  10.211  1.5905  0.7462  0.1121
  641TMC3    H2 9548   0.936   3.362  10.095  1.8782  0.5511  0.6395
  641TMC3    C7 9549   0.796   3.587  10.006 -0.3225 -1.5116  0.0777
  641TMC3    C8 9550   0.891   3.214  10.292 -0.6829 -0.1914 -0.6760
  641TMC3    O1 9551   0.734   3.693   9.990  0.4446 -0.1394 -0.1616
  641TMC3    O2 9552   0.940   3.162  10.189 -0.1666  0.3997 -0.1470
  642TMC3    C1 9553   1.180   4.636  12.365  0.8932 -0.2413  0.0423
  642TMC3    C2 9554   1.168   4.620  12.498 -0.2802 -0.4643  0.5607
  642TMC3    C3 9555   1.241   4.518  12.553  0.0931 -0.4458  0.0756
  642TMC3    C4 9556   1.250   4.551  12.285 -0.1793 -0.2425  0.1777
  642TMC3    C5 9557   1.318   4.447  12.339  0.3746 -0.0298 -0.1525
  642TMC3    C6 9558   1.325   4.434  12.479 -0.3812 -0.1291  0.8627
  642TMC3     C 9559   1.127   0.030  12.303 -1.2114 -0.2698 -0.1938
  642TMC3     O 9560   1.181   0.068  12.200  0.1354 -0.7812 -0.3121
  642TMC3     H 9561   1.118   4.703  12.547 -2.0506 -2.1233  1.5554
  642TMC3    H1 9562   1.243   4.562  12.177 -1.7231  0.6454  0.3681
  642TMC3    H2 9563   1.384   4.358  12.528  0.7262  1.5763  2.1551
  642TMC3    C7 9564   1.327   4.327  12.260  0.2827  0.8420 -0.5575
  642TMC3    C8 9565   1.241   4.492  12.690 -0.2342  0.0054  0.0263
  642TMC3    O1 9566   1.328   4.336  12.138 -0.8763  0.4647  0.6809
  642TMC3    O2 9567   1.295   4.385  12.724  0.3361  0.3120  0.3491
  643TMC3    C1 9568   1.315   4.103   0.825  0.0259  0.0274  0.0598
  643TMC3    C2 9569   1.265   3.983   0.869  0.6414 -0.0408  0.1527
  643TMC3    C3 9570   1.192   3.904   0.779 -0.2334  0.0846  0.7459
  643TMC3    C4 9571   1.318   4.129   0.689  0.8735 -0.0470 -0.5998
  643TMC3    C5 9572   1.267   4.039   0.604 -0.2989 -0.3011  0.6453
  643TMC3    C6 9573   1.202   3.924   0.639 -0.0322  0.6462 -0.3199
  643TMC3     C 9574   1.268   4.211   0.911 -0.4495 -0.1315  1.2061
  643TMC3     O 9575   1.196   4.296   0.862 -0.2156 -0.1407  0.8493
  643TMC3     H 9576   1.263   3.962   0.975 -1.4082  1.4547  0.4113
  643TMC3    H1 9577   1.344   4.231   0.664  1.8858 -0.3463 -0.7762
  643TMC3    H2 9578   1.163   3.849   0.570 -0.3395 -0.7865  1.3987
  643TMC3    C7 9579   1.252   4.087   0.466 -1.0677 -0.7126 -0.6721
  643TMC3    C8 9580   1.076   3.838   0.830 -0.2626  0.3256  0.4428
  643TMC3    O1 9581   1.280   4.202   0.442 -0.3178 -0.8686  0.0806
  643TMC3    O2 9582   1.100   3.773   0.930  0.3201  0.1564 -0.3202
  644MPD2     C 9583   0.412   3.871   9.973  0.3853 -0.6366  0.2111
  644MPD2    C1 9584   0.480   3.993   9.956  0.4947 -0.4790  0.7897
  644MPD2    C2 9585   0.408   4.111   9.923  0.2373 -0.4115  0.1720
  644MPD2    C3 9586   0.275   4.094   9.880 -0.2889 -0.9085  0.4926
  644MPD2    C4 9587   0.211   3.972   9.883 -0.0251  0.0641  0.2168
  644MPD2    C5 9588   0.279   3.862   9.938 -0.5688 -0.3851 -0.1650
  644MPD2     H 9589   0.449   4.210   9.911 -1.1819 -0.0166 -1.3423
  644MPD2    H1 9590   0.110   3.959   9.848 -0.1686  0.9549  0.2917
  644MPD2    H2 9591   0.477   3.786   9.991  0.1957 -0.2465  2.7971
  644MPD2    H3 9592   0.234   3.764   9.933  1.7151 -1.3757 -1.2761
  644MPD2     N 9593   0.215   4.212   9.824 -0.4286 -0.2992 -0.0319
  644MPD2    H5 9594   0.267   4.296   9.849 -1.4181 -0.2604  1.8719
  644MPD2    N1 9595   0.619   3.999   9.992  0.1539  0.1411 -0.0735
  644MPD2    H7 9596   0.663   3.916  10.031 -1.7239 -1.3933 -1.2350
  645TMC3    C1 9597   0.025   4.350   9.759 -0.1714 -0.2636  0.3557
  645TMC3    C2 9598   0.100   4.465   9.781 -0.2318  0.5814 -0.2675
  645TMC3    C3 9599   0.025   4.583   9.813 -0.7019 -0.3002  0.2754
  645TMC3    C4 9600   4.626   4.345   9.759 -0.4481 -0.0365 -0.6036
  645TMC3    C5 9601   4.562   4.463   9.783 -0.2279 -1.2262  0.0245
  645TMC3    C6 9602   4.622   4.583   9.806  0.4785 -0.0507  0.7583
  645TMC3     C 9603   0.089   4.214   9.774  0.2851 -0.1597 -0.1791
  645TMC3     O 9604   0.032   4.121   9.715  0.0396 -0.1290  0.5913
  645TMC3     H 9605   0.208   4.459   9.780 -0.3183 -1.2247  1.3175
  645TMC3    H1 9606   4.577   4.250   9.748 -1.0511  0.3848 -1.5094
  645TMC3    H2 9607   4.568   4.673   9.836 -0.4851 -0.7087  0.9894
  645TMC3    C7 9608   4.418   4.460   9.802 -0.2066  0.1014  0.5257
  645TMC3    C8 9609   0.093   4.708   9.863 -0.5057  0.2169 -0.2717
  645TMC3    O1 9610   4.377   4.548   9.877  0.2384 -0.0402 -0.7513
  645TMC3    O2 9611   0.015   0.066   9.878  0.1031  0.1206 -0.4155
  646MPD2     C 9612   4.707   3.569  14.684 -0.3730 -0.4663  0.1604
  646MPD2    C1 9613   4.639   3.599  14.798 -0.1791 -0.4982  0.4105
  646MPD2    C2 9614   4.513   3.666  14.788  0.5527  0.8015  0.1821
  646MPD2    C3 9615   4.457   3.694  14.666 -0.1699 -0.3142 -0.4495
  646MPD2    C4 9616   4.521   3.651  14.554 -0.6278 -0.3553  0.2708
  646MPD2    C5 9617   4.647   3.597  14.563  0.4168  0.7361 -0.6335
  646MPD2     H 9618   4.463   3.709  14.874  1.0002 -0.7783  1.2282
  646MPD2    H1 9619   4.483   3.672  14.455 -2.5016 -1.0457  0.8542
  646MPD2    H2 9620   0.073   3.536  14.684 -0.5318 -0.9528 -0.1627
  646MPD2    H3 9621   4.706   3.576  14.475 -0.7348 -1.6065 -0.8539
  646MPD2     N 9622   4.342   3.780  14.653  0.2825 -0.1053 -0.0681
  646MPD2    H5 9623   4.278   3.786  14.731  1.4789 -1.4187  0.9969
  646MPD2    N1 9624   4.703   3.599  14.926 -0.3339 -0.3496  0.1415
  646MPD2    H7 9625   0.065   3.578  14.923 -0.3947 -0.6590  0.3262
  647TMC3    C1 9626   0.005   3.592  15.153 -0.0845  0.1332  0.1207
  647TMC3    C2 9627   4.700   3.524  15.261  0.3555  0.4142 -0.3743
  647TMC3    C3 9628   0.057   3.460  15.337 -0.3329 -0.3030  0.5238
  647TMC3    C4 9629   0.136   3.608  15.117  0.1152  0.0014  0.1855
  647TMC3    C5 9630   0.227   3.548  15.198  0.7111  0.1525  0.3304
  647TMC3    C6 9631   0.193   3.486  15.315  0.4907  0.1978 -0.6718
  647TMC3     C 9632   4.643   3.610  15.043 -0.8759 -0.2989 -0.4524
  647TMC3     O 9633   4.522   3.611  15.071  0.3026  0.5631  0.1174
  647TMC3     H 9634   4.594   3.504  15.275  1.0039 -1.2723  2.2560
  647TMC3    H1 9635   0.173   3.666  15.034  0.5191 -1.0521 -0.3649
  647TMC3    H2 9636   0.265   3.461  15.393 -1.6227 -0.4148  1.0873
  647TMC3    C7 9637   0.289   3.453  15.107  0.6637  0.1509  0.0973
  647TMC3    C8 9638   0.049   3.317  15.353  0.9448  0.2153  0.1921
  647TMC3    O1 9639   0.251   3.454  14.990  0.7966  0.3151 -0.0719
  647TMC3    O2 9640   0.125   3.259  15.433 -0.0191  0.4972 -0.2432
  648TMC3    C1 9641   4.144   1.475  16.247  0.1637  0.0788 -0.2336
  648TMC3    C2 9642   4.223   1.362  16.207 -0.0060 -0.1219 -0.8323
  648TMC3    C3 9643   4.211   1.313  16.079  0.3321  0.6106  0.1821
  648TMC3    C4 9644   4.046   1.520  16.166  0.0742 -0.5039 -0.2394
  648TMC3    C5 9645   4.025   1.465  16.045  0.0280  0.0962 -0.0045
  648TMC3    C6 9646   4.107   1.355  15.997  0.0290 -0.4480 -0.0960
  648TMC3     C 9647   4.129   1.517  16.385  0.1402 -0.9176  0.1168
  648TMC3     O 9648   4.052   1.606  16.410 -0.2187 -0.0832 -0.2912
  648TMC3     H 9649   4.306   1.344  16.274 -0.5651  0.5851  0.0549
  648TMC3    H1 9650   3.983   1.602  16.197 -0.8582 -1.2067 -0.2561
  648TMC3    H2 9651   4.088   1.304  15.903  1.6266 -0.6598 -0.3004
  648TMC3    C7 9652   3.943   1.539  15.944  0.1016  0.1594 -0.5862
  648TMC3    C8 9653   4.294   1.198  16.043  0.1068  0.8900  0.8224
  648TMC3    O1 9654   3.972   1.538  15.825  0.3459  0.0242  0.4256
  648TMC3    O2 9655   4.307   1.175  15.924 -0.1505 -0.2597 -1.0211
  649TMC3    C1 9656   2.135   2.295  12.829 -0.3482 -0.3941  0.2114
  649TMC3    C2 9657   2.141   2.280  12.694 -0.0813 -0.2129  0.8019
  649TMC3    C3 9658   2.090   2.163  12.646  0.1837  0.4187 -0.4819
  649TMC3    C4 9659   2.098   2.199  12.919 -0.4063  0.0406 -0.7797
  649TMC3    C5 9660   2.077   2.077  12.858 -0.3256  0.5175 -1.1165
  649TMC3    C6 9661   2.066   2.054  12.723 -0.4720  0.0244  0.9129
  649TMC3     C 9662   2.139   2.430  12.883 -0.1522 -0.6942 -0.3092
  649TMC3     O 9663   2.178   2.454  12.997  0.1793  1.0285  0.1301
  649TMC3     H 9664   2.159   2.362  12.626  1.1587  0.0761  1.4702
  649TMC3    H1 9665   2.112   2.214  13.025  1.7538 -0.9937 -0.8968
  649TMC3    H2 9666   2.039   1.956  12.685  0.3738 -0.7686  2.3286
  649TMC3    C7 9667   2.092   1.962  12.939  0.0346 -0.2158  1.1189
  649TMC3    C8 9668   2.065   2.149  12.503  0.3024 -0.4267 -0.3159
  649TMC3    O1 9669   2.042   1.968  13.049  0.1719  0.3308 -0.0627
  649TMC3    O2 9670   2.010   2.046  12.468 -0.2289 -0.0721 -0.0529
  650TMC3    C1 9671   0.956   4.220  13.003 -0.6811  0.0597 -0.4728
  650TMC3    C2 9672   0.881   4.333  13.018  0.1209 -0.5886  0.1817
  650TMC3    C3 9673   0.859   4.413  12.908  0.4295  0.7232 -0.1286
  650TMC3    C4 9674   1.018   4.187  12.886  0.1986 -0.5758  0.5272
  650TMC3    C5 9675   0.994   4.268  12.779  0.0676  0.5069  0.3666
  650TMC3    C6 9676   0.918   4.385  12.791  0.5447 -0.4567 -0.1033
  650TMC3     C 9677   0.953   4.124  13.118  0.3872  0.0775 -0.4631
  650TMC3     O 9678   0.907   4.161  13.222 -0.0068 -0.4588 -0.7126
  650TMC3     H 9679   0.818   4.353  13.103 -0.9263 -1.6897 -0.3221
  650TMC3    H1 9680   1.086   4.103  12.883 -0.0284 -0.7115 -0.5539
  650TMC3    H2 9681   0.909   4.451  12.705  1.4809 -0.6573 -0.3486
  650TMC3    C7 9682   0.965   4.185  12.668  0.0161 -0.2522  0.2156
  650TMC3    C8 9683   0.749   4.510  12.906  0.3454 -0.1707 -0.0948
  650TMC3    O1 9684   1.023   4.077  12.652  0.1054  0.7202  0.6306
  650TMC3    O2 9685   0.707   4.533  12.795  0.5905 -0.4853  0.0063
  651MPD2     C 9686   4.064   1.170  10.754 -0.0074 -0.4276  1.5608
  651MPD2    C1 9687   4.111   1.244  10.859 -0.4497  0.0848 -0.8771
  651MPD2    C2 9688   4.231   1.312  10.838  0.4537  0.2199  0.3345
  651MPD2    C3 9689   4.309   1.301  10.728 -0.7832 -0.3957 -0.5396
  651MPD2    C4 9690   4.250   1.225  10.630 -0.8084 -0.2245  0.9472
  651MPD2    C5 9691   4.140   1.148  10.645 -0.1946  0.7936  0.5832
  651MPD2     H 9692   4.266   1.381  10.913  0.6555  0.3380  0.1314
  651MPD2    H1 9693   4.297   1.214  10.533  0.0919 -2.1937  1.6040
  651MPD2    H2 9694   3.969   1.118  10.755  0.4546 -1.3175 -0.6218
  651MPD2    H3 9695   4.090   1.094  10.565 -1.3013  0.3762  1.5711
  651MPD2     N 9696   4.416   1.391  10.710 -0.4015  0.0268 -0.5134
  651MPD2    H5 9697   4.425   1.471  10.773  0.1325 -0.6579  0.2794
  651MPD2    N1 9698   4.042   1.255  10.982  0.4688  0.4154  0.3897
  651MPD2    H7 9699   4.068   1.322  11.053 -0.3985  0.3182  0.8024
  652TMC3    C1 9700   0.091   1.570  10.578 -0.3144  0.1682  0.3907
  652TMC3    C2 9701   4.727   1.472  10.554 -0.7729  0.2846 -0.7092
  652TMC3    C3 9702   4.607   1.493  10.611 -0.3634  0.0027  0.4838
  652TMC3    C4 9703   0.067   1.677  10.664 -0.3311 -0.0911  0.6987
  652TMC3    C5 9704   4.678   1.696  10.705 -0.2170 -0.4836  0.3717
  652TMC3    C6 9705   4.580   1.611  10.677  0.4061  0.2246  0.3751
  652TMC3     C 9706   0.226   1.515  10.591  0.1567  0.0486 -0.6295
  652TMC3     O 9707   0.271   1.522  10.705 -0.5351  0.3759  1.1046
  652TMC3     H 9708   0.001   1.376  10.504  1.6833  1.2156 -1.9378
  652TMC3    H1 9709   0.148   1.727  10.716  1.3341 -1.0773 -0.9616
  652TMC3    H2 9710   4.474   1.628  10.690  0.4061 -0.9182  1.8332
  652TMC3    C7 9711   4.645   1.788  10.814 -0.0875 -0.2126  0.3461
  652TMC3    C8 9712   4.502   1.393  10.600 -0.6095  0.5180 -0.0173
  652TMC3    O1 9713   4.526   1.786  10.856  0.1810 -0.3535  0.5507
  652TMC3    O2 9714   4.518   1.315  10.504 -0.5397 -0.6669 -0.1200
  653MPD2     C 9715   3.213   1.311  17.693  0.0642  0.1671 -0.4669
  653MPD2    C1 9716   3.187   1.423  17.617  0.1182 -0.3577  0.4192
  653MPD2    C2 9717   3.125   1.391  17.497  0.4229 -0.5675  0.8341
  653MPD2    C3 9718   3.099   1.258  17.464 -0.6544  0.0118  0.0022
  653MPD2    C4 9719   3.134   1.154  17.544 -0.5725 -0.3541 -0.5841
  653MPD2    C5 9720   3.184   1.192  17.662  0.1104 -0.0976  0.1683
  653MPD2     H 9721   3.093   1.471  17.432  2.6938  0.1812  0.6356
  653MPD2    H1 9722   3.110   1.049  17.535  3.0339 -1.2449  0.1192
  653MPD2    H2 9723   3.249   1.320   0.049 -2.2241 -1.5288  0.4809
  653MPD2    H3 9724   3.201   1.113  17.733  0.4792  0.6147  0.8715
  653MPD2     N 9725   3.031   1.231  17.342 -0.2525  0.0937  0.0255
  653MPD2    H5 9726   2.997   1.314  17.294 -0.0286 -0.5862 -1.3055
  653MPD2    N1 9727   3.215   1.558  17.650 -1.2442  0.1530  0.4108
  653MPD2    H7 9728   3.197   1.623  17.574  0.4828 -1.3415 -1.2889
  654TMC3    C1 9729   2.913   1.094  17.178  0.7337  0.0834  0.0979
  654TMC3    C2 9730   2.811   1.187  17.161  0.1629 -0.2261 -0.4403
  654TMC3    C3 9731   2.730   1.171  17.056 -0.5621  0.5495 -0.0046
  654TMC3    C4 9732   2.935   0.990  17.096 -0.6148 -0.0893 -0.1202
  654TMC3    C5 9733   2.847   0.976  16.995  0.4557  0.4174 -0.5695
  654TMC3    C6 9734   2.748   1.070  16.969  0.2562 -0.0807  0.0509
  654TMC3     C 9735   3.017   1.102  17.283  0.0628  0.0405  0.3074
  654TMC3     O 9736   3.068   0.999  17.327 -0.3349 -0.1455  0.6632
  654TMC3     H 9737   2.797   1.266  17.234 -1.3194  1.0306 -2.0749
  654TMC3    H1 9738   3.011   0.916  17.117  0.7118  0.6931 -2.1342
  654TMC3    H2 9739   2.689   1.057  16.879 -0.3199 -1.0657  0.5668
  654TMC3    C7 9740   2.849   0.854  16.916  0.0719  0.2548 -0.9876
  654TMC3    C8 9741   2.658   1.289  17.013 -0.4795 -0.4058  0.1200
  654TMC3    O1 9742   2.825   0.893  16.802  0.6820  0.2297  0.0889
  654TMC3    O2 9743   2.569   1.331  17.085  0.6490 -1.1083 -0.6407
  655MPD2     C 9744   4.576   1.699  15.576 -0.7713 -0.7076  0.4802
  655MPD2    C1 9745   4.503   1.812  15.556 -0.0840  0.1004 -0.3471
  655MPD2    C2 9746   4.459   1.842  15.428 -0.6499  0.0025  0.2125
  655MPD2    C3 9747   4.506   1.771  15.321 -1.0401  0.0557 -0.2482
  655MPD2    C4 9748   4.574   1.655  15.343  0.0531 -0.3712 -0.1584
  655MPD2    C5 9749   4.612   1.618  15.469  0.0051  0.2160 -0.4904
  655MPD2     H 9750   4.400   1.932  15.415  0.6715  0.6905 -1.0986
  655MPD2    H1 9751   4.605   1.595  15.258  1.7963  0.6845 -0.2713
  655MPD2    H2 9752   4.600   1.668  15.677  2.2897 -0.1161 -0.0744
  655MPD2    H3 9753   4.672   1.530  15.486 -0.8167 -0.9948 -3.9608
  655MPD2     N 9754   4.481   1.798  15.180 -0.4834  0.4356  0.4354
  655MPD2    H5 9755   4.528   1.736  15.115 -1.2067  0.4065 -0.0620
  655MPD2    N1 9756   4.458   1.896  15.656 -0.0904 -0.8141 -0.7639
  655MPD2    H7 9757   4.391   1.966  15.625 -0.6246 -0.7280  0.5853
  656TMC3    C1 9758   4.378   1.964  15.866  0.6616 -0.2015  1.3980
  656TMC3    C2 9759   4.288   1.905  15.953  0.7820 -0.7238  0.3846
  656TMC3    C3 9760   4.158   1.956  15.960  0.1857 -0.8033  0.4949
  656TMC3    C4 9761   4.344   2.079  15.804  0.1641  0.2094  0.2169
  656TMC3    C5 9762   4.213   2.123  15.801 -0.4690  0.2664  0.3167
  656TMC3    C6 9763   4.120   2.069  15.884  0.2067 -0.4850  0.2246
  656TMC3     C 9764   4.459   1.869  15.792 -0.2816  0.1299  0.0381
  656TMC3     O 9765   4.493   1.762  15.841 -0.2040 -0.3508 -0.9615
  656TMC3     H 9766   4.312   1.813  16.005  0.3743 -0.5700  0.8472
  656TMC3    H1 9767   4.410   2.129  15.733 -0.1401 -0.3174 -0.4376
  656TMC3    H2 9768   4.018   2.106  15.888  0.4851  0.1827  1.4195
  656TMC3    C7 9769   4.174   2.133  15.665  0.4468 -0.1829  0.3463
  656TMC3    C8 9770   4.085   1.932  16.083  0.4157 -0.1262  0.0630
  656TMC3    O1 9771   4.247   2.080  15.579 -0.4113  0.6740  0.0565
  656TMC3    O2 9772   4.112   1.823  16.136  0.1370 -0.1270  0.3556
  657TMC3    C1 9773   3.411   1.268  14.924 -0.6786 -0.2388  0.3173
  657TMC3    C2 9774   3.454   1.307  15.048  0.4789 -0.1373 -0.0697
  657TMC3    C3 9775   3.382   1.404  15.116 -0.1929  0.7386  0.3272
  657TMC3    C4 9776   3.291   1.309  14.872 -0.0011 -0.3510 -1.3159
  657TMC3    C5 9777   3.233   1.410  14.942  0.3810  0.1707 -0.2739
  657TMC3    C6 9778   3.268   1.455  15.059  0.1043  0.0878  0.1752
  657TMC3     C 9779   3.502   1.176  14.847  0.0095 -0.4553 -0.1286
  657TMC3     O 9780   3.454   1.102  14.758 -0.7048 -0.3957  0.2289
  657TMC3     H 9781   3.533   1.246  15.090 -1.3170 -0.9260  2.1251
  657TMC3    H1 9782   3.275   1.292  14.766 -2.3902  0.5368 -1.0724
  657TMC3    H2 9783   3.221   1.543  15.101 -0.4047 -0.6549  1.1717
  657TMC3    C7 9784   3.121   1.469  14.869  0.3105 -0.1753 -0.0250
  657TMC3    C8 9785   3.403   1.436  15.257  0.1447 -0.6810 -0.3569
  657TMC3    O1 9786   3.104   1.589  14.889  0.1098  0.3263 -0.3518
  657TMC3    O2 9787   3.319   1.506  15.313 -0.2651 -0.3204  0.5740
  658MPD2     C 9788   0.015   1.512  14.757  0.2751  0.7248 -0.1465
  658MPD2    C1 9789   4.659   1.571  14.683 -0.2575 -0.3354 -0.6681
  658MPD2    C2 9790   4.625   1.522  14.560 -0.0826 -0.2614  0.6523
  658MPD2    C3 9791   4.687   1.405  14.513 -0.1586 -0.4363  0.6687
  658MPD2    C4 9792   0.045   1.346  14.587 -0.0433  0.2674 -0.6410
  658MPD2    C5 9793   0.076   1.404  14.707 -1.1574 -0.4615 -0.3016
  658MPD2     H 9794   4.558   1.574  14.493  1.0104  0.2243 -0.0630
  658MPD2    H1 9795   0.094   1.257  14.551  1.7362  0.7223  0.6508
  658MPD2    H2 9796   0.041   1.562  14.850 -2.0827  2.3561 -0.3618
  658MPD2    H3 9797   0.155   1.365  14.771 -0.6355  0.6596 -0.2783
  658MPD2     N 9798   4.646   1.351  14.391  0.4167  0.3024 -0.2458
  658MPD2    H5 9799   4.594   1.411  14.328 -0.9213  0.9227  1.4273
  658MPD2    N1 9800   4.595   1.681  14.743 -0.4785  0.1793 -0.6167
  658MPD2    H7 9801   4.641   1.708  14.829  0.6052  1.9747 -1.7636
  659TMC3    C1 9802   4.435   1.839  14.783  0.0385 -0.4106  0.1425
  659TMC3    C2 9803   4.468   1.838  14.912 -0.0677  0.5237 -0.2184
  659TMC3    C3 9804   4.400   1.919  14.999 -0.2773  0.3310  0.3690
  659TMC3    C4 9805   4.331   1.917  14.737 -0.1035  0.1823  0.8927
  659TMC3    C5 9806   4.268   1.998  14.827 -0.4725 -0.5321 -0.0345
  659TMC3    C6 9807   4.307   2.011  14.954 -0.2822  0.5100  0.1091
  659TMC3     C 9808   4.483   1.740  14.692  0.8432 -0.4330  0.7615
  659TMC3     O 9809   4.409   1.708  14.601  0.7394 -0.1558  0.6015
  659TMC3     H 9810   4.545   1.773  14.951 -3.4527 -2.3173  1.7335
  659TMC3    H1 9811   4.300   1.918  14.633  0.4047 -2.9778  0.7329
  659TMC3    H2 9812   4.247   2.065  15.026 -2.0341  0.9122 -1.6726
  659TMC3    C7 9813   4.133   2.033  14.805  0.5284  0.0985  0.0407
  659TMC3    C8 9814   4.411   1.908  15.140  0.8003 -0.3596  1.2132
  659TMC3    O1 9815   4.079   2.096  14.894  0.3236  0.0664 -0.4837
  659TMC3    O2 9816   4.348   1.988  15.210  0.5052 -0.5481  0.3991
  660MPD2     C 9817   2.036   4.566  12.793 -0.3498  0.2555  0.2020
  660MPD2    C1 9818   1.979   4.689  12.817 -0.7671  0.2213 -0.1994
  660MPD2    C2 9819   1.924   4.712  12.945 -0.0507  0.5477  0.6306
  660MPD2    C3 9820   1.918   4.610  13.040 -0.1269  0.2929  0.5569
  660MPD2    C4 9821   1.984   4.487  13.006  0.2379  0.5353 -0.7252
  660MPD2    C5 9822   2.050   4.467  12.888 -0.2772 -0.4900  0.2529
  660MPD2     H 9823   1.880   0.072  12.967  0.2878  1.0027 -0.6852
  660MPD2    H1 9824   1.979   4.404  13.076  0.6902  1.3272  0.2613
  660MPD2    H2 9825   2.075   4.549  12.693  0.9056  0.1660  0.6975
  660MPD2    H3 9826   2.084   4.369  12.858 -0.9150 -0.9220  0.9425
  660MPD2     N 9827   1.869   4.613  13.176  0.0172 -0.6298 -0.1662
  660MPD2    H5 9828   1.884   4.527  13.228 -1.1642  0.0461  1.2959
  660MPD2    N1 9829   1.972   0.045  12.714 -0.1966 -0.2110 -0.0312
  660MPD2    H7 9830   1.997   0.004  12.625  1.6283  0.3432  0.2102
  661TMC3    C1 9831   1.919   0.248  12.599  0.9117 -0.9700 -0.1047
  661TMC3    C2 9832   2.017   0.247  12.507 -0.4311  0.1925 -0.0260
  661TMC3    C3 9833   2.018   0.340  12.409  0.4011 -0.3512  0.6240
  661TMC3    C4 9834   1.825   0.348  12.594  0.9534  0.1477 -1.1064
  661TMC3    C5 9835   1.831   0.443  12.499 -0.5543 -0.2562 -0.7632
  661TMC3    C6 9836   1.921   0.435  12.403  0.4116 -0.5452 -0.0386
  661TMC3     C 9837   1.916   0.170  12.724 -0.2527 -0.3210 -0.5304
  661TMC3     O 9838   1.874   0.238  12.819 -0.1634 -0.8468 -0.0253
  661TMC3     H 9839   2.100   0.180  12.523 -0.7984 -0.1805  0.3297
  661TMC3    H1 9840   1.749   0.354  12.671  2.5035 -2.2939  0.6148
  661TMC3    H2 9841   1.932   0.510  12.326  1.8209 -1.8457 -1.1056
  661TMC3    C7 9842   1.703   0.479  12.440 -0.5238 -0.4668 -0.1204
  661TMC3    C8 9843   2.110   0.329  12.292 -0.5892 -0.4887  0.8445
  661TMC3    O1 9844   1.622   0.510  12.527 -0.5974  0.2940 -0.0478
  661TMC3    O2 9845   2.110   0.431  12.225 -0.3821  0.3315  0.3448
  662MPD2     C 9846   2.671   0.482  16.844  0.1593 -0.4111  0.2581
  662MPD2    C1 9847   2.716   0.400  16.935  0.0271 -0.2391  0.7189
  662MPD2    C2 9848   2.682   0.418  17.063  0.6079 -0.5110 -0.0015
  662MPD2    C3 9849   2.593   0.523  17.104 -0.3200  0.6729 -0.5052
  662MPD2    C4 9850   2.536   0.600  17.006  0.0606  0.6503 -1.0469
  662MPD2    C5 9851   2.580   0.581  16.877  0.4114  0.4705  0.6809
  662MPD2     H 9852   2.731   0.348  17.130 -0.0900 -0.9585  0.0426
  662MPD2    H1 9853   2.463   0.677  17.024 -0.0162  0.0499  1.2154
  662MPD2    H2 9854   2.706   0.463  16.744 -2.3803  1.5869 -1.0066
  662MPD2    H3 9855   2.543   0.645  16.797 -1.1089 -0.7870  0.3804
  662MPD2     N 9856   2.564   0.554  17.241 -0.3776 -0.0924  0.0418
  662MPD2    H5 9857   2.494   0.626  17.258  0.3447  0.6827 -0.2680
  662MPD2    N1 9858   2.811   0.297  16.911 -0.3955  0.4869 -0.0629
  662MPD2    H7 9859   2.842   0.254  16.997 -0.2861 -0.2353 -0.4659
  663TMC3    C1 9860   2.922   0.122  16.814  0.5698  0.5431 -0.2526
  663TMC3    C2 9861   2.930   0.082  16.942 -0.1177 -0.3186  0.4762
  663TMC3    C3 9862   2.943   4.692  16.968 -0.2881 -0.2578  0.1995
  663TMC3    C4 9863   2.926   0.029  16.710 -0.1259  0.5772  0.2577
  663TMC3    C5 9864   2.924   4.634  16.741 -0.2938  0.6486 -0.1459
  663TMC3    C6 9865   2.915   4.599  16.871  0.1479 -0.4081 -0.3710
  663TMC3     C 9866   2.860   0.254  16.793  0.0585  0.2554 -0.3879
  663TMC3     O 9867   2.839   0.292  16.677  0.5314  0.0934  0.1769
  663TMC3     H 9868   2.989   0.141  17.012 -0.1924 -0.1972  0.4364
  663TMC3    H1 9869   2.904   0.059  16.608 -1.1161 -0.0767  0.2777
  663TMC3    H2 9870   2.943   4.497  16.896 -0.0607 -0.0906  1.1688
  663TMC3    C7 9871   2.948   4.529  16.637 -0.3971 -0.5246 -0.3941
  663TMC3    C8 9872   3.068   4.657  17.035  0.3328 -0.8220  0.3314
  663TMC3    O1 9873   3.046   4.547  16.565 -0.1639 -0.3126  0.2907
  663TMC3    O2 9874   3.161   4.641  16.954 -0.0430  0.7891  0.8382
  664MPD2     C 9875   0.872   2.807  17.528 -0.2988  0.0844 -0.1337
  664MPD2    C1 9876   0.955   2.882  17.605  0.0549  0.3692  0.0748
  664MPD2    C2 9877   0.933   2.882  17.745  0.8720 -0.3879  0.2491
  664MPD2    C3 9878   0.839   2.812   0.058  0.0639 -0.5191  0.7539
  664MPD2    C4 9879   0.764   2.733  17.722  0.2360 -0.4305 -0.1413
  664MPD2    C5 9880   0.780   2.729  17.590  0.0032  0.2311  0.6998
  664MPD2     H 9881   0.997   2.944   0.060 -0.2960  1.5213 -0.4898
  664MPD2    H1 9882   0.698   2.660   0.020 -0.2931 -0.2172 -0.5638
  664MPD2    H2 9883   0.875   2.812  17.420 -0.6572  3.4164  0.0237
  664MPD2    H3 9884   0.715   2.657  17.542  0.0275  0.5249  0.2251
  664MPD2     N 9885   0.824   2.823   0.203  0.3730 -0.4595 -0.2301
  664MPD2    H5 9886   0.898   2.878   0.245 -0.3129  0.2787  0.0028
  664MPD2    N1 9887   1.047   2.979  17.550  0.4526 -0.5275  0.5080
  664MPD2    H7 9888   1.106   3.032  17.613  1.0621 -0.8501  0.2024
  665TMC3    C1 9889   0.736   2.789   0.414  0.1254  0.1947  0.6117
  665TMC3    C2 9890   0.622   2.819   0.484 -0.0652 -0.4436 -0.2983
  665TMC3    C3 9891   0.648   2.864   0.608 -0.2560 -0.0989 -0.6574
  665TMC3    C4 9892   0.866   2.808   0.460  0.1881 -0.1080 -0.6066
  665TMC3    C5 9893   0.877   2.849   0.592  0.0271  0.6051  0.4356
  665TMC3    C6 9894   0.768   2.876   0.668 -0.2862  0.0925  0.5596
  665TMC3     C 9895   0.717   2.768   0.276 -0.6856 -0.8498  0.5166
  665TMC3     O 9896   0.608   2.725   0.239  0.5412  0.5150  0.2924
  665TMC3     H 9897   0.528   2.789   0.441  0.2011 -0.1711 -1.0876
  665TMC3    H1 9898   0.952   2.774   0.405  0.3914  0.7483 -0.8091
  665TMC3    H2 9899   0.774   2.919   0.767  0.9962  1.2247 -0.0155
  665TMC3    C7 9900   1.008   2.901   0.624  0.8505  0.1377  0.1245
  665TMC3    C8 9901   0.535   2.869   0.699  0.2931  0.3694  0.5991
  665TMC3    O1 9902   1.076   2.910   0.522  0.5780 -0.2801  0.1913
  665TMC3    O2 9903   0.557   2.836   0.814  0.5364 -0.3299  0.5727
  666TMC3    C1 9904   0.652   2.593  10.143  0.0881  0.0918  1.4199
  666TMC3    C2 9905   0.692   2.533  10.259 -0.6347 -0.0933  0.4399
  666TMC3    C3 9906   0.749   2.610  10.355  0.1372 -0.1363  0.1756
  666TMC3    C4 9907   0.666   2.723  10.119  0.1792 -0.5416  1.0837
  666TMC3    C5 9908   0.717   2.801  10.219  0.0326 -0.3341  0.6010
  666TMC3    C6 9909   0.761   2.746  10.341  0.1786 -0.3120 -0.2133
  666TMC3     C 9910   0.530   2.541  10.073  0.2073  0.0704 -0.1374
  666TMC3     O 9911   0.525   2.562   9.950  0.2957  0.8504 -0.1981
  666TMC3     H 9912   0.655   2.433  10.281 -3.5101  0.9173  0.2153
  666TMC3    H1 9913   0.622   2.768  10.031  1.3009  0.9034  1.2556
  666TMC3    H2 9914   0.804   2.808  10.419 -0.0004  2.5123 -2.3680
  666TMC3    C7 9915   0.649   2.926  10.230  0.3994 -0.5525  0.2037
  666TMC3    C8 9916   0.776   2.546  10.479 -0.8498  0.6852 -0.5349
  666TMC3    O1 9917   0.592   2.943  10.339 -0.3290  0.0589  0.1986
  666TMC3    O2 9918   0.713   2.442  10.495 -0.0465  0.0670 -0.2345
  667MPD2     C 9919   1.877   2.954  14.553  0.4281 -0.3849 -0.0719
  667MPD2    C1 9920   1.748   2.937  14.601  0.7498 -0.1416 -0.4737
  667MPD2    C2 9921   1.690   2.812  14.595  0.0863  0.2694  0.1524
  667MPD2    C3 9922   1.765   2.706  14.545 -0.0644  0.7788  0.2548
  667MPD2    C4 9923   1.894   2.724  14.497 -0.3532  0.0217  0.3990
  667MPD2    C5 9924   1.947   2.853  14.500 -0.2890  0.5659 -0.3910
  667MPD2     H 9925   1.590   2.808  14.636  0.5246 -1.6366  1.0480
  667MPD2    H1 9926   1.952   2.641  14.459  1.7406  0.4796  2.6572
  667MPD2    H2 9927   1.920   3.053  14.559  0.5303 -0.4061 -0.4437
  667MPD2    H3 9928   2.045   2.872  14.459 -0.0900  1.5826  0.5538
  667MPD2     N 9929   1.702   2.574  14.547  0.1449  0.6896 -0.2212
  667MPD2    H5 9930   1.745   2.493  14.503  0.7170  0.5346  0.6171
  667MPD2    N1 9931   1.670   3.041  14.656 -0.1181 -0.1892 -0.2737
  667MPD2    H7 9932   1.585   3.024  14.709 -0.2249  1.1807 -0.0003
  668TMC3    C1 9933   1.695   3.228  14.777 -0.0702  0.2184  0.4602
  668TMC3    C2 9934   1.710   3.360  14.790 -0.0214 -0.0720 -0.8604
  668TMC3    C3 9935   1.699   3.411  14.915  0.1565 -0.4801 -0.8313
  668TMC3    C4 9936   1.685   3.142  14.885 -0.6800  0.1137 -0.1137
  668TMC3    C5 9937   1.674   3.196  15.014 -0.3469 -0.3000  0.1181
  668TMC3    C6 9938   1.676   3.337  15.025  0.1660  0.0702 -0.7482
  668TMC3     C 9939   1.701   3.171  14.647 -0.6089 -0.1299 -0.3457
  668TMC3     O 9940   1.772   3.232  14.564  0.0841  0.0744 -0.2323
  668TMC3     H 9941   1.714   3.411  14.694  1.6442  0.0306 -0.7244
  668TMC3    H1 9942   1.697   3.035  14.877  0.4175  0.1798  0.5308
  668TMC3    H2 9943   1.658   3.381  15.122 -0.3322 -3.0473  0.5759
  668TMC3    C7 9944   1.634   3.122  15.132 -0.6007 -0.9443  1.0810
  668TMC3    C8 9945   1.741   3.544  14.939 -0.2363  0.5302 -0.3881
  668TMC3    O1 9946   1.672   3.151  15.243 -0.1448 -0.6911  0.6100
  668TMC3    O2 9947   1.713   3.590  15.051  0.2963 -0.1135  0.3075
  669TMC3    C1 9948   4.259   3.051  14.747 -0.2225 -0.2075 -0.0413
  669TMC3    C2 9949   4.144   3.011  14.684 -0.6921 -0.3777  0.3129
  669TMC3    C3 9950   4.144   3.021  14.548  1.3540  0.5065 -0.2318
  669TMC3    C4 9951   4.375   3.064  14.682 -0.6563 -0.5286 -0.8001
  669TMC3    C5 9952   4.373   3.046  14.544  0.1064 -0.0094  0.0066
  669TMC3    C6 9953   4.257   3.027  14.472 -0.2984 -0.2680  0.3953
  669TMC3     C 9954   4.270   2.980  14.877  0.0584  0.2664 -0.1698
  669TMC3     O 9955   4.160   2.944  14.923 -0.3554  0.2197 -0.4977
  669TMC3     H 9956   4.052   2.999  14.741 -0.8758 -0.0427  0.0893
  669TMC3    H1 9957   4.473   3.088  14.723 -1.4926  0.2393  0.7244
  669TMC3    H2 9958   4.252   3.027  14.364  2.5073 -0.3841  0.2828
  669TMC3    C7 9959   4.497   3.069  14.465 -0.2513 -0.7130 -0.5389
  669TMC3    C8 9960   4.028   2.987  14.475  0.0123 -0.1899  0.3588
  669TMC3    O1 9961   4.575   3.151  14.502  0.4079 -0.1986 -0.2375
  669TMC3    O2 9962   4.043   2.897  14.393  0.3981  0.1007 -0.1829
  670MPD2     C 9963   2.504   0.791  14.012 -0.2528 -1.1004 -0.1804
  670MPD2    C1 9964   2.570   0.672  14.002  0.4934 -0.8220  0.1039
  670MPD2    C2 9965   2.566   0.585  14.109  0.4159  0.5138  0.5271
  670MPD2    C3 9966   2.525   0.634  14.234 -0.0783 -0.3555  0.6619
  670MPD2    C4 9967   2.464   0.760  14.244 -0.0797 -0.3337  0.6622
  670MPD2    C5 9968   2.449   0.834  14.136  0.2617 -0.7763 -0.2739
  670MPD2     H 9969   2.623   0.494  14.101  1.8257  1.3954  0.5341
  670MPD2    H1 9970   2.434   0.799  14.340 -2.3876 -0.5475  0.0232
  670MPD2    H2 9971   2.496   0.863  13.932  0.1690 -0.4015  0.4112
  670MPD2    H3 9972   2.396   0.928  14.143 -0.0026 -0.7348 -2.6347
  670MPD2     N 9973   2.544   0.553  14.345 -0.6616  0.6484 -0.4029
  670MPD2    H5 9974   2.583   0.460  14.336  0.0766  1.2113 -2.8585
  670MPD2    N1 9975   2.637   0.649  13.881 -0.1481 -0.0736  0.0014
  670MPD2    H7 9976   2.631   0.722  13.810  2.2781 -0.3452 -0.4878
  671TMC3    C1 9977   2.577   0.503  14.574  0.3799 -0.0673  0.5531
  671TMC3    C2 9978   2.702   0.501  14.628 -0.6331 -0.2428  0.1679
  671TMC3    C3 9979   2.726   0.410  14.729  0.2225 -0.3695  0.4018
  671TMC3    C4 9980   2.490   0.407  14.589 -0.5111  0.2199  0.1715
  671TMC3    C5 9981   2.523   0.310  14.682  0.2578 -0.1801  0.9739
  671TMC3    C6 9982   2.631   0.321  14.759  0.1420  0.0299 -0.6889
  671TMC3     C 9983   2.557   0.603  14.474 -1.0489  0.5624  0.3566
  671TMC3     O 9984   2.570   0.721  14.503 -0.4030  0.3713 -0.4084
  671TMC3     H 9985   2.775   0.581  14.622 -2.3985  1.2745 -1.1053
  671TMC3    H1 9986   2.394   0.415  14.538 -0.3106  0.1090 -0.2235
  671TMC3    H2 9987   2.658   0.240  14.826  0.9957  0.7486 -0.1716
  671TMC3    C7 9988   2.456   0.183  14.668 -0.0430  0.4658 -0.1349
  671TMC3    C8 9989   2.858   0.359  14.719 -0.3882 -0.1404  0.0451
  671TMC3    O1 9990   2.475   0.106  14.761 -0.0369  0.0087 -0.2661
  671TMC3    O2 9991   2.908   0.385  14.612  0.1207 -0.1356  0.3579
  672MPD2     C 9992   2.711   0.666   1.062  0.1011  0.9233 -0.7817
  672MPD2    C1 9993   2.821   0.698   0.989 -0.3309 -0.1062  0.8886
  672MPD2    C2 9994   2.932   0.734   1.055  0.0169 -0.2327  0.5807
  672MPD2    C3 9995   2.934   0.749   1.194 -0.2572  0.0223 -0.8141
  672MPD2    C4 9996   2.836   0.695   1.268 -0.1180  0.3443  0.7086
  672MPD2    C5 9997   2.724   0.659   1.200  0.0586 -0.7645  0.1018
  672MPD2     H 9998   3.009   0.788   1.002 -0.6434 -1.6228 -1.7736
  672MPD2    H1 9999   2.847   0.679   1.375  0.2182 -1.2804  0.4258
  672MPD2    H210000   2.613   0.642   1.022  0.1038  1.1952 -0.9561
  672MPD2    H310001   2.647   0.614   1.263  0.2433  0.5244  1.2599
  672MPD2     N10002   3.032   0.811   1.270  0.4911  0.1273  0.3712
  672MPD2    H510003   3.031   0.791   1.370 -0.6088 -0.0537  0.3211
  672MPD2    N110004   2.823   0.697   0.850  0.5649 -0.9623 -0.7299
  672MPD2    H710005   2.915   0.709   0.809  0.9975 -1.9148 -0.0335
  673TMC3    C110006   2.762   0.687   0.629 -0.2802  0.1191  0.2393
  673TMC3    C210007   2.895   0.646   0.598  0.3122 -0.8227  0.1464
  673TMC3    C310008   2.943   0.674   0.473 -0.0695  0.6412  0.2814
  673TMC3    C410009   2.691   0.769   0.549 -0.0503 -0.3275 -0.4663
  673TMC3    C510010   2.757   0.808   0.430  0.1006  0.3485  0.2061
  673TMC3    C610011   2.875   0.751   0.389  0.2325 -0.8719  0.2095
  673TMC3     C10012   2.716   0.681   0.766 -0.5914 -0.1877  0.0150
  673TMC3     O10013   2.594   0.676   0.786  0.9752  0.2240 -0.1090
  673TMC3     H10014   2.931   0.580   0.677  0.1221 -1.5978 -0.4133
  673TMC3    H110015   2.605   0.824   0.587 -0.5183 -1.4251  0.0548
  673TMC3    H210016   2.917   0.768   0.290  3.9549 -0.9743  1.7896
  673TMC3    C710017   2.684   0.883   0.339  0.4252  0.4374  0.1478
  673TMC3    C810018   3.073   0.623   0.419  0.4508  0.2199  1.2177
  673TMC3    O110019   2.713   0.881   0.221  0.3057  0.2084 -0.2116
  673TMC3    O210020   3.082   0.620   0.295 -0.2085  0.0789 -0.4988
  674MPD2     C10021   2.480   1.574  17.490  0.4259  0.7545  0.4109
  674MPD2    C110022   2.464   1.444  17.525  0.0858 -0.1817  0.1874
  674MPD2    C210023   2.347   1.392  17.572 -0.3241 -0.7240  0.0951
  674MPD2    C310024   2.251   1.484  17.614 -0.0291  0.1850 -0.6305
  674MPD2    C410025   2.270   1.617  17.596  0.0163  0.1067 -0.5497
  674MPD2    C510026   2.376   1.660  17.523  0.4087  0.5238  0.0394
  674MPD2     H10027   2.342   1.284  17.581  0.9338 -0.9042 -1.3988
  674MPD2    H110028   2.197   1.690  17.629  0.8460  1.1199 -0.9563
  674MPD2    H210029   2.565   1.615  17.435 -0.1566 -0.0096 -1.0686
  674MPD2    H310030   2.384   1.766  17.499  1.7012  1.0356  2.6845
  674MPD2     N10031   2.144   1.424  17.680  0.2233  0.3645 -0.3873
  674MPD2    H510032   2.145   1.325  17.700  0.2986  0.1528 -1.4328
  674MPD2    N110033   2.575   1.367  17.500  0.1696 -0.5226 -0.3957
  674MPD2    H710034   2.660   1.415  17.470 -1.2803  2.4003  0.1178
  675TMC3    C110035   2.716   1.192  17.545  0.1635  0.6811  0.0386
  675TMC3    C210036   2.722   1.060  17.531 -0.6021  0.5791  0.1469
  675TMC3    C310037   2.763   0.975  17.634  0.0369 -0.2428 -0.4626
  675TMC3    C410038   2.768   1.248  17.660 -0.3248  0.1299  0.3882
  675TMC3    C510039   2.836   1.167   0.004  0.2900 -0.4904 -0.2915
  675TMC3    C610040   2.841   1.028  17.741  0.8078  0.1295 -0.0813
  675TMC3     C10041   2.584   1.232  17.518  0.3530  0.7782 -0.4519
  675TMC3     O10042   2.504   1.140  17.525  0.1586  0.0200 -0.2795
  675TMC3     H10043   2.658   1.006  17.463 -0.4507  0.2329  0.2802
  675TMC3    H110044   2.753   1.354  17.677  0.1212  0.4198 -0.9861
  675TMC3    H210045   2.891   0.967   0.069  2.4239  2.6202  0.8644
  675TMC3    C710046   2.907   1.222   0.123 -0.7628  0.0309  0.0854
  675TMC3    C810047   2.778   0.835  17.596 -0.0552 -0.0851  0.0243
  675TMC3    O110048   2.971   1.144   0.191  0.5283 -0.1293 -0.4259
  675TMC3    O210049   2.791   0.810  17.473 -0.2360  0.1417  0.0429
  676MPD2     C10050   0.560   4.057  11.177 -0.2151  0.4360 -0.1798
  676MPD2    C110051   0.505   3.986  11.284  0.1368  0.0718  0.0993
  676MPD2    C210052   0.526   3.848  11.291 -1.0497  1.3781  0.0560
  676MPD2    C310053   0.612   3.789  11.200  0.0436  0.3975 -0.4160
  676MPD2    C410054   0.679   3.871  11.104  0.4160 -0.1219  0.3063
  676MPD2    C510055   0.658   4.007  11.092  0.0727 -0.0255 -0.1997
  676MPD2     H10056   0.480   3.783  11.365 -2.0353 -0.0669 -1.8266
  676MPD2    H110057   0.755   3.825  11.042  0.2235 -1.3502  0.9696
  676MPD2    H210058   0.539   4.163  11.165  0.9334  0.4278 -2.2019
  676MPD2    H310059   0.707   4.057  11.009  1.8014 -0.1592  0.7306
  676MPD2     N10060   0.646   3.649  11.189 -0.2601 -0.6049  0.3097
  676MPD2    H510061   0.709   3.619  11.115 -1.2701 -0.5829 -0.5625
  676MPD2    N110062   0.405   4.035  11.376  0.4499  0.2562  0.3183
  676MPD2    H710063   0.381   3.961  11.442 -0.6917  2.0356  1.9031
  677TMC3    C110064   0.223   4.153  11.458 -0.5774 -0.3909  0.4511
  677TMC3    C210065   0.159   4.028  11.454  0.9583 -0.5154 -0.3524
  677TMC3    C310066   0.118   3.974  11.576 -0.4508  0.2116 -1.1973
  677TMC3    C410067   0.244   4.216  11.575 -0.0783 -0.0055 -0.5472
  677TMC3    C510068   0.210   4.164  11.693 -0.3127  0.5684 -0.1114
  677TMC3    C610069   0.136   4.045  11.691  0.4796 -0.6045  0.0617
  677TMC3     C10070   0.340   4.159  11.384  0.3548 -0.4267  0.0537
  677TMC3     O10071   0.370   4.258  11.322 -0.0220 -0.2456  0.4627
  677TMC3     H10072   0.121   3.985  11.363  0.4968 -0.5852 -0.1271
  677TMC3    H110073   0.290   4.314  11.561  0.2753 -0.0895  0.0207
  677TMC3    H210074   0.104   4.008  11.788 -2.7858 -0.5115 -0.9576
  677TMC3    C710075   0.315   4.167  11.792  0.3216 -0.1303 -0.0048
  677TMC3    C810076   0.026   3.859  11.573 -0.0030 -0.9112 -0.5198
  677TMC3    O110077   0.279   4.115  11.895  0.1332  0.2093 -0.6056
  677TMC3    O210078   4.678   3.872  11.487  0.1622  0.0024 -0.1181
  678MPD2     C10079   2.253   3.957   1.311  0.1141  0.5216 -0.0626
  678MPD2    C110080   2.256   3.836   1.249  0.6044  0.1311  0.7104
  678MPD2    C210081   2.144   3.757   1.274  0.1339  0.0086 -0.5171
  678MPD2    C310082   2.034   3.791   1.350 -0.1231  0.7942  0.0379
  678MPD2    C410083   2.047   3.904   1.426  0.3442 -0.1245  0.3074
  678MPD2    C510084   2.154   3.986   1.400  0.0967 -0.0974 -0.4611
  678MPD2     H10085   2.147   3.657   1.233  2.4647  0.1950 -0.8123
  678MPD2    H110086   1.980   3.934   1.505 -0.3121 -1.5501  0.2858
  678MPD2    H210087   2.336   4.026   1.295 -0.3773  0.9407 -0.7914
  678MPD2    H310088   2.156   4.082   1.449  2.0711 -0.2304 -0.2855
  678MPD2     N10089   1.921   3.710   1.347  0.0154 -0.5838 -0.2410
  678MPD2    H510090   1.911   3.634   1.281  1.6525 -0.3600 -0.7340
  678MPD2    N110091   2.368   3.795   1.166 -0.1051 -0.1745 -0.7070
  678MPD2    H710092   2.366   3.706   1.117  1.6076 -1.1634  1.0231
  679TMC3    C110093   2.681   3.656   0.922  0.4377 -0.5045 -0.0357
  679TMC3    C210094   2.586   3.691   1.011 -0.7377  0.0193 -0.8737
  679TMC3    C310095   2.551   3.821   1.014  0.3014 -0.2568 -0.0510
  679TMC3    C410096   2.731   3.744   0.836  0.3323 -0.2718 -0.1992
  679TMC3    C510097   2.692   3.870   0.846  0.1435  0.1086 -0.0083
  679TMC3    C610098   2.611   3.915   0.942  0.6102  0.4516  0.3446
  679TMC3     C10099   2.731   3.523   0.905  0.1897  0.1167 -0.6525
  679TMC3     O10100   2.826   3.519   0.829  0.0381  0.4713  0.2427
  679TMC3     H10101   2.572   3.615   1.087 -1.2165  1.3307  0.3664
  679TMC3    H110102   2.797   3.722   0.753  0.5654  0.1661 -0.1326
  679TMC3    H210103   2.589   4.021   0.947  1.2183  0.5289  1.4597
  679TMC3    C710104   2.757   3.985   0.777  0.0032  0.5308 -1.1720
  679TMC3    C810105   2.472   3.877   1.130 -0.0055 -0.7129 -0.5226
  679TMC3    O110106   2.695   4.079   0.735  0.3130 -0.2537  0.8029
  679TMC3    O210107   2.494   3.996   1.157 -0.2412  0.1631  0.5496
  680MPD2     C10108   1.888   2.190  13.590 -1.1595 -0.7112 -1.0718
  680MPD2    C110109   2.021   2.153  13.631  0.4793  0.0882 -0.3784
  680MPD2    C210110   2.102   2.258  13.673  0.3862  0.6625  0.3796
  680MPD2    C310111   2.069   2.390  13.669  0.3908  0.3098 -0.1579
  680MPD2    C410112   1.940   2.422  13.635 -0.0658 -0.2055  0.2349
  680MPD2    C510113   1.854   2.323  13.586 -0.8061 -0.0242  0.9395
  680MPD2     H10114   2.199   2.222  13.706  0.1619  0.1255  0.4647
  680MPD2    H110115   1.922   2.527  13.614  0.2923  0.0172  1.0188
  680MPD2    H210116   1.818   2.110  13.571 -1.6587 -0.2237 -1.2751
  680MPD2    H310117   1.757   2.348  13.545  0.2991  2.5959 -0.0579
  680MPD2     N10118   2.157   2.495  13.704  0.0760 -0.1941 -0.5047
  680MPD2    H510119   2.116   2.587  13.701 -0.7348 -0.5120  1.1784
  680MPD2    N110120   2.078   2.022  13.639 -0.5938 -0.2937  0.4108
  680MPD2    H710121   2.172   2.017  13.675  0.1246 -0.8743 -1.5693
  681TMC3    C110122   2.092   1.785  13.623 -0.3729 -0.4271  0.0938
  681TMC3    C210123   2.168   1.786  13.737  1.0055 -0.5651 -0.0174
  681TMC3    C310124   2.256   1.681  13.736  1.0146 -0.8774  0.1816
  681TMC3    C410125   2.100   1.698  13.519  0.7224 -0.2912  0.5801
  681TMC3    C510126   2.193   1.597  13.526  0.2167 -0.2377  0.9254
  681TMC3    C610127   2.277   1.598  13.635 -0.2337  0.1381  1.2290
  681TMC3     C10128   2.016   1.903  13.600 -0.4138  0.0327  0.2443
  681TMC3     O10129   1.920   1.898  13.522 -0.3826 -0.3906  0.7874
  681TMC3     H10130   2.143   1.843  13.826 -1.5516 -1.5895 -0.0751
  681TMC3    H110131   2.035   1.725  13.436  0.2342 -1.8671  0.4615
  681TMC3    H210132   2.351   1.520  13.651 -0.4425 -0.4635 -0.7858
  681TMC3    C710133   2.272   1.580  13.409  0.1439 -0.4998 -0.5145
  681TMC3    C810134   2.346   1.657  13.848 -0.0374  0.0326 -0.0476
  681TMC3    O110135   2.391   1.575  13.430 -0.6173  0.1827  0.5605
  681TMC3    O210136   2.407   1.552  13.859  0.3797  0.5849 -0.1744
  682MPD2     C10137   4.464   3.724  10.741  0.5230 -0.5762  0.1770
  682MPD2    C110138   4.436   3.586  10.729  0.6000  0.0780 -0.1574
  682MPD2    C210139   4.371   3.518  10.834 -0.1618  0.1823  0.9128
  682MPD2    C310140   4.348   3.590  10.949  0.0547  0.2951 -0.4863
  682MPD2    C410141   4.385   3.724  10.958  0.2464  0.8569  0.3167
  682MPD2    C510142   4.442   3.789  10.854  0.0477 -0.5112  0.3205
  682MPD2     H10143   4.357   3.412  10.822 -0.0701  0.3259 -0.3931
  682MPD2    H110144   4.369   3.789  11.043  1.0681  0.3837  0.8321
  682MPD2    H210145   4.500   3.787  10.660  1.4564 -0.3268  0.7848
  682MPD2    H310146   4.472   3.893  10.868  0.1896 -0.5591  0.3700
  682MPD2     N10147   4.276   3.539  11.061 -0.5174  0.0778 -0.1003
  682MPD2    H510148   4.274   3.600  11.142  1.4454  2.1268 -1.5968
  682MPD2    N110149   4.481   3.505  10.619 -0.2901  0.3976 -0.0982
  682MPD2    H710150   4.476   3.404  10.628 -0.8863  0.1268 -3.5734
  683TMC3    C110151   4.108   3.423  11.403  0.2467 -0.3504  0.2526
  683TMC3    C210152   4.026   3.322  11.423  0.0693  0.9529  0.3158
  683TMC3    C310153   4.013   3.238  11.315 -0.4633  0.7942 -0.1304
  683TMC3    C410154   4.186   3.455  11.293 -0.0561 -0.2229 -0.4281
  683TMC3    C510155   4.160   3.382  11.190  0.7330 -0.7023  0.6056
  683TMC3    C610156   4.079   3.266  11.194 -0.0316 -0.0668 -0.6099
  683TMC3     C10157   4.156   3.486  11.522  0.0403 -0.5788 -0.1386
  683TMC3     O10158   4.241   3.574  11.502  0.4575  0.0278  0.3224
  683TMC3     H10159   3.960   3.304  11.507 -2.2232  1.2165 -1.4613
  683TMC3    H110160   4.259   3.535  11.293  1.9556 -2.0765 -1.9958
  683TMC3    H210161   4.052   3.213  11.103 -0.5368 -2.6746  1.0787
  683TMC3    C710162   4.207   3.420  11.059 -0.1969  0.1188 -0.6823
  683TMC3    C810163   3.971   3.101  11.345 -0.6433  0.2020 -0.1810
  683TMC3    O110164   4.199   3.331  10.972 -0.2374  0.2530 -0.0812
  683TMC3    O210165   3.892   3.080  11.439  0.4384 -0.0838  0.1315
  684MPD2     C10166   2.845   3.033  16.262  0.2043  0.1341 -0.0825
  684MPD2    C110167   2.819   3.089  16.144  0.2312  0.6692  0.0770
  684MPD2    C210168   2.835   3.227  16.133  0.3460 -0.1135 -0.3070
  684MPD2    C310169   2.888   3.308  16.234 -0.7407  0.6180  0.3106
  684MPD2    C410170   2.924   3.243  16.350 -1.1735  0.4379  0.6823
  684MPD2    C510171   2.902   3.109  16.364 -0.4429 -0.7899 -0.0369
  684MPD2     H10172   2.810   3.275  16.039 -0.1611 -1.2616 -0.7644
  684MPD2    H110173   2.968   3.296  16.433  0.9760  2.3314 -1.6491
  684MPD2    H210174   2.841   2.928  16.287 -3.0182 -0.1522 -1.7985
  684MPD2    H310175   2.932   3.060  16.456 -2.7580 -0.1259  1.0526
  684MPD2     N10176   2.889   3.449  16.228 -0.4430  0.4903 -0.3182
  684MPD2    H510177   2.924   3.494  16.312  0.9509 -0.9477 -0.1384
  684MPD2    N110178   2.780   3.021  16.025 -0.2686 -0.5357 -0.0300
  684MPD2    H710179   2.773   3.073  15.938  0.7389 -1.2801 -0.5504
  685TMC3    C110180   2.770   2.852  15.873  0.1381 -0.1493  0.3168
  685TMC3    C210181   2.690   2.943  15.804 -0.0608  0.1096 -0.1366
  685TMC3    C310182   2.728   2.978  15.677  0.3755 -0.6558  0.0573
  685TMC3    C410183   2.876   2.792  15.820 -0.8192  0.7154 -0.1160
  685TMC3    C510184   2.903   2.821  15.689  0.6741 -0.5500  0.6114
  685TMC3    C610185   2.838   2.919  15.620  0.4334  0.6055  0.6963
  685TMC3     C10186   2.795   2.887  16.010 -0.1016 -0.1999  0.4679
  685TMC3     O10187   2.859   2.813  16.087  0.0672  0.2793 -0.3614
  685TMC3     H10188   2.605   2.989  15.854  0.3962 -0.1853  0.9099
  685TMC3    H110189   2.928   2.722  15.884  2.0356  2.0051 -1.0134
  685TMC3    H210190   2.864   2.943  15.518 -0.5193  0.7937  0.4982
  685TMC3    C710191   3.046   2.810  15.654  0.0794 -0.2919  0.2510
  685TMC3    C810192   2.627   3.046  15.593 -0.2060 -0.1042 -0.4378
  685TMC3    O110193   3.077   2.808  15.538  0.2961  0.2300 -0.3930
  685TMC3    O210194   2.652   3.041  15.471  0.7343 -0.6366 -0.2104
  686MPD2     C10195   4.144   3.670  15.521 -0.3093 -0.4568 -0.3202
  686MPD2    C110196   4.198   3.545  15.547 -0.0519 -0.1495  0.0011
  686MPD2    C210197   4.249   3.463  15.448  0.0183 -0.6245 -0.0840
  686MPD2    C310198   4.252   3.498  15.318  0.4996  0.7052  0.1457
  686MPD2    C410199   4.205   3.628  15.286  0.0299  0.1341  0.0542
  686MPD2    C510200   4.143   3.707  15.386 -0.3640  0.6460 -0.4620
  686MPD2     H10201   4.307   3.375  15.474  1.0359  0.2647  0.6520
  686MPD2    H110202   4.195   3.657  15.183  0.6789 -1.5210 -0.4759
  686MPD2    H210203   4.085   3.732  15.587 -0.6755 -0.1925 -0.8925
  686MPD2    H310204   4.084   3.795  15.366  0.5072  0.5286 -3.5457
  686MPD2     N10205   4.312   3.419  15.213  0.3564 -0.4236 -0.6172
  686MPD2    H510206   4.321   3.464  15.122 -1.2009 -0.0376 -0.5807
  686MPD2    N110207   4.168   3.501  15.678  0.1369  0.4640 -0.9920
  686MPD2    H710208   4.110   3.564  15.733  1.0107  1.2442 -0.9790
  687TMC3    C110209   4.284   3.203  15.321  0.1530  0.1621 -0.2918
  687TMC3    C210210   4.148   3.205  15.342 -0.1232 -0.0961  0.2957
  687TMC3    C310211   4.097   3.133  15.449  0.5502  0.1727  0.2198
  687TMC3    C410212   4.365   3.112  15.386 -0.3682  0.2456  0.1385
  687TMC3    C510213   4.306   3.037  15.484  0.0486  0.0561  0.0088
  687TMC3    C610214   4.171   3.048  15.512 -0.2598  0.3242  0.6295
  687TMC3     C10215   4.346   3.287  15.222 -0.3782  0.3756  0.1997
  687TMC3     O10216   4.413   3.225  15.145  0.0449  0.1623 -0.2294
  687TMC3     H10217   4.091   3.273  15.279 -1.5744 -2.0806 -0.5388
  687TMC3    H110218   4.468   3.107  15.354 -0.4876  3.9179 -0.7552
  687TMC3    H210219   4.123   2.987  15.588 -1.2994  0.4684  0.0854
  687TMC3    C710220   4.379   2.954  15.570  0.1187 -0.1873  0.2199
  687TMC3    C810221   3.965   3.157  15.501 -0.1651 -0.0560 -0.5386
  687TMC3    O110222   4.328   2.921  15.677  0.1936 -0.4905 -0.0805
  687TMC3    O210223   3.894   3.062  15.534  0.0485  0.4396  0.2705
  688MPD2     C10224   3.392   2.216  17.383 -0.0551  0.2463  0.3884
  688MPD2    C110225   3.460   2.104  17.434 -0.0007  0.1346 -0.1808
  688MPD2    C210226   3.590   2.073  17.389 -1.1529  0.0335 -0.1431
  688MPD2    C310227   3.635   2.156  17.283 -0.2036  0.3088  0.6021
  688MPD2    C410228   3.567   2.261  17.237 -0.6712 -0.1485 -0.1328
  688MPD2    C510229   3.449   2.302  17.288 -0.6203 -0.3727  0.2409
  688MPD2     H10230   3.643   1.994  17.440 -1.7416  0.2588  0.8083
  688MPD2    H110231   3.612   2.330  17.167 -1.3928  0.8170  0.3734
  688MPD2    H210232   3.295   2.244  17.423  0.0648  0.8448  0.2568
  688MPD2    H310233   3.409   2.393  17.247  0.3720  0.0307  0.1559
  688MPD2     N10234   3.763   2.134  17.222  0.3375  0.7792 -0.5584
  688MPD2    H510235   3.776   2.177  17.131 -1.7936 -0.2076 -1.3448
  688MPD2    N110236   3.407   2.018  17.533  0.3902 -0.4894  0.3222
  688MPD2    H710237   3.455   1.931  17.554 -2.6036 -1.8690  1.5869
  689TMC3    C110238   3.256   1.963  17.712 -1.2756  0.4059 -0.1160
  689TMC3    C210239   3.205   2.015   0.087  0.0642 -0.1267 -0.0870
  689TMC3    C310240   3.188   1.921   0.192 -0.4659 -0.3502 -0.1129
  689TMC3    C410241   3.281   1.830  17.683 -0.1078 -0.1828  0.0177
  689TMC3    C510242   3.257   1.744   0.044  0.4584  0.9642  0.5100
  689TMC3    C610243   3.215   1.790   0.166  0.0402 -0.3343 -0.0707
  689TMC3     C10244   3.301   2.060  17.616  0.2185  0.4745 -0.1069
  689TMC3     O10245   3.247   2.169  17.621 -0.0651 -0.1821 -0.0787
  689TMC3     H10246   3.190   2.122   0.099 -0.5298 -0.2533  0.3052
  689TMC3    H110247   3.333   1.796  17.594  0.9133  0.3311  0.4115
  689TMC3    H210248   3.214   1.713   0.242  2.2858  0.3589  0.6585
  689TMC3    C710249   3.273   1.601   0.021  0.5145 -0.0013 -0.1948
  689TMC3    C810250   3.123   1.952   0.314 -0.8345  0.8363  0.2838
  689TMC3    O110251   3.300   1.532   0.116  0.4191  0.1725  0.3789
  689TMC3    O210252   3.176   1.906   0.413  0.1445 -0.4307 -0.4074
  690MPD2     C10253   0.840   3.730  16.287 -0.0669 -0.0315 -0.1033
  690MPD2    C110254   0.780   3.778  16.171  0.3529 -0.2307 -0.0123
  690MPD2    C210255   0.850   3.873  16.096  0.4470  0.7366  1.1015
  690MPD2    C310256   0.984   3.901  16.119  0.5756  0.0082  0.1821
  690MPD2    C410257   1.038   3.858  16.241  0.1303  0.1252 -0.5560
  690MPD2    C510258   0.967   3.777  16.317  1.1026  0.6854 -0.8251
  690MPD2     H10259   0.792   3.912  16.013 -0.5573  0.0078  1.4649
  690MPD2    H110260   1.142   3.873  16.268 -0.3743 -0.5183  1.7733
  690MPD2    H210261   0.798   3.653  16.351  1.6643 -0.7134  0.2120
  690MPD2    H310262   1.009   3.736  16.407 -1.3906 -0.5034 -0.1870
  690MPD2     N10263   1.052   3.988  16.026  0.6443  0.3043  0.2093
  690MPD2    H510264   0.997   4.017  15.946 -0.4399 -0.0173  0.8418
  690MPD2    N110265   0.663   3.722  16.109  0.4051  0.0029 -0.4478
  690MPD2    H710266   0.646   3.755  16.014 -0.3170  0.8131 -0.0339
  691TMC3    C110267   0.527   3.539  16.048  0.9197 -0.7291  0.0826
  691TMC3    C210268   0.444   3.615  15.962  0.2386 -0.8532 -0.5353
  691TMC3    C310269   0.429   3.562  15.835 -0.2843 -0.5705 -0.2687
  691TMC3    C410270   0.588   3.422  16.022  0.4843  0.1615 -0.4517
  691TMC3    C510271   0.570   3.375  15.898 -0.7414  0.3626  0.3234
  691TMC3    C610272   0.491   3.443  15.806 -0.0200 -0.6799  0.2028
  691TMC3     C10273   0.601   3.609  16.154 -0.3363 -0.3250 -0.0307
  691TMC3     O10274   0.625   3.545  16.251  0.0018 -0.3268  0.5755
  691TMC3     H10275   0.402   3.712  15.987  1.9129 -0.8351  2.1788
  691TMC3    H110276   0.657   3.369  16.085  0.5565 -0.9161 -1.4403
  691TMC3    H210277   0.516   3.426  15.702  0.9174  1.3523  0.1054
  691TMC3    C710278   0.672   3.286  15.841 -0.0864 -0.2560  0.4102
  691TMC3    C810279   0.354   3.614  15.726  0.2129 -0.4660 -0.3639
  691TMC3    O110280   0.782   3.309  15.879 -0.1835 -0.1314 -0.3005
  691TMC3    O210281   0.342   3.546  15.626 -0.2877  0.9334 -0.4843
  692TMC3    C110282   2.384   0.092  15.768 -0.3987  0.7191 -0.1532
  692TMC3    C210283   2.505   0.124  15.808 -0.5767  0.1116  0.4639
  692TMC3    C310284   2.604   0.030  15.786  0.3666  0.0739 -0.1775
  692TMC3    C410285   2.349   4.700  15.751  0.0444 -0.0128  0.0812
  692TMC3    C510286   2.445   4.604  15.775  0.2998  0.1512  0.4475
  692TMC3    C610287   2.578   4.636  15.789 -0.1041  0.5923  0.3939
  692TMC3     C10288   2.277   0.187  15.784 -0.2907  0.9553  0.3912
  692TMC3     O10289   2.171   0.140  15.825  0.1632  0.1944 -0.1282
  692TMC3     H10290   2.524   0.226  15.841  0.1894 -0.1834  0.9430
  692TMC3    H110291   2.251   4.663  15.725 -0.0534  1.0966 -1.1133
  692TMC3    H210292   2.657   4.570  15.757 -0.2986  0.5342  0.0454
  692TMC3    C710293   2.403   4.465  15.758  0.7751  0.5493  0.0410
  692TMC3    C810294   2.729   0.074  15.836  0.6991  0.2605 -1.2295
  692TMC3    O110295   2.312   4.442  15.684 -0.3249  0.6224 -0.1462
  692TMC3    O210296   2.806   4.726  15.888 -0.7710  0.4402 -0.4790
  693MPD2     C10297   2.191   2.786  11.086  0.1237  0.1856 -0.2990
  693MPD2    C110298   2.105   2.690  11.029 -0.0425 -0.7346  0.1281
  693MPD2    C210299   2.169   2.576  10.985 -0.5507  0.1268  0.7065
  693MPD2    C310300   2.302   2.552  10.996 -0.8544  0.1259 -0.1579
  693MPD2    C410301   2.369   2.643  11.073 -0.6226  0.4884  0.4047
  693MPD2    C510302   2.323   2.761  11.113 -0.4722  0.6930  0.5560
  693MPD2     H10303   2.103   2.502  10.942 -1.0424  0.8752  0.1861
  693MPD2    H110304   2.475   2.630  11.092 -0.6878 -1.8826 -0.8312
  693MPD2    H210305   2.139   2.876  11.115  0.6731  0.8208 -1.3005
  693MPD2    H310306   2.394   2.833  11.150  1.5095 -0.9083 -0.1342
  693MPD2     N10307   2.361   2.431  10.954  0.7980  0.3574 -0.5167
  693MPD2    H510308   2.456   2.409  10.983  0.3753  0.6048  1.0343
  693MPD2    N110309   1.966   2.713  11.049  0.1354 -0.5888  0.1695
  693MPD2    H710310   1.938   2.797  11.100 -0.2245 -0.7344  0.2126
  694TMC3    C110311   1.725   2.673  11.027 -0.0974 -0.3448  0.0166
  694TMC3    C210312   1.640   2.601  10.951 -0.0673 -0.0062 -0.3520
  694TMC3    C310313   1.510   2.573  10.998 -0.0327 -0.4554  0.1312
  694TMC3    C410314   1.691   2.717  11.152 -0.0819 -0.0785  0.0765
  694TMC3    C510315   1.569   2.680  11.199 -0.7891 -0.1406 -0.3015
  694TMC3    C610316   1.473   2.618  11.127  0.0184  0.6705 -0.4730
  694TMC3     C10317   1.869   2.632  11.009 -0.6841  0.2011  0.3771
  694TMC3     O10318   1.876   2.523  10.944  0.1212  0.3403 -0.2574
  694TMC3     H10319   1.663   2.552  10.856 -1.6563  1.9154 -1.7113
  694TMC3    H110320   1.762   2.763  11.220  0.9849  0.3314 -1.3268
  694TMC3    H210321   1.373   2.601  11.166 -0.6667 -0.7553 -2.8760
  694TMC3    C710322   1.540   2.717  11.333 -0.0152  0.2964  0.1437
  694TMC3    C810323   1.414   2.483  10.939 -0.5588  0.8612  0.1527
  694TMC3    O110324   1.587   2.819  11.374  0.3268  0.1144  0.0597
  694TMC3    O210325   1.314   2.464  11.007 -0.1360  0.0401 -0.9231
  695MPD2     C10326   2.908   4.652  13.713  0.6682 -0.1507  0.6888
  695MPD2    C110327   2.863   4.649  13.845 -0.2018  0.0332  0.2788
  695MPD2    C210328   2.727   4.660  13.878 -1.3001  0.6542  0.5000
  695MPD2    C310329   2.636   4.663  13.777  0.8689  0.1402  0.5693
  695MPD2    C410330   2.677   4.655  13.646  0.9060 -0.2482 -0.7372
  695MPD2    C510331   2.812   4.653  13.617 -0.0998 -0.3368  0.6332
  695MPD2     H10332   2.690   4.658  13.980 -0.9351 -0.7054  0.6025
  695MPD2    H110333   2.614   4.647  13.558 -0.6566  1.7877  0.1886
  695MPD2    H210334   3.009   4.647  13.674  0.5329  0.7093  0.2372
  695MPD2    H310335   2.843   4.637  13.514  1.4266 -0.6949  1.1421
  695MPD2     N10336   2.503   4.678  13.817 -0.1903 -0.2499 -0.4081
  695MPD2    H510337   2.474   4.670  13.914 -1.0482 -1.3568 -0.7512
  695MPD2    N110338   2.958   4.647  13.949 -0.0176 -0.0419 -0.2409
  695MPD2    H710339   2.921   4.655  14.043 -0.2235 -1.9694 -0.1593
  696TMC3    C110340   2.282   0.019  13.808  0.1554  0.1801  0.4433
  696TMC3    C210341   2.264   4.700  13.932 -0.2829  0.7532 -0.1003
  696TMC3    C310342   2.145   4.730  13.991 -1.1975  0.0251 -1.1267
  696TMC3    C410343   2.192   0.108  13.759  0.9880  0.4386  0.2628
  696TMC3    C510344   2.082   0.142  13.829  0.2285  0.4779  0.3199
  696TMC3    C610345   2.050   0.080  13.946  0.4584 -0.1799 -0.2987
  696TMC3     C10346   2.402   4.728  13.737 -0.1561  0.5658 -0.2433
  696TMC3     O10347   2.410   0.030  13.623 -0.2496 -0.3925  0.2088
  696TMC3     H10348   2.328   4.621  13.970 -1.6153 -0.5342 -0.5203
  696TMC3    H110349   2.216   0.154  13.664  1.0017 -0.0495  0.0332
  696TMC3    H210350   1.968   0.108  14.010  0.8796  0.6608 -0.1312
  696TMC3    C710351   2.025   0.278  13.811 -0.7355 -0.4852 -0.1561
  696TMC3    C810352   2.153   0.020  14.131  0.5015  0.3478 -0.2381
  696TMC3    O110353   2.020   0.325  13.700 -0.3887 -0.1681  0.0335
  696TMC3    O210354   2.164   0.142  14.155  0.1628 -0.4239  0.0554
  697MPD2     C10355   2.053   1.959  15.792 -0.0519  0.4361  0.6403
  697MPD2    C110356   2.030   1.894  15.671  0.2747 -0.2868  0.2608
  697MPD2    C210357   2.069   1.963  15.557 -0.1627 -0.1499 -0.0042
  697MPD2    C310358   2.090   2.097  15.557 -0.1834 -0.6002  0.7666
  697MPD2    C410359   2.105   2.160  15.677  0.2898  0.2175 -0.8384
  697MPD2    C510360   2.085   2.092  15.798  0.3259  0.2912 -0.1768
  697MPD2     H10361   2.052   1.917  15.460 -0.9064 -1.3499  0.6961
  697MPD2    H110362   2.115   2.268  15.683 -1.3991  0.3958 -1.0614
  697MPD2    H210363   2.038   1.919  15.892  3.1133 -0.8399  0.6118
  697MPD2    H310364   2.090   2.140  15.895 -0.7335 -1.7022  0.8517
  697MPD2     N10365   2.092   2.164  15.434 -0.1220 -0.0897  0.2188
  697MPD2    H510366   2.062   2.110  15.354  0.3164 -0.4952  0.3286
  697MPD2    N110367   2.018   1.755  15.671  0.0095  0.2058 -0.1859
  697MPD2    H710368   2.020   1.707  15.582  2.3397 -0.6317  0.3186
  698TMC3    C110369   2.174   2.301  15.263 -0.2041 -0.1949 -0.3941
  698TMC3    C210370   2.171   2.426  15.211 -0.5418 -0.1205  0.5541
  698TMC3    C310371   2.210   2.451  15.077 -0.3977  0.4410  0.0734
  698TMC3    C410372   2.211   2.201  15.178 -0.0277 -0.4952 -0.5117
  698TMC3    C510373   2.243   2.223  15.045 -0.0423  0.1618 -0.9057
  698TMC3    C610374   2.245   2.348  14.992 -0.0244  0.1463  0.7270
  698TMC3     C10375   2.149   2.281  15.406  0.0535  0.5759 -0.0404
  698TMC3     O10376   2.196   2.370  15.475  0.0823 -0.2610 -0.0474
  698TMC3     H10377   2.141   2.508  15.275 -0.5338  0.3288 -0.0162
  698TMC3    H110378   2.225   2.102  15.221  0.9433 -0.1960 -0.1429
  698TMC3    H210379   2.266   2.367  14.888  1.5779 -1.2789  0.7802
  698TMC3    C710380   2.225   2.119  14.944 -0.0808  0.2549 -0.5931
  698TMC3    C810381   2.217   2.588  15.034  0.4558 -0.6679 -0.2882
  698TMC3    O110382   2.250   2.143  14.825  0.0208 -0.5061 -1.0001
  698TMC3    O210383   2.135   2.663  15.080 -0.0062 -0.1358 -0.2303
  699TMC3    C110384   1.784   4.693  13.368 -0.1575 -0.0834  0.0084
  699TMC3    C210385   1.884   4.643  13.447  0.1842  0.2738 -0.4372
  699TMC3    C310386   1.875   4.670  13.579 -0.7740  0.2636 -0.4423
  699TMC3    C410387   1.693   0.038  13.416 -0.7386  0.2407  0.0228
  699TMC3    C510388   1.693   0.085  13.546 -0.0776 -0.1832 -0.8493
  699TMC3    C610389   1.776   0.017  13.628 -0.1329 -0.7078 -0.6330
  699TMC3     C10390   1.819   4.724  13.236 -0.5937 -0.5601 -0.8047
  699TMC3     O10391   1.810   0.105  13.202 -0.3079 -0.1140  0.0308
  699TMC3     H10392   1.960   4.571  13.420  0.9796  1.3099 -0.9439
  699TMC3    H110393   1.616   0.071  13.347  1.1400  1.4390 -1.5229
  699TMC3    H210394   1.768   0.025  13.736 -0.9146 -3.0739 -0.5175
  699TMC3    C710395   1.559   0.103  13.613 -0.4129  1.1299 -0.3991
  699TMC3    C810396   1.926   4.570  13.677 -0.0869  0.2248 -0.5718
  699TMC3    O110397   1.557   0.134  13.732 -0.4356 -0.3436  0.0574
  699TMC3    O210398   1.843   4.546  13.764 -0.0118 -0.3080 -0.0469
  700TMC3    C110399   1.355   2.474  17.176 -0.4823  0.4968 -0.6966
  700TMC3    C210400   1.384   2.341  17.166  0.0260  0.4138  0.4246
  700TMC3    C310401   1.485   2.291  17.249 -0.1019  0.4980  0.3954
  700TMC3    C410402   1.407   2.557  17.274  0.3770 -0.2347 -0.0274
  700TMC3    C510403   1.486   2.496  17.359  0.9275 -0.0713 -0.9294
  700TMC3    C610404   1.538   2.370  17.345 -0.3965  0.4257 -0.6735
  700TMC3     C10405   1.265   2.530  17.080 -0.0858  0.1291 -0.2833
  700TMC3     O10406   1.156   2.484  17.055  0.0393 -0.3941  0.0322
  700TMC3     H10407   1.345   2.285  17.082 -1.3780  2.8297 -0.5284
  700TMC3    H110408   1.389   2.664  17.272  1.9306  0.0117 -0.6086
  700TMC3    H210409   1.624   2.328  17.397 -0.9388  2.4540  1.8354
  700TMC3    C710410   1.562   2.585  17.441 -0.1762  0.3237 -0.4339
  700TMC3    C810411   1.539   2.163  17.211 -0.2126  0.2345  0.5963
  700TMC3    O110412   1.678   2.557  17.467  0.5261 -0.0125  0.4189
  700TMC3    O210413   1.661   2.158  17.209  0.3328 -0.0263  0.2402
  701TMC3    C110414   1.220   1.088  15.729 -0.4845 -0.7867 -0.4508
  701TMC3    C210415   1.222   1.035  15.600 -0.3324  0.2269 -0.5150
  701TMC3    C310416   1.337   1.058  15.522  0.2451 -0.1957  0.5208
  701TMC3    C410417   1.329   1.158  15.776 -1.0033  0.0546  0.2243
  701TMC3    C510418   1.444   1.166  15.697  0.6127  0.1510  0.7274
  701TMC3    C610419   1.437   1.135  15.566  0.0320  0.1494 -0.1027
  701TMC3     C10420   1.126   1.044  15.829 -0.0926  0.3539  0.7105
  701TMC3     O10421   1.111   1.129  15.912 -0.2106 -0.3385  0.3766
  701TMC3     H10422   1.133   0.988  15.559 -1.0223 -0.0589  1.3436
  701TMC3    H110423   1.313   1.199  15.875 -1.1373 -0.8347  0.5711
  701TMC3    H210424   1.525   1.158  15.507  0.3165  1.1721  0.7259
  701TMC3    C710425   1.518   1.286  15.732 -0.0656  0.4248 -0.4955
  701TMC3    C810426   1.351   1.038  15.378  0.1466  0.6876  0.9437
  701TMC3    O110427   1.541   1.359  15.636 -0.1098 -0.4171  0.0766
  701TMC3    O210428   1.455   1.082  15.325 -0.4223  0.5929  0.2045
  702MPD2     C10429   1.194   3.156  11.007 -0.1998 -0.1683  0.4176
  702MPD2    C110430   1.135   3.281  11.005 -0.2460 -0.1177  0.7082
  702MPD2    C210431   1.202   3.395  10.959 -0.0945  0.6524  0.2670
  702MPD2    C310432   1.325   3.373  10.902  0.0847  0.3185 -0.0580
  702MPD2    C410433   1.378   3.249  10.893  0.0198  0.1271 -0.0824
  702MPD2    C510434   1.320   3.137  10.959 -0.6657  0.3190  0.0206
  702MPD2     H10435   1.168   3.498  10.968  0.4821  0.8432  0.2761
  702MPD2    H110436   1.469   3.221  10.841 -0.8435 -2.5957 -0.1816
  702MPD2    H210437   1.139   3.071  11.047 -1.1643  0.3356  0.1792
  702MPD2    H310438   1.371   3.041  10.959  0.0996  0.7196 -0.1797
  702MPD2     N10439   1.401   3.477  10.846 -0.5772 -0.0908  1.0318
  702MPD2    H510440   1.493   3.450  10.814 -1.2926 -1.0647 -0.1995
  702MPD2    N110441   1.000   3.303  11.055 -0.0488 -0.1573 -0.5630
  702MPD2    H710442   0.964   3.397  11.067 -1.0945 -0.4592 -1.3349
  703TMC3    C110443   1.228   3.644  10.783 -0.5466 -0.3219 -0.2946
  703TMC3    C210444   1.145   3.555  10.721 -0.5569 -0.4946  0.5772
  703TMC3    C310445   1.023   3.590  10.677  0.2718 -0.1946 -0.0196
  703TMC3    C410446   1.193   3.775  10.792  0.6332 -0.2217  0.0543
  703TMC3    C510447   1.075   3.812  10.721  0.0606  0.2263 -0.4670
  703TMC3    C610448   0.984   3.718  10.682  0.1250  0.1402 -1.1687
  703TMC3     C10449   1.368   3.612  10.824 -1.0242  0.5159  0.5686
  703TMC3     O10450   1.445   3.708  10.810 -0.2859 -0.8933  0.1000
  703TMC3     H10451   1.180   3.455  10.698  1.1680  0.6311 -1.6795
  703TMC3    H110452   1.257   3.846  10.842  1.0231 -0.6594  0.1662
  703TMC3    H210453   0.909   3.767  10.621 -1.2301 -2.2726 -1.4471
  703TMC3    C710454   1.102   3.923  10.633 -0.2377 -0.7091  0.2377
  703TMC3    C810455   0.924   3.481  10.690  0.3542 -0.3586  0.5161
  703TMC3    O110456   1.218   3.955  10.632 -0.2271 -0.3629  0.6457
  703TMC3    O210457   0.936   3.385  10.620  0.1177 -0.1477 -0.2445
  704TMC3    C110458   3.235   1.745  12.631 -0.0620 -0.1120 -0.3358
  704TMC3    C210459   3.203   1.706  12.505  0.0676  0.2420 -0.2797
  704TMC3    C310460   3.299   1.650  12.424  0.6617 -0.0863  0.5162
  704TMC3    C410461   3.357   1.702  12.682 -0.1625 -0.5788 -0.3219
  704TMC3    C510462   3.452   1.643  12.600  0.2406  0.0502 -0.4461
  704TMC3    C610463   3.421   1.609  12.469 -0.0616 -0.1064 -0.3302
  704TMC3     C10464   3.133   1.788  12.726  0.4577  0.7499 -0.5129
  704TMC3     O10465   3.148   1.751  12.842  0.1853 -0.9480  0.3515
  704TMC3     H10466   3.101   1.707  12.468 -0.3717 -0.3308  0.9330
  704TMC3    H110467   3.368   1.723  12.787 -1.0241 -1.9525  0.0433
  704TMC3    H210468   3.475   1.530  12.417 -1.0086 -0.8615 -0.1646
  704TMC3    C710469   3.555   1.562  12.653 -0.3792  0.7704  0.1264
  704TMC3    C810470   3.247   1.553  12.324  0.1638 -0.3449 -0.2213
  704TMC3    O110471   3.555   1.514  12.770  0.1554 -0.0354 -0.4004
  704TMC3    O210472   3.125   1.533  12.324 -0.9127 -0.1154 -0.1193
  705MPD2     C10473   2.854   4.421  16.196 -0.0181  1.2917 -0.6248
  705MPD2    C110474   2.898   4.546  16.222 -0.2424 -0.3711  0.2523
  705MPD2    C210475   2.833   4.626  16.309 -0.3809 -0.1884 -0.3123
  705MPD2    C310476   2.711   4.580  16.365 -0.5001 -0.3687 -0.7464
  705MPD2    C410477   2.655   4.461  16.320  0.2476  0.0185  0.2333
  705MPD2    C510478   2.726   4.386  16.228 -0.9035  0.6338  0.7477
  705MPD2     H10479   2.881   4.716  16.345 -0.3146 -0.0302 -0.7988
  705MPD2    H110480   2.557   4.428  16.353 -0.9091 -0.5010 -3.7010
  705MPD2    H210481   2.918   4.340  16.164  0.8947  2.0470 -0.6993
  705MPD2    H310482   2.695   4.283  16.217  1.3843 -0.0127  0.2733
  705MPD2     N10483   2.647   4.645  16.467  0.4547 -0.6022  0.2297
  705MPD2    H510484   2.569   4.601  16.515 -0.9925  1.6707 -0.0001
  705MPD2    N110485   3.018   4.587  16.155  0.1256  0.0265  0.6674
  705MPD2    H710486   3.056   4.681  16.165  0.7376 -0.4039  2.2319
  706TMC3    C110487   3.350   4.630  15.826 -0.3143  0.2420  0.0805
  706TMC3    C210488   3.365   0.029  15.863  0.1731  0.3837 -0.0818
  706TMC3    C310489   3.308   0.067  15.980  0.0591  1.4063 -0.0310
  706TMC3    C410490   3.265   4.546  15.896 -0.2614  0.0662  0.2885
  706TMC3    C510491   3.197   4.605  15.998 -0.4041  0.3027 -0.0097
  706TMC3    C610492   3.214   4.732  16.047 -0.5637  0.5208  0.3450
  706TMC3     C10493   3.441   4.578  15.717 -0.0995 -0.0775  0.1941
  706TMC3     O10494   3.546   4.644  15.703  0.2373  0.6562 -0.7564
  706TMC3     H10495   3.442   0.093  15.822  0.9455  0.0392  0.8494
  706TMC3    H110496   3.245   4.445  15.863 -1.2014  0.8102 -1.4195
  706TMC3    H210497   3.151   0.048  16.117  1.5965  0.9071  2.0178
  706TMC3    C710498   3.075   4.532  16.045 -0.4155  0.1037  0.7042
  706TMC3    C810499   3.333   0.211  16.009 -0.2070  0.4446 -0.4604
  706TMC3    O110500   3.049   4.426  15.990  0.3071 -0.9373 -0.1230
  706TMC3    O210501   3.345   0.292  15.920 -0.7860  0.0847 -0.2792
  707TMC3    C110502   4.327   3.646   1.753 -0.3851 -0.7685 -0.5946
  707TMC3    C210503   4.306   3.558   1.651 -0.6095 -0.1993 -0.8275
  707TMC3    C310504   4.182   3.564   1.587  0.0751 -0.1519 -0.8361
  707TMC3    C410505   4.239   3.733   1.805 -0.3694 -0.0386 -0.1374
  707TMC3    C510506   4.114   3.734   1.744 -0.1135  0.7887  0.6085
  707TMC3    C610507   4.087   3.654   1.638 -0.3671 -0.1125 -0.2744
  707TMC3     C10508   4.458   3.675   1.784  0.2658  0.2898  0.5951
  707TMC3     O10509   4.490   3.686   1.900 -0.0981  0.0991  0.3021
  707TMC3     H10510   4.387   3.488   1.632  1.0727  2.3001 -2.8428
  707TMC3    H110511   4.269   3.802   1.884 -1.1484  1.7118 -1.3742
  707TMC3    H210512   4.003   3.665   1.571 -1.1204  1.2727  0.8980
  707TMC3    C710513   4.013   3.812   1.807 -0.1727  0.8430  0.4563
  707TMC3    C810514   4.137   3.466   1.489 -0.1576  0.8151 -0.1165
  707TMC3    O110515   4.059   3.887   1.895  0.2309  0.3374  0.0109
  707TMC3    O210516   4.048   3.496   1.408 -0.4439  0.2445  0.3205
  708MPD2     C10517   1.058   2.562  14.279 -0.8015  0.1329 -0.6717
  708MPD2    C110518   0.966   2.661  14.308  1.0191  0.9730 -0.7891
  708MPD2    C210519   0.868   2.632  14.403  0.7748 -0.7655  0.7908
  708MPD2    C310520   0.876   2.517  14.482 -0.8744  0.3716  1.1945
  708MPD2    C410521   0.984   2.436  14.471  0.1136  0.0704 -0.9628
  708MPD2    C510522   1.073   2.447  14.366 -0.6036 -0.3087 -0.3101
  708MPD2     H10523   0.787   2.703  14.413 -1.0596 -2.7033 -0.1640
  708MPD2    H110524   0.997   2.352  14.539  0.4305  0.4376 -0.5739
  708MPD2    H210525   1.140   2.588  14.214  0.5901  1.4577  1.6261
  708MPD2    H310526   1.152   2.373  14.361 -2.8994 -2.7221 -0.7226
  708MPD2     N10527   0.780   2.493  14.587  0.0157 -0.4411  0.6758
  708MPD2    H510528   0.795   2.414  14.649  0.8595 -0.1137  0.8836
  708MPD2    N110529   0.962   2.788  14.246  0.0606  0.0223 -0.1233
  708MPD2    H710530   1.033   2.810  14.177 -0.2472 -0.2026 -0.5118
  709TMC3    C110531   0.896   2.998  14.174  0.4521 -0.1230  0.5076
  709TMC3    C210532   0.872   2.956  14.045 -0.1101  0.2603  0.5603
  709TMC3    C310533   0.788   3.021  13.969  0.0242  0.4603  0.4741
  709TMC3    C410534   0.830   3.110  14.218  0.3673  0.7636  0.4162
  709TMC3    C510535   0.714   3.140  14.153  0.2046 -0.9231 -0.3907
  709TMC3    C610536   0.689   3.095  14.031  0.2066  0.5540  0.5217
  709TMC3     C10537   0.893   2.896  14.280  0.2917  0.2164  0.5715
  709TMC3     O10538   0.832   2.915  14.387  0.1228 -0.2354  0.2590
  709TMC3     H10539   0.933   2.877  14.002 -1.6923 -0.3309 -0.5922
  709TMC3    H110540   0.843   3.144  14.321  0.9890  0.7862  0.3330
  709TMC3    H210541   0.606   3.146  13.983  0.4945 -0.0524 -0.6066
  709TMC3    C710542   0.604   3.181  14.235  0.1174  0.5302  0.7153
  709TMC3    C810543   0.756   2.985  13.831 -0.3077 -0.2820 -0.7208
  709TMC3    O110544   0.618   3.243  14.339  0.0307  0.0726  0.0803
  709TMC3    O210545   0.642   2.963  13.804  0.5702  0.2448 -0.9350
  710TMC3    C110546   2.987   4.636   0.266  0.4245  0.2549 -0.0428
  710TMC3    C210547   3.047   4.667   0.143 -0.0874  0.5222  0.6667
  710TMC3    C310548   3.122   4.565   0.085 -0.2644  0.5469  0.4057
  710TMC3    C410549   3.012   4.514   0.329 -0.1184  0.0547  0.5458
  710TMC3    C510550   3.083   4.423   0.258 -0.0083  0.4009  0.0867
  710TMC3    C610551   3.151   4.450   0.139 -0.5461  0.4263 -0.1756
  710TMC3     C10552   2.865   4.714   0.295 -0.1466  0.8306 -0.8100
  710TMC3     O10553   2.843   0.077   0.224  0.3222  0.0035 -0.1882
  710TMC3     H10554   3.014   0.022   0.096  0.2584  0.7188  0.8045
  710TMC3    H110555   2.971   4.496   0.428  1.0602  2.1676  1.4320
  710TMC3    H210556   3.208   4.371   0.091  0.4308  1.3382 -0.5021
  710TMC3    C710557   3.112   4.296   0.315  0.2378 -0.4539 -0.3629
  710TMC3    C810558   3.137   4.584  17.688 -0.3154  0.6139 -0.8925
  710TMC3    O110559   3.217   4.246   0.285 -0.0872  0.4934 -0.2167
  710TMC3    O210560   3.043   4.658  17.644 -0.7135  0.2179 -0.0254
  711TMC3    C110561   2.028   0.800  15.220  0.2376 -0.6508 -0.9333
  711TMC3    C210562   2.056   0.891  15.317  0.1602  0.0590  0.3043
  711TMC3    C310563   2.153   0.860  15.405  0.6905  0.2677 -0.8746
  711TMC3    C410564   2.102   0.684  15.207  0.0632  0.0453 -0.0689
  711TMC3    C510565   2.205   0.661  15.296  0.5569 -0.6992 -0.5202
  711TMC3    C610566   2.222   0.741  15.407 -0.4176  0.2967 -0.1006
  711TMC3     C10567   1.888   0.758  15.224  0.1599  0.6789  0.1376
  711TMC3     O10568   1.848   0.681  15.140 -0.4022 -0.3181  0.6374
  711TMC3     H10569   2.011   0.989  15.315  0.6871  0.3018  0.6405
  711TMC3    H110570   2.074   0.612  15.131 -4.9401  0.2636  1.5622
  711TMC3    H210571   2.285   0.712  15.490 -0.2129  0.6282 -0.1380
  711TMC3    C710572   2.257   0.524  15.314 -0.4079 -0.1636  0.3343
  711TMC3    C810573   2.171   0.950  15.513 -0.4581 -0.3216  0.3633
  711TMC3    O110574   2.376   0.516  15.348  0.7416  0.6414  0.1836
  711TMC3    O210575   2.069   0.993  15.564  0.4606 -0.3838  0.5579
  712MPD2     C10576   3.780   1.248  13.777 -0.2291  0.6336 -0.4095
  712MPD2    C110577   3.673   1.303  13.712  0.1479  0.4211  0.5273
  712MPD2    C210578   3.693   1.428  13.656  0.5310  0.0704  1.2959
  712MPD2    C310579   3.814   1.500  13.667 -0.5999  0.3133 -0.4167
  712MPD2    C410580   3.919   1.441  13.735 -0.3817  0.7416  0.0316
  712MPD2    C510581   3.899   1.317  13.781 -0.2139  0.2408  0.1757
  712MPD2     H10582   3.611   1.467  13.596  0.1872 -0.8165  1.1777
  712MPD2    H110583   4.018   1.482  13.753 -0.0945  0.6317 -1.2728
  712MPD2    H210584   3.773   1.148  13.816 -0.3592  0.3603 -1.1275
  712MPD2    H310585   3.966   1.270  13.852  0.0798 -0.0062 -0.2650
  712MPD2     N10586   3.836   1.628  13.605  0.6431  0.5288  0.4459
  712MPD2    H510587   3.931   1.663  13.602  0.9415 -0.4601 -1.8541
  712MPD2    N110588   3.564   1.229  13.671 -0.0657  0.0161  0.2699
  712MPD2    H710589   3.507   1.273  13.600  1.5685 -0.2563 -1.1900
  713TMC3    C110590   3.782   1.826  13.524  0.0747 -0.2532  0.5240
  713TMC3    C210591   3.902   1.875  13.581  0.2185 -0.3587 -0.4009
  713TMC3    C310592   3.967   1.983  13.528  0.1822 -0.2931 -0.1913
  713TMC3    C410593   3.717   1.893  13.422  0.1219 -1.2530  0.3851
  713TMC3    C510594   3.788   2.001  13.376 -0.0659 -0.0652  0.0304
  713TMC3    C610595   3.913   2.043  13.418 -0.0852  0.8900  0.1720
  713TMC3     C10596   3.732   1.708  13.571 -0.8658 -0.4694 -0.1847
  713TMC3     O10597   3.611   1.686  13.567 -0.6474 -0.5717 -0.1613
  713TMC3     H10598   3.942   1.832  13.672 -1.3468 -1.7904 -0.3894
  713TMC3    H110599   3.618   1.864  13.391 -0.7408  1.0254  1.0120
  713TMC3    H210600   3.964   2.126  13.371 -1.2658  2.5376  1.8183
  713TMC3    C710601   3.730   2.085  13.276 -0.3819  0.2814  0.2386
  713TMC3    C810602   4.098   2.022  13.572 -0.2744  0.3844 -0.6180
  713TMC3    O110603   3.798   2.117  13.184  0.2107  0.2714  0.8882
  713TMC3    O210604   4.172   1.935  13.612  0.3998  0.3691 -0.6188
  714MPD2     C10605   0.822   0.747   1.956 -0.3616  0.1050 -0.1248
  714MPD2    C110606   0.823   0.610   1.932 -0.9037  0.1201  0.9082
  714MPD2    C210607   0.736   0.567   1.836 -0.0908 -0.3449  0.2532
  714MPD2    C310608   0.657   0.653   1.751 -0.4867 -0.4300 -0.3522
  714MPD2    C410609   0.658   0.788   1.783  0.6555 -0.7589 -0.1858
  714MPD2    C510610   0.738   0.829   1.883 -0.4553 -0.2186  0.1607
  714MPD2     H10611   0.721   0.460   1.823  0.0090 -0.3741  0.3762
  714MPD2    H110612   0.605   0.860   1.721  1.0250 -0.4346 -0.1293
  714MPD2    H210613   0.896   0.781   2.027 -1.1185  3.7895 -1.1006
  714MPD2    H310614   0.749   0.935   1.897 -1.1429  0.2153 -2.6233
  714MPD2     N10615   0.583   0.598   1.651 -0.2424  0.4057 -0.5579
  714MPD2    H510616   0.598   0.499   1.635 -2.3635 -0.0229  0.1256
  714MPD2    N110617   0.920   0.535   2.000  0.3390 -0.3030  0.1493
  714MPD2    H710618   0.982   0.591   2.057 -0.1480 -0.5033  0.8720
  715TMC3    C110619   1.068   0.357   2.025  0.0951  0.3375 -0.4608
  715TMC3    C210620   1.085   0.220   2.040 -0.4434 -1.1047 -0.1716
  715TMC3    C310621   1.216   0.179   2.042 -0.8796  0.6455  0.3996
  715TMC3    C410622   1.166   0.447   2.010  0.0706  0.5165  0.1374
  715TMC3    C510623   1.289   0.394   1.997 -0.0149  0.7308 -0.2736
  715TMC3    C610624   1.320   0.262   2.015  0.4331  1.3046  0.1221
  715TMC3     C10625   0.940   0.401   1.986 -0.1688  0.1098  0.1911
  715TMC3     O10626   0.853   0.317   1.958 -0.2890 -0.3600 -0.4992
  715TMC3     H10627   0.998   0.155   2.035 -0.5424 -1.0148  0.3712
  715TMC3    H110628   1.158   0.554   1.999  2.7617  0.7312  0.2895
  715TMC3    H210629   1.423   0.229   2.024 -0.1261 -0.0684  1.2976
  715TMC3    C710630   1.405   0.476   2.014  0.1293 -0.3844  1.0302
  715TMC3    C810631   1.245   0.037   2.029  0.2905  0.2730  0.3821
  715TMC3    O110632   1.485   0.442   1.927  0.3986 -0.0322 -0.2041
  715TMC3    O210633   1.333   0.004   1.947 -0.4576  0.2366  0.3190
  716MPD2     C10634   1.046   3.092  10.607  0.6642  0.3852 -0.1918
  716MPD2    C110635   1.000   3.088  10.475  0.7025  0.1935  0.2637
  716MPD2    C210636   1.058   2.991  10.395 -0.3025 -0.1255 -0.2533
  716MPD2    C310637   1.159   2.912  10.432  0.3621 -0.4313 -1.0215
  716MPD2    C410638   1.216   2.921  10.553 -0.1408  0.3620  0.4094
  716MPD2    C510639   1.151   3.006  10.645 -0.4031 -0.6314  0.2179
  716MPD2     H10640   1.037   2.992  10.289 -3.8784  2.3179  0.4779
  716MPD2    H110641   1.301   2.865  10.590  0.6178  0.1342 -1.6719
  716MPD2    H210642   1.006   3.168  10.673  0.5774  1.3510 -1.3622
  716MPD2    H310643   1.190   3.018  10.745 -0.8911  1.9265  0.0816
  716MPD2     N10644   1.217   2.833  10.325 -0.1865  0.2918  0.5081
  716MPD2    H510645   1.166   2.832  10.238  2.4195 -2.2128 -0.9965
  716MPD2    N110646   0.918   3.191  10.424 -0.4283 -0.1969 -0.1097
  716MPD2    H710647   0.888   3.257  10.496  1.2418 -2.0765  2.3142
  717TMC3    C110648   1.347   2.680  10.213  0.2267  0.2379 -0.2802
  717TMC3    C210649   1.305   2.737  10.096  0.8174 -0.0273 -0.2819
  717TMC3    C310650   1.306   2.661   9.981 -0.3511 -0.5052 -0.2450
  717TMC3    C410651   1.382   2.552  10.227  0.7519 -0.2919 -0.1172
  717TMC3    C510652   1.383   2.479  10.108 -0.8319  0.4281  0.5219
  717TMC3    C610653   1.344   2.530   9.989 -0.1117  0.1820 -0.3910
  717TMC3     C10654   1.323   2.745  10.339 -0.7142  0.3118 -0.2901
  717TMC3     O10655   1.364   2.694  10.446  0.5700 -0.3372 -0.6716
  717TMC3     H10656   1.285   2.843  10.089  1.4678  0.2253  1.5870
  717TMC3    H110657   1.418   2.509  10.320 -0.1997 -0.9854 -0.0691
  717TMC3    H210658   1.336   2.471   9.898  0.3007 -0.9791  0.3290
  717TMC3    C710659   1.438   2.344  10.113  0.3215 -0.3023 -0.0040
  717TMC3    C810660   1.242   2.714   9.873 -0.5052 -0.0343 -0.3203
  717TMC3    O110661   1.513   2.327  10.207 -0.4508  0.2807 -0.1832
  717TMC3    O210662   1.172   2.814   9.899  0.2559  0.2460  0.5782
  718MPD2     C10663   0.648   1.591  12.948  1.0098 -0.5140 -0.7860
  718MPD2    C110664   0.572   1.661  12.859  0.7919  0.6845  0.7707
  718MPD2    C210665   0.484   1.585  12.786 -0.5093  0.3221 -0.1710
  718MPD2    C310666   0.477   1.443  12.791  0.1189 -0.4425  0.3193
  718MPD2    C410667   0.570   1.376  12.867 -0.7140  0.3360  0.6426
  718MPD2    C510668   0.646   1.453  12.947  0.4040 -0.0076 -0.3066
  718MPD2     H10669   0.418   1.624  12.709  0.3649  2.6825  0.2798
  718MPD2    H110670   0.565   1.268  12.871 -0.3180  0.2203 -1.9165
  718MPD2    H210671   0.716   1.645  13.013 -1.0037  1.9002 -0.7051
  718MPD2    H310672   0.708   1.400  13.018  0.8469  2.1312  0.9168
  718MPD2     N10673   0.398   1.379  12.698  0.3957  0.0706  0.4855
  718MPD2    H510674   0.340   1.441  12.641  0.5555 -0.8703 -0.7037
  718MPD2    N110675   0.582   1.800  12.846  0.3922 -0.1060  0.2287
  718MPD2    H710676   0.648   1.850  12.904  1.0397 -0.7678  0.0653
  719TMC3    C110677   0.497   2.029  12.816 -0.1505 -0.0559  0.4248
  719TMC3    C210678   0.392   2.072  12.750  0.0454  0.9396 -0.6526
  719TMC3    C310679   0.390   2.180  12.659 -0.1149 -0.4484 -0.7196
  719TMC3    C410680   0.608   2.108  12.806  0.0493 -0.4856 -0.0768
  719TMC3    C510681   0.618   2.208  12.709 -0.2822 -0.1594 -0.2057
  719TMC3    C610682   0.507   2.239  12.632 -0.4444 -0.2745  0.3308
  719TMC3     C10683   0.505   1.885  12.770 -0.1382 -0.0570  0.5643
  719TMC3     O10684   0.420   1.853  12.687  0.2387  0.4629  0.2719
  719TMC3     H10685   0.295   2.032  12.780  0.8530  0.0555  0.7621
  719TMC3    H110686   0.706   2.074  12.839  1.0157  0.8858 -1.5065
  719TMC3    H210687   0.509   2.304  12.545  1.7413 -2.3749 -1.1878
  719TMC3    C710688   0.743   2.270  12.680 -0.0256 -0.0394  0.8297
  719TMC3    C810689   0.298   2.162  12.550  0.1008 -0.2325 -0.4204
  719TMC3    O110690   0.770   2.297  12.564 -0.8038  0.5110  0.0971
  719TMC3    O210691   0.251   2.258  12.485  0.0292  0.0773 -0.3379
  720MPD2     C10692   3.156   3.571  14.045 -0.1444 -0.1900 -0.0813
  720MPD2    C110693   3.252   3.645  13.984 -0.0021  0.4676  0.1796
  720MPD2    C210694   3.372   3.660  14.053 -0.6137  1.3506 -0.2418
  720MPD2    C310695   3.400   3.610  14.176 -0.4273 -0.3770  0.5480
  720MPD2    C410696   3.306   3.524  14.231 -0.9178 -0.7937 -0.3855
  720MPD2    C510697   3.189   3.503  14.162 -0.1140  0.5917 -0.1695
  720MPD2     H10698   3.447   3.721  14.004  1.0929 -1.2374 -0.8597
  720MPD2    H110699   3.320   3.479  14.328 -0.4100 -0.4793 -0.3148
  720MPD2    H210700   3.064   3.550  13.993 -0.8579  4.5257 -0.7079
  720MPD2    H310701   3.109   3.445  14.207  0.7162 -1.5322 -1.4484
  720MPD2     N10702   3.519   3.649  14.238 -0.3980  0.3267 -0.5599
  720MPD2    H510703   3.566   3.718  14.181 -2.5101 -0.2332 -2.9862
  720MPD2    N110704   3.233   3.706  13.858  0.4965 -0.7281 -0.3445
  720MPD2    H710705   3.306   3.770  13.828  0.0052 -1.1524 -2.4164
  721TMC3    C110706   3.691   3.688  14.388 -0.2620 -1.0779  0.6688
  721TMC3    C210707   3.725   3.676  14.520  0.0421  0.4798 -0.5592
  721TMC3    C310708   3.855   3.657  14.553  0.1752  0.5280 -0.3885
  721TMC3    C410709   3.775   3.663  14.285  0.2563  0.1033 -0.3014
  721TMC3    C510710   3.904   3.640  14.322  0.6861  0.0961 -0.0708
  721TMC3    C610711   3.943   3.626  14.456 -0.3201 -0.2424 -0.4916
  721TMC3     C10712   3.552   3.652  14.373 -0.8071 -0.0758 -0.0176
  721TMC3     O10713   3.494   3.604  14.469 -0.4596  0.2196  0.4522
  721TMC3     H10714   3.647   3.699  14.592 -0.4355 -0.7443 -0.6951
  721TMC3    H110715   3.741   3.664  14.182 -1.3871 -0.7256  0.2476
  721TMC3    H210716   4.045   3.614  14.490 -0.5486 -2.3016 -0.4939
  721TMC3    C710717   4.006   3.662  14.222  0.7652 -0.1584 -0.0371
  721TMC3    C810718   3.888   3.647  14.689 -0.7224  0.0743 -0.4506
  721TMC3    O110719   4.122   3.658  14.262 -0.1045  0.6025  0.1156
  721TMC3    O210720   4.001   3.595  14.708  0.6134  0.1462 -0.3363
  722MPD2     C10721   2.382   2.047  13.384 -0.4172  0.4340 -0.2106
  722MPD2    C110722   2.408   2.179  13.393  0.3470 -0.4059 -0.1468
  722MPD2    C210723   2.304   2.262  13.354  0.1912  0.3072  0.3765
  722MPD2    C310724   2.177   2.218  13.314  0.3086  0.1292 -0.7991
  722MPD2    C410725   2.152   2.082  13.311  0.1491 -0.2795  0.1844
  722MPD2    C510726   2.265   1.999  13.325 -0.1495  0.0282 -0.3026
  722MPD2     H10727   2.320   2.369  13.346 -3.4850  0.8341  0.1734
  722MPD2    H110728   2.056   2.042  13.279  0.9965 -0.2800 -2.3658
  722MPD2    H210729   2.459   1.979  13.418 -0.2952  1.6145  1.8665
  722MPD2    H310730   2.248   1.893  13.318 -1.0458  0.0111  1.9219
  722MPD2     N10731   2.069   2.297  13.264 -0.0576  0.1577  0.8471
  722MPD2    H510732   1.988   2.239  13.245  0.7445 -0.9166  0.7072
  722MPD2    N110733   2.529   2.240  13.447 -0.1424 -0.1154  0.3819
  722MPD2    H710734   2.548   2.339  13.445  0.7630 -0.2794  0.9810
  723TMC3    C110735   1.939   2.488  13.254 -0.0618  0.3919 -0.2183
  723TMC3    C210736   1.853   2.420  13.169  0.4029  0.8284  0.1543
  723TMC3    C310737   1.725   2.471  13.151  0.2899  1.0023  0.2145
  723TMC3    C410738   1.900   2.601  13.325 -0.0993 -0.1371  0.1073
  723TMC3    C510739   1.775   2.647  13.301  0.3642 -0.7440 -0.1925
  723TMC3    C610740   1.690   2.590  13.208  0.2288 -0.0008 -0.5797
  723TMC3     C10741   2.062   2.430  13.284 -1.0612  0.0969 -0.6389
  723TMC3     O10742   2.134   2.509  13.348 -0.2051 -0.1909  0.3547
  723TMC3     H10743   1.891   2.343  13.103 -0.9646  0.2765  0.0142
  723TMC3    H110744   1.972   2.673  13.361 -0.2407  0.0974 -0.0734
  723TMC3    H210745   1.583   2.606  13.203 -0.0793 -2.1800 -0.9917
  723TMC3    C710746   1.750   2.783  13.329 -0.3039  0.2524 -0.9143
  723TMC3    C810747   1.652   2.443  13.031  0.1575 -0.0682 -0.2846
  723TMC3    O110748   1.791   2.839  13.428 -0.1081  0.6573  1.0467
  723TMC3    O210749   1.570   2.527  13.001 -0.3403 -0.1505  0.0455
  724TMC3    C110750   2.500   0.199  10.918 -1.6331 -0.1069 -0.0385
  724TMC3    C210751   2.494   0.174  10.782  0.9149 -0.0335  0.4221
  724TMC3    C310752   2.567   0.252  10.700  0.9536  0.5278 -0.3818
  724TMC3    C410753   2.568   0.309  10.974  0.0465  0.4895 -0.5770
  724TMC3    C510754   2.631   0.389  10.881 -0.5634 -0.4088 -0.2022
  724TMC3    C610755   2.632   0.366  10.749 -1.0807 -0.9468  0.5935
  724TMC3     C10756   2.435   0.115  11.017  0.0568 -0.5247 -0.1429
  724TMC3     O10757   2.452   0.139  11.137  0.1178 -0.2091  0.2811
  724TMC3     H10758   2.490   0.069  10.754  1.6892 -0.7125  2.9216
  724TMC3    H110759   2.571   0.334  11.080 -0.7050 -1.7172 -0.0378
  724TMC3    H210760   2.649   0.450  10.682  0.2216  0.1383  2.2796
  724TMC3    C710761   2.696   0.513  10.909  0.7948  0.1911 -0.0368
  724TMC3    C810762   2.548   0.243  10.558 -0.1989 -0.5899  0.4182
  724TMC3    O110763   2.780   0.551  10.830  0.0028  0.2395  0.2405
  724TMC3    O210764   2.469   0.154  10.527  0.0340  0.2268 -0.0264
  725TMC3    C110765   4.501   3.975  12.711  0.0051 -0.0071  0.4489
  725TMC3    C210766   4.436   4.046  12.613 -0.0818  0.0867 -0.6332
  725TMC3    C310767   4.419   3.987  12.495 -0.2276 -0.3706 -0.1997
  725TMC3    C410768   4.535   3.847  12.690  0.2324  0.0091 -0.2918
  725TMC3    C510769   4.507   3.786  12.570  0.1261  0.4852 -0.1198
  725TMC3    C610770   4.450   3.854  12.472  0.4704  0.2211 -0.1413
  725TMC3     C10771   4.552   4.060  12.822 -0.2648  0.3443  0.2369
  725TMC3     O10772   4.476   4.149  12.866 -0.1726 -0.1116 -0.2326
  725TMC3     H10773   4.407   4.147  12.641 -0.9771 -0.2756 -0.2509
  725TMC3    H110774   4.581   3.797  12.775 -1.0533 -2.8572 -1.2743
  725TMC3    H210775   4.451   3.809  12.373 -0.9990  0.5541 -0.3052
  725TMC3    C710776   4.532   3.647  12.553 -0.5289 -0.3107  0.3498
  725TMC3    C810777   4.358   4.057  12.388 -0.5678  0.1702 -0.8066
  725TMC3    O110778   4.487   3.607  12.447  0.3260  0.1558  0.1758
  725TMC3    O210779   4.367   3.996  12.281  0.0583 -0.0301 -0.6767
  726MPD2     C10780   1.930   0.502  10.563  0.1464 -0.2089  0.0797
  726MPD2    C110781   1.847   0.608  10.534  0.2639  0.1479  0.5257
  726MPD2    C210782   1.709   0.590  10.560 -0.2545  0.1867  0.1919
  726MPD2    C310783   1.656   0.465  10.576 -0.1433  0.5243 -0.1674
  726MPD2    C410784   1.739   0.359  10.581  0.2076  0.4083 -0.5391
  726MPD2    C510785   1.871   0.382  10.583 -0.2234  0.5705  0.1115
  726MPD2     H10786   1.643   0.676  10.558  1.4676  1.4717 -1.0467
  726MPD2    H110787   1.704   0.257  10.592  0.5147  0.6419  2.7677
  726MPD2    H210788   2.037   0.509  10.555  0.2567 -4.1481 -1.5089
  726MPD2    H310789   1.940   0.300  10.598  0.3096  0.7460 -1.4173
  726MPD2     N10790   1.514   0.443  10.582 -0.3592 -0.0006 -0.8283
  726MPD2    H510791   1.485   0.346  10.577  0.0469 -0.1470 -0.3232
  726MPD2    N110792   1.885   0.727  10.477 -0.5099  0.1349 -0.4513
  726MPD2    H710793   1.809   0.793  10.468 -1.8783 -1.3744  0.0590
  727TMC3    C110794   2.034   0.892  10.393  0.0515  0.2625 -0.4557
  727TMC3    C210795   2.156   0.953  10.395 -0.5644  0.6965  0.5396
  727TMC3    C310796   2.173   1.064  10.320  0.0332  0.3686 -0.5569
  727TMC3    C410797   1.940   0.916  10.293 -0.2412 -0.4271 -0.0185
  727TMC3    C510798   1.968   1.018  10.208  0.1857  0.4319  0.3612
  727TMC3    C610799   2.081   1.096  10.221 -0.2314  0.0926  0.1317
  727TMC3     C10800   2.018   0.758  10.446  0.2787 -0.1766 -0.2549
  727TMC3     O10801   2.124   0.701  10.473 -0.2234 -0.1540 -0.1733
  727TMC3     H10802   2.232   0.938  10.471 -0.3985  2.3859  0.6907
  727TMC3    H110803   1.849   0.856  10.289 -0.5649  0.0192  0.5256
  727TMC3    H210804   2.088   1.184  10.159 -2.6519 -1.3786 -2.2314
  727TMC3    C710805   1.866   1.061  10.120 -0.3182 -0.2794  0.0053
  727TMC3    C810806   2.272   1.166  10.362  0.5185  0.5144 -0.6145
  727TMC3    O110807   1.864   1.166  10.064 -0.6510 -0.3658 -0.1623
  727TMC3    O210808   2.373   1.123  10.411  0.5958  0.1330  0.1290
  728TMC3    C110809   1.190   4.150  15.948  0.3032 -0.7676 -0.3962
  728TMC3    C210810   1.278   4.249  15.983  0.1807 -0.0922  1.0639
  728TMC3    C310811   1.277   4.369  15.911  0.0306 -0.6861  0.2222
  728TMC3    C410812   1.124   4.163  15.825  0.0964  0.3855 -0.2166
  728TMC3    C510813   1.125   4.282  15.756  0.8211  0.2801 -0.1291
  728TMC3    C610814   1.191   4.387  15.805  0.7139 -0.0731 -0.0252
  728TMC3     C10815   1.174   4.044  16.040  0.7128 -0.2685 -0.7812
  728TMC3     O10816   1.243   4.042  16.142 -0.0393  0.4585  0.6547
  728TMC3     H10817   1.334   4.240  16.075  1.1014  0.1383  0.5212
  728TMC3    H110818   1.062   4.086  15.780 -0.4838 -0.2115  1.6136
  728TMC3    H210819   1.183   4.489  15.769 -1.1206 -0.7004 -1.3919
  728TMC3    C710820   1.052   4.287  15.624  0.2641 -0.3120 -0.5256
  728TMC3    C810821   1.372   4.468  15.968  0.2904  0.9781  0.3810
  728TMC3    O110822   0.979   4.193  15.589  0.6670 -0.7512 -0.7962
  728TMC3    O210823   1.393   4.462  16.087 -0.4999 -0.0900  0.4519
  729MPD2     C10824   3.356   0.774  16.925 -0.0436 -0.0877  0.3135
  729MPD2    C110825   3.461   0.686  16.934 -0.4276  0.4336 -0.5502
  729MPD2    C210826   3.503   0.635  17.055 -0.2819  0.1283 -0.4135
  729MPD2    C310827   3.461   0.687  17.172  0.2100  0.0070  0.3440
  729MPD2    C410828   3.365   0.788  17.168  0.3526  0.1033 -0.2723
  729MPD2    C510829   3.307   0.818  17.045  0.7435  1.1103  0.5983
  729MPD2     H10830   3.579   0.558  17.054 -0.4942 -0.1055  1.0167
  729MPD2    H110831   3.320   0.841  17.251 -2.6061 -0.3953 -1.5381
  729MPD2    H210832   3.321   0.798  16.825 -2.1827 -0.3697  0.9917
  729MPD2    H310833   3.218   0.881  17.044  0.3147  0.5091  0.6512
  729MPD2     N10834   3.527   0.661  17.300 -0.8266  0.2017 -0.0826
  729MPD2    H510835   3.507   0.730  17.372 -0.5348 -0.9580  1.1224
  729MPD2    N110836   3.523   0.635  16.812  1.1901 -0.0809 -0.1882
  729MPD2    H710837   3.493   0.676  16.724  1.0735  0.8330  0.2739
  730TMC3    C110838   3.715   0.588  17.410 -0.1159 -0.2820 -0.1768
  730TMC3    C210839   3.835   0.530  17.365  1.0571  0.2680 -0.1645
  730TMC3    C310840   3.960   0.593  17.374  1.0727  0.5966 -0.6543
  730TMC3    C410841   3.718   0.721  17.458 -0.4291  0.5729  0.6863
  730TMC3    C510842   3.842   0.791  17.444  0.6998  0.3384  0.2059
  730TMC3    C610843   3.958   0.721  17.411 -0.1927 -0.1455  0.3535
  730TMC3     C10844   3.604   0.552  17.325  0.1299 -0.5566  0.4742
  730TMC3     O10845   3.600   0.449  17.261 -0.5124  0.2047  0.5312
  730TMC3     H10846   3.837   0.430  17.323 -1.2666  0.3101 -0.3731
  730TMC3    H110847   3.629   0.771  17.494  0.3718 -0.1522  3.7212
  730TMC3    H210848   4.044   0.784  17.394  1.5556 -2.8177 -0.6403
  730TMC3    C710849   3.847   0.933  17.414 -0.0370  0.2702 -0.7513
  730TMC3    C810850   4.055   0.544  17.281  0.2911 -0.2986  0.6734
  730TMC3    O110851   3.940   0.980  17.353  0.1222  0.6796 -0.1278
  730TMC3    O210852   4.022   0.445  17.213  0.0385 -0.3216 -0.0766
  731MPD2     C10853   3.231   3.258  12.557  0.3614 -0.5494 -0.0730
  731MPD2    C110854   3.336   3.215  12.486  0.2910  0.9066 -0.2751
  731MPD2    C210855   3.465   3.277  12.500 -0.7690  1.2808 -0.4882
  731MPD2    C310856   3.487   3.365  12.601  0.2593 -0.3451 -0.0581
  731MPD2    C410857   3.381   3.414  12.671  0.0577  0.1646  0.3136
  731MPD2    C510858   3.255   3.364  12.643  0.1673 -0.1719  0.5187
  731MPD2     H10859   3.557   3.262  12.444  0.4902 -0.7729  2.1395
  731MPD2    H110860   3.391   3.493  12.745  1.5587  1.2850 -1.0907
  731MPD2    H210861   3.126   3.232  12.563  0.1876  0.2402  0.3471
  731MPD2    H310862   3.170   3.403  12.698  0.2872  1.6970 -0.6284
  731MPD2     N10863   3.621   3.413  12.614  0.5210  0.2916 -0.6538
  731MPD2    H510864   3.695   3.358  12.572  1.2786  1.1517 -0.4682
  731MPD2    N110865   3.322   3.109  12.389 -0.1765 -0.2132  0.4539
  731MPD2    H710866   3.229   3.069  12.379 -0.7881  1.5079 -0.7063
  732TMC3    C110867   3.382   2.998  12.193  0.0285  0.0834 -0.5170
  732TMC3    C210868   3.274   2.907  12.200 -0.2314 -0.1386 -0.4235
  732TMC3    C310869   3.265   2.810  12.108  0.7493  0.5999  0.4547
  732TMC3    C410870   3.477   2.988  12.092 -0.0420 -0.2281 -0.3152
  732TMC3    C510871   3.461   2.884  12.005 -0.5766  0.5486  0.1326
  732TMC3    C610872   3.357   2.796  12.012  0.4877 -0.3296  0.7066
  732TMC3     C10873   3.423   3.060  12.308 -0.2880 -0.3138 -0.1184
  732TMC3     O10874   3.542   3.089  12.310 -0.3912 -0.0753  0.2106
  732TMC3     H10875   3.217   2.908  12.292 -0.2756  1.9575 -0.4871
  732TMC3    H110876   3.561   3.055  12.081 -1.2416  1.1566 -1.0898
  732TMC3    H210877   3.356   2.711  11.944 -0.3319  0.3000 -0.0629
  732TMC3    C710878   3.567   2.857  11.909 -0.4234 -0.1283  0.0878
  732TMC3    C810879   3.150   2.727  12.101  0.1232  0.2267 -0.2699
  732TMC3    O110880   3.533   2.795  11.808  0.8616  0.4024 -0.0418
  732TMC3    O210881   3.162   2.624  12.032 -0.0078 -0.5627 -0.4475
  733TMC3    C110882   0.085   1.270  12.500 -0.1625  0.4348  0.1487
  733TMC3    C210883   0.183   1.201  12.573  0.4171  0.4716 -0.4904
  733TMC3    C310884   0.307   1.240  12.561  1.0778 -0.4004 -0.2681
  733TMC3    C410885   0.115   1.369  12.401  0.3302 -0.7987 -0.2469
  733TMC3    C510886   0.250   1.390  12.388 -0.2873 -0.5341  0.4412
  733TMC3    C610887   0.345   1.333  12.469  0.8917 -0.0543  0.5782
  733TMC3     C10888   4.686   1.243  12.534  0.3341  0.2960 -0.2418
  733TMC3     O10889   4.605   1.332  12.510 -0.4953 -0.6823  0.1902
  733TMC3     H10890   0.159   1.147  12.664  0.1493 -0.3266 -1.0437
  733TMC3    H110891   0.034   1.418  12.347  1.5595  0.3341 -1.0514
  733TMC3    H210892   0.450   1.354  12.459  0.7219  0.0140 -0.9998
  733TMC3    C710893   0.278   1.533  12.391 -1.1648  0.5658  0.0334
  733TMC3    C810894   0.385   1.244  12.676 -0.5675 -0.1465  0.3724
  733TMC3    O110895   0.352   1.566  12.484  0.7247  0.1937  0.2271
  733TMC3    O210896   0.412   1.154  12.751  0.2130 -0.2965  0.1461
  734MPD2     C10897   1.355   3.504  12.076  0.2660 -0.5220 -0.2008
  734MPD2    C110898   1.389   3.463  11.953  0.7146  0.3353 -0.2787
  734MPD2    C210899   1.379   3.554  11.853 -0.3587  0.5847  0.0947
  734MPD2    C310900   1.334   3.685  11.870 -0.9916 -0.3858  0.0482
  734MPD2    C410901   1.296   3.717  11.995  0.3994 -0.1440 -0.1301
  734MPD2    C510902   1.307   3.628  12.101 -1.0091  0.8176 -0.5494
  734MPD2     H10903   1.417   3.533  11.753 -0.5628  0.9446 -0.0625
  734MPD2    H110904   1.240   3.809  12.010  1.8783  0.9672 -1.3965
  734MPD2    H210905   1.374   3.444  12.164 -0.3105 -3.6530 -2.2221
  734MPD2    H310906   1.286   3.664  12.201 -0.5808  0.7363 -0.4301
  734MPD2     N10907   1.348   3.774  11.760 -0.5729  0.8303  0.1672
  734MPD2    H510908   1.390   3.736  11.676  0.5650  0.5521  0.8469
  734MPD2    N110909   1.445   3.329  11.948  0.1284 -0.6429 -0.0805
  734MPD2    H710910   1.472   3.281  12.033  1.6119 -1.5924 -1.0813
  735TMC3    C110911   1.534   3.140  11.827  0.6076  0.2039  0.2760
  735TMC3    C210912   1.539   3.083  11.702 -0.2242 -0.4391 -0.1657
  735TMC3    C310913   1.660   3.053  11.644  0.7175 -0.0205  0.2697
  735TMC3    C410914   1.649   3.142  11.907 -0.1387  1.1004 -0.1650
  735TMC3    C510915   1.762   3.104  11.847  0.3392  0.2182 -0.0351
  735TMC3    C610916   1.774   3.061  11.717  0.2275 -0.7572  0.0809
  735TMC3     C10917   1.473   3.271  11.825  0.2951 -0.2906 -0.4681
  735TMC3     O10918   1.454   3.324  11.714 -0.1877  0.4565 -0.7562
  735TMC3     H10919   1.451   3.075  11.639 -1.4171 -0.4408  1.5113
  735TMC3    H110920   1.647   3.167  12.012 -0.1024  3.4143 -0.7154
  735TMC3    H210921   1.867   3.035  11.669 -0.3842 -1.3924 -0.7576
  735TMC3    C710922   1.888   3.138  11.910 -0.5473 -0.3548 -0.4189
  735TMC3    C810923   1.668   3.104  11.511 -1.2660  0.0374  0.2860
  735TMC3    O110924   1.987   3.081  11.873  0.0958  0.1296 -0.2870
  735TMC3    O210925   1.766   3.066  11.448  0.2359 -0.1096  0.1192
  736MPD2     C10926   1.961   3.454  12.086 -0.2562  0.2697  0.9423
  736MPD2    C110927   1.993   3.335  12.028 -0.1713 -0.1807  0.1372
  736MPD2    C210928   2.126   3.306  12.008 -0.6686  0.4401  0.4948
  736MPD2    C310929   2.223   3.391  12.060 -0.1819 -0.5230 -0.5059
  736MPD2    C410930   2.189   3.502  12.137 -0.2140  0.2845  0.4096
  736MPD2    C510931   2.054   3.532  12.146 -0.7926 -0.4815 -0.6402
  736MPD2     H10932   2.152   3.223  11.943 -0.9000  0.5813  0.2197
  736MPD2    H110933   2.263   3.562  12.189  1.6358 -0.6251 -1.2324
  736MPD2    H210934   1.855   3.477  12.092  0.4259  3.7833 -0.3652
  736MPD2    H310935   2.020   3.615  12.207  0.6091 -1.0058  0.8297
  736MPD2     N10936   2.356   3.363  12.029  0.0792 -0.1207 -0.4112
  736MPD2    H510937   2.427   3.434  12.046 -2.0378  1.6032  1.1774
  736MPD2    N110938   1.881   3.258  11.976 -0.0977  0.1362  0.1718
  736MPD2    H710939   1.800   3.318  11.964  0.5748  1.3557  1.8035
  737TMC3    C110940   2.530   3.271  11.903  0.0305 -0.0959  0.2272
  737TMC3    C210941   2.572   3.399  11.868 -0.5169  0.1816 -0.4738
  737TMC3    C310942   2.647   3.409  11.754  0.1986 -0.6215 -0.7603
  737TMC3    C410943   2.582   3.158  11.831  0.9215  0.2317  0.3095
  737TMC3    C510944   2.680   3.178  11.741 -0.4714  0.4851 -0.1187
  737TMC3    C610945   2.713   3.302  11.700 -0.2632 -0.1523  0.0476
  737TMC3     C10946   2.401   3.250  11.967  0.0218 -0.5435 -0.6841
  737TMC3     O10947   2.345   3.147  11.946  0.1728  0.4322 -0.0904
  737TMC3     H10948   2.515   3.487  11.895  1.9663  1.6897 -0.1567
  737TMC3    H110949   2.541   3.060  11.854 -0.0099  0.7263  0.7867
  737TMC3    H210950   2.768   3.319  11.607 -1.6287  0.8976 -0.5687
  737TMC3    C710951   2.730   3.052  11.680  0.6170 -0.7962 -0.4612
  737TMC3    C810952   2.655   3.536  11.692 -0.0577 -0.3340 -0.2058
  737TMC3    O110953   2.653   2.950  11.680  0.0919  0.2986 -0.8866
  737TMC3    O210954   2.699   3.627  11.756  0.2870  0.4435 -0.2959
  738MPD2     C10955   2.299   2.864  14.932  0.2712  0.0787  0.4357
  738MPD2    C110956   2.370   2.748  14.921  0.0582 -0.3812  0.6355
  738MPD2    C210957   2.505   2.755  14.877  0.0918  0.1307 -0.1799
  738MPD2    C310958   2.553   2.876  14.838  0.0197  0.3644 -0.4537
  738MPD2    C410959   2.476   2.993  14.844 -0.3077 -0.8624 -0.2748
  738MPD2    C510960   2.351   2.988  14.896 -0.7308 -0.0030 -0.4352
  738MPD2     H10961   2.575   2.673  14.869  0.5728  0.6615 -1.4870
  738MPD2    H110962   2.505   3.086  14.797  0.9774 -1.5006 -0.7319
  738MPD2    H210963   2.193   2.854  14.952 -0.1793  2.1628 -0.9064
  738MPD2    H310964   2.290   3.077  14.894  1.3739  1.4513  0.0688
  738MPD2     N10965   2.685   2.896  14.790  0.1635 -0.0062 -0.8775
  738MPD2    H510966   2.703   2.985  14.746 -0.6872 -0.6065 -2.4632
  738MPD2    N110967   2.323   2.618  14.961 -0.1656  0.0107  0.2212
  738MPD2    H710968   2.385   2.539  14.946 -0.8851 -0.7755  1.4046
  739TMC3    C110969   2.895   2.816  14.727  0.4650 -0.8197  0.0363
  739TMC3    C210970   2.867   2.804  14.594  0.4170  0.3048  0.4004
  739TMC3    C310971   2.973   2.790  14.503  0.4716  0.4823 -0.1936
  739TMC3    C410972   3.020   2.788  14.775  0.3136 -0.2976  0.4924
  739TMC3    C510973   3.122   2.761  14.684 -0.4789  0.5724  0.2102
  739TMC3    C610974   3.101   2.759  14.556 -0.9200  0.3733 -0.7838
  739TMC3     C10975   2.789   2.811  14.817 -0.2814 -0.0165 -0.2434
  739TMC3     O10976   2.793   2.724  14.901 -0.0931 -0.2610  0.2059
  739TMC3     H10977   2.766   2.822  14.560 -0.1368 -0.2668  1.7153
  739TMC3    H110978   3.046   2.793  14.880  1.4025  0.2448  0.1894
  739TMC3    H210979   3.180   2.734  14.486 -1.0890  1.4065 -1.3477
  739TMC3    C710980   3.246   2.697  14.730 -0.1794  0.1134  0.0201
  739TMC3    C810981   2.936   2.788  14.368 -0.4671 -0.3947  0.0530
  739TMC3    O110982   3.304   2.748  14.831  0.0462  0.2235  0.4128
  739TMC3    O210983   2.838   2.853  14.329  0.8432 -0.6582  0.2101
  740TMC3    C110984   3.207   4.060  14.568  0.1377 -0.3415  0.3788
  740TMC3    C210985   3.231   3.975  14.679 -0.6813 -0.2605  0.3048
  740TMC3    C310986   3.362   3.941  14.703  0.4911 -0.1687 -0.6721
  740TMC3    C410987   3.306   4.085  14.479 -0.7333 -0.4194  0.1133
  740TMC3    C510988   3.438   4.047  14.514  0.7574 -0.2332  0.4913
  740TMC3    C610989   3.467   3.984  14.630  0.7614  0.0902  0.0226
  740TMC3     C10990   3.077   4.112  14.533  0.2364  0.0042 -0.3819
  740TMC3     O10991   3.071   4.190  14.441 -0.2516  0.3810  0.8540
  740TMC3     H10992   3.151   3.957  14.750 -4.0966  0.5009 -3.3479
  740TMC3    H110993   3.288   4.152  14.395  0.4293  0.7798  0.8038
  740TMC3    H210994   3.571   3.966  14.657  0.7461 -1.3712 -0.9048
  740TMC3    C710995   3.533   4.031  14.407 -0.0035 -0.2533  0.0791
  740TMC3    C810996   3.394   3.836  14.791  0.3133  0.2521  0.3853
  740TMC3    O110997   3.645   3.996  14.439 -0.4417  0.5058  0.0320
  740TMC3    O210998   3.510   3.809  14.806 -0.0904 -0.5218 -0.0253
  741TMC3    C110999   2.648   3.424  14.085 -0.0531 -0.7622 -0.3331
  741TMC3    C211000   2.554   3.340  14.131  0.2252 -0.0211  0.4793
  741TMC3    C311001   2.579   3.206  14.111 -0.4767  1.1855  0.0924
  741TMC3    C411002   2.754   3.382  14.009 -0.6441 -0.6017 -0.4836
  741TMC3    C511003   2.770   3.244  13.993  0.2521  0.3034 -1.0107
  741TMC3    C611004   2.686   3.148  14.050  0.6791 -0.4507 -0.2852
  741TMC3     C11005   2.602   3.563  14.071  0.4290 -0.5151  0.2887
  741TMC3     O11006   2.683   3.649  14.040 -0.5644 -0.8351  0.4008
  741TMC3     H11007   2.471   3.382  14.186  1.5986  1.7318  1.2314
  741TMC3    H111008   2.804   3.455  13.946  0.2840  0.0009  0.9483
  741TMC3    H211009   2.683   3.046  14.014  2.8223 -0.1360 -1.3704
  741TMC3    C711010   2.875   3.202  13.898 -0.9056  0.0245  0.1062
  741TMC3    C811011   2.461   3.122  14.133 -0.1802  0.6054 -0.2736
  741TMC3    O111012   2.912   3.286  13.817 -0.2997 -0.5422 -0.6735
  741TMC3    O211013   2.366   3.195  14.151 -0.5895  0.1434  0.1610
  742TMC3    C111014   2.441   2.008  15.642 -0.3598 -0.4086 -0.7729
  742TMC3    C211015   2.431   1.963  15.518  0.2963 -0.1702  0.0119
  742TMC3    C311016   2.533   1.999  15.426  0.0256 -0.3108  0.2706
  742TMC3    C411017   2.562   2.067  15.683 -0.6822 -0.5400  0.3235
  742TMC3    C511018   2.669   2.067  15.597  0.7170 -0.7071 -0.4232
  742TMC3    C611019   2.659   2.039  15.464  0.0801  0.4908  0.0316
  742TMC3     C11020   2.400   1.920  15.744 -0.0285 -0.0069  0.0877
  742TMC3     O11021   2.430   1.951  15.861 -0.6043  0.2806 -0.1635
  742TMC3     H11022   2.331   1.933  15.490 -0.4339 -0.2196  2.7149
  742TMC3    H111023   2.567   2.114  15.780 -1.0491  0.3012 -0.0621
  742TMC3    H211024   2.738   2.070  15.397  0.3351 -0.2993 -0.0387
  742TMC3    C711025   2.802   2.096  15.652 -0.0900  0.1841 -0.0143
  742TMC3    C811026   2.509   1.974  15.285 -0.2108 -0.1499  1.2178
  742TMC3    O111027   2.797   2.144  15.763 -0.2552 -0.2448  0.2812
  742TMC3    O211028   2.419   1.893  15.261 -0.4120 -0.0355 -0.6739
  743MPD2     C11029   0.303   2.950   1.900  0.6364 -0.1798  0.1226
  743MPD2    C111030   0.363   2.945   1.772 -0.4378 -0.2246  0.1574
  743MPD2    C211031   0.503   2.946   1.763 -0.5202 -0.2241  0.0751
  743MPD2    C311032   0.577   2.927   1.878  0.4232  1.0615 -0.9184
  743MPD2    C411033   0.520   2.930   2.002  0.0445 -0.5989  0.1661
  743MPD2    C511034   0.385   2.944   2.006  0.2359  0.4656 -0.1395
  743MPD2     H11035   0.545   2.953   1.664 -0.4588  2.1287  0.2872
  743MPD2    H111036   0.574   2.925   2.096  1.4758  2.1098 -0.5188
  743MPD2    H211037   0.196   2.953   1.917  0.4552  1.7796 -1.2598
  743MPD2    H311038   0.338   2.956   2.102  1.1842  0.7398  0.2965
  743MPD2     N11039   0.719   2.909   1.857 -0.0109  0.1465  0.4495
  743MPD2    H511040   0.748   2.897   1.760 -0.5535  1.1917  0.1529
  743MPD2    N111041   0.272   2.952   1.660 -1.0431 -0.2324 -0.2921
  743MPD2    H711042   0.174   2.964   1.686 -1.1193 -0.6114 -0.4057
  744TMC3    C111043   0.208   2.924   1.431  0.0349 -0.4235  0.0815
  744TMC3    C211044   0.098   2.999   1.450 -0.2090  0.3863 -0.2792
  744TMC3    C311045   4.735   2.975   1.364 -0.3367 -0.8167 -0.2698
  744TMC3    C411046   0.222   2.826   1.337  1.0077  0.1197  0.2300
  744TMC3    C511047   0.123   2.814   1.243  0.1401  0.3487 -0.2726
  744TMC3    C611048   0.009   2.889   1.258  0.1807  0.4537 -0.4061
  744TMC3     C11049   0.311   2.920   1.536  0.3531  0.6394 -0.2116
  744TMC3     O11050   0.415   2.859   1.506 -0.6108  0.1802  0.4393
  744TMC3     H11051   0.101   3.079   1.524  2.5828 -0.7232  0.7982
  744TMC3    H111052   0.316   2.776   1.321  1.3984  0.6297  0.9493
  744TMC3    H211053   4.665   2.878   1.188  0.1361 -1.5882 -0.0363
  744TMC3    C711054   0.179   2.823   1.110 -0.1028 -1.2080 -0.2473
  744TMC3    C811055   4.606   3.035   1.398 -0.2623 -0.2423 -0.0285
  744TMC3    O111056   0.290   2.765   1.100 -0.5208  0.0105  0.6614
  744TMC3    O211057   4.607   3.098   1.506  0.3113 -0.0217  0.0586
  745TMC3    C111058   3.424   1.049  13.670 -0.3732 -0.6936 -0.3891
  745TMC3    C211059   3.305   1.067  13.739 -0.2158  0.4340 -0.4561
  745TMC3    C311060   3.182   1.057  13.681 -0.2364 -0.4030  0.7275
  745TMC3    C411061   3.421   1.023  13.536  0.6335 -0.0146 -0.2973
  745TMC3    C511062   3.297   1.014  13.475 -0.3703 -0.3760 -0.0193
  745TMC3    C611063   3.183   1.023  13.547 -0.0656 -0.1672  0.2606
  745TMC3     C11064   3.538   1.105  13.726  0.4263  0.2982  0.2678
  745TMC3     O11065   3.556   1.086  13.846 -0.4667 -0.4733 -0.5463
  745TMC3     H11066   3.326   1.075  13.845  0.0418 -3.1784 -0.2476
  745TMC3    H111067   3.515   1.007  13.485  1.6364  2.5794  0.7369
  745TMC3    H211068   3.087   1.020  13.497  0.6492 -1.5582 -1.0138
  745TMC3    C711069   3.290   1.003  13.335 -0.2789  0.4293 -0.0337
  745TMC3    C811070   3.102   1.179  13.688  0.0383  0.2530  0.6671
  745TMC3    O111071   3.178   0.976  13.292  0.2373 -0.0315  0.4620
  745TMC3    O211072   2.996   1.186  13.625  0.0681  0.4549  0.0891
  746TMC3    C111073   0.632   3.413  11.240  0.0662  0.0738  0.2171
  746TMC3    C211074   0.755   3.386  11.183  0.4284 -0.3096  0.0004
  746TMC3    C311075   0.794   3.257  11.169 -0.0136 -0.0984 -0.0784
  746TMC3    C411076   0.556   3.315  11.300  0.1172 -0.0471 -0.1066
  746TMC3    C511077   0.595   3.188  11.280  0.3489 -0.5652 -0.2941
  746TMC3    C611078   0.716   3.151  11.217  0.4262  0.0802  0.1215
  746TMC3     C11079   0.589   3.552  11.261 -0.1389  0.2220 -0.1708
  746TMC3     O11080   0.490   3.560  11.327  0.7504  0.3466  0.1360
  746TMC3     H11081   0.817   3.467  11.146 -1.5563  1.0102 -0.4199
  746TMC3    H111082   0.462   3.336  11.351 -1.0500  1.3033 -2.8194
  746TMC3    H211083   0.747   3.048  11.201  0.1688  0.0360 -0.0892
  746TMC3    C711084   0.498   3.085  11.300  0.3675 -0.2067 -0.4331
  746TMC3    C811085   0.914   3.208  11.101 -0.7590 -0.2156  0.4124
  746TMC3    O111086   0.525   2.967  11.290  0.0361 -0.0243  0.5340
  746TMC3    O211087   0.928   3.086  11.116  0.2527 -0.1108  0.2440
  747TMC3    C111088   3.474   3.150  10.975  0.1025  0.2304 -0.5793
  747TMC3    C211089   3.391   3.051  11.023  0.1909 -0.8664 -0.7670
  747TMC3    C311090   3.379   3.033  11.160  0.1858  0.2942  0.0414
  747TMC3    C411091   3.536   3.236  11.057 -0.1766  0.4073 -0.1429
  747TMC3    C511092   3.522   3.221  11.195 -0.2266 -0.4275  0.0566
  747TMC3    C611093   3.449   3.116  11.246 -0.1423  0.2209  0.7119
  747TMC3     C11094   3.514   3.147  10.834  0.8315  0.2562  0.2683
  747TMC3     O11095   3.634   3.187  10.811  0.2657 -0.5724  0.3488
  747TMC3     H11096   3.335   2.995  10.949 -0.7167  0.0933 -0.8125
  747TMC3    H111097   3.595   3.314  11.009  1.8878 -1.0313  0.0635
  747TMC3    H211098   3.439   3.107  11.353 -2.2245  1.8334  0.6462
  747TMC3    C711099   3.583   3.319  11.280 -0.1460  0.5073 -0.0735
  747TMC3    C811100   3.266   2.947  11.202  0.0539 -0.3168  0.6983
  747TMC3    O111101   3.568   3.295  11.401 -0.1692 -0.2298  0.0979
  747TMC3    O211102   3.218   2.857  11.134 -1.0628  0.5389 -0.5334
  748MPD2     C11103   4.284   4.069   1.680 -0.2426  0.2569 -0.0789
  748MPD2    C111104   4.338   3.997   1.569  0.0512  0.0263 -0.0929
  748MPD2    C211105   4.481   3.980   1.562  0.8505 -0.2540  0.2744
  748MPD2    C311106   4.552   4.024   1.673 -0.4506  0.2987  0.1937
  748MPD2    C411107   4.492   4.071   1.787  0.1132 -1.1439 -0.2889
  748MPD2    C511108   4.358   4.093   1.792 -0.0505  0.1157  0.0287
  748MPD2     H11109   4.534   3.938   1.477  0.4833  1.3050 -0.7077
  748MPD2    H111110   4.552   4.090   1.875  0.7501 -2.2578 -0.4816
  748MPD2    H211111   4.178   4.090   1.693 -0.3041 -0.5335  0.6867
  748MPD2    H311112   4.317   4.132   1.884  2.6433 -0.8642  1.6261
  748MPD2     N11113   4.695   4.008   1.663  0.2464 -0.6185  0.2840
  748MPD2    H511114   4.734   3.989   1.571 -0.1301  2.4690 -0.5338
  748MPD2    N111115   4.255   3.968   1.459  0.0652 -0.2475  0.6809
  748MPD2    H711116   4.173   4.027   1.450  1.4168  1.1211 -2.5117
  749TMC3    C111117   0.193   4.034   1.713 -0.9063  0.4134 -0.6676
  749TMC3    C211118   0.289   4.002   1.800  0.3772  0.8309  0.0580
  749TMC3    C311119   0.410   3.990   1.742  0.0713 -0.3299 -0.7539
  749TMC3    C411120   0.218   4.061   1.579 -0.3616 -0.1108  0.1179
  749TMC3    C511121   0.347   4.057   1.524  0.0494  0.4982  0.2143
  749TMC3    C611122   0.444   4.007   1.610 -0.4913  1.0556 -0.2155
  749TMC3     C11123   0.053   4.041   1.755 -0.6491  0.4223  0.4316
  749TMC3     O11124   0.034   4.062   1.874  0.2211  0.1115  0.0279
  749TMC3     H11125   0.271   4.000   1.907 -0.8847  0.8795 -0.1569
  749TMC3    H111126   0.143   4.078   1.503 -0.3602  0.1364  0.1713
  749TMC3    H211127   0.547   4.032   1.585  1.2651 -5.1072  0.8538
  749TMC3    C711128   0.391   4.142   1.409  0.4251  0.6824  0.5440
  749TMC3    C811129   0.505   3.920   1.824  0.1994 -0.2153 -0.0189
  749TMC3    O111130   0.322   4.240   1.384  0.1931  0.3281  0.0289
  749TMC3    O211131   0.482   3.914   1.945 -0.1299  0.1286 -0.0603
  750MPD2     C11132   0.587   0.526  11.420 -0.9529 -0.2740 -0.2487
  750MPD2    C111133   0.477   0.463  11.470  0.3181 -0.9766 -0.3886
  750MPD2    C211134   0.425   0.359  11.404  0.4255  0.1065 -1.7395
  750MPD2    C311135   0.497   0.302  11.296  0.1381  0.3162  0.9048
  750MPD2    C411136   0.613   0.361  11.262  0.0326  0.2312  0.6579
  750MPD2    C511137   0.650   0.480  11.312  0.5079  0.4458  0.3569
  750MPD2     H11138   0.329   0.320  11.438 -0.4851  3.3650 -0.6080
  750MPD2    H111139   0.677   0.317  11.187 -0.5954 -1.3325  1.0266
  750MPD2    H211140   0.625   0.622  11.455  1.0148 -0.4763 -1.7717
  750MPD2    H311141   0.738   0.529  11.273 -0.3586  1.4194 -0.3607
  750MPD2     N11142   0.428   0.208  11.206  0.3297  0.2498 -0.4199
  750MPD2    H511143   0.480   0.159  11.135  1.7402  0.5946  0.3748
  750MPD2    N111144   0.422   0.524  11.583  0.5059 -0.7622  0.4616
  750MPD2    H711145   0.486   0.592  11.622  1.1738 -0.5939 -0.9179
  751TMC3    C111146   0.258   0.069  11.122 -0.1153 -0.2090 -0.5437
  751TMC3    C211147   0.135   0.011  11.148 -0.3318 -0.3610  0.3710
  751TMC3    C311148   0.108   4.627  11.089  0.0152  0.4412 -0.0022
  751TMC3    C411149   0.338   0.035  11.018  0.2282  0.0157 -0.0269
  751TMC3    C511150   0.307   4.658  10.953  0.0797  0.7217 -0.1718
  751TMC3    C611151   0.205   4.580  10.996 -0.1506 -0.5937  0.4656
  751TMC3     C11152   0.303   0.164  11.226 -0.0041  0.2638 -0.5952
  751TMC3     O11153   0.207   0.210  11.293  0.4946 -0.0824 -0.1280
  751TMC3     H11154   0.079   0.037  11.236 -1.9082  0.4340 -0.8743
  751TMC3    H111155   0.432   0.084  10.997  1.3177 -1.0689  2.2760
  751TMC3    H211156   0.181   4.482  10.956 -1.2666 -1.1367  2.4302
  751TMC3    C711157   0.419   4.597  10.879 -0.0211 -0.2354 -0.6109
  751TMC3    C811158   0.015   4.541  11.171 -0.0213 -0.5061  0.2476
  751TMC3    O111159   0.500   4.665  10.824  0.3103  0.4408  0.1729
  751TMC3    O211160   4.692   4.594  11.268  0.2261 -0.9732 -0.0461
  752TMC3    C111161   4.233   0.178  17.357 -0.4107 -0.2952 -0.2902
  752TMC3    C211162   4.328   0.133  17.448 -0.2489 -0.6189  0.7960
  752TMC3    C311163   4.292   0.115  17.578 -0.1482 -0.0661  0.0832
  752TMC3    C411164   4.106   0.219  17.391 -0.1320  0.9007  0.1766
  752TMC3    C511165   4.081   0.200  17.523  0.1541 -0.2618 -0.6814
  752TMC3    C611166   4.167   0.156  17.622  0.9550 -0.3380 -0.3526
  752TMC3     C11167   4.271   0.169  17.216  0.5628  0.1014 -0.3756
  752TMC3     O11168   4.379   0.113  17.190  0.4420  0.1238 -0.4273
  752TMC3     H11169   4.426   0.094  17.425  0.9394  3.5882 -1.2248
  752TMC3    H111170   4.026   0.245  17.322  0.3607 -1.4417 -1.2773
  752TMC3    H211171   4.130   0.137  17.722  0.5384 -1.5795 -0.7511
  752TMC3    C711172   3.950   0.231  17.561  0.5368 -0.7204 -0.2002
  752TMC3    C811173   4.359   0.007  17.646 -0.2393 -0.3255  0.6186
  752TMC3    O111174   3.861   0.205  17.483  0.0948  0.0479  0.3844
  752TMC3    O211175   4.441   4.675  17.581  0.0745  0.2098 -0.0996
  753TMC3    C111176   1.287   1.131  13.494 -0.1322 -0.3953  0.5222
  753TMC3    C211177   1.358   1.135  13.611 -0.5481  0.7644  0.0505
  753TMC3    C311178   1.362   1.024  13.690 -0.0868 -0.1628  0.1235
  753TMC3    C411179   1.220   1.025  13.449 -0.7701  0.8131  0.5364
  753TMC3    C511180   1.231   0.909  13.528  0.0704 -0.4830  0.4265
  753TMC3    C611181   1.306   0.912  13.646 -0.1155 -0.2358 -0.6618
  753TMC3     C11182   1.264   1.259  13.423 -0.4160  0.5797 -0.5226
  753TMC3     O11183   1.352   1.344  13.442  0.4411 -0.1061  0.4893
  753TMC3     H11184   1.404   1.227  13.643 -2.9158  2.2010 -0.6575
  753TMC3    H111185   1.166   1.025  13.355  1.6285 -0.9412 -0.8394
  753TMC3    H211186   1.316   0.818  13.699 -0.2629  0.4038  0.4953
  753TMC3    C711187   1.178   0.788  13.474 -0.3420 -0.7393  0.2461
  753TMC3    C811188   1.459   1.015  13.803 -0.4191  0.1226 -0.7148
  753TMC3    O111189   1.135   0.789  13.362 -0.3165  0.1039  0.5874
  753TMC3    O211190   1.482   0.897  13.837  0.2276 -0.7955 -0.0592
  754MPD2     C11191   0.584   0.350  13.602  0.4555  0.0351 -0.0467
  754MPD2    C111192   0.591   0.213  13.604 -0.8542 -0.2466  0.2300
  754MPD2    C211193   0.478   0.140  13.565  0.3220 -0.2227 -0.2843
  754MPD2    C311194   0.362   0.210  13.521  0.1664  0.0671 -0.2971
  754MPD2    C411195   0.362   0.344  13.517 -0.2008 -0.5601  0.2445
  754MPD2    C511196   0.466   0.415  13.566  0.1059 -0.7884  0.2995
  754MPD2     H11197   0.483   0.032  13.572  0.4452 -0.1392  1.0013
  754MPD2    H111198   0.278   0.400  13.476 -0.9591 -0.3117  2.1560
  754MPD2    H211199   0.668   0.408  13.639  1.2099 -1.3905  0.4887
  754MPD2    H311200   0.451   0.522  13.558 -0.5044 -1.0009 -1.3948
  754MPD2     N11201   0.248   0.144  13.470  0.1870 -0.5883 -0.0012
  754MPD2    H511202   0.171   0.202  13.441  0.4497 -1.0365 -1.5670
  754MPD2    N111203   0.706   0.148  13.657 -0.2817 -1.0861 -0.0194
  754MPD2    H711204   0.760   0.208  13.718  0.6200 -0.5827 -1.3243
  755MPD2     C11205   4.180   0.437  13.438  0.1444  0.2854  0.6055
  755MPD2    C111206   4.144   0.306  13.468 -0.0460 -0.1781  0.3572
  755MPD2    C211207   4.240   0.206  13.466 -0.1349  0.2023  0.7941
  755MPD2    C311208   4.374   0.241  13.444 -0.0081 -0.8810 -0.7920
  755MPD2    C411209   4.405   0.373  13.423 -0.2663  0.5659 -0.2922
  755MPD2    C511210   4.310   0.466  13.426 -0.5839 -0.1919 -0.0297
  755MPD2     H11211   4.212   0.105  13.492 -0.5055 -0.1749 -1.0916
  755MPD2    H111212   4.509   0.403  13.410 -0.4428  0.9877 -0.7365
  755MPD2    H211213   4.104   0.514  13.437 -1.2521 -1.0920  1.3042
  755MPD2    H311214   4.329   0.570  13.406  2.0533 -0.5218  0.7815
  755MPD2     N11215   4.484   0.151  13.445  0.3923 -0.0086  0.2536
  755MPD2    H511216   4.577   0.191  13.440  0.4144  0.2384  2.6238
  755MPD2    N111217   4.009   0.263  13.491 -0.0670  0.0270  0.0535
  755MPD2    H711218   3.998   0.164  13.511  0.8282  0.3448  2.1831
  756MPD2     C11219   0.129   1.091   9.931 -0.2190  0.4610 -0.0874
  756MPD2    C111220   0.062   1.004  10.017 -1.0670 -0.6986 -0.4177
  756MPD2    C211221   4.680   0.948   9.979 -0.4078  0.5237  0.1837
  756MPD2    C311222   4.636   0.971   9.848  0.3675 -0.2407 -1.0705
  756MPD2    C411223   4.707   1.058   9.759 -0.2250 -0.1805 -0.0582
  756MPD2    C511224   0.083   1.120   9.805 -0.3201 -1.3620 -0.2724
  756MPD2     H11225   4.616   0.893  10.046 -2.0560  1.1591 -0.8840
  756MPD2    H111226   4.672   1.063   9.656  1.4846 -1.3634 -0.7035
  756MPD2    H211227   0.216   1.151   9.950  0.1022 -0.5514  1.6179
  756MPD2    H311228   0.135   1.189   9.740 -1.2728  0.5005  0.9334
  756MPD2     N11229   4.518   0.910   9.820  0.2887 -0.8293 -0.2061
  756MPD2    H511230   4.470   0.852   9.888  0.1067  1.1179  1.3141
  756MPD2    N111231   0.109   0.979  10.150 -0.2608  0.0832 -0.0462
  756MPD2    H711232   0.055   0.920  10.212  2.8753 -2.0833  0.5978
  757MPD2     C11233   4.384   0.153   9.945  0.2504 -0.9256  0.1803
  757MPD2    C111234   4.461   0.261   9.988 -0.6671  0.6694 -0.1570
  757MPD2    C211235   4.410   0.387   9.970  0.2590 -0.3747  0.0520
  757MPD2    C311236   4.283   0.407   9.911  0.4457  0.7287  0.7246
  757MPD2    C411237   4.210   0.298   9.864 -0.2362  0.2005  0.0655
  757MPD2    C511238   4.259   0.175   9.891 -0.4786  0.1796  0.1480
  757MPD2     H11239   4.471   0.473   9.996 -1.2553  1.3166 -1.9976
  757MPD2    H111240   4.109   0.307   9.826 -0.4100 -0.4635  0.3629
  757MPD2    H211241   4.419   0.052   9.966  1.4227 -0.1983  1.7018
  757MPD2    H311242   4.193   0.091   9.876 -0.3411  0.3878 -1.6936
  757MPD2     N11243   4.245   0.538   9.883  0.4872 -0.6651  0.7042
  757MPD2    H511244   4.300   0.614   9.921  0.8336  0.4628 -2.0454
  757MPD2    N111245   4.583   0.225  10.048  0.1295 -0.6415  0.3076
  757MPD2    H711246   4.626   0.133  10.044 -0.1311 -0.8052  1.2364
  758MPD2     C11247   0.550   4.154  16.193 -1.0511  0.7563 -0.0919
  758MPD2    C111248   0.635   4.135  16.300  0.9039 -0.5015  0.7345
  758MPD2    C211249   0.580   4.119  16.427 -0.0072 -0.6730 -0.4718
  758MPD2    C311250   0.440   4.136  16.452  0.4076 -0.8185  0.1316
  758MPD2    C411251   0.359   4.151  16.339 -0.1754 -0.3287  0.5991
  758MPD2    C511252   0.412   4.164  16.216 -0.4397 -0.0165 -0.5144
  758MPD2     H11253   0.648   4.105  16.510 -0.9519  0.3898  0.4748
  758MPD2    H111254   0.254   4.171  16.358 -0.3813 -1.1243  0.2893
  758MPD2    H211255   0.582   4.178  16.092 -0.3045  2.5493  0.5667
  758MPD2    H311256   0.347   4.179  16.131 -0.2162 -0.7746 -0.8243
  758MPD2     N11257   0.390   4.161  16.578 -0.1476 -0.6188  0.4507
  758MPD2    H511258   0.305   4.215  16.578  0.1349 -0.1721  1.1624
  758MPD2    N111259   0.773   4.144  16.270 -0.1986 -0.3911  0.2609
  758MPD2    H711260   0.793   4.162  16.172  1.4402  1.0302  0.8614
  759MPD2     C11261   3.943   3.139  10.461 -0.6466  0.0725  0.5363
  759MPD2    C111262   3.948   3.038  10.369 -0.7920  0.0157  0.1394
  759MPD2    C211263   4.026   3.052  10.258  0.5919 -0.3933 -0.3830
  759MPD2    C311264   4.115   3.154  10.241  0.0885 -0.1150 -0.7335
  759MPD2    C411265   4.117   3.255  10.335 -0.1820  0.7834 -0.0359
  759MPD2    C511266   4.030   3.247  10.445  0.4036 -0.0604  0.1159
  759MPD2     H11267   4.021   2.982  10.175 -2.3740  0.3547 -0.8168
  759MPD2    H111268   4.169   3.347  10.311 -3.0916  2.3924 -0.1686
  759MPD2    H211269   3.884   3.145  10.552 -1.7810 -0.8958 -0.1375
  759MPD2    H311270   4.031   3.324  10.521 -1.3354  0.8616 -0.8007
  759MPD2     N11271   4.211   3.146  10.135 -0.0210 -0.1205 -0.4914
  759MPD2    H511272   4.196   3.080  10.059 -1.3745 -2.0211  1.4518
  759MPD2    N111273   3.862   2.931  10.385  0.3409 -0.5141 -0.2808
  759MPD2    H711274   3.813   2.932  10.473 -1.7690  1.4880 -1.4905
  760MPD2     C11275   3.414   0.197  11.696  0.6997  0.3251  0.0646
  760MPD2    C111276   3.482   0.263  11.798 -0.6900  0.3123  0.6690
  760MPD2    C211277   3.502   0.194  11.917  0.6535 -0.2396  0.4101
  760MPD2    C311278   3.446   0.068  11.938  0.4772 -0.3677  0.1089
  760MPD2    C411279   3.379   0.012  11.834 -0.1640  0.1770 -0.8625
  760MPD2    C511280   3.357   0.073  11.714 -0.8442 -0.1377  0.3548
  760MPD2     H11281   3.559   0.238  11.998 -2.0621  2.1611  1.0011
  760MPD2    H111282   3.329   4.655  11.855  0.4773  0.9073  4.1234
  760MPD2    H211283   3.393   0.252  11.605  1.7826 -0.6589 -0.7773
  760MPD2    H311284   3.298   0.028  11.635 -0.8301  0.7790 -0.1738
  760MPD2     N11285   3.451   0.005  12.062  0.0727 -0.1073  0.2035
  760MPD2    H511286   3.404   4.653  12.069 -1.4880  0.6726 -0.2268
  760MPD2    N111287   3.535   0.399  11.785  0.0812  0.1776 -0.0519
  760MPD2    H711288   3.595   0.430  11.860 -2.1367 -0.3848  1.9744
  761MPD2     C11289   4.540   4.102  11.316  0.2552 -0.0920 -0.0110
  761MPD2    C111290   4.621   4.072  11.207 -0.3078  0.5027 -0.4631
  761MPD2    C211291   4.683   4.177  11.142  0.0897 -0.2105 -0.0974
  761MPD2    C311292   4.667   4.309  11.179  1.0672 -0.6416  0.7537
  761MPD2    C411293   4.584   4.334  11.291  0.2204 -0.4653 -0.3535
  761MPD2    C511294   4.519   4.232  11.354  0.1737  0.3468 -0.1399
  761MPD2     H11295   0.010   4.159  11.056 -0.5335  0.1877 -0.6455
  761MPD2    H111296   4.568   4.429  11.341  3.0940  0.6187 -1.4819
  761MPD2    H211297   4.494   4.019  11.370  0.6644 -0.2238  0.1387
  761MPD2    H311298   4.438   4.248  11.424  0.7791  3.6907 -0.1942
  761MPD2     N11299   0.009   4.412  11.124  0.4175 -0.0214  0.2684
  761MPD2    H511300   0.068   4.392  11.044  0.3345  1.7855 -0.2407
  761MPD2    N111301   4.654   3.939  11.188  0.0608  0.0230  0.0223
  761MPD2    H711302   4.619   3.867  11.250  0.7707  0.2828  0.7093
  762MPD2     C11303   0.522   3.292  10.911  0.6691  0.7636 -0.8939
  762MPD2    C111304   0.513   3.430  10.911 -0.2622 -0.0790 -0.1740
  762MPD2    C211305   0.614   3.512  10.862  0.0943  0.3592 -0.1397
  762MPD2    C311306   0.724   3.448  10.810  0.4871 -0.1181  0.2239
  762MPD2    C411307   0.740   3.311  10.818 -0.1066  0.0085 -0.2524
  762MPD2    C511308   0.634   3.236  10.865 -0.2163  0.1775  0.1370
  762MPD2     H11309   0.604   3.619  10.867  0.0665  0.4446 -1.9050
  762MPD2    H111310   0.822   3.249  10.783  0.0106 -0.9826  1.7647
  762MPD2    H211311   0.447   3.228  10.955  0.3344  3.1156  1.9925
  762MPD2    H311312   0.643   3.129  10.883 -0.4205  0.0739 -0.3623
  762MPD2     N11313   0.818   3.532  10.754 -0.1850 -0.2301  0.1509
  762MPD2    H511314   0.825   3.633  10.766  1.9882 -0.3076 -0.4007
  762MPD2    N111315   0.393   3.478  10.961 -0.1925 -0.2587  0.3254
  762MPD2    H711316   0.338   3.403  11.002  0.0321 -0.5592  0.0784
  763MPD2     C11317   2.382   4.617  16.090  0.4201 -0.4786 -0.0473
  763MPD2    C111318   2.266   4.688  16.092  0.4629  0.9105  0.1401
  763MPD2    C211319   2.268   0.091  16.115  0.3709 -0.6176 -0.2432
  763MPD2    C311320   2.389   0.155  16.148 -0.2886  0.2994 -0.1679
  763MPD2    C411321   2.497   0.072  16.150 -0.4344  0.1940 -0.0547
  763MPD2    C511322   2.494   4.678  16.118 -1.0867  0.0704  0.2106
  763MPD2     H11323   2.174   0.142  16.097  0.3818 -0.3338  0.5469
  763MPD2    H111324   2.595   0.115  16.167  0.7289 -2.2330 -0.6570
  763MPD2    H211325   2.395   4.511  16.074 -0.5042 -0.4623 -0.9083
  763MPD2    H311326   2.578   4.610  16.127 -0.8033  0.3692 -0.2052
  763MPD2     N11327   2.408   0.290  16.174 -0.8075  0.6382 -0.7547
  763MPD2    H511328   2.503   0.327  16.167 -0.0381 -1.3472 -0.9449
  763MPD2    N111329   2.146   4.641  16.037  0.3403 -0.4819 -0.3984
  763MPD2    H711330   2.070   4.708  16.028  1.2563  0.6538  0.3396
  764MPD2     C11331   0.806   1.409   0.127  0.3422  0.1644 -0.0010
  764MPD2    C111332   0.849   1.287   0.077 -0.3088 -0.7732 -0.2705
  764MPD2    C211333   0.823   1.179   0.147 -0.6208 -0.4323 -0.3018
  764MPD2    C311334   0.761   1.181   0.268 -0.1128  0.4494  0.1994
  764MPD2    C411335   0.730   1.300   0.324 -0.0671  0.7308  0.7874
  764MPD2    C511336   0.754   1.415   0.252  0.4955 -0.5729 -0.2471
  764MPD2     H11337   0.858   1.086   0.104  0.6212  0.2090 -0.6928
  764MPD2    H111338   0.693   1.310   0.425  1.3282  0.8183  1.2867
  764MPD2    H211339   0.822   1.506   0.082  1.6455  0.9550  2.1736
  764MPD2    H311340   0.736   1.512   0.297  0.1343 -0.5373 -0.4608
  764MPD2     N11341   0.729   1.060   0.333  0.5662 -0.0875 -0.1775
  764MPD2    H511342   0.734   0.981   0.269 -0.3922 -1.3004  1.2398
  764MPD2    N111343   0.910   1.267  17.698  0.4633 -0.4996 -0.1281
  764MPD2    H711344   0.936   1.172  17.671  0.5526 -0.2585 -0.9070
  765MPD2     C11345   0.009   3.951  15.518  0.1492  0.0015  0.2273
  765MPD2    C111346   0.029   3.983  15.650 -0.4678 -0.3995  0.5654
  765MPD2    C211347   0.114   3.908  15.729  0.0940 -0.1984  0.4431
  765MPD2    C311348   0.190   3.803  15.677  0.2250  0.2084 -0.7271
  765MPD2    C411349   0.170   3.773  15.540 -0.2303 -0.3323 -0.1628
  765MPD2    C511350   0.081   3.844  15.473  0.4332 -0.5079  0.4457
  765MPD2     H11351   0.123   3.931  15.834 -2.1955 -0.3363  0.6813
  765MPD2    H111352   0.237   3.708  15.484  1.2051  0.8053  0.2426
  765MPD2    H211353   4.685   4.008  15.449 -0.1254  0.3312  0.7465
  765MPD2    H311354   0.067   3.820  15.369  0.0188  1.1769  0.1153
  765MPD2     N11355   0.283   3.733  15.760 -0.2289 -0.3762  0.2502
  765MPD2    H511356   0.288   3.758  15.858 -0.6652  0.1106  0.1424
  765MPD2    N111357   4.709   4.099  15.705 -0.5459 -0.0403  0.3123
  765MPD2    H711358   4.636   4.143  15.650  0.9995  1.6043 -0.4251
  766MPD2     C11359   4.122   4.227  15.546  0.5137 -0.1458 -0.5797
  766MPD2    C111360   4.262   4.197  15.534  0.5556  0.0358 -0.7108
  766MPD2    C211361   4.301   4.120  15.424  0.5102  0.3822 -0.4506
  766MPD2    C311362   4.219   4.080  15.320 -0.6018  0.3557 -0.2021
  766MPD2    C411363   4.083   4.105  15.333 -0.5932  0.9447  0.1705
  766MPD2    C511364   4.039   4.166  15.452 -0.6035  0.0574  0.2967
  766MPD2     H11365   4.407   4.095  15.427  0.8515  1.7525 -0.8569
  766MPD2    H111366   4.006   4.081  15.261 -0.9493 -0.3412  0.9829
  766MPD2    H211367   4.073   4.275  15.630  1.6567 -0.4307  0.2451
  766MPD2    H311368   3.934   4.172  15.480 -0.5884  0.4102  0.2891
  766MPD2     N11369   4.272   4.011  15.202  0.0163 -0.2457  0.1056
  766MPD2    H511370   4.214   3.989  15.122  0.7646  1.2050 -0.8321
  766MPD2    N111371   4.361   4.259  15.617 -0.1321 -0.1561  0.3608
  766MPD2    H711372   4.457   4.228  15.607  0.3993  1.8266 -0.6216
  767MPD2     C11373   3.887   4.307  15.165  0.1912  0.0345 -0.0896
  767MPD2    C111374   4.016   4.313  15.111 -0.4191 -0.5572  0.0676
  767MPD2    C211375   4.050   4.239  14.999 -0.9795 -0.0349  0.7093
  767MPD2    C311376   3.956   4.159  14.941  0.2850  0.5957  0.6586
  767MPD2    C411377   3.823   4.158  14.987  0.0412 -0.1899 -0.6774
  767MPD2    C511378   3.789   4.240  15.096 -0.0729 -0.0027  0.1255
  767MPD2     H11379   4.147   4.246  14.953 -0.9147  0.1028  0.8691
  767MPD2    H111380   3.752   4.089  14.944 -0.9669  0.9796 -0.8724
  767MPD2    H211381   3.867   4.354  15.261 -3.0979  2.5526 -2.0072
  767MPD2    H311382   3.689   4.233  15.137 -0.1751 -0.6241 -0.2188
  767MPD2     N11383   3.992   4.073  14.839  0.2636  0.4192  0.1105
  767MPD2    H511384   4.086   4.083  14.802  0.4259 -0.4415  0.2767
  767MPD2    N111385   4.114   4.395  15.177 -0.3082 -0.5664  0.8412
  767MPD2    H711386   4.081   4.439  15.262 -2.9409  0.3565 -0.6636
  768MPD2     C11387   0.625   2.844  10.726  0.2676 -0.7312 -1.2183
  768MPD2    C111388   0.579   2.766  10.824  0.2649 -1.1673  0.0181
  768MPD2    C211389   0.663   2.753  10.931  0.0328  0.4858  0.7946
  768MPD2    C311390   0.781   2.829  10.951  0.2885  0.2654 -0.4312
  768MPD2    C411391   0.819   2.916  10.850  0.0105  0.2298 -0.2025
  768MPD2    C511392   0.742   2.911  10.732  0.4806  0.0607  0.8015
  768MPD2     H11393   0.630   2.677  11.001 -1.5138 -0.6122 -1.1532
  768MPD2    H111394   0.906   2.980  10.853  1.7162 -2.1013  0.1889
  768MPD2    H211395   0.565   2.854  10.636 -0.2129  0.8162 -0.7289
  768MPD2    H311396   0.773   2.968  10.645 -0.2634  0.2381  0.6552
  768MPD2     N11397   0.860   2.806  11.064  0.3655 -0.1234  0.3760
  768MPD2    H511398   0.956   2.840  11.055 -0.1455  1.2951  0.3026
  768MPD2    N111399   0.466   2.677  10.827  0.1342 -0.3568  0.0883
  768MPD2    H711400   0.454   2.629  10.916  1.0981 -0.2155  0.2939
  769MPD2     C11401   1.265   0.808  14.926  0.6537 -0.6038 -0.3340
  769MPD2    C111402   1.149   0.817  14.995 -0.0223 -0.8244  0.3296
  769MPD2    C211403   1.148   0.859  15.128 -0.1081  0.2282  0.2229
  769MPD2    C311404   1.261   0.913  15.185  0.5067 -0.0125 -0.1975
  769MPD2    C411405   1.385   0.892  15.117  0.1476  0.1958  0.0550
  769MPD2    C511406   1.383   0.848  14.993 -0.4832 -0.5225 -0.5497
  769MPD2     H11407   1.054   0.867  15.181  0.3021  2.0765  0.6685
  769MPD2    H111408   1.478   0.933  15.153  0.1200  1.6095 -1.4272
  769MPD2    H211409   1.267   0.789  14.819 -0.0113 -3.2456  0.1286
  769MPD2    H311410   1.475   0.839  14.936  0.1772  4.2878 -0.3027
  769MPD2     N11411   1.252   0.965  15.317 -0.4278  0.0462 -0.0228
  769MPD2    H511412   1.169   0.938  15.370  0.0966 -0.9336  0.3066
  769MPD2    N111413   1.030   0.794  14.913  0.4765 -0.2341 -0.0408
  769MPD2    H711414   1.046   0.772  14.815  0.8902  1.3757 -0.3332
  770MPD2     C11415   0.303   0.393  15.170  0.7124  0.0123  0.3123
  770MPD2    C111416   0.433   0.420  15.206 -0.6274  0.6231 -0.1327
  770MPD2    C211417   0.506   0.517  15.147  0.3617  0.1840 -0.4986
  770MPD2    C311418   0.450   0.582  15.037 -0.0951  0.5266  0.4296
  770MPD2    C411419   0.319   0.554  15.001 -1.1162  0.0995  0.0656
  770MPD2    C511420   0.251   0.458  15.063 -1.0453 -0.6590  0.3568
  770MPD2     H11421   0.605   0.552  15.172 -0.8463  2.7085  0.7613
  770MPD2    H111422   0.259   0.616  14.935  0.1463 -0.6904 -1.8343
  770MPD2    H211423   0.245   0.316  15.220  1.2000  1.0366  2.4121
  770MPD2    H311424   0.149   0.440  15.030 -0.6035 -0.6380 -1.0361
  770MPD2     N11425   0.520   0.688  14.971  0.1672  0.4242  0.1058
  770MPD2    H511426   0.614   0.708  15.002 -0.0430  3.2832 -1.0457
  770MPD2    N111427   0.491   0.339  15.304 -0.1580  0.2401 -0.3898
  770MPD2    H711428   0.430   0.277  15.357 -2.6843  1.3146 -2.0425
  771MPD2     C11429   1.879   3.584  14.231  0.1665  0.0343  1.1567
  771MPD2    C111430   1.809   3.695  14.200  0.4534  0.1338  0.7063
  771MPD2    C211431   1.712   3.687  14.095  0.8534  0.2897  0.2321
  771MPD2    C311432   1.690   3.569  14.034 -0.2255 -0.8909  0.1463
  771MPD2    C411433   1.756   3.457  14.076  0.3753  0.0774 -0.1901
  771MPD2    C511434   1.845   3.458  14.178 -0.6007  0.3029  0.0562
  771MPD2     H11435   1.661   3.780  14.072 -1.1036 -1.2152 -1.4588
  771MPD2    H111436   1.730   3.362  14.032  0.3716 -0.6254  1.3425
  771MPD2    H211437   1.957   3.588  14.306  0.2846 -1.4983  1.1135
  771MPD2    H311438   1.898   3.368  14.207  0.5790  0.4913 -1.5416
  771MPD2     N11439   1.610   3.569  13.919 -0.5507  0.6503  0.7717
  771MPD2    H511440   1.582   3.662  13.890  1.6239  1.8764  2.5614
  771MPD2    N111441   1.832   3.826  14.246  0.0616  0.7529 -0.1715
  771MPD2    H711442   1.770   3.895  14.204 -1.3503 -0.6949 -0.4324
  772MPD2     C11443   1.499   4.349  14.100  0.0401 -0.1419  0.0058
  772MPD2    C111444   1.491   4.294  14.229 -0.3843 -0.1283  0.1333
  772MPD2    C211445   1.361   4.271  14.273 -0.4540  0.5609  0.0428
  772MPD2    C311446   1.242   4.299  14.201 -0.8208  0.7417 -0.5019
  772MPD2    C411447   1.257   4.362  14.082  0.9348 -0.2568  0.0361
  772MPD2    C511448   1.386   4.386  14.034  0.4189  0.1523 -0.2360
  772MPD2     H11449   1.361   4.206  14.359  0.0996  0.9387  0.3329
  772MPD2    H111450   1.172   4.396  14.024 -0.8391  0.6379  3.1718
  772MPD2    H211451   1.591   4.374  14.049 -0.0539 -0.3593 -0.2696
  772MPD2    H311452   1.401   4.444  13.944  1.7058 -2.8670 -1.9320
  772MPD2     N11453   1.110   4.266  14.250 -0.2022  0.2605 -0.5340
  772MPD2    H511454   1.028   4.286  14.193 -1.9013 -0.3688  1.7135
  772MPD2    N111455   1.607   4.260  14.302 -0.3834  0.3820  0.0052
  772MPD2    H711456   1.593   4.214  14.391  0.2333 -0.2187 -0.2062
  773MPD2     C11457   1.377   4.725   1.063 -0.0727 -0.5225 -0.7384
  773MPD2    C111458   1.355   4.615   0.976 -0.0187 -0.1688 -0.0992
  773MPD2    C211459   1.437   4.505   0.983 -0.5808 -0.4407 -0.2999
  773MPD2    C311460   1.535   4.498   1.081  0.2820  0.0493  0.8053
  773MPD2    C411461   1.551   4.608   1.162 -0.6836  0.6297 -0.2380
  773MPD2    C511462   1.481   4.724   1.154  0.1360  0.1325  0.1250
  773MPD2     H11463   1.430   4.421   0.915 -0.0453 -0.9494  0.2707
  773MPD2    H111464   1.612   4.601   1.251  0.3793 -1.4839 -1.1421
  773MPD2    H211465   1.328   0.084   1.054 -0.6606 -0.8540 -1.1152
  773MPD2    H311466   1.506   0.070   1.219  2.6830  0.7823 -1.7160
  773MPD2     N11467   1.595   4.369   1.101  0.0764  0.3924 -0.0256
  773MPD2    H511468   1.573   4.296   1.034 -1.1041  0.4034  0.3472
  773MPD2    N111469   1.238   4.611   0.888  0.4470  0.4689  0.1322
  773MPD2    H711470   1.228   4.524   0.837 -0.7793  1.1666 -0.8279
  774MPD2     C11471   0.207   4.132  13.533  0.5482  0.3078  0.3882
  774MPD2    C111472   0.183   4.236  13.624  0.1363  0.3531 -0.6747
  774MPD2    C211473   0.284   4.314  13.677 -0.4300  0.3351 -0.0224
  774MPD2    C311474   0.417   4.288  13.643  0.2901  0.1173  0.6234
  774MPD2    C411475   0.442   4.191  13.550  0.0534  0.3446  0.3415
  774MPD2    C511476   0.345   4.115  13.492  1.0021  0.6235  0.3287
  774MPD2     H11477   0.264   4.395  13.746  1.8501 -0.5961  1.7126
  774MPD2    H111478   0.545   4.170  13.525 -0.4885 -1.3530 -0.5044
  774MPD2    H211479   0.131   4.066  13.493  0.9878  0.7167 -1.1340
  774MPD2    H311480   0.372   4.038  13.421  0.5877 -0.0148  0.8607
  774MPD2     N11481   0.511   4.361  13.704 -0.0496 -0.3301 -0.1738
  774MPD2    H511482   0.477   4.430  13.770  0.8574 -0.1295  0.0890
  774MPD2    N111483   0.052   4.237  13.662  0.4060  0.2704 -0.4578
  774MPD2    H711484   4.734   4.168  13.613 -1.0778  1.2357 -0.1678
  775MPD2     C11485   1.712   0.750  15.929  1.2528  0.5580 -0.1968
  775MPD2    C111486   1.662   0.869  15.976  0.1184  0.0623 -0.1029
  775MPD2    C211487   1.732   0.986  15.931  0.1331 -0.0929  0.5928
  775MPD2    C311488   1.845   0.981  15.856  0.5444  0.1096 -0.1220
  775MPD2    C411489   1.898   0.860  15.823 -0.1933  0.1993  0.3365
  775MPD2    C511490   1.830   0.747  15.854 -0.5113  0.1648 -0.4014
  775MPD2     H11491   1.703   1.085  15.963 -1.1973 -0.4641  0.5025
  775MPD2    H111492   1.981   0.860  15.753 -1.7979  0.7651 -1.5522
  775MPD2    H211493   1.659   0.661  15.959  0.4952  0.6478 -1.2411
  775MPD2    H311494   1.859   0.649  15.818 -2.1008 -0.8202  0.9873
  775MPD2     N11495   1.905   1.094  15.799 -0.5086  0.1408 -0.0346
  775MPD2    H511496   1.948   1.078  15.709 -2.3357  0.6765 -0.9956
  775MPD2    N111497   1.547   0.867  16.056  0.4711  0.2119 -0.4248
  775MPD2    H711498   1.503   0.778  16.075 -1.1807  0.9397 -0.8556
  776MPD2     C11499   0.034   1.198  11.856  0.3724 -0.3791 -0.0382
  776MPD2    C111500   0.159   1.139  11.849  0.0811 -0.5796  0.2393
  776MPD2    C211501   0.268   1.214  11.812 -0.1108 -0.3483  0.2096
  776MPD2    C311502   0.256   1.340  11.753  0.3846 -0.4286  0.1003
  776MPD2    C411503   0.130   1.394  11.757 -0.6308 -0.3587  0.3057
  776MPD2    C511504   0.023   1.330  11.822 -0.5998 -0.2545  0.5074
  776MPD2     H11505   0.366   1.167  11.810  1.6853  3.4270 -0.1886
  776MPD2    H111506   0.095   1.481  11.703 -0.0783 -1.0682 -1.1992
  776MPD2    H211507   4.683   1.148  11.893  2.3156 -2.3234  1.9259
  776MPD2    H311508   4.665   1.381  11.819 -1.2211 -1.5523 -2.1172
  776MPD2     N11509   0.359   1.411  11.684  0.0936  0.1124 -0.2220
  776MPD2    H511510   0.323   1.487  11.628 -0.9024 -0.1495  0.0601
  776MPD2    N111511   0.175   1.003  11.887 -0.4076 -0.6345 -0.8652
  776MPD2    H711512   0.092   0.960  11.927 -1.5823  0.1765 -2.3835
  777MPD2     C11513   1.318   3.194   0.903  0.2841 -0.0950  0.0178
  777MPD2    C111514   1.206   3.161   0.977 -0.0037  0.7366 -0.5124
  777MPD2    C211515   1.108   3.084   0.922  0.2689  0.1304 -0.4632
  777MPD2    C311516   1.118   3.039   0.799 -0.6065  0.1020 -0.0572
  777MPD2    C411517   1.222   3.077   0.716  0.6110 -0.4459  0.3520
  777MPD2    C511518   1.321   3.156   0.773 -0.4360 -0.3333 -0.4545
  777MPD2     H11519   1.015   3.063   0.975  0.2457  2.1945  0.2998
  777MPD2    H111520   1.229   3.035   0.616  0.7474 -0.0236  0.1877
  777MPD2    H211521   1.399   3.258   0.937 -0.4246  0.4342  0.6934
  777MPD2    H311522   1.414   3.174   0.720 -1.2130  0.2433 -1.6165
  777MPD2     N11523   1.013   2.948   0.753 -0.3638 -0.5214 -0.7177
  777MPD2    H511524   0.938   2.922   0.817 -0.1609 -0.0726 -0.2934
  777MPD2    N111525   1.201   3.212   1.105  0.6967  0.6986  0.1466
  777MPD2    H711526   1.283   3.259   1.142 -0.4642  2.6810  0.2510
  778MPD2     C11527   1.871   3.815  14.929 -0.1650  0.6413  0.2514
  778MPD2    C111528   1.886   3.715  14.843 -0.3725  0.5700  0.4421
  778MPD2    C211529   1.965   3.738  14.736 -0.4337  0.3833 -0.5967
  778MPD2    C311530   2.051   3.849  14.728 -0.4380 -0.7404  0.4129
  778MPD2    C411531   2.030   3.959  14.809  0.0044  0.0168 -0.4147
  778MPD2    C511532   1.940   3.936  14.911 -0.0461 -0.2533  0.9420
  778MPD2     H11533   1.969   3.666  14.655  0.9821  0.5423 -0.6571
  778MPD2    H111534   2.084   4.051  14.792 -2.5700  1.6676  0.3539
  778MPD2    H211535   1.804   3.809  15.015  0.2551 -1.1852  0.4570
  778MPD2    H311536   1.916   4.011  14.986 -1.5538 -1.0429  1.2558
  778MPD2     N11537   2.161   3.834  14.641 -0.4273 -0.1369 -0.6248
  778MPD2    H511538   2.172   3.748  14.589  0.2175 -0.7730  0.5473
  778MPD2    N111539   1.825   3.588  14.840 -0.0170 -0.4371 -0.2473
  778MPD2    H711540   1.852   3.524  14.767 -0.5475 -1.8679  0.8174
  779MPD2     C11541   1.443   2.186  14.233 -0.3350 -0.2259  0.1084
  779MPD2    C111542   1.575   2.208  14.233 -0.0207 -0.5116 -0.1970
  779MPD2    C211543   1.633   2.328  14.235  0.0770  0.1033  0.1182
  779MPD2    C311544   1.555   2.437  14.242  0.4995 -0.0358 -0.3651
  779MPD2    C411545   1.418   2.425  14.241  0.3541  0.0251  0.1281
  779MPD2    C511546   1.363   2.294  14.225  0.0116 -0.4695 -0.0023
  779MPD2     H11547   1.739   2.329  14.255 -0.0754  0.8823  0.9090
  779MPD2    H111548   1.344   2.503  14.223  1.0998  0.3193 -1.6915
  779MPD2    H211549   1.397   2.092  14.203  1.0416 -0.4547 -1.2532
  779MPD2    H311550   1.256   2.283  14.216 -0.0323 -0.7859  0.8378
  779MPD2     N11551   1.612   2.566  14.237 -0.0101  0.4865  0.2458
  779MPD2    H511552   1.714   2.569  14.240 -0.0803  1.9527  1.2327
  779MPD2    N111553   1.668   2.104  14.256 -0.3308  0.1767 -1.1247
  779MPD2    H711554   1.766   2.130  14.244 -0.0977 -0.5810 -0.9355
  780MPD2     C11555   1.644   2.535   0.946 -0.2734  0.6382 -0.2804
  780MPD2    C111556   1.584   2.459   0.851 -0.4011 -0.2583  0.3891
  780MPD2    C211557   1.622   2.494   0.726 -0.0326 -0.1268  0.0591
  780MPD2    C311558   1.694   2.608   0.695  0.0595 -0.5851 -0.6151
  780MPD2    C411559   1.752   2.680   0.794 -0.7338  0.2290 -0.3326
  780MPD2    C511560   1.718   2.649   0.923 -0.3564  0.0238  0.2026
  780MPD2     H11561   1.584   2.438   0.642 -0.5343  0.5022 -0.1338
  780MPD2    H111562   1.814   2.767   0.772 -2.1973  0.7137 -2.5207
  780MPD2    H211563   1.613   2.521   1.049 -0.2925 -0.4743 -0.4388
  780MPD2    H311564   1.756   2.700   1.011 -0.4579  1.5115 -0.6367
  780MPD2     N11565   1.709   2.636   0.558 -0.0154 -0.6061 -0.3307
  780MPD2    H511566   1.660   2.574   0.494  0.7980 -0.3318 -1.2284
  780MPD2    N111567   1.483   2.362   0.879  0.1905  0.1913 -0.0678
  780MPD2    H711568   1.455   2.359   0.976 -0.4853  0.2182 -0.2635
  781MPD2     C11569   3.304   3.398  12.196  0.1127 -0.1398  1.1491
  781MPD2    C111570   3.342   3.519  12.250  0.0192  0.7172  0.7086
  781MPD2    C211571   3.465   3.575  12.205 -0.0730  0.9331 -0.5621
  781MPD2    C311572   3.536   3.509  12.109 -0.6019  0.0404  0.0775
  781MPD2    C411573   3.484   3.394  12.045 -0.5576  0.7222 -0.0169
  781MPD2    C511574   3.364   3.343  12.092  0.1409  0.1135 -0.1635
  781MPD2     H11575   3.495   3.671  12.245  2.2913 -0.1447  0.2785
  781MPD2    H111576   3.535   3.343  11.963  4.4361  1.8409  2.4170
  781MPD2    H211577   3.225   3.335  12.236  0.9866 -2.0342 -0.0990
  781MPD2    H311578   3.321   3.254  12.047 -0.2939  0.1336  0.2211
  781MPD2     N11579   3.656   3.555  12.062 -0.0514  0.3446  0.3193
  781MPD2    H511580   3.695   3.514  11.977 -2.7344 -1.2429 -0.1506
  781MPD2    N111581   3.266   3.584  12.352 -0.2854  0.2787 -0.8722
  781MPD2    H711582   3.308   3.656  12.409  1.6096 -0.0848 -1.8260
  782MPD2     C11583   0.739   0.126  10.311  0.0425 -0.0226  0.2545
  782MPD2    C111584   0.868   0.151  10.350  0.3624  0.4436  0.0697
  782MPD2    C211585   0.911   0.281  10.362 -0.3155 -0.6214  0.1609
  782MPD2    C311586   0.823   0.389  10.363  0.1138  0.4302 -0.0981
  782MPD2    C411587   0.697   0.359  10.335 -0.5649  0.5124  0.2809
  782MPD2    C511588   0.658   0.233  10.303  0.2275  0.1501 -0.0422
  782MPD2     H11589   1.013   0.305  10.391 -0.8511 -0.9316  2.2779
  782MPD2    H111590   0.629   0.442  10.320  0.5514  1.6162  1.3988
  782MPD2    H211591   0.704   0.024  10.299 -0.2740  0.1259 -0.1035
  782MPD2    H311592   0.553   0.210  10.285 -0.6791  1.9520  2.9260
  782MPD2     N11593   0.850   0.526  10.393 -0.3329  0.0599  0.0345
  782MPD2    H511594   0.778   0.594  10.371 -0.4544  0.1402  0.6793
  782MPD2    N111595   0.948   0.042  10.391  0.0200 -0.1162  0.0025
  782MPD2    H711596   0.914   4.684  10.398  1.7201 -0.7398 -0.2288
  783MPD2     C11597   0.544   4.254  10.846  0.6192  0.3607  0.3531
  783MPD2    C111598   0.551   4.394  10.849  0.1843  0.1514 -0.5421
  783MPD2    C211599   0.671   4.453  10.815  0.3203 -0.5815  0.4687
  783MPD2    C311600   0.777   4.379  10.767 -0.7463 -0.5065  0.3924
  783MPD2    C411601   0.767   4.241  10.765  0.1844 -0.3664  0.3644
  783MPD2    C511602   0.647   4.179  10.796 -0.2360  0.5034  0.0210
  783MPD2     H11603   0.685   4.561  10.812 -1.8310 -0.3159 -0.0772
  783MPD2    H111604   0.841   4.169  10.731 -0.2838 -0.8552  0.3686
  783MPD2    H211605   0.456   4.202  10.881  1.3798 -1.7411 -0.8447
  783MPD2    H311606   0.631   4.072  10.797 -0.0849  0.4880  0.7446
  783MPD2     N11607   0.886   4.445  10.719  0.2181 -0.4198  0.5936
  783MPD2    H511608   0.878   4.546  10.713  2.8203 -0.2594  0.0486
  783MPD2    N111609   0.435   4.463  10.889  0.2534  0.0307 -0.4453
  783MPD2    H711610   0.360   4.404  10.924 -0.8595  1.8985  0.3422
  784MPD2     C11611   3.523   0.380   0.482  0.5275 -0.4922 -0.4448
  784MPD2    C111612   3.459   0.394   0.601  0.1321  0.0343  0.8795
  784MPD2    C211613   3.337   0.448   0.607  0.6008 -0.0798 -0.0426
  784MPD2    C311614   3.272   0.491   0.495  0.2235 -0.2268 -0.2994
  784MPD2    C411615   3.330   0.480   0.371 -0.1583 -0.1073  0.4440
  784MPD2    C511616   3.455   0.433   0.376 -0.0602  0.5815 -0.1485
  784MPD2     H11617   3.295   0.471   0.704 -1.0358  0.0125 -0.7790
  784MPD2    H111618   3.272   0.504   0.283  1.5720  4.1044  0.4501
  784MPD2    H211619   3.620   0.335   0.466  0.8844 -0.5032  1.7981
  784MPD2    H311620   3.501   0.427   0.278  0.1855  4.7936 -0.2550
  784MPD2     N11621   3.148   0.558   0.521 -0.7165  0.3876 -0.0158
  784MPD2    H511622   3.121   0.574   0.617  0.3638  1.9561  0.0411
  784MPD2    N111623   3.518   0.371   0.723  0.7336  0.3784  0.1371
  784MPD2    H711624   3.476   0.396   0.812 -1.3319 -1.0658 -0.4216
  785MPD2     C11625   3.577   4.032  11.003  0.6492  0.5297  0.0430
  785MPD2    C111626   3.497   4.026  10.891  0.1551  0.0292 -0.9760
  785MPD2    C211627   3.493   3.909  10.819  0.1079  0.2245 -0.7274
  785MPD2    C311628   3.561   3.801  10.863 -0.0252  0.8878 -0.2393
  785MPD2    C411629   3.636   3.802  10.976 -1.0900 -0.2348 -0.1181
  785MPD2    C511630   3.649   3.919  11.047 -0.7729  0.9580 -0.5872
  785MPD2     H11631   3.438   3.908  10.726  2.5272 -2.9871 -2.1342
  785MPD2    H111632   3.688   3.717  11.019 -0.8763  0.2818  0.6486
  785MPD2    H211633   3.571   4.116  11.072 -1.1920 -0.4125  1.0408
  785MPD2    H311634   3.710   3.926  11.136 -1.1813  0.4067 -0.2625
  785MPD2     N11635   3.551   3.681  10.780  0.3276 -0.1606 -0.0824
  785MPD2    H511636   3.479   3.687  10.709  2.2848  1.1183 -1.9510
  785MPD2    N111637   3.425   4.132  10.841 -0.4691 -0.0802  0.3707
  785MPD2    H711638   3.350   4.112  10.776 -0.0381  0.8354 -0.4078
  786MPD2     C11639   2.600   2.025  14.778 -0.2316  0.5341 -0.5681
  786MPD2    C111640   2.532   1.928  14.851 -0.4364  0.3762  0.2803
  786MPD2    C211641   2.528   1.937  14.988 -0.0829 -1.1141 -0.0825
  786MPD2    C311642   2.592   2.043  15.053 -0.0326  0.4221  0.3530
  786MPD2    C411643   2.668   2.134  14.977  0.0005  0.9979  0.5007
  786MPD2    C511644   2.665   2.130  14.845 -0.9405 -0.0861  0.8760
  786MPD2     H11645   2.472   1.863  15.045 -0.5861 -1.2544 -0.7681
  786MPD2    H111646   2.716   2.219  15.024  2.1200  0.3265 -0.4075
  786MPD2    H211647   2.600   2.037  14.670  0.5019  0.4561 -0.5752
  786MPD2    H311648   2.717   2.211  14.793  0.6719 -2.4255 -1.1584
  786MPD2     N11649   2.588   2.052  15.195  0.0719  0.8548 -0.5812
  786MPD2    H511650   2.649   2.121  15.236 -1.3227  1.6290  0.1991
  786MPD2    N111651   2.468   1.815  14.786 -0.2153 -0.0731 -0.1305
  786MPD2    H711652   2.426   1.753  14.855 -2.8130  0.3820 -1.3000
  787MPD2     C11653   2.573   1.264  15.088  0.1230  0.3170 -0.5068
  787MPD2    C111654   2.545   1.228  14.960  0.6564  0.3486  0.2284
  787MPD2    C211655   2.611   1.116  14.908 -0.3268 -0.3175 -0.6990
  787MPD2    C311656   2.687   1.032  14.986  0.1618 -0.6152 -0.7693
  787MPD2    C411657   2.715   1.068  15.114  0.4976  0.1067  0.2958
  787MPD2    C511658   2.659   1.183  15.163  0.7829  0.1636  0.0150
  787MPD2     H11659   2.588   1.095  14.804  0.8975  0.3191 -1.0946
  787MPD2    H111660   2.795   1.023  15.172  1.4425  2.0255  0.4726
  787MPD2    H211661   2.531   1.357  15.124 -0.0665  0.2775 -0.6225
  787MPD2    H311662   2.690   1.223  15.259 -1.9242 -0.5742  1.2006
  787MPD2     N11663   2.751   0.929  14.920  0.2789  0.0853  0.2027
  787MPD2    H511664   2.734   0.927  14.820 -2.5341 -0.0409  0.6670
  787MPD2    N111665   2.480   1.327  14.880 -0.0546  0.2930  0.0559
  787MPD2    H711666   2.467   1.412  14.934 -0.7397 -0.4077  0.9740
  788MPD2     C11667   4.541   0.068   1.352 -0.0014  0.1171  0.2029
  788MPD2    C111668   4.608   4.736   1.250  0.4829 -0.0467  0.5403
  788MPD2    C211669   4.682   0.072   1.160  0.1784  0.3430  0.0816
  788MPD2    C311670   4.680   0.211   1.157 -0.4383 -0.1337  0.8165
  788MPD2    C411671   4.608   0.277   1.253  0.5092 -0.6962  0.4538
  788MPD2    C511672   4.532   0.202   1.340 -0.4251  0.1696  0.0328
  788MPD2     H11673   4.716   0.017   1.073 -0.7200  0.8768 -0.6161
  788MPD2    H111674   4.593   0.385   1.252 -0.1839 -0.8042 -0.7605
  788MPD2    H211675   4.475   0.026   1.426  1.6970  0.5934  1.9793
  788MPD2    H311676   4.473   0.258   1.412  0.9375  2.1314 -0.3541
  788MPD2     N11677   0.015   0.293   1.061 -0.0992  0.4005 -0.0339
  788MPD2    H511678   0.009   0.393   1.078  1.5036  0.6844 -1.1465
  788MPD2    N111679   4.593   4.599   1.226  0.0367 -0.2053  0.2682
  788MPD2    H711680   4.646   4.552   1.153  1.2213 -0.7912  1.5088
  789MPD2     C11681   0.071   3.943  16.631 -0.5099  0.6336  0.2763
  789MPD2    C111682   4.716   3.940  16.524 -0.7775  0.1660  0.1729
  789MPD2    C211683   4.627   4.045  16.518  0.4395  0.1805  0.0072
  789MPD2    C311684   4.632   4.145  16.612 -0.1127  1.1076 -0.1259
  789MPD2    C411685   4.725   4.142  16.711  0.5018 -0.2395 -0.4429
  789MPD2    C511686   0.070   4.041  16.725  0.3935  0.5873  0.6916
  789MPD2     H11687   4.548   4.042  16.444  0.7705  1.2316 -0.3882
  789MPD2    H111688   4.729   4.221  16.785  0.0704 -1.1489  0.5645
  789MPD2    H211689   0.145   3.864  16.640 -0.1724  1.0493  1.1720
  789MPD2    H311690   0.146   4.041  16.803  0.0767  3.5523  0.9881
  789MPD2     N11691   4.542   4.256  16.621  0.8058 -0.5920  0.6041
  789MPD2    H511692   4.555   4.315  16.703  1.3986  1.5976 -1.0709
  789MPD2    N111693   4.703   3.831  16.438 -0.4616 -0.2767 -0.1878
  789MPD2    H711694   4.623   3.838  16.377 -0.5643  0.6234  0.0421
  790MPD2     C11695   0.704   1.150  13.589 -0.7598  0.1106  0.3254
  790MPD2    C111696   0.782   1.044  13.620  0.2407 -0.2395  0.4433
  790MPD2    C211697   0.841   0.977  13.510 -0.5149  0.7068 -0.1202
  790MPD2    C311698   0.831   1.011  13.377  0.0103 -0.7145  0.2803
  790MPD2    C411699   0.756   1.124  13.350  0.0613  0.2478  0.1313
  790MPD2    C511700   0.705   1.191  13.460  0.1739  0.6510  0.6470
  790MPD2     H11701   0.907   0.893  13.531  0.4685  1.3329 -0.7254
  790MPD2    H111702   0.740   1.162  13.249  3.3048  1.3615  0.0294
  790MPD2    H211703   0.664   1.213  13.667 -0.8271  1.3197 -0.6771
  790MPD2    H311704   0.654   1.284  13.437  0.0721  0.4280 -0.0364
  790MPD2     N11705   0.909   0.940  13.279  0.1339  0.0746 -1.0462
  790MPD2    H511706   0.952   0.854  13.311 -1.3374  0.0953  0.9926
  790MPD2    N111707   0.783   1.003  13.757  0.1544  0.0162 -0.1434
  790MPD2    H711708   0.718   1.058  13.814  0.4846 -2.3825  2.5307
  791MPD2     C11709   0.478   0.835  12.687 -0.0388  0.9378  0.0272
  791MPD2    C111710   0.518   0.750  12.793  0.1766 -0.4911  0.7455
  791MPD2    C211711   0.419   0.673  12.857  0.1487 -0.4105 -0.0794
  791MPD2    C311712   0.282   0.702  12.839  0.5037  0.6475  0.2676
  791MPD2    C411713   0.248   0.781  12.729 -0.3720  0.1109 -0.7225
  791MPD2    C511714   0.343   0.848  12.655  0.0814 -0.0394  0.3591
  791MPD2     H11715   0.448   0.596  12.927  2.5641  0.6916  0.1363
  791MPD2    H111716   0.146   0.797  12.695 -1.1802  1.1347  2.1672
  791MPD2    H211717   0.549   0.891  12.626 -0.3036  0.7325 -0.4717
  791MPD2    H311718   0.322   0.914  12.572  1.8249 -1.6003 -1.3052
  791MPD2     N11719   0.184   0.638  12.923 -0.2768 -0.1224 -1.9137
  791MPD2    H511720   0.217   0.582  13.000  1.3044  0.5325 -2.1307
  791MPD2    N111721   0.655   0.740  12.827 -0.3922  0.4777  0.0375
  791MPD2    H711722   0.710   0.808  12.776 -1.3749 -0.7088 -2.5963
  792MPD2     C11723   0.878   1.030  11.442  0.3357 -0.0104 -0.2853
  792MPD2    C111724   0.795   1.104  11.360  0.2819  0.1454 -0.5512
  792MPD2    C211725   0.656   1.106  11.390  0.5582  0.4837  0.3289
  792MPD2    C311726   0.602   1.037  11.493  0.7539 -0.0482  0.2268
  792MPD2    C411727   0.683   0.952  11.566 -0.3388  0.3165 -0.6221
  792MPD2    C511728   0.819   0.946  11.536 -0.2510  0.8309  0.2559
  792MPD2     H11729   0.604   1.156  11.309  2.3743 -0.9658 -1.7590
  792MPD2    H111730   0.629   0.895  11.640 -0.0969 -1.8762 -2.1163
  792MPD2    H211731   0.986   1.024  11.430  0.6713  0.3546  2.6606
  792MPD2    H311732   0.877   0.868  11.584 -1.4491 -0.7310 -0.8445
  792MPD2     N11733   0.463   1.040  11.522 -0.1807  0.3422  0.3411
  792MPD2    H511734   0.429   0.971  11.589 -1.2568  2.2091  1.6928
  792MPD2    N111735   0.847   1.168  11.243 -0.1999 -0.7956 -0.0234
  792MPD2    H711736   0.944   1.144  11.227 -0.6423 -1.4057 -1.8448
  793MPD2     C11737   4.607   1.104  10.851 -0.2239  0.3377  0.1522
  793MPD2    C111738   0.005   1.098  10.879 -0.4004  0.8472  0.1483
  793MPD2    C211739   0.043   1.121  11.007  0.4802 -0.4470 -1.2840
  793MPD2    C311740   4.686   1.129  11.103  0.0790  0.1066 -0.2973
  793MPD2    C411741   4.553   1.144  11.073  0.3949  0.2958  0.7107
  793MPD2    C511742   4.516   1.131  10.947  0.5411  0.3565  0.0201
  793MPD2     H11743   0.148   1.123  11.035  0.3063 -1.0113 -0.5786
  793MPD2    H111744   4.472   1.174  11.138  0.3578 -0.6604  1.1014
  793MPD2    H211745   4.564   1.097  10.751  0.6775  0.3931 -0.2372
  793MPD2    H311746   4.411   1.127  10.917  0.3686 -0.4613  0.7596
  793MPD2     N11747   4.729   1.155  11.234 -0.3158 -0.4613  0.2358
  793MPD2    H511748   0.091   1.163  11.253 -0.4489  0.0206  0.7202
  793MPD2    N111749   0.102   1.083  10.779 -0.5337 -0.0445  0.4033
  793MPD2    H711750   0.193   1.121  10.803 -0.4424 -0.1111  0.1617
  794MPD2     C11751   0.716   0.371   0.437  0.3465 -0.4892 -0.0404
  794MPD2    C111752   0.747   0.252   0.378  0.3055  0.0331  0.0560
  794MPD2    C211753   0.730   0.243   0.240 -0.9353  0.2328  0.3669
  794MPD2    C311754   0.684   0.353   0.166 -0.4180  0.4420  0.2876
  794MPD2    C411755   0.654   0.466   0.233 -0.8110 -0.2124  0.5657
  794MPD2    C511756   0.672   0.478   0.363  0.6567 -0.5222  0.1188
  794MPD2     H11757   0.746   0.148   0.191 -2.6344  1.5501 -2.7626
  794MPD2    H111758   0.629   0.559   0.182 -0.4635 -0.8215 -0.7168
  794MPD2    H211759   0.720   0.385   0.544  0.4519  0.1833 -0.1365
  794MPD2    H311760   0.658   0.576   0.407  0.3761 -0.2624 -0.5402
  794MPD2     N11761   0.651   0.358   0.028 -0.3432 -0.1770  0.3551
  794MPD2    H511762   0.606   0.443  17.743 -2.0431 -1.8532 -1.6427
  794MPD2    N111763   0.782   0.140   0.455 -0.5229  0.6190 -0.2824
  794MPD2    H711764   0.817   0.062   0.401 -0.2938 -1.8825  3.4146
  795MPD2     C11765   3.326   2.376  13.148 -0.1063  1.0755  0.1976
  795MPD2    C111766   3.287   2.296  13.253  0.4624  0.4158  0.0047
  795MPD2    C211767   3.378   2.199  13.306  0.5050 -0.1343  0.1172
  795MPD2    C311768   3.502   2.178  13.245 -0.2536 -0.1859  0.3814
  795MPD2    C411769   3.533   2.252  13.132  0.5456 -0.0318 -0.2048
  795MPD2    C511770   3.445   2.350  13.085 -0.0370 -0.7133 -0.2335
  795MPD2     H11771   3.357   2.141  13.394 -2.4314  2.0230  0.8147
  795MPD2    H111772   3.620   2.225  13.074  0.4658 -1.3958  0.2903
  795MPD2    H211773   3.262   2.456  13.114  0.0692 -0.0947 -2.8602
  795MPD2    H311774   3.461   2.396  12.989 -0.3928 -0.8256 -0.3504
  795MPD2     N11775   3.593   2.098  13.306 -0.3074  0.1009 -0.8485
  795MPD2    H511776   3.555   2.050  13.387  2.4766 -2.1567 -0.8504
  795MPD2    N111777   3.164   2.323  13.317 -0.2576 -0.0926 -0.3698
  795MPD2    H711778   3.119   2.411  13.295 -0.9762 -0.3901 -0.1039
  796MPD2     C11779   2.431   3.978  15.927 -0.1537  0.6429 -0.0980
  796MPD2    C111780   2.551   4.040  15.945 -0.0360 -0.6670  0.3230
  796MPD2    C211781   2.571   4.175  15.906 -0.0828  0.1308  0.5979
  796MPD2    C311782   2.471   4.242  15.838 -0.0244  0.5060  0.7871
  796MPD2    C411783   2.356   4.177  15.814  0.4285 -0.2117 -0.1516
  796MPD2    C511784   2.334   4.057  15.874  0.3000 -0.7187  0.1642
  796MPD2     H11785   2.666   4.226  15.923 -0.4474  1.1560 -0.4138
  796MPD2    H111786   2.272   4.226  15.765  0.8029  0.4539 -0.1257
  796MPD2    H211787   2.400   3.877  15.951  0.8736  0.6930  1.4620
  796MPD2    H311788   2.238   4.013  15.850 -0.4707  1.0046  0.0774
  796MPD2     N11789   2.495   4.385  15.814  0.2031  0.5632  0.9558
  796MPD2    H511790   2.583   4.422  15.850  0.4694  0.0467  0.8266
  796MPD2    N111791   2.649   3.965  16.013 -0.5867 -0.0130 -0.0337
  796MPD2    H711792   2.628   3.866  16.020  1.8107 -0.5891 -0.9703
  797MPD2     C11793   4.503   4.006  16.939 -0.4165 -1.0736  0.4690
  797MPD2    C111794   4.398   4.043  17.012 -0.1526  0.2372  0.6354
  797MPD2    C211795   4.272   4.015  16.972 -0.1317  0.3110 -0.4955
  797MPD2    C311796   4.242   3.941  16.858 -0.0116 -0.0196 -0.2445
  797MPD2    C411797   4.353   3.902  16.778 -0.3417 -1.0784  0.1554
  797MPD2    C511798   4.479   3.932  16.822  0.1605 -0.3643 -0.3383
  797MPD2     H11799   4.199   4.049  17.044 -0.2857 -0.4341 -0.2982
  797MPD2    H111800   4.350   3.836  16.692 -0.5460 -1.0135  0.1136
  797MPD2    H211801   4.602   4.020  16.980 -0.8893  1.5393  0.7120
  797MPD2    H311802   4.563   3.878  16.781  2.1049  2.2961  0.1217
  797MPD2     N11803   4.105   3.903  16.818  0.3082 -0.6762  0.7172
  797MPD2    H511804   4.083   3.862  16.728  0.8635 -0.2516  0.3834
  797MPD2    N111805   4.399   4.099  17.143  0.2623  0.0820  0.2735
  797MPD2    H711806   4.304   4.108  17.179 -0.7387  0.3939 -2.4345
  798MPD2     C11807   3.694   4.322  17.203  0.0591  0.0048  0.3588
  798MPD2    C111808   3.775   4.217  17.170  0.5553 -0.5535 -0.6195
  798MPD2    C211809   3.885   4.194  17.251 -0.4797 -0.0019  0.1030
  798MPD2    C311810   3.936   4.279  17.340 -0.1648 -0.4122 -0.4787
  798MPD2    C411811   3.852   4.392  17.370 -0.6747  0.4161 -0.7163
  798MPD2    C511812   3.734   4.412  17.304  0.5760 -0.0891  0.3707
  798MPD2     H11813   3.941   4.103  17.230 -3.4873 -1.2747 -2.3071
  798MPD2    H111814   3.883   4.464  17.444 -1.7764 -1.0336  1.1699
  798MPD2    H211815   3.598   4.325  17.152  0.6324  1.6306 -0.6352
  798MPD2    H311816   3.671   4.492  17.341  0.4304  1.5544 -3.4613
  798MPD2     N11817   4.062   4.255  17.384 -0.8221  0.4804  0.7100
  798MPD2    H511818   4.101   4.165  17.356 -2.2580  0.4589 -1.1741
  798MPD2    N111819   3.759   4.131  17.062  0.8806 -0.2451  0.4391
  798MPD2    H711820   3.823   4.052  17.057  0.6584 -0.4958  1.4914
  799MPD2     C11821   2.435   0.556  15.051 -0.3277 -0.0453 -0.2551
  799MPD2    C111822   2.351   0.496  14.961 -0.6583  1.0422 -0.4116
  799MPD2    C211823   2.295   0.568  14.856 -0.0090  0.4719  0.1854
  799MPD2    C311824   2.340   0.703  14.834 -0.1857  0.7643  0.0042
  799MPD2    C411825   2.423   0.760  14.929 -0.3359  0.0448  0.0289
  799MPD2    C511826   2.472   0.689  15.039 -0.0088 -0.5731  0.0724
  799MPD2     H11827   2.232   0.515  14.785 -0.3901 -0.5823  1.3158
  799MPD2    H111828   2.441   0.867  14.926 -1.9622  0.3763  1.7709
  799MPD2    H211829   2.477   0.507  15.138 -1.3192 -0.9888 -0.3041
  799MPD2    H311830   2.538   0.741  15.108 -0.5038  0.8180 -0.4991
  799MPD2     N11831   2.300   0.781  14.725 -0.2280 -1.1076  0.3316
  799MPD2    H511832   2.322   0.880  14.726  1.7174 -1.5033 -1.5317
  799MPD2    N111833   2.319   0.356  14.970 -0.1161 -0.0021  0.0364
  799MPD2    H711834   2.246   0.326  14.906  0.0038 -1.7592  0.7212
  800MPD2     C11835   3.124   1.682  13.733 -0.2001  0.2083  0.1093
  800MPD2    C111836   3.239   1.625  13.781  0.1788  0.2361  0.0168
  800MPD2    C211837   3.252   1.490  13.777  0.2050  0.0382  0.2525
  800MPD2    C311838   3.142   1.411  13.742 -0.3575  0.3328  0.0116
  800MPD2    C411839   3.023   1.472  13.695 -0.4377 -0.2141 -0.0962
  800MPD2    C511840   3.014   1.608  13.689  0.0088  0.2442 -0.5332
  800MPD2     H11841   3.340   1.442  13.817 -0.0908 -0.5306  0.2106
  800MPD2    H111842   2.942   1.408  13.663 -1.0422  0.9829 -0.9591
  800MPD2    H211843   3.119   1.790  13.726 -0.8324  0.2722  1.5244
  800MPD2    H311844   2.927   1.654  13.643 -1.2320  0.2805  1.8434
  800MPD2     N11845   3.171   1.275  13.751  0.0790 -0.1166  0.0225
  800MPD2    H511846   3.264   1.242  13.778 -0.2244 -0.4074  0.7086
  800MPD2    N111847   3.344   1.712  13.827 -0.0978  0.5136 -0.3180
  800MPD2    H711848   3.335   1.813  13.815  0.0850  0.7867  1.8226
  801MPD2     C11849   3.509   2.277  14.227 -0.8109  0.3533 -0.3559
  801MPD2    C111850   3.422   2.188  14.162 -0.0429  0.5505  1.0981
  801MPD2    C211851   3.290   2.198  14.196  0.5846 -0.0115 -0.6432
  801MPD2    C311852   3.247   2.289  14.293  0.1967 -0.5173  0.5920
  801MPD2    C411853   3.332   2.382  14.351  0.0519  0.8522  0.0548
  801MPD2    C511854   3.463   2.370  14.315  0.4511 -0.2868 -0.9079
  801MPD2     H11855   3.219   2.136  14.144  0.7687  0.6403 -1.6664
  801MPD2    H111856   3.303   2.453  14.428  0.4929  1.3566 -0.2459
  801MPD2    H211857   3.616   2.272  14.211 -0.5699 -2.5632  2.2705
  801MPD2    H311858   3.534   2.437  14.363  0.0325 -0.1743 -0.4404
  801MPD2     N11859   3.114   2.281  14.324  0.7573 -0.2655  0.6222
  801MPD2    H511860   3.078   2.191  14.295 -0.6633 -0.1692  2.0655
  801MPD2    N111861   3.466   2.094  14.065  0.0789 -0.3908 -0.1873
  801MPD2    H711862   3.409   2.011  14.049 -1.0490  0.5298 -0.9913
  802MPD2     C11863   2.386   3.361  17.112  0.8041  0.3280  0.2767
  802MPD2    C111864   2.351   3.361  17.247 -0.7339  0.8246 -1.2608
  802MPD2    C211865   2.370   3.245  17.322  0.7600  0.5087  0.4949
  802MPD2    C311866   2.405   3.129  17.261  0.2043 -0.0916  0.2359
  802MPD2    C411867   2.441   3.128  17.132 -0.0746 -0.5680  0.3334
  802MPD2    C511868   2.436   3.244  17.060 -0.0904  0.0463  0.0464
  802MPD2     H11869   2.347   3.244  17.428 -0.5664  1.8381  0.2072
  802MPD2    H111870   2.477   3.039  17.082  1.1233  0.4867 -0.6870
  802MPD2    H211871   2.384   3.453  17.056  0.2660 -0.4234 -0.9603
  802MPD2    H311872   2.455   3.231  16.954 -0.1337 -0.7666  0.1407
  802MPD2     N11873   2.426   3.013  17.341  0.5613 -0.3408  0.0731
  802MPD2    H511874   2.450   3.027  17.439  3.8533  1.7745 -0.9972
  802MPD2    N111875   2.284   3.464  17.321  0.0351 -0.4420 -0.7013
  802MPD2    H711876   2.274   3.436  17.418 -0.0691  1.1158 -0.2640
  803MPD2     C11877   3.010   0.501  12.365  0.0866  0.0227 -0.5359
  803MPD2    C111878   3.086   0.605  12.316  0.0514 -0.6199  0.0584
  803MPD2    C211879   3.204   0.640  12.378 -0.0355  0.0064  1.0578
  803MPD2    C311880   3.249   0.566  12.490 -0.2999  0.4564  0.4975
  803MPD2    C411881   3.173   0.460  12.531 -0.5460  0.3920  0.7669
  803MPD2    C511882   3.058   0.421  12.468 -0.1674  0.3140  0.8226
  803MPD2     H11883   3.258   0.732  12.363  1.3783 -0.7862  1.2456
  803MPD2    H111884   3.216   0.389  12.601 -0.6204  0.4069  0.8283
  803MPD2    H211885   2.918   0.470  12.319 -0.1562 -0.3107  0.1741
  803MPD2    H311886   3.006   0.333  12.503 -0.6834  0.4100  0.3003
  803MPD2     N11887   3.368   0.602  12.562 -0.5474 -0.0517  0.0470
  803MPD2    H511888   3.391   0.546  12.644  0.7408  1.2651  0.5984
  803MPD2    N111889   3.044   0.682  12.212 -0.3010  0.2751 -0.4295
  803MPD2    H711890   3.119   0.743  12.180 -0.3878  0.3941 -0.4092
  804MPD2     C11891   3.113   2.474  17.000  0.5639 -0.2578  0.0983
  804MPD2    C111892   3.120   2.459  17.139  0.0747  0.4174 -0.1015
  804MPD2    C211893   3.161   2.566  17.213 -0.0282 -0.2627  0.6440
  804MPD2    C311894   3.201   2.685  17.160  0.0509 -0.6585 -0.0284
  804MPD2    C411895   3.200   2.700  17.019 -0.2504  0.4237  0.3017
  804MPD2    C511896   3.142   2.596  16.946  0.2920 -0.3544  0.2975
  804MPD2     H11897   3.177   2.550  17.319 -3.0167  0.7841  1.2449
  804MPD2    H111898   3.222   2.790  16.963 -1.3838 -0.8389 -2.1985
  804MPD2    H211899   3.082   2.394  16.934  0.4823 -0.4329  0.3465
  804MPD2    H311900   3.132   2.611  16.839 -0.7497 -1.4786  0.2429
  804MPD2     N11901   3.258   2.772  17.253 -0.1759  0.1116 -0.8103
  804MPD2    H511902   3.263   2.743  17.351  1.1440  1.2871 -0.5368
  804MPD2    N111903   3.100   2.335  17.208  0.2431  0.3175 -0.4540
  804MPD2    H711904   3.113   2.335  17.308  0.7371  0.2442 -0.5159
  805MPD2     C11905   2.262   1.037  15.768 -0.9683 -0.0072  0.2035
  805MPD2    C111906   2.353   1.009  15.671 -0.3246 -0.1155  0.2927
  805MPD2    C211907   2.489   1.006  15.689  0.3138  0.0507 -1.4607
  805MPD2    C311908   2.536   1.043  15.820  0.3939  0.2514 -0.5239
  805MPD2    C411909   2.445   1.082  15.912  0.3747 -0.2547 -0.5826
  805MPD2    C511910   2.315   1.080  15.885 -0.2869  0.0120 -0.0812
  805MPD2     H11911   2.562   0.985  15.612  1.2805 -0.5250 -0.3894
  805MPD2    H111912   2.479   1.104  16.012  1.4041  0.8428 -1.1725
  805MPD2    H211913   2.154   1.039  15.764 -0.9029  1.3968 -0.6864
  805MPD2    H311914   2.249   1.105  15.967 -0.1146 -0.4398  0.1935
  805MPD2     N11915   2.674   1.017  15.848  0.2977  0.6179  0.0274
  805MPD2    H511916   2.727   0.980  15.770  0.7957  1.0962  0.1335
  805MPD2    N111917   2.302   0.963  15.547  0.2984 -0.3959  0.1589
  805MPD2    H711918   2.379   0.942  15.483 -0.1409  1.7465 -1.0960
  806MPD2     C11919   2.842   0.345   0.007  0.1401 -0.4691  0.0673
  806MPD2    C111920   2.788   0.413   0.107 -0.2274  0.3506 -0.0976
  806MPD2    C211921   2.759   0.548   0.091  0.6559  0.2255  0.1903
  806MPD2    C311922   2.798   0.620  17.716  0.0156 -0.0632  0.1840
  806MPD2    C411923   2.845   0.538  17.613  0.3165 -0.2704 -0.2214
  806MPD2    C511924   2.865   0.403  17.637 -0.0942 -0.8159 -0.2002
  806MPD2     H11925   2.728   0.602   0.180  0.1573  2.1045 -1.1377
  806MPD2    H111926   2.870   0.575  17.515 -0.0408 -0.7508 -0.4918
  806MPD2    H211927   2.866   0.240   0.020  1.9518 -0.1899 -1.0736
  806MPD2    H311928   2.894   0.342  17.553  0.2751  0.0893 -0.7306
  806MPD2     N11929   2.784   0.757  17.715 -0.4758 -0.0553 -0.4947
  806MPD2    H511930   2.746   0.800   0.051 -0.2345  1.2815 -1.0739
  806MPD2    N111931   2.770   0.348   0.234 -0.2415 -0.3928 -0.1749
  806MPD2    H711932   2.810   0.258   0.258 -1.8426 -0.9571  0.3306
  807MPD2     C11933   2.436   0.420   1.039 -0.3753  0.4779 -0.3004
  807MPD2    C111934   2.506   0.302   1.031  0.1675 -0.4208 -0.3923
  807MPD2    C211935   2.538   0.228   1.139  0.9544  0.4202 -0.4229
  807MPD2    C311936   2.492   0.271   1.267 -0.3423 -0.5723 -0.5971
  807MPD2    C411937   2.434   0.387   1.274  0.5032 -0.1518  0.1045
  807MPD2    C511938   2.399   0.460   1.165  0.0126  0.2798  0.0574
  807MPD2     H11939   2.585   0.131   1.125 -0.0631  0.0495 -1.2423
  807MPD2    H111940   2.410   0.429   1.372 -0.2709  0.1674 -0.2202
  807MPD2    H211941   2.427   0.489   0.956 -1.6280  1.4247  0.6108
  807MPD2    H311942   2.348   0.555   1.175  2.4768  1.4478  1.6648
  807MPD2     N11943   2.514   0.183   1.381 -0.4682  0.6415 -0.0715
  807MPD2    H511944   2.570   0.099   1.367  0.0086  0.3130  3.9848
  807MPD2    N111945   2.569   0.267   0.912  0.5735 -0.2603  0.1600
  807MPD2    H711946   2.636   0.192   0.919 -0.7226 -1.4175  0.1900
  808MPD2     C11947   3.441   1.131  10.125  0.6256 -0.3312 -0.1134
  808MPD2    C111948   3.349   1.159  10.022 -0.5918  0.4184 -0.4423
  808MPD2    C211949   3.374   1.273   9.954  0.0934 -0.2761 -0.4537
  808MPD2    C311950   3.458   1.366  10.005 -0.0590 -0.6207 -0.3459
  808MPD2    C411951   3.524   1.347  10.123 -0.1048 -0.0806  0.9106
  808MPD2    C511952   3.523   1.225  10.173  0.5192  0.9605  0.5802
  808MPD2     H11953   3.313   1.302   9.869 -0.8010  0.9000  0.5832
  808MPD2    H111954   3.592   1.421  10.164 -0.0595  1.9827 -2.8906
  808MPD2    H211955   3.436   1.037  10.179 -0.1924  0.0855  0.5372
  808MPD2    H311956   3.584   1.195  10.258 -0.6898 -1.7099  0.5075
  808MPD2     N11957   3.469   1.499   9.953 -0.2874  0.2750  0.3010
  808MPD2    H511958   3.516   1.569  10.009 -0.5908  0.3890  0.4097
  808MPD2    N111959   3.247   1.066   9.984  0.1527 -0.1655 -0.6073
  808MPD2    H711960   3.178   1.105   9.921  0.8237 -0.1609 -1.3391
  809MPD2     C11961   4.143   1.695   9.278 -0.2969  0.4963  0.4638
  809MPD2    C111962   4.116   1.804   9.357 -0.1944 -0.4006  0.2355
  809MPD2    C211963   3.991   1.812   9.418  0.0552  0.2394 -0.1020
  809MPD2    C311964   3.895   1.715   9.397  0.1003 -0.4276 -0.7753
  809MPD2    C411965   3.920   1.611   9.314 -0.6794  0.1303 -0.5173
  809MPD2    C511966   4.046   1.606   9.252 -0.9139  0.0929  0.1533
  809MPD2     H11967   3.965   1.886   9.493  2.9383  2.1511 -0.9682
  809MPD2    H111968   3.841   1.541   9.292  1.6333 -2.4751 -0.5299
  809MPD2    H211969   4.238   1.684   9.227 -1.7638 -0.9686 -1.9896
  809MPD2    H311970   4.060   1.524   9.182  0.5483  1.1752 -0.8119
  809MPD2     N11971   3.778   1.718   9.476  0.4666 -0.1393  0.3247
  809MPD2    H511972   3.714   1.640   9.466 -1.3537  1.1556  1.9673
  809MPD2    N111973   4.220   1.900   9.386 -0.3178 -0.6227 -0.1967
  809MPD2    H711974   4.191   1.967   9.457  0.7536 -0.9867  0.5857
  810MPD2     C11975   3.083   0.960  10.386 -0.1011  0.0904 -0.2030
  810MPD2    C111976   2.976   0.954  10.476  0.1976 -0.6619  0.2262
  810MPD2    C211977   2.955   1.067  10.553  0.8224  0.2204 -0.2440
  810MPD2    C311978   3.046   1.174  10.547 -0.4149  0.3697  0.3927
  810MPD2    C411979   3.137   1.176  10.450 -0.1113 -0.1627  0.3141
  810MPD2    C511980   3.155   1.069  10.362  0.2350  0.0057  0.4544
  810MPD2     H11981   2.889   1.069  10.639  1.7614 -0.0875  0.4810
  810MPD2    H111982   3.199   1.264  10.433 -1.3429  0.5763 -0.3218
  810MPD2    H211983   3.098   0.881  10.313 -4.3161  1.1406 -2.1901
  810MPD2    H311984   3.227   1.053  10.284  0.8735  0.0784  1.0310
  810MPD2     N11985   3.037   1.292  10.629  0.0974 -0.1879  0.1142
  810MPD2    H511986   3.101   1.369  10.613  1.1431 -1.4314 -1.6003
  810MPD2    N111987   2.888   0.845  10.475 -0.3756  0.1549  0.0233
  810MPD2    H711988   2.904   0.776  10.403  1.5165 -0.6926  1.2644
  811MPD2     C11989   2.169   0.790  10.029 -0.1092  0.0420 -0.2466
  811MPD2    C111990   2.284   0.832  10.088 -0.8538  0.0063 -0.1289
  811MPD2    C211991   2.331   0.959  10.058 -0.1636  0.4892 -0.9625
  811MPD2    C311992   2.255   1.038   9.970 -0.0585  0.1758  0.0070
  811MPD2    C411993   2.146   0.990   9.903  0.4017  0.0992  0.3862
  811MPD2    C511994   2.103   0.868   9.937 -0.7675 -0.1191 -0.1243
  811MPD2     H11995   2.417   1.000  10.110  0.2953 -2.7664  0.8268
  811MPD2    H111996   2.085   1.045   9.833  1.2727  1.4253  0.6675
  811MPD2    H211997   2.129   0.692  10.051 -0.0211 -0.1632 -1.0039
  811MPD2    H311998   2.007   0.837   9.897 -0.6710  1.6552 -1.7046
  811MPD2     N11999   2.290   1.177   9.958 -0.0517  0.0780  0.1706
  811MPD2    H512000   2.368   1.214  10.012  0.3833  1.1823 -1.2159
  811MPD2    N112001   2.357   0.745  10.173  0.1172 -0.7629 -0.1779
  811MPD2    H712002   2.309   0.667  10.216  0.2149 -0.9242 -0.3611
  812MPD2     C12003   1.054   0.602  12.420  0.2222  0.0739  0.6358
  812MPD2    C112004   1.158   0.680  12.457 -0.0605 -0.4367 -0.3639
  812MPD2    C212005   1.219   0.647  12.582  0.1088  0.5049 -0.6676
  812MPD2    C312006   1.171   0.549  12.669 -0.1283  0.0668 -0.0582
  812MPD2    C412007   1.066   0.472  12.629  0.2369 -0.5445  0.7015
  812MPD2    C512008   1.008   0.498  12.503  0.4942 -0.1541  0.1935
  812MPD2     H12009   1.299   0.712  12.616  0.1069 -0.0893  0.4481
  812MPD2    H112010   1.017   0.404  12.699 -1.4840  0.0863  0.1268
  812MPD2    H212011   1.003   0.620  12.326  3.1958 -0.8852 -1.1744
  812MPD2    H312012   0.926   0.450  12.452  1.2317 -2.1816  0.9039
  812MPD2     N12013   1.248   0.524  12.784  0.1256 -0.7947 -0.3674
  812MPD2    H512014   1.336   0.575  12.794 -0.7477  0.6599 -0.1009
  812MPD2    N112015   1.197   0.786  12.369 -0.3994  0.0249  0.3289
  812MPD2    H712016   1.144   0.788  12.282  0.0396 -1.5902  0.0236
  813MPD2     C12017   0.771   2.760  13.027 -0.5511  0.3915  0.1113
  813MPD2    C112018   0.765   2.897  13.021  0.0894  0.0351  0.0128
  813MPD2    C212019   0.675   2.959  13.101  0.3204 -0.2001  0.6734
  813MPD2    C312020   0.585   2.887  13.178 -0.8989 -0.1754 -0.4568
  813MPD2    C412021   0.580   2.745  13.164  0.1021  0.3504  0.4844
  813MPD2    C512022   0.674   2.688  13.089 -0.2217 -0.1820  0.1594
  813MPD2     H12023   0.684   3.063  13.130  0.5898 -0.1797  0.5186
  813MPD2    H112024   0.511   2.684  13.222  0.4219  2.1057  2.6796
  813MPD2    H212025   0.842   2.705  12.966  1.8950  0.7472  2.6500
  813MPD2    H312026   0.674   2.580  13.088 -1.4790 -0.1984  1.4133
  813MPD2     N12027   0.507   2.953  13.275 -0.3743 -0.6388  0.6168
  813MPD2    H512028   0.523   3.053  13.283 -0.6821 -0.4262 -1.5384
  813MPD2    N112029   0.877   2.967  12.964 -0.3864  0.2526 -0.6050
  813MPD2    H712030   0.955   2.916  12.923  0.0580 -1.2874  2.1790
  814MPD2     C12031   1.080   3.879  12.268  0.0629 -0.9086 -0.4286
  814MPD2    C112032   1.086   3.977  12.171  0.0438 -0.8572 -0.8073
  814MPD2    C212033   1.173   4.084  12.192  0.1881 -0.7347 -0.2035
  814MPD2    C312034   1.240   4.102  12.315 -0.5604  0.0756  0.3411
  814MPD2    C412035   1.224   4.005  12.412 -0.4122 -0.5884  0.1129
  814MPD2    C512036   1.153   3.893  12.385  0.3407 -0.3010  0.1281
  814MPD2     H12037   1.178   4.158  12.113  0.7742 -0.3548  0.1833
  814MPD2    H112038   1.266   4.011  12.511 -0.0558 -0.2480 -0.0590
  814MPD2    H212039   1.033   3.781  12.261  1.1400 -1.6559  2.4454
  814MPD2    H312040   1.140   3.825  12.469  1.0189 -1.2190 -0.5094
  814MPD2     N12041   1.308   4.222  12.346  0.0826 -0.1970 -0.2918
  814MPD2    H512042   1.331   4.224  12.444  0.2869 -2.1589 -0.2918
  814MPD2    N112043   1.024   3.968  12.041  0.0127  0.1734 -1.0802
  814MPD2    H712044   1.046   4.037  11.971  3.2740  0.4887  0.2897
  815MPD2     C12045   1.804   2.669  11.816 -0.7628 -0.3380  0.1023
  815MPD2    C112046   1.706   2.579  11.847 -0.1828  0.1134 -0.3643
  815MPD2    C212047   1.628   2.607  11.955 -0.2756 -0.7234 -0.2625
  815MPD2    C312048   1.640   2.713  12.035  0.0922  0.2600 -0.0019
  815MPD2    C412049   1.748   2.795  12.009 -0.2204 -0.3642  1.0253
  815MPD2    C512050   1.822   2.780  11.896  0.1113  0.2647 -0.7800
  815MPD2     H12051   1.544   2.540  11.969 -0.8083  0.3266  1.5476
  815MPD2    H112052   1.769   2.880  12.073 -0.5516  1.0959 -0.8139
  815MPD2    H212053   1.871   2.657  11.731 -0.5491 -0.4978  0.2923
  815MPD2    H312054   1.903   2.853  11.886  1.0165 -1.1640 -3.6990
  815MPD2     N12055   1.555   2.725  12.146  0.7650 -0.4076 -0.0432
  815MPD2    H512056   1.486   2.651  12.154  1.2982 -0.7617  1.2070
  815MPD2    N112057   1.689   2.470  11.762  0.2832 -0.1413  0.1141
  815MPD2    H712058   1.754   2.467  11.684 -2.0756 -0.7195 -1.8614
  816MPD2     C12059   1.378   1.831  17.219 -1.6591 -0.3581  0.1082
  816MPD2    C112060   1.484   1.918  17.204 -0.0677  0.3347  1.2103
  816MPD2    C212061   1.605   1.879  17.161  0.4851  0.3434 -0.1320
  816MPD2    C312062   1.624   1.744  17.133 -0.6234 -0.5008  0.2307
  816MPD2    C412063   1.524   1.655  17.165 -0.1949 -0.4669 -0.2363
  816MPD2    C512064   1.401   1.700  17.204 -0.0842  0.2416 -0.0892
  816MPD2     H12065   1.684   1.946  17.131 -0.5783  0.9368 -1.6184
  816MPD2    H112066   1.550   1.550  17.159  0.8968 -0.0405 -2.9826
  816MPD2    H212067   1.281   1.866  17.254 -0.8813  1.7213  0.2003
  816MPD2    H312068   1.321   1.630  17.225 -0.2222 -0.7300 -3.7365
  816MPD2     N12069   1.753   1.708  17.072  0.5753  0.2178  0.2513
  816MPD2    H512070   1.820   1.782  17.057  0.4976 -0.0381 -1.3671
  816MPD2    N112071   1.449   2.057  17.211 -0.3397  0.7713 -0.3657
  816MPD2    H712072   1.350   2.071  17.228 -0.6367 -1.2396 -0.4287
  817MPD2     C12073   1.214   3.373  10.259  0.3105  0.3887 -0.6030
  817MPD2    C112074   1.237   3.421  10.132 -0.6302 -0.2146  0.1279
  817MPD2    C212075   1.201   3.549  10.100  0.3354 -0.4186 -0.8483
  817MPD2    C312076   1.142   3.629  10.194 -0.3230 -0.2101 -0.0631
  817MPD2    C412077   1.125   3.581  10.321  0.5675 -0.2235  0.4205
  817MPD2    C512078   1.167   3.457  10.353 -0.0921  0.7341  0.9103
  817MPD2     H12079   1.209   3.591  10.000  0.0762 -0.7506 -1.0081
  817MPD2    H112080   1.086   3.651  10.394 -2.3103  0.6553 -1.9483
  817MPD2    H212081   1.228   3.272  10.296  0.0564  0.6818  0.3096
  817MPD2    H312082   1.143   3.417  10.451 -1.2381 -1.0288 -0.0913
  817MPD2     N12083   1.097   3.755  10.158  0.0693 -0.3463  0.1615
  817MPD2    H512084   1.114   3.789  10.064 -0.7680 -1.9799 -0.5687
  817MPD2    N112085   1.284   3.338  10.028  0.6702  0.0617  0.1913
  817MPD2    H712086   1.307   3.374   9.936  1.1285 -1.5156 -0.3186
  818MPD2     C12087   0.429   3.356  10.044 -0.4335  0.1344  1.0308
  818MPD2    C112088   0.398   3.276  10.147 -0.5964  0.1723 -0.5739
  818MPD2    C212089   0.471   3.162  10.174 -0.3740  1.1242  0.0003
  818MPD2    C312090   0.582   3.125  10.097  0.0031 -0.3870 -0.5375
  818MPD2    C412091   0.609   3.204   9.988 -0.2220  0.4747  0.1462
  818MPD2    C512092   0.533   3.316   9.966  0.4581 -0.5148  0.1096
  818MPD2     H12093   0.445   3.101  10.260  0.5401  1.7835  0.7481
  818MPD2    H112094   0.683   3.179   9.914  0.4874  0.2612  0.9336
  818MPD2    H212095   0.365   3.438  10.013  0.6189  1.0983  1.4386
  818MPD2    H312096   0.561   3.373   9.878 -1.9428 -1.6079 -1.3631
  818MPD2     N12097   0.660   3.008  10.118 -0.0477 -0.4011  0.1451
  818MPD2    H512098   0.726   2.978  10.047  0.3729 -0.4513  0.5610
  818MPD2    N112099   0.284   3.302  10.231  0.4874  0.6313  0.0495
  818MPD2    H712100   0.262   3.223  10.292  0.7612 -0.3695 -1.1433
  819MPD2     C12101   3.233   0.168  15.265 -0.3605 -0.4230  0.2024
  819MPD2    C112102   3.223   0.139  15.398 -0.1302  0.1320 -0.2448
  819MPD2    C212103   3.336   0.139  15.478  0.2352  0.7201  0.0232
  819MPD2    C312104   3.464   0.147  15.431  0.5326 -0.0553  0.0757
  819MPD2    C412105   3.472   0.153  15.289 -0.0873  0.5713 -0.7869
  819MPD2    C512106   3.358   0.172  15.214  0.5915 -0.3955  0.4579
  819MPD2     H12107   3.326   0.123  15.585 -0.0974 -0.6992 -0.2116
  819MPD2    H112108   3.569   0.144  15.243  0.1061  0.1135 -0.2959
  819MPD2    H212109   3.146   0.161  15.201 -0.8498 -0.5509  0.8744
  819MPD2    H312110   3.363   0.193  15.108 -0.6148 -1.1347  0.2471
  819MPD2     N12111   3.573   0.162  15.512 -0.5240  0.6348  0.1880
  819MPD2    H512112   3.558   0.161  15.613 -3.4778 -0.7782 -0.2862
  819MPD2    N112113   3.095   0.110  15.436 -0.4167  0.7547  0.1755
  819MPD2    H712114   3.015   0.118  15.375 -0.6275 -0.9339  0.2322
  820MPD2     C12115   2.089   0.198  15.344  0.0869  0.0896  0.0134
  820MPD2    C112116   2.195   0.286  15.345 -0.5245 -0.5609  0.0520
  820MPD2    C212117   2.319   0.238  15.376 -0.2579 -0.6625 -0.2456
  820MPD2    C312118   2.347   0.100  15.395  0.0052  0.4005  0.4069
  820MPD2    C412119   2.237   0.018  15.398  0.2121 -0.2735  0.3387
  820MPD2    C512120   2.107   0.069  15.373 -0.1534 -0.6051 -0.0764
  820MPD2     H12121   2.403   0.307  15.367  0.7257 -1.9822 -1.1797
  820MPD2    H112122   2.241   4.650  15.423  0.4924 -0.1463  0.8387
  820MPD2    H212123   1.990   0.236  15.320  0.2784  0.9103  0.5408
  820MPD2    H312124   2.020   0.003  15.379 -2.6892  2.6659 -0.7607
  820MPD2     N12125   2.473   0.047  15.428  0.2680  0.8065  0.5206
  820MPD2    H512126   2.471   4.684  15.447  1.6015  0.4324 -1.3279
  820MPD2    N112127   2.162   0.422  15.317 -0.0297  0.6566 -0.3494
  820MPD2    H712128   2.064   0.445  15.301  0.0482  0.6122 -0.8852
  821MPD2     C12129   3.301   1.103  13.046  0.3930 -0.4294 -0.2067
  821MPD2    C112130   3.413   1.104  13.132 -0.0968 -0.0288  0.2412
  821MPD2    C212131   3.535   1.165  13.094  0.1210  0.6069  0.1779
  821MPD2    C312132   3.532   1.246  12.982 -0.7938 -0.0168  0.1127
  821MPD2    C412133   3.418   1.271  12.911  0.3904 -0.7519  0.0052
  821MPD2    C512134   3.301   1.193  12.941  0.4021 -0.0583 -0.0694
  821MPD2     H12135   3.631   1.149  13.143 -0.1176  0.8393  0.7103
  821MPD2    H112136   3.413   1.339  12.828  2.4806 -1.0902 -0.3800
  821MPD2    H212137   3.211   1.049  13.071  0.4548 -0.6925 -0.5541
  821MPD2    H312138   3.222   1.186  12.867 -1.0784  0.4199  1.4836
  821MPD2     N12139   3.651   1.312  12.939 -0.5149 -0.0167 -0.2225
  821MPD2    H512140   3.642   1.392  12.877 -0.0199 -0.4402 -0.8449
  821MPD2    N112141   3.398   1.054  13.268  0.4468 -0.0658  0.5780
  821MPD2    H712142   3.479   1.067  13.327  0.5778 -1.9604  0.8415
  822MPD2     C12143   3.840   1.780  15.818 -0.7760  0.4022 -0.6981
  822MPD2    C112144   3.786   1.728  15.932  0.4173 -0.4166 -0.6437
  822MPD2    C212145   3.701   1.810  16.005  0.2950 -0.1339  0.5588
  822MPD2    C312146   3.666   1.944  15.970  0.0569  0.1654 -0.2663
  822MPD2    C412147   3.719   1.990  15.846 -0.1981  0.5510 -0.7100
  822MPD2    C512148   3.805   1.903  15.774 -0.5094  0.1821  0.2173
  822MPD2     H12149   3.658   1.769  16.095 -1.2236  0.7258  0.2316
  822MPD2    H112150   3.701   2.088  15.803  0.1921  0.7459 -0.4244
  822MPD2    H212151   3.911   1.724  15.758 -1.9726 -2.8126  0.8746
  822MPD2    H312152   3.842   1.932  15.677 -0.5508 -1.1277 -0.1934
  822MPD2     N12153   3.602   2.026  16.062  0.2857  0.8752 -0.3337
  822MPD2    H512154   3.579   1.987  16.153 -2.3093  2.0512 -0.4808
  822MPD2    N112155   3.842   1.617  15.997  0.1223 -0.6074 -0.1115
  822MPD2    H712156   3.817   1.609  16.095 -0.4933 -0.6679 -0.2691
  823MPD2     C12157   3.366   2.229  16.843  0.3233 -0.0866  0.4902
  823MPD2    C112158   3.426   2.156  16.738 -0.4376  0.2569 -0.1086
  823MPD2    C212159   3.500   2.044  16.767  0.7055  0.3291 -0.3179
  823MPD2    C312160   3.520   1.998  16.898  0.8976 -0.1099  0.7073
  823MPD2    C412161   3.449   2.066  16.997 -0.1076 -0.2953  0.3548
  823MPD2    C512162   3.371   2.177  16.968  0.2399 -0.2354 -0.7131
  823MPD2     H12163   3.555   1.992  16.689  2.2658 -2.1119  2.3878
  823MPD2    H112164   3.436   2.030  17.099 -1.7807  1.0410  0.6081
  823MPD2    H212165   3.317   2.324  16.827 -0.6961 -0.2108  2.9098
  823MPD2    H312166   3.321   2.236  17.044  0.2551 -2.1563  0.7856
  823MPD2     N12167   3.601   1.887  16.946  0.0836  0.5489  0.0344
  823MPD2    H512168   3.589   1.856  17.042  0.3009  0.3507 -0.0040
  823MPD2    N112169   3.414   2.214  16.612 -1.0070  0.6074 -0.0197
  823MPD2    H712170   3.382   2.309  16.594  0.7099  1.6518  2.4378
  824MPD2     C12171   4.458   0.961  16.256  0.3096  0.1995 -0.3045
  824MPD2    C112172   4.438   1.037  16.145 -0.1983  0.0314 -0.1360
  824MPD2    C212173   4.512   1.015  16.026  0.1359  0.6292 -0.4364
  824MPD2    C312174   4.624   0.930  16.030 -0.3158 -0.3835 -0.4536
  824MPD2    C412175   4.650   0.862  16.147  0.0648  0.5616  0.2410
  824MPD2    C512176   4.567   0.876  16.258 -1.3809  0.9260 -0.7131
  824MPD2     H12177   4.503   1.082  15.942 -1.0596  1.6442  0.5090
  824MPD2    H112178   0.001   0.800  16.161  1.3279  2.4325  0.6208
  824MPD2    H212179   4.403   0.981  16.347 -1.7007  0.6181 -1.6190
  824MPD2    H312180   4.589   0.831  16.353  1.8915  0.4956 -1.6797
  824MPD2     N12181   4.703   0.911  15.912  0.5757 -0.3150  0.3360
  824MPD2    H512182   4.674   0.960  15.828  2.4605  0.3405  0.0541
  824MPD2    N112183   4.353   1.141  16.155 -0.2036  0.1072 -0.5731
  824MPD2    H712184   4.309   1.160  16.244 -1.8278 -2.0641 -0.9024
  825MPD2     C12185   0.232   0.906  15.081 -0.4953 -0.2120 -0.2279
  825MPD2    C112186   0.235   0.973  15.202  0.1485 -0.2428 -0.4893
  825MPD2    C212187   0.258   1.108  15.200 -0.4431 -0.1791  0.6203
  825MPD2    C312188   0.277   1.171  15.078 -1.4104  0.3475  0.5493
  825MPD2    C412189   0.255   1.112  14.963  0.6560 -0.6464 -0.2261
  825MPD2    C512190   0.233   0.979  14.966 -0.5215  0.6565 -0.2617
  825MPD2     H12191   0.273   1.162  15.293  1.8960 -0.6858  0.5340
  825MPD2    H112192   0.267   1.165  14.870 -2.9713  1.0673  0.2587
  825MPD2    H212193   0.219   0.799  15.076 -0.8199 -0.1784 -0.1016
  825MPD2    H312194   0.216   0.926  14.873 -1.6978 -3.9532  2.6281
  825MPD2     N12195   0.317   1.308  15.070  0.0602 -0.0234  0.4751
  825MPD2    H512196   0.322   1.344  14.975  1.4786  3.7049  1.9732
  825MPD2    N112197   0.200   0.899  15.318 -0.5207 -0.1534  0.0830
  825MPD2    H712198   0.183   0.800  15.307  1.3240 -0.2328 -2.0132
  826MPD2     C12199   4.656   0.930  13.198  0.4594  0.0203 -0.1334
  826MPD2    C112200   4.651   0.870  13.322  0.6375 -0.3381  0.8710
  826MPD2    C212201   4.526   0.843  13.367  0.2228  0.2507  0.0458
  826MPD2    C312202   4.416   0.872  13.290  0.4589 -0.9239  0.1796
  826MPD2    C412203   4.426   0.934  13.169 -0.4255 -0.1448 -0.0165
  826MPD2    C512204   4.553   0.963  13.120 -0.0605 -0.6812 -0.6859
  826MPD2     H12205   4.506   0.809  13.468  1.1782 -1.0853 -0.2235
  826MPD2    H112206   4.338   0.958  13.110  0.1363  2.8801  0.3847
  826MPD2    H212207   0.018   0.954  13.164  0.2579  0.4761 -0.3957
  826MPD2    H312208   4.562   1.009  13.022  2.0400  1.3409  0.4681
  826MPD2     N12209   4.282   0.851  13.331 -0.4618  0.1243  0.5164
  826MPD2    H512210   4.206   0.863  13.264 -0.3372 -0.2274  0.3155
  826MPD2    N112211   0.031   0.842  13.399  0.3263 -0.1738  0.2335
  826MPD2    H712212   0.122   0.878  13.370 -0.5553 -0.2958 -2.7348
  827MPD2     C12213   0.678   2.197  10.223 -0.8145  0.8053 -0.2035
  827MPD2    C112214   0.605   2.125  10.305 -0.2331 -0.5095  1.3803
  827MPD2    C212215   0.493   2.062  10.256  0.3733 -0.0245 -0.0750
  827MPD2    C312216   0.460   2.075  10.124 -0.2694 -0.2509 -0.0828
  827MPD2    C412217   0.552   2.135  10.036 -0.1039 -0.2329 -0.3371
  827MPD2    C512218   0.661   2.199  10.084 -0.4467 -0.3099  0.4764
  827MPD2     H12219   0.428   2.007  10.324 -0.3009  1.9443  0.8765
  827MPD2    H112220   0.538   2.133   9.928 -1.5403  1.3948 -0.1849
  827MPD2    H212221   0.764   2.243  10.271 -0.2795 -1.0353  0.5821
  827MPD2    H312222   0.726   2.246  10.012  0.0627 -0.9391  0.5311
  827MPD2     N12223   0.334   2.013  10.084  0.7039 -0.5104  0.1822
  827MPD2    H512224   0.274   1.969  10.153  1.8069 -0.1168  1.3751
  827MPD2    N112225   0.650   2.120  10.441 -0.2486 -0.1877  0.2572
  827MPD2    H712226   0.729   2.181  10.458  1.2846 -2.0405 -0.2957
  828MPD2     C12227   3.566   1.997  12.692  0.2064  0.1869  0.2997
  828MPD2    C112228   3.450   2.036  12.640  0.0379  0.5207  0.1598
  828MPD2    C212229   3.434   2.022  12.507 -0.0033  0.7356 -0.1799
  828MPD2    C312230   3.524   1.963  12.425 -0.6464  0.3659  0.6891
  828MPD2    C412231   3.652   1.936  12.484  0.7515  0.1797  1.3796
  828MPD2    C512232   3.668   1.945  12.620 -0.3804 -0.4695 -0.2828
  828MPD2     H12233   3.341   2.060  12.467 -0.1063 -0.0333 -0.6706
  828MPD2    H112234   3.735   1.887  12.433  0.1976 -0.1171  0.7653
  828MPD2    H212235   3.592   2.019  12.795 -0.0250  0.4025  0.3107
  828MPD2    H312236   3.762   1.926  12.671  0.4750  0.4417 -1.5422
  828MPD2     N12237   3.495   1.926  12.294  0.1606 -0.4954  0.0762
  828MPD2    H512238   3.571   1.877  12.248 -1.3117 -0.1446 -2.7499
  828MPD2    N112239   3.343   2.092  12.709 -0.5488 -0.4154  0.0520
  828MPD2    H712240   3.265   2.138  12.663  1.6307  0.2105 -3.0196
  829MPD2     C12241   2.588   2.271  12.341  0.3900  0.0213  0.1368
  829MPD2    C112242   2.722   2.260  12.340 -0.9071  0.7975  0.2588
  829MPD2    C212243   2.790   2.276  12.455 -0.6894  0.2272 -0.0753
  829MPD2    C312244   2.729   2.299  12.575  0.5444  0.1565 -0.2916
  829MPD2    C412245   2.596   2.306  12.583 -0.4755  0.1728  0.1424
  829MPD2    C512246   2.529   2.298  12.463 -0.1978 -0.0592  0.8355
  829MPD2     H12247   2.899   2.271  12.451 -0.6424  0.4466  1.0371
  829MPD2    H112248   2.548   2.343  12.673 -0.6471  0.2336  0.0260
  829MPD2    H212249   2.521   2.256  12.257  2.5687  0.7502 -1.7209
  829MPD2    H312250   2.421   2.305  12.461 -0.3519 -3.0546 -1.0934
  829MPD2     N12251   2.804   2.301  12.698  0.1242 -0.3949  0.1634
  829MPD2    H512252   2.758   2.278  12.785  2.5444 -1.5832  1.1401
  829MPD2    N112253   2.782   2.221  12.220  0.1876  0.1694 -0.8491
  829MPD2    H712254   2.716   2.206  12.144 -1.9506  1.2788  0.8030
  830MPD2     C12255   4.336   0.573  15.837  0.2558  0.2523 -0.6555
  830MPD2    C112256   4.274   0.536  15.721  0.4839 -0.1668  0.7656
  830MPD2    C212257   4.280   0.616  15.607 -0.3626  0.0939 -0.1777
  830MPD2    C312258   4.331   0.740  15.612 -0.5694  0.8364  0.0361
  830MPD2    C412259   4.396   0.786  15.729  0.8604  0.2109 -0.1071
  830MPD2    C512260   4.396   0.697  15.835  0.0229  0.3956  0.5098
  830MPD2     H12261   4.243   0.585  15.510 -0.7655 -0.3746  0.1240
  830MPD2    H112262   4.435   0.885  15.752  2.8765 -0.9889  1.6231
  830MPD2    H212263   4.327   0.507  15.922  1.3460 -0.7754 -1.3414
  830MPD2    H312264   4.446   0.722  15.928  0.3143 -1.3193  0.8178
  830MPD2     N12265   4.328   0.840  15.510 -0.4301 -1.0804 -0.6366
  830MPD2    H512266   4.371   0.931  15.526  2.2318 -2.4303 -0.0097
  830MPD2    N112267   4.198   0.408  15.728 -0.0694  0.0813  0.3498
  830MPD2    H712268   4.212   0.355  15.813 -0.5242 -0.0536  0.3393
  831MPD2     C12269   3.913   2.151  16.326 -0.7510  0.1544  0.3650
  831MPD2    C112270   3.939   2.030  16.257 -0.4000 -0.0755  0.4388
  831MPD2    C212271   3.873   1.918  16.293 -0.1889 -0.5470  0.2349
  831MPD2    C312272   3.776   1.915  16.394  0.0816 -1.0488 -0.1280
  831MPD2    C412273   3.769   2.033  16.468 -0.6226  0.3036 -0.4468
  831MPD2    C512274   3.833   2.148  16.433 -0.5338  0.3274  0.3199
  831MPD2     H12275   3.891   1.828  16.235 -3.0514 -1.2728  0.4601
  831MPD2    H112276   3.706   2.042  16.556 -0.8686  1.2156 -0.7182
  831MPD2    H212277   3.968   2.240  16.296 -1.2973  1.1122  2.2263
  831MPD2    H312278   3.825   2.240  16.490  1.6390  0.3769  0.5601
  831MPD2     N12279   3.694   1.806  16.436 -0.3553 -0.5536 -0.0298
  831MPD2    H512280   3.637   1.817  16.519 -2.9180 -2.3132 -1.5519
  831MPD2    N112281   4.023   2.038  16.142  0.1283  0.1884 -0.1186
  831MPD2    H712282   4.048   2.124  16.096 -0.6049  0.6780  0.4056
  832MPD2     C12283   2.327   3.346  16.764 -0.3341  0.4765 -0.3903
  832MPD2    C112284   2.250   3.461  16.758 -0.4074  0.6595 -1.0423
  832MPD2    C212285   2.110   3.448  16.737  0.3158 -0.1495  0.8059
  832MPD2    C312286   2.050   3.326  16.742  0.4739 -0.1579  0.2588
  832MPD2    C412287   2.133   3.216  16.747 -0.1285 -0.1501 -0.0622
  832MPD2    C512288   2.265   3.223  16.771 -0.0618 -0.1881  0.3749
  832MPD2     H12289   2.051   3.540  16.737  0.8443  0.1947  2.6253
  832MPD2    H112290   2.094   3.116  16.729  2.6030 -1.3518  0.6849
  832MPD2    H212291   2.435   3.341  16.760 -0.3974  1.5228 -3.8517
  832MPD2    H312292   2.331   3.138  16.765  0.2930  0.0965  0.2667
  832MPD2     N12293   1.907   3.300  16.734  0.4574 -0.1013  0.4660
  832MPD2    H512294   1.877   3.204  16.751 -1.5363  0.1997 -1.2857
  832MPD2    N112295   2.304   3.592  16.765 -0.0994 -0.3625 -0.0099
  832MPD2    H712296   2.240   3.670  16.762  2.2209  1.5417  0.2802
  833MPD2     C12297   4.710   4.286  12.647 -0.6562 -0.3429  0.1321
  833MPD2    C112298   4.627   4.332  12.546  0.5068  0.2790  0.2345
  833MPD2    C212299   4.629   4.265  12.423 -0.8725  0.1749 -0.1994
  833MPD2    C312300   4.719   4.165  12.394 -0.3489  0.1434 -0.3600
  833MPD2    C412301   0.068   4.123  12.494  0.0105 -0.0090  0.4910
  833MPD2    C512302   0.059   4.181  12.621 -0.2077  0.2318 -0.8232
  833MPD2     H12303   4.561   4.307  12.350  1.6854 -0.0889 -2.7038
  833MPD2    H112304   0.138   4.043  12.472  1.2723  0.6888  2.0375
  833MPD2    H212305   4.709   4.321  12.750 -1.5095 -1.5098  0.5242
  833MPD2    H312306   0.128   4.150  12.699 -1.2552  1.9408  0.7733
  833MPD2     N12307   4.714   4.097  12.270 -0.1105 -0.8642 -0.1949
  833MPD2    H512308   0.014   4.003  12.269 -0.8462 -1.1212 -3.0648
  833MPD2    N112309   4.538   4.444  12.568 -0.9120  0.1173  0.3331
  833MPD2    H712310   4.535   4.479  12.663  0.9549 -2.4225  1.3509
  834MPD2     C12311   4.116   3.401  11.877 -0.0347  0.0265  0.8422
  834MPD2    C112312   4.153   3.470  11.765  0.3516 -0.0172  0.8351
  834MPD2    C212313   4.235   3.580  11.782  0.3365 -0.6611  0.0459
  834MPD2    C312314   4.284   3.620  11.903 -0.4011 -0.4022 -0.2415
  834MPD2    C412315   4.258   3.543  12.012  0.4424  0.0709  0.3977
  834MPD2    C512316   4.171   3.441  11.998 -0.2410 -0.1922 -0.9580
  834MPD2     H12317   4.246   3.647  11.698 -1.8569  1.0514  1.1332
  834MPD2    H112318   4.303   3.549  12.110  0.3249  2.8195  0.2773
  834MPD2    H212319   4.042   3.322  11.871 -0.7343  0.5838  2.1342
  834MPD2    H312320   4.138   3.384  12.084 -2.6286  2.0831 -0.3673
  834MPD2     N12321   4.361   3.740  11.908  0.3876  0.3639 -0.7134
  834MPD2    H512322   4.372   3.780  11.815  2.0230 -0.4924 -0.8792
  834MPD2    N112323   4.106   3.435  11.637  0.0394  0.0984 -0.0454
  834MPD2    H712324   4.049   3.351  11.631  1.9417 -1.1193 -1.1839
  835MPD2     C12325   4.163   2.098  10.959  0.4184  0.7366  0.0528
  835MPD2    C112326   4.088   2.180  11.041 -0.2561 -0.7477  0.5453
  835MPD2    C212327   4.131   2.199  11.174  0.5788  0.3899  0.2877
  835MPD2    C312328   4.241   2.122  11.215 -0.0420  0.6582  0.1883
  835MPD2    C412329   4.315   2.044  11.133  0.3391 -0.3561  0.2571
  835MPD2    C512330   4.277   2.035  11.004  0.0381 -0.1518  0.5458
  835MPD2     H12331   4.065   2.253  11.241  0.9005  0.8555  0.2236
  835MPD2    H112332   4.405   1.990  11.162  1.4042  1.3363  0.1394
  835MPD2    H212333   4.148   2.087  10.852  0.5039  1.3523 -0.0210
  835MPD2    H312334   4.341   1.989  10.930  1.7222  1.4610  0.9908
  835MPD2     N12335   4.291   2.123  11.348 -0.2649 -0.2734 -0.7740
  835MPD2    H512336   4.331   2.036  11.380  1.5179  0.3934 -1.1491
  835MPD2    N112337   3.964   2.241  11.005  0.0603 -0.8158 -0.0561
  835MPD2    H712338   3.904   2.290  11.071  0.6802 -0.7166  0.4359
  836MPD2     C12339   3.772   2.135  11.857  0.9223 -0.5163  0.1483
  836MPD2    C112340   3.886   2.151  11.931  0.4974 -0.1774  0.5608
  836MPD2    C212341   3.873   2.198  12.061 -0.3714  0.1901 -0.7181
  836MPD2    C312342   3.750   2.212  12.119 -0.2122  0.0611  0.4520
  836MPD2    C412343   3.639   2.192  12.037 -0.1689  0.0620 -0.0606
  836MPD2    C512344   3.647   2.157  11.909 -0.5588  0.3038 -0.0273
  836MPD2     H12345   3.958   2.210  12.127 -1.0258 -1.4364  0.4145
  836MPD2    H112346   3.543   2.203  12.085  1.0189  1.9837  1.8768
  836MPD2    H212347   3.776   2.100  11.754  0.1714  2.2662 -0.8289
  836MPD2    H312348   3.559   2.150  11.846  0.6987  1.2895 -1.8995
  836MPD2     N12349   3.722   2.253  12.252 -0.3000 -0.6494 -0.9229
  836MPD2    H512350   3.630   2.279  12.285  0.7090 -1.5411  2.6030
  836MPD2    N112351   4.006   2.135  11.862  0.2289 -0.5719  0.6875
  836MPD2    H712352   4.005   2.082  11.776  1.9859  1.6289 -0.6808
  837MPD2     C12353   2.613   1.829  10.307  0.6701 -0.8358 -0.1140
  837MPD2    C112354   2.493   1.852  10.239 -0.3097  0.3836 -0.4377
  837MPD2    C212355   2.443   1.975  10.227  0.3920  0.0383  0.5591
  837MPD2    C312356   2.499   2.085  10.288  0.3934  0.8539  0.8484
  837MPD2    C412357   2.615   2.071  10.368  0.2613 -1.0138 -0.6885
  837MPD2    C512358   2.666   1.941  10.378  0.0093 -0.3763  0.1239
  837MPD2     H12359   2.348   1.986  10.176  2.1194 -0.5621 -2.8362
  837MPD2    H112360   2.671   2.154  10.409  1.1350 -1.1124 -1.6762
  837MPD2    H212361   2.662   1.734  10.325 -0.3665 -1.3473  0.0189
  837MPD2    H312362   2.752   1.926  10.442  0.7222 -0.6960 -0.9297
  837MPD2     N12363   2.435   2.206  10.259 -0.2788  0.1034 -0.1479
  837MPD2    H512364   2.377   2.205  10.175 -0.3539  0.7217 -0.1042
  837MPD2    N112365   2.414   1.751  10.175 -0.1257  0.2408  0.4550
  837MPD2    H712366   2.327   1.784  10.135 -0.5744 -0.3658  0.9408
  838MPD2     C12367   0.389   4.621  11.562 -0.1823 -0.2922 -0.1058
  838MPD2    C112368   0.484   4.627  11.667 -0.3243 -0.1141 -0.6521
  838MPD2    C212369   0.440   4.588  11.788 -0.4147 -1.0652  0.3788
  838MPD2    C312370   0.311   4.535  11.809 -0.3306 -0.0190 -0.0496
  838MPD2    C412371   0.222   4.534  11.707 -0.0496  0.5239 -0.2858
  838MPD2    C512372   0.263   4.581  11.586 -0.1280  0.1235  0.6321
  838MPD2     H12373   0.496   4.611  11.879 -1.4678  0.5331  0.6234
  838MPD2    H112374   0.121   4.497  11.717 -0.8492  2.3920 -1.3707
  838MPD2    H212375   0.409   4.658  11.462 -1.9628 -2.7805 -1.3760
  838MPD2    H312376   0.190   4.590  11.507 -1.0243 -1.2932  1.2938
  838MPD2     N12377   0.281   4.491  11.936  0.1413 -0.0759 -0.6259
  838MPD2    H512378   0.358   4.491  12.003 -0.2071 -0.0986 -0.2277
  838MPD2    N112379   0.620   4.669  11.656  0.2789 -0.3137  0.0882
  838MPD2    H712380   0.675   4.676  11.741 -0.3274 -2.8200  0.6530
  839MPD2     C12381   0.572   4.198  11.936 -0.9482 -1.1124 -0.3079
  839MPD2    C112382   0.549   4.243  11.809 -0.0791 -0.3491 -0.4785
  839MPD2    C212383   0.645   4.296  11.726 -0.0319  0.0034 -0.4171
  839MPD2    C312384   0.771   4.325  11.783  0.4178  0.6311 -0.3565
  839MPD2    C412385   0.792   4.290  11.914 -0.2565 -0.6172 -0.3014
  839MPD2    C512386   0.700   4.220  11.987 -0.2203  0.4872 -0.5318
  839MPD2     H12387   0.621   4.335  11.628  1.6314  2.6246  0.2135
  839MPD2    H112388   0.893   4.283  11.954  0.3859  0.4186 -1.7377
  839MPD2    H212389   0.500   4.154  12.004 -0.0127 -0.7542  0.9361
  839MPD2    H312390   0.727   4.176  12.082 -0.6104 -1.2834 -1.2369
  839MPD2     N12391   0.878   4.390  11.713 -0.7234  0.0096  0.2285
  839MPD2    H512392   0.951   4.424  11.775 -1.3425 -0.6579  1.3424
  839MPD2    N112393   0.430   4.218  11.742  0.7331  0.4222 -0.2323
  839MPD2    H712394   0.429   4.265  11.652  1.0761 -1.1587 -1.0539
  840MPD2     C12395   1.232   2.219  10.538 -0.2027  0.1668 -0.3316
  840MPD2    C112396   1.173   2.241  10.660 -0.3227 -0.1057 -0.2500
  840MPD2    C212397   1.239   2.318  10.756  0.1449 -0.5039 -0.0615
  840MPD2    C312398   1.362   2.373  10.717  0.3094 -0.0860 -0.2958
  840MPD2    C412399   1.422   2.344  10.601  0.2143 -0.1925 -0.0930
  840MPD2    C512400   1.352   2.271  10.513  0.3117  0.4009 -0.0858
  840MPD2     H12401   1.195   2.340  10.852 -0.9078 -0.3659 -0.5785
  840MPD2    H112402   1.519   2.376  10.566 -0.0156  0.5009 -0.0800
  840MPD2    H212403   1.199   2.165  10.450  2.6340  0.0162 -1.3236
  840MPD2    H312404   1.402   2.240  10.421  0.5141 -0.6055  0.3586
  840MPD2     N12405   1.443   2.448  10.808 -0.0059  0.7068  0.3165
  840MPD2    H512406   1.529   2.483  10.768 -1.9201  0.9177 -3.5944
  840MPD2    N112407   1.048   2.185  10.681 -0.0926  0.1748  0.1127
  840MPD2    H712408   1.005   2.161  10.592  0.1589 -2.1136  0.6181
  841MPD2     C12409   0.886   1.915  14.899 -0.1567  0.3692  0.7753
  841MPD2    C112410   0.907   1.873  14.764 -0.9076 -0.0905  0.4141
  841MPD2    C212411   1.009   1.933  14.695 -0.1251  0.3523 -0.5110
  841MPD2    C312412   1.070   2.045  14.744  0.7085  0.0434  0.3181
  841MPD2    C412413   1.043   2.098  14.866  0.6087 -0.1634  0.0280
  841MPD2    C512414   0.950   2.030  14.939  0.4419  0.4253 -0.0555
  841MPD2     H12415   1.037   1.894  14.598  2.5642 -0.5521  0.5866
  841MPD2    H112416   1.083   2.188  14.911  1.4925 -0.2786 -0.5543
  841MPD2    H212417   0.813   1.870  14.967  0.3342 -0.2895  0.8598
  841MPD2    H312418   0.927   2.072  15.036  0.0314 -0.8575  0.3961
  841MPD2     N12419   1.165   2.110  14.646  0.3397  0.0268  0.6080
  841MPD2    H512420   1.185   2.066  14.557 -1.1073  2.3512 -0.8686
  841MPD2    N112421   0.836   1.773  14.701  0.1858 -0.3620 -0.4589
  841MPD2    H712422   0.856   1.752  14.604 -2.0548 -2.1999 -0.5424
  842MPD2     C12423   1.418   3.565  16.741 -0.0984  0.5970 -0.8322
  842MPD2    C112424   1.322   3.471  16.747  1.0410  0.5530  0.1019
  842MPD2    C212425   1.311   3.382  16.857  0.1368 -0.3071  0.0009
  842MPD2    C312426   1.408   3.390  16.954 -0.5529  0.1310  0.1224
  842MPD2    C412427   1.491   3.498  16.955 -0.1754  0.3552  0.0853
  842MPD2    C512428   1.497   3.587  16.853 -0.1436  0.5530 -0.8596
  842MPD2     H12429   1.245   3.296  16.848  0.6688 -0.5795 -1.3130
  842MPD2    H112430   1.551   3.525  17.041 -0.1042 -0.5971  0.3366
  842MPD2    H212431   1.428   3.614  16.644  0.4032  1.6919 -0.2295
  842MPD2    H312432   1.576   3.660  16.866  0.4152 -0.3064  0.5722
  842MPD2     N12433   1.407   3.309  17.066  1.1746  0.6971  0.1381
  842MPD2    H512434   1.479   3.317  17.137  0.1275 -2.2528  1.5274
  842MPD2    N112435   1.246   3.454  16.637 -0.1748 -0.0722  0.0313
  842MPD2    H712436   1.239   3.533  16.574 -0.1049  2.7942  3.6180
  843MPD2     C12437   3.772   4.195  17.649  0.3543  0.1228  0.3104
  843MPD2    C112438   3.880   4.128  17.693  0.2921 -1.1640  0.3417
  843MPD2    C212439   3.967   4.186   0.026  0.4575  0.1627 -0.0351
  843MPD2    C312440   3.943   4.310   0.078 -0.3667  0.6841 -0.1740
  843MPD2    C412441   3.838   4.383   0.032  0.1807 -0.5188 -0.6153
  843MPD2    C512442   3.757   4.327  17.686  0.8973  0.1404 -0.1179
  843MPD2     H12443   4.061   4.138   0.051  0.2320 -0.4237 -0.3221
  843MPD2    H112444   3.814   4.486   0.059  0.7573  0.6863 -4.6702
  843MPD2    H212445   3.712   4.147  17.573 -1.6846 -0.0958  2.0523
  843MPD2    H312446   3.674   4.383  17.645  1.0131 -0.1798 -0.7985
  843MPD2     N12447   4.023   4.373   0.183  0.1835  0.2836  0.8418
  843MPD2    H512448   3.987   4.463   0.213 -1.8163 -0.2058 -0.0809
  843MPD2    N112449   3.892   3.994  17.649 -1.3855 -1.2638  0.4303
  843MPD2    H712450   3.814   3.946  17.606 -0.3559 -2.1056 -0.5111
  844MPD2     C12451   1.949   2.889  16.394  0.0291 -0.7211  0.7819
  844MPD2    C112452   2.069   2.828  16.370  0.2333 -1.3557  0.4247
  844MPD2    C212453   2.189   2.895  16.365 -0.0583 -0.1123 -0.2872
  844MPD2    C312454   2.181   3.032  16.393 -0.4212 -0.0783  0.2029
  844MPD2    C412455   2.059   3.099  16.415 -0.3122  0.5601 -0.5902
  844MPD2    C512456   1.943   3.023  16.408 -0.1452  0.3949 -0.1245
  844MPD2     H12457   2.286   2.848  16.357 -0.4251 -1.0802  1.0300
  844MPD2    H112458   2.055   3.206  16.426 -2.4962  0.5487 -1.3992
  844MPD2    H212459   1.853   2.841  16.385 -0.0236 -0.7924  1.7849
  844MPD2    H312460   1.848   3.075  16.411 -0.3714 -0.1591  2.1984
  844MPD2     N12461   2.309   3.093  16.393 -0.2315  0.1974 -0.1901
  844MPD2    H512462   2.391   3.033  16.388  0.6314  1.4484 -1.0115
  844MPD2    N112463   2.074   2.701  16.319  0.2066 -0.7613  1.1538
  844MPD2    H712464   2.152   2.688  16.256 -1.0278  1.0222 -0.7684
  845MPD2     C12465   2.490   4.073  16.449 -0.0482 -0.1018 -0.2585
  845MPD2    C112466   2.393   3.985  16.492 -0.0025  0.5449 -0.1981
  845MPD2    C212467   2.410   3.847  16.479  0.2000  0.2361 -0.6229
  845MPD2    C312468   2.530   3.789  16.439  0.2289 -0.3421 -0.4510
  845MPD2    C412469   2.629   3.879  16.399  0.1600 -1.0803 -0.6139
  845MPD2    C512470   2.604   4.015  16.396 -0.4043 -0.0131  0.0545
  845MPD2     H12471   2.333   3.774  16.503  2.2848 -1.9154 -0.4480
  845MPD2    H112472   2.731   3.846  16.383  0.9429  0.3563  1.3586
  845MPD2    H212473   2.468   4.179  16.450  2.0105  0.3269 -0.4656
  845MPD2    H312474   2.681   4.079  16.354  2.0447 -2.1700  1.3249
  845MPD2     N12475   2.538   3.646  16.450 -0.0266  0.1531 -0.7056
  845MPD2    H512476   2.452   3.597  16.470  0.4136  0.0367  0.9156
  845MPD2    N112477   2.285   4.039  16.559 -0.1815  0.2051  0.2181
  845MPD2    H712478   2.274   4.139  16.545  1.2634  0.1769 -1.1487
  846MPD2     C12479   3.608   3.921  13.910 -1.2399 -1.0404 -0.6477
  846MPD2    C112480   3.478   3.979  13.928 -0.2163  0.2705 -0.4102
  846MPD2    C212481   3.434   4.005  14.054  0.0594  0.5834 -0.1158
  846MPD2    C312482   3.516   3.985  14.164 -0.4702 -1.1634 -0.0796
  846MPD2    C412483   3.649   3.942  14.150 -0.5366 -0.5564  0.0807
  846MPD2    C512484   3.692   3.910  14.022 -0.6517  0.0778 -0.0257
  846MPD2     H12485   3.337   4.047  14.079 -0.9094 -0.4067 -2.1947
  846MPD2    H112486   3.719   3.921  14.230  2.3309  1.7129 -1.8213
  846MPD2    H212487   3.659   3.909  13.815  1.7900  1.0429  0.6976
  846MPD2    H312488   3.796   3.880  14.013 -0.9122 -0.8744  0.0618
  846MPD2     N12489   3.463   4.022  14.293  0.1902 -0.0677 -0.1381
  846MPD2    H512490   3.362   4.028  14.301  0.1599 -0.4330 -0.2302
  846MPD2    N112491   3.406   4.028  13.821 -0.4293  0.4067 -0.0577
  846MPD2    H712492   3.327   4.085  13.849  0.2892  0.8883  0.9966
  847MPD2     C12493   4.032   0.839  14.476  0.4397  0.2655  1.0840
  847MPD2    C112494   4.070   0.972  14.450  0.2145 -0.4933  0.6495
  847MPD2    C212495   4.199   1.008  14.481  0.4042  0.4137 -0.3925
  847MPD2    C312496   4.288   0.918  14.540 -0.6883 -0.4828 -0.1330
  847MPD2    C412497   4.258   0.779  14.541  0.8102  0.0042 -0.2332
  847MPD2    C512498   4.126   0.747  14.508  0.0149 -1.0332 -0.3668
  847MPD2     H12499   4.229   1.111  14.470 -1.1752  1.1266  1.9979
  847MPD2    H112500   4.321   0.699  14.579 -0.0195 -0.3943  0.3115
  847MPD2    H212501   3.936   0.795  14.455  1.1313 -0.3013 -0.8534
  847MPD2    H312502   4.103   0.644  14.535 -1.4197 -0.3306  1.0256
  847MPD2     N12503   4.413   0.977  14.580  0.0980  0.3144  0.3685
  847MPD2    H512504   4.418   1.077  14.591  0.0319  0.3928 -0.3318
  847MPD2    N112505   3.971   1.078  14.442  0.0999  1.0165  0.4515
  847MPD2    H712506   4.003   1.172  14.425  1.6620  0.2277 -1.0141
  848MPD2     C12507   1.550   3.231  16.043 -0.5152 -0.3862 -0.4553
  848MPD2    C112508   1.590   3.340  16.126 -0.9048 -0.1840 -0.2139
  848MPD2    C212509   1.631   3.457  16.070 -0.3660  0.1840 -0.7200
  848MPD2    C312510   1.634   3.471  15.932 -0.4829  0.2559  0.4491
  848MPD2    C412511   1.619   3.357  15.854 -0.0381 -0.0583  0.0326
  848MPD2    C512512   1.566   3.242  15.904  0.0019 -0.1205  0.4053
  848MPD2     H12513   1.644   3.546  16.130  2.5207  1.1585 -2.7687
  848MPD2    H112514   1.620   3.355  15.746 -0.9317  1.7856  0.0041
  848MPD2    H212515   1.510   3.139  16.085 -0.9024 -0.1107 -0.2219
  848MPD2    H312516   1.557   3.148  15.850 -0.2510 -0.2721  0.7091
  848MPD2     N12517   1.661   3.592  15.855 -0.6454 -0.0395  0.4383
  848MPD2    H512518   1.644   3.581  15.756  0.4454 -2.0495  0.4749
  848MPD2    N112519   1.573   3.344  16.261 -0.4568  0.5996  0.4062
  848MPD2    H712520   1.610   3.424  16.312  0.7372  0.9510 -0.9987
  849MPD2     C12521   0.267   3.023  14.235  0.0276  0.4343 -0.0094
  849MPD2    C112522   0.387   3.066  14.290  0.2491  0.0594 -0.2241
  849MPD2    C212523   0.412   3.034  14.423  0.5975 -0.0248 -0.2180
  849MPD2    C312524   0.325   2.955  14.497 -0.4434  0.0148 -0.3070
  849MPD2    C412525   0.194   2.931  14.441 -0.2060  0.3218 -0.4766
  849MPD2    C512526   0.177   2.960  14.309 -0.0209  0.0475 -0.0186
  849MPD2     H12527   0.509   3.054  14.466  0.9306 -2.3382  0.0869
  849MPD2    H112528   0.125   2.863  14.491  1.1012 -1.0845 -0.5732
  849MPD2    H212529   0.257   3.023  14.127  0.6847  2.5181 -0.0792
  849MPD2    H312530   0.097   2.917  14.250  1.3596 -0.5660 -1.4310
  849MPD2     N12531   0.360   2.882  14.615 -0.0883  0.1289 -0.7593
  849MPD2    H512532   0.304   2.799  14.633 -0.5158  0.4988 -0.3761
  849MPD2    N112533   0.489   3.108  14.197  0.1304 -0.5037 -0.1474
  849MPD2    H712534   0.477   3.075  14.101 -1.0344  3.1074 -1.2486
  850MPD2     C12535   3.667   1.873  14.649 -0.0676  0.0233 -0.3189
  850MPD2    C112536   3.712   1.917  14.767  0.5339 -0.0007  0.1292
  850MPD2    C212537   3.841   1.964  14.780  0.1560  0.3556  1.1244
  850MPD2    C312538   3.934   1.949  14.680  0.7053 -0.0995 -0.0883
  850MPD2    C412539   3.887   1.897  14.558  0.7473  0.7218  0.6333
  850MPD2    C512540   3.754   1.865  14.544  0.6301 -0.0934  1.0116
  850MPD2     H12541   3.869   2.002  14.878 -2.0659 -0.8308  2.2215
  850MPD2    H112542   3.950   1.872  14.474  1.2465  0.1647  1.1808
  850MPD2    H212543   3.564   1.837  14.642  0.5524 -1.3882 -2.3266
  850MPD2    H312544   3.727   1.829  14.445  0.6857 -0.5508  1.1664
  850MPD2     N12545   4.072   1.979  14.689  0.4256  0.4940 -0.0062
  850MPD2    H512546   4.135   1.959  14.613  1.1073  1.3122  0.3399
  850MPD2    N112547   3.623   1.901  14.881 -1.0287  0.1349  0.5966
  850MPD2    H712548   3.556   1.825  14.873  1.3924 -1.5171 -3.8168
  851MPD2     C12549   4.073   1.713  15.536 -0.1977 -0.4117  0.0083
  851MPD2    C112550   4.027   1.681  15.408 -0.5770 -0.1324 -0.8363
  851MPD2    C212551   4.092   1.580  15.341  0.5949  0.0085 -0.6766
  851MPD2    C312552   4.190   1.510  15.413 -0.2487 -0.1288 -0.2639
  851MPD2    C412553   4.243   1.544  15.531 -0.8199  0.5961  0.1035
  851MPD2    C512554   4.178   1.648  15.597  0.6362 -1.0477  0.3921
  851MPD2     H12555   4.067   1.549  15.240 -1.4355  2.2359 -0.8673
  851MPD2    H112556   4.321   1.487  15.579 -1.0431 -0.2320 -0.5078
  851MPD2    H212557   4.032   1.797  15.589  0.4003  0.1464 -0.4074
  851MPD2    H312558   4.202   1.684  15.696  0.1802 -1.3162  0.5984
  851MPD2     N12559   4.240   1.389  15.354  0.0922 -1.0016  0.2454
  851MPD2    H512560   4.216   1.370  15.258 -0.1298 -4.3570  0.9744
  851MPD2    N112561   3.913   1.749  15.357  0.3711 -0.4245  0.0717
  851MPD2    H712562   3.874   1.825  15.412  1.6694 -0.2903  0.8078
  852MPD2     C12563   3.869   3.336  10.044  0.0915  0.0771  0.1434
  852MPD2    C112564   3.844   3.436  10.137  0.4392  0.3066 -0.9723
  852MPD2    C212565   3.908   3.557  10.128 -0.6315 -0.5026  0.4264
  852MPD2    C312566   4.005   3.582  10.031  0.8906 -0.4075  0.4260
  852MPD2    C412567   4.036   3.481   9.948 -0.2082  0.1504 -0.3780
  852MPD2    C512568   3.972   3.356   9.954  0.3132 -0.0460  0.3121
  852MPD2     H12569   3.887   3.643  10.190 -1.1053  0.5283 -1.1873
  852MPD2    H112570   4.114   3.488   9.873  1.4018 -0.3331  1.2355
  852MPD2    H212571   3.824   3.238  10.057 -1.9435  1.1077  1.0407
  852MPD2    H312572   3.999   3.279   9.882  1.2014  1.3876 -0.8749
  852MPD2     N12573   4.069   3.714  10.046 -1.1676  0.4554 -0.3633
  852MPD2    H512574   4.034   3.779  10.116  1.8921  0.8590  0.8078
  852MPD2    N112575   3.746   3.415  10.237  0.6098  0.1850 -0.6992
  852MPD2    H712576   3.690   3.330  10.246 -0.1045  0.7383  0.0986
  853MPD2     C12577   1.136   3.492  12.641  0.3235  0.4874  0.0422
  853MPD2    C112578   1.007   3.539  12.614  0.3416  0.2715  0.0713
  853MPD2    C212579   0.950   3.525  12.489 -0.0200 -0.1164  0.4945
  853MPD2    C312580   1.030   3.485  12.385 -0.1952  0.1547  0.3279
  853MPD2    C412581   1.164   3.467  12.401 -0.3009 -0.5936 -0.0766
  853MPD2    C512582   1.219   3.459  12.535  0.1662 -0.8679  0.1085
  853MPD2     H12583   0.848   3.561  12.476  0.9368  2.4548  0.1586
  853MPD2    H112584   1.236   3.438  12.326  0.3906 -2.6201  1.3557
  853MPD2    H212585   1.177   3.496  12.741 -0.1579  0.5988  0.2332
  853MPD2    H312586   1.326   3.449  12.551  0.0088 -1.5519  0.7122
  853MPD2     N12587   0.996   3.471  12.252  0.2563  0.1255 -0.3320
  853MPD2    H512588   1.069   3.435  12.191 -0.0373 -0.2639 -0.4494
  853MPD2    N112589   0.957   3.619  12.719 -0.1676 -0.1798  0.4063
  853MPD2    H712590   1.008   3.607  12.806 -1.6433  1.1141  1.4606
  854MPD2     C12591   1.772   4.073  13.402 -0.5577  0.2794  0.2257
  854MPD2    C112592   1.835   4.040  13.282  0.4328  0.1768 -0.4349
  854MPD2    C212593   1.938   3.951  13.295  0.2417 -0.8562 -0.8519
  854MPD2    C312594   1.994   3.906  13.417  0.2195 -0.8709 -0.6116
  854MPD2    C412595   1.930   3.949  13.531  0.0973 -0.0230  0.3855
  854MPD2    C512596   1.824   4.037  13.523  0.3653 -0.6056 -0.3339
  854MPD2     H12597   1.989   3.927  13.202  0.7891 -1.6635 -0.3396
  854MPD2    H112598   1.963   3.928  13.632  1.8910 -3.4827 -0.9360
  854MPD2    H212599   1.685   4.137  13.400 -1.3569 -0.8747 -2.2331
  854MPD2    H312600   1.776   4.068  13.615 -0.4122 -2.7814 -0.0038
  854MPD2     N12601   2.096   3.806  13.435 -0.8045  0.0975 -0.1062
  854MPD2    H512602   2.129   3.802  13.531 -1.5158  1.4562  0.1977
  854MPD2    N112603   1.788   4.095  13.160 -0.3895 -0.3233 -0.1491
  854MPD2    H712604   1.718   4.167  13.170 -0.0682  0.0651 -0.7085
  855MPD2     C12605   2.154   3.230  13.895 -0.7430  0.1717  0.2381
  855MPD2    C112606   2.261   3.213  13.816 -0.2127  0.3269 -0.1092
  855MPD2    C212607   2.321   3.325  13.763 -0.2218  0.2002 -0.7050
  855MPD2    C312608   2.267   3.452  13.780  0.3195 -0.0043  0.4267
  855MPD2    C412609   2.143   3.462  13.850 -0.2644  0.0689 -0.1195
  855MPD2    C512610   2.094   3.353  13.906 -0.1950  1.0944  0.1919
  855MPD2     H12611   2.410   3.291  13.711 -0.0726 -2.3550  1.2100
  855MPD2    H112612   2.095   3.556  13.872 -0.8732 -0.3053  0.1361
  855MPD2    H212613   2.100   3.145  13.935 -0.9203  0.9809  1.7015
  855MPD2    H312614   2.003   3.368  13.964 -0.8117  0.7156 -0.6703
  855MPD2     N12615   2.336   3.565  13.718 -0.0938 -0.0418 -0.0458
  855MPD2    H512616   2.294   3.657  13.713  0.4433  0.2376  0.5994
  855MPD2    N112617   2.323   3.087  13.797  0.0988 -0.1100  0.6926
  855MPD2    H712618   2.417   3.086  13.759  0.5048  0.5974  1.6743
  856MPD2     C12619   4.398   4.228  14.139 -0.0571  0.7087  0.0498
  856MPD2    C112620   4.483   4.338  14.151  0.3832 -0.2049 -0.1448
  856MPD2    C212621   4.451   4.452  14.076 -0.5178  0.4932  0.0372
  856MPD2    C312622   4.340   4.465  13.997 -0.0950 -0.4348 -0.5299
  856MPD2    C412623   4.257   4.362  13.990  0.1655 -0.3493 -0.1623
  856MPD2    C512624   4.293   4.246  14.054 -0.0347  0.3216 -0.5940
  856MPD2     H12625   4.517   4.537  14.084 -0.7166  0.6963 -0.4407
  856MPD2    H112626   4.181   4.360  13.913 -1.5874  2.3846  1.5000
  856MPD2    H212627   4.413   4.138  14.197  0.9838  1.5965  1.1449
  856MPD2    H312628   4.238   4.154  14.038  0.0492  0.1356  0.1615
  856MPD2     N12629   4.293   4.579  13.938  1.2877  0.3475  0.0901
  856MPD2    H512630   4.213   4.571  13.876  0.6478  1.6240  0.7672
  856MPD2    N112631   4.592   4.358  14.239  0.0992  0.3298  0.1827
  856MPD2    H712632   4.635   4.450  14.240 -2.5356  1.5623  0.2438
  857MPD2     C12633   1.482   2.151  12.650 -0.5342  0.0162 -0.1208
  857MPD2    C112634   1.584   2.080  12.712  0.0446  0.4863 -0.2525
  857MPD2    C212635   1.651   2.138  12.822  0.0178 -0.3797  0.0199
  857MPD2    C312636   1.609   2.263  12.869  0.1016  0.0711 -1.1952
  857MPD2    C412637   1.508   2.331  12.802  0.2027 -0.0200 -0.1148
  857MPD2    C512638   1.447   2.274  12.692 -0.2541 -0.3175  0.2050
  857MPD2     H12639   1.731   2.086  12.873 -0.5276  0.6691  1.9530
  857MPD2    H112640   1.474   2.428  12.836  0.0107  0.3531 -1.3680
  857MPD2    H212641   1.439   2.110  12.559  0.4719  0.7734 -0.9380
  857MPD2    H312642   1.372   2.335  12.643  0.1065 -0.7422 -0.8644
  857MPD2     N12643   1.682   2.320  12.976 -0.7772 -0.2999  0.2486
  857MPD2    H512644   1.749   2.258  13.020 -3.2470 -1.6748  2.0890
  857MPD2    N112645   1.605   1.946  12.668 -0.5584  0.1030  0.1612
  857MPD2    H712646   1.544   1.919  12.592 -1.8150 -0.5397  1.4108
  858MPD2     C12647   2.444   1.187  16.363 -0.4633 -0.8820 -0.1061
  858MPD2    C112648   2.433   1.067  16.425  0.1353 -0.9845  0.6649
  858MPD2    C212649   2.417   1.056  16.561  0.9831 -0.0413 -0.2861
  858MPD2    C312650   2.393   1.177  16.632  1.2256 -0.5880  0.2235
  858MPD2    C412651   2.381   1.292  16.557 -0.2638  0.0982  0.2859
  858MPD2    C512652   2.422   1.303  16.425  0.2233 -0.1710  1.0646
  858MPD2     H12653   2.411   0.956  16.603 -2.9864  0.2233 -0.1946
  858MPD2    H112654   2.356   1.374  16.624 -1.6895  0.4808 -0.7208
  858MPD2    H212655   2.469   1.205  16.260  0.8629 -0.3146  0.3118
  858MPD2    H312656   2.423   1.395  16.368 -1.3366  0.0366  1.3695
  858MPD2     N12657   2.378   1.176  16.773 -0.3383  0.4680  0.3452
  858MPD2    H512658   2.338   1.257  16.819  1.2893  0.0433  2.5729
  858MPD2    N112659   2.445   0.952  16.343  0.0463 -0.1759  0.1578
  858MPD2    H712660   2.481   0.954  16.248 -2.9459  0.0301 -0.9638
  859MPD2     C12661   1.112   2.438  15.737 -0.4399 -0.0224 -0.2278
  859MPD2    C112662   1.110   2.440  15.600  0.4557 -0.0300 -0.4862
  859MPD2    C212663   1.134   2.322  15.530  0.1264 -0.6622 -0.7706
  859MPD2    C312664   1.159   2.205  15.596  0.4030 -0.6036  0.3081
  859MPD2    C412665   1.172   2.213  15.733 -0.3693  0.6590  0.2829
  859MPD2    C512666   1.151   2.327  15.803  0.1929  0.1915  0.3169
  859MPD2     H12667   1.130   2.333  15.422 -0.7930 -0.0828 -0.6859
  859MPD2    H112668   1.207   2.132  15.795 -2.6881 -1.4208 -1.1169
  859MPD2    H212669   1.088   2.525  15.796  0.3281  0.2217 -0.2689
  859MPD2    H312670   1.165   2.331  15.910 -1.2980 -0.1063  0.5295
  859MPD2     N12671   1.180   2.087  15.519 -0.1935  0.2949 -0.5190
  859MPD2    H512672   1.185   2.094  15.418  0.9185  0.8392 -0.4173
  859MPD2    N112673   1.094   2.564  15.526  0.7477  0.1688  0.6204
  859MPD2    H712674   1.123   2.648  15.576  1.4703  0.0282  0.4364
  860MPD2     C12675   2.874   2.607  12.121  0.2225 -0.4186 -0.8678
  860MPD2    C112676   2.908   2.739  12.147 -0.4834  0.4491  0.2547
  860MPD2    C212677   2.803   2.829  12.162  0.1621  0.1160  0.4890
  860MPD2    C312678   2.674   2.781  12.173 -0.3904  0.5631 -0.1272
  860MPD2    C412679   2.639   2.652  12.137  0.3728 -0.1835 -0.2180
  860MPD2    C512680   2.742   2.569  12.114 -1.0104 -0.0986  0.2368
  860MPD2     H12681   2.823   2.935  12.176 -1.5479  0.3345  1.2738
  860MPD2    H112682   2.535   2.619  12.140  0.0068  0.8421 -1.7270
  860MPD2    H212683   2.944   2.532  12.086  0.8191 -0.3204  0.0901
  860MPD2    H312684   2.711   2.467  12.092 -0.1818 -0.9349  3.0720
  860MPD2     N12685   2.574   2.874  12.216  0.0079  0.5129 -0.9396
  860MPD2    H512686   2.605   2.969  12.231  1.8442 -0.3783  0.9199
  860MPD2    N112687   3.043   2.791  12.149 -0.1190  0.1975  0.3501
  860MPD2    H712688   3.049   2.890  12.172  1.5343  0.5209 -1.4741
  861MPD2     C12689   2.300   1.367  11.073 -0.0865  0.7454  0.0816
  861MPD2    C112690   2.166   1.371  11.122 -0.3465  0.3334  0.1292
  861MPD2    C212691   2.076   1.425  11.033 -0.4227  0.1870  0.0505
  861MPD2    C312692   2.111   1.464  10.905  0.2723  0.6970  1.0182
  861MPD2    C412693   2.240   1.469  10.871 -0.8458  0.5022  0.5067
  861MPD2    C512694   2.336   1.421  10.955  0.1097  0.2118  0.8229
  861MPD2     H12695   1.974   1.432  11.068 -0.5282  0.6917 -0.3693
  861MPD2    H112696   2.277   1.510  10.777 -1.1832 -1.5241 -0.5211
  861MPD2    H212697   2.374   1.351  11.150  0.9238  1.1119 -0.8196
  861MPD2    H312698   2.443   1.429  10.940  0.0408 -1.1810 -0.4096
  861MPD2     N12699   2.026   1.518  10.808 -0.5821  0.1034 -0.1414
  861MPD2    H512700   2.062   1.558  10.722  0.9868  0.8796  0.8802
  861MPD2    N112701   2.127   1.345  11.255 -0.1303 -0.4341 -0.1841
  861MPD2    H712702   2.035   1.368  11.291 -1.4576 -1.4713 -2.9307
  862MPD2     C12703   1.690   1.634  10.119  0.0752 -0.7052 -0.3577
  862MPD2    C112704   1.631   1.588  10.237 -0.2498 -0.9974 -0.5851
  862MPD2    C212705   1.520   1.506  10.230 -0.1776  0.7840  0.6780
  862MPD2    C312706   1.472   1.450  10.107  0.0297 -0.0514  0.2273
  862MPD2    C412707   1.545   1.486   9.995  0.0350 -0.4858  0.2421
  862MPD2    C512708   1.641   1.588  10.000 -0.1211  0.1544 -0.6578
  862MPD2     H12709   1.476   1.477  10.325 -1.1271 -0.2947 -0.0809
  862MPD2    H112710   1.515   1.446   9.898 -1.9897 -0.4101  0.8515
  862MPD2    H212711   1.780   1.694  10.117 -0.5558  0.2145 -0.9411
  862MPD2    H312712   1.686   1.606   9.903 -1.1090 -0.3957 -1.2151
  862MPD2     N12713   1.380   1.341  10.102  0.1412 -0.0099  0.7158
  862MPD2    H512714   1.373   1.294  10.013  0.5079  1.2259  0.0331
  862MPD2    N112715   1.694   1.607  10.360  0.7660 -0.3673  0.5774
  862MPD2    H712716   1.645   1.570  10.441 -1.8516  0.9560 -0.3966
  863MPD2     C12717   0.883   4.584  16.883 -0.3082  0.0385 -0.4776
  863MPD2    C112718   0.824   4.522  16.988  0.0619  0.3311  0.2766
  863MPD2    C212719   0.885   4.536  17.111 -0.1535 -0.0008 -0.3080
  863MPD2    C312720   1.007   4.598  17.113 -0.5429 -0.3668 -0.2254
  863MPD2    C412721   1.064   4.659  17.007 -0.4176  0.3407  0.3456
  863MPD2    C512722   0.995   4.654  16.893  0.7343 -0.0657 -0.8184
  863MPD2     H12723   0.839   4.497  17.202 -1.7679  0.4596 -0.9272
  863MPD2    H112724   1.150   4.724  17.010 -0.7882  0.8930 -0.8012
  863MPD2    H212725   0.841   4.572  16.783 -0.0099 -1.7872 -0.3893
  863MPD2    H312726   1.030   4.702  16.802  2.3127  1.6540  0.6832
  863MPD2     N12727   1.088   4.615  17.234  0.4165 -0.0108 -0.2100
  863MPD2    H512728   1.160   4.687  17.239  0.6749 -0.4220  2.0210
  863MPD2    N112729   0.705   4.461  16.962  0.2116 -0.3375  0.7652
  863MPD2    H712730   0.685   4.458  16.862 -1.5683  0.4673  1.1001
  864MPD2     C12731   1.322   1.217  17.520 -0.1494  0.1418 -0.4300
  864MPD2    C112732   1.306   1.118  17.428 -0.3521  0.0661  0.4045
  864MPD2    C212733   1.308   1.157  17.293  0.1148 -0.0659 -0.7617
  864MPD2    C312734   1.325   1.292  17.259 -0.2579  0.4657 -0.2392
  864MPD2    C412735   1.357   1.385  17.354 -0.6850  0.9176 -0.0877
  864MPD2    C512736   1.348   1.344  17.483  0.1740  0.9060  1.0208
  864MPD2     H12737   1.301   1.084  17.214  0.7972  0.7298 -1.5655
  864MPD2    H112738   1.403   1.481  17.334  0.1066  0.4879 -0.3439
  864MPD2    H212739   1.313   1.191  17.625  0.9269  0.9198 -0.1398
  864MPD2    H312740   1.380   1.413  17.560 -2.0589  1.4606  1.4507
  864MPD2     N12741   1.331   1.337  17.124  0.1519  0.3467 -0.1947
  864MPD2    H512742   1.327   1.437  17.106  1.8624  0.4294 -0.1311
  864MPD2    N112743   1.310   0.980  17.461  0.3480 -0.3662 -0.8106
  864MPD2    H712744   1.339   0.956  17.555 -0.0353 -2.9525 -1.3606
  865MPD2     C12745   1.227   1.543  16.315  0.2267 -1.0689  0.0782
  865MPD2    C112746   1.262   1.456  16.419 -0.3379 -0.7013 -0.1748
  865MPD2    C212747   1.270   1.509  16.549 -0.5774  0.3076 -0.3588
  865MPD2    C312748   1.248   1.642  16.578  0.1147  0.2559 -0.9958
  865MPD2    C412749   1.202   1.720  16.469  0.2911  0.5067  0.1838
  865MPD2    C512750   1.196   1.671  16.346  0.2535 -0.1924 -0.0208
  865MPD2     H12751   1.295   1.443  16.631  0.2600  0.2841 -0.6283
  865MPD2    H112752   1.184   1.827  16.477  2.1158  0.6637  2.1865
  865MPD2    H212753   1.219   1.502  16.215 -2.3304 -1.3957  0.4217
  865MPD2    H312754   1.155   1.740  16.273  2.1543  1.9272  0.9224
  865MPD2     N12755   1.270   1.713  16.699 -0.0422 -0.4645 -0.1698
  865MPD2    H512756   1.243   1.811  16.695  1.0924 -0.1362  0.1665
  865MPD2    N112757   1.293   1.321  16.384 -0.2840  0.3917 -0.2493
  865MPD2    H712758   1.300   1.309  16.283  2.5726 -0.4389  0.0470
  866MPD2     C12759   2.520   1.474  11.724 -0.4501 -0.3091 -0.4422
  866MPD2    C112760   2.558   1.506  11.595 -0.2542  0.6301  0.5919
  866MPD2    C212761   2.472   1.572  11.512 -0.0802  0.2411  0.0535
  866MPD2    C312762   2.350   1.617  11.562 -0.4918  0.6006  1.1329
  866MPD2    C412763   2.318   1.598  11.692  0.8844 -0.1939 -0.0285
  866MPD2    C512764   2.402   1.524  11.772 -0.5158  0.4298  0.1848
  866MPD2     H12765   2.505   1.582  11.409  1.9418  0.3777  0.7207
  866MPD2    H112766   2.233   1.648  11.738  0.3525 -0.2716 -0.9388
  866MPD2    H212767   2.585   1.427  11.796 -0.6214  0.7311  0.3766
  866MPD2    H312768   2.378   1.503  11.875  2.9756  1.9362  1.3069
  866MPD2     N12769   2.254   1.681  11.481 -0.0077 -0.1878 -0.1239
  866MPD2    H512770   2.164   1.700  11.525 -0.0887 -1.9093  0.4542
  866MPD2    N112771   2.685   1.455  11.554  0.0581 -0.4156 -0.4265
  866MPD2    H712772   2.738   1.406  11.625  1.1909  0.1856 -0.8590
  867MPD2     C12773   0.634   0.674  16.983 -0.4915 -0.9519 -0.0096
  867MPD2    C112774   0.682   0.665  17.113  0.0959  0.1317 -0.0690
  867MPD2    C212775   0.755   0.776  17.160  0.4997 -0.0074  0.1781
  867MPD2    C312776   0.769   0.898  17.092  0.0885  0.1486  0.1616
  867MPD2    C412777   0.720   0.902  16.965 -0.2047 -0.6907  0.6465
  867MPD2    C512778   0.656   0.789  16.918 -0.7050 -0.8739 -0.1392
  867MPD2     H12779   0.798   0.767  17.259  2.7594  0.4564 -0.7675
  867MPD2    H112780   0.743   0.980  16.893 -0.5760 -0.0255  1.2571
  867MPD2    H212781   0.595   0.586  16.933 -0.5019  0.2356 -2.0505
  867MPD2    H312782   0.618   0.802  16.817 -3.2228 -1.4020  0.7577
  867MPD2     N12783   0.849   1.005  17.135 -0.7356 -0.2102 -0.1330
  867MPD2    H512784   0.875   1.071  17.062 -0.7419 -2.2640 -2.0082
  867MPD2    N112785   0.660   0.549  17.196  0.4303 -0.3777  0.2515
  867MPD2    H712786   0.621   0.471  17.144 -1.2302  0.0780  0.8413
  868MPD2     C12787   1.263   4.654  13.520 -0.1032  0.5590 -0.2337
  868MPD2    C112788   1.354   4.704  13.609 -0.4524  0.2367 -0.3050
  868MPD2    C212789   1.329   4.701  13.749  0.3449 -0.0432  0.2202
  868MPD2    C312790   1.212   4.656  13.803  1.1020 -0.3590 -0.4834
  868MPD2    C412791   1.121   4.607  13.712 -0.1802  0.1820  0.0050
  868MPD2    C512792   1.151   4.595  13.578 -0.2977 -0.2367 -0.0307
  868MPD2     H12793   1.404   0.003  13.816  0.7447  0.6397 -0.6309
  868MPD2    H112794   1.025   4.567  13.743  0.4604 -0.5314  1.0890
  868MPD2    H212795   1.281   4.652  13.414 -0.5656 -0.3489 -0.2956
  868MPD2    H312796   1.078   4.557  13.507 -0.1953  1.0048 -0.8011
  868MPD2     N12797   1.194   4.673  13.943 -0.0157 -0.1605  0.8270
  868MPD2    H512798   1.275   4.699  13.998  0.6422 -0.9136  0.2265
  868MPD2    N112799   1.470   0.026  13.554  0.0698  0.7155  0.6242
  868MPD2    H712800   1.480   0.008  13.455  0.5988  0.2616  0.7659
  869MPD2     C12801   2.754   2.710  17.625 -0.0050  0.1898  0.3042
  869MPD2    C112802   2.706   2.752  17.745 -0.0817 -0.5882 -0.3114
  869MPD2    C212803   2.784   2.821   0.089 -0.6032  0.9477  0.7345
  869MPD2    C312804   2.914   2.847   0.057 -0.3982 -0.0835  0.1661
  869MPD2    C412805   2.957   2.825  17.680  0.0028 -0.4432 -0.0742
  869MPD2    C512806   2.878   2.752  17.590 -0.5712  0.6225  0.4163
  869MPD2     H12807   2.744   2.838   0.188  1.8700 -0.7734  2.0011
  869MPD2    H112808   3.060   2.854  17.664  0.1162 -0.2808  0.9170
  869MPD2    H212809   2.700   2.664  17.543  1.9822 -3.0079  0.8000
  869MPD2    H312810   2.925   2.720  17.498  0.1191  2.9343 -0.0348
  869MPD2     N12811   3.007   2.903   0.152 -0.0425 -0.7082  0.2548
  869MPD2    H512812   3.099   2.916   0.111  0.4639 -1.6767  1.0845
  869MPD2    N112813   2.564   2.733   0.021  0.0762 -0.4070 -0.1395
  869MPD2    H712814   2.511   2.702  17.686 -2.2689  1.3821  0.6952
  870MPD2     C12815   2.741   1.777   2.097 -0.1410  0.1543  0.2883
  870MPD2    C112816   2.719   1.701   1.978  0.6670 -0.4655 -0.6891
  870MPD2    C212817   2.657   1.769   1.872  0.3071  0.0286 -0.3611
  870MPD2    C312818   2.601   1.891   1.885  0.0314 -0.5060 -0.2484
  870MPD2    C412819   2.620   1.964   2.003  0.2740  0.1568 -0.1042
  870MPD2    C512820   2.689   1.906   2.108 -0.0923 -0.6347 -0.0770
  870MPD2     H12821   2.629   1.728   1.776 -1.7414  3.1130 -1.1000
  870MPD2    H112822   2.578   2.061   2.024  2.9265  1.4084 -0.5963
  870MPD2    H212823   2.791   1.739   2.185 -0.4722  2.3969  1.4578
  870MPD2    H312824   2.707   1.967   2.196 -0.7791 -1.0591  0.3607
  870MPD2     N12825   2.543   1.945   1.768  0.0956 -0.3245 -0.0561
  870MPD2    H512826   2.554   1.889   1.684  0.1683 -2.4252  1.3448
  870MPD2    N112827   2.767   1.571   1.965 -0.2372 -0.1538  0.8714
  870MPD2    H712828   2.826   1.535   2.039  0.5904  0.8773  0.7084
  871MPD2     C12829   3.834   1.331  16.429 -0.2954  0.4521 -0.5739
  871MPD2    C112830   3.829   1.293  16.565  0.0341 -0.2187  0.6750
  871MPD2    C212831   3.827   1.160  16.593 -0.3421  0.1106 -0.5757
  871MPD2    C312832   3.823   1.063  16.493 -0.0127  0.1332  0.3780
  871MPD2    C412833   3.817   1.100  16.360  0.1190  0.2532 -0.1194
  871MPD2    C512834   3.830   1.230  16.331 -0.4486 -0.1259 -0.3340
  871MPD2     H12835   3.832   1.121  16.694  1.3284 -0.8333 -1.0215
  871MPD2    H112836   3.797   1.031  16.278 -1.5829  0.1896  0.3713
  871MPD2    H212837   3.822   1.436  16.403  0.1494  1.2227  2.3628
  871MPD2    H312838   3.825   1.268  16.230  0.8811  2.3539  0.5246
  871MPD2     N12839   3.811   0.930  16.534 -0.0946  0.4130  0.3807
  871MPD2    H512840   3.809   0.903  16.632  2.0791  1.2655  0.6620
  871MPD2    N112841   3.848   1.395  16.664  0.3368  0.1544 -0.0171
  871MPD2    H712842   3.876   1.486  16.628 -0.0091  0.6140  0.8997
  872MPD2     C12843   4.177   3.771  13.742 -0.3022  0.4331 -0.3573
  872MPD2    C112844   4.227   3.801  13.862  0.0884 -0.0336 -0.2730
  872MPD2    C212845   4.167   3.760  13.981  0.7677  0.8963 -0.8492
  872MPD2    C312846   4.044   3.700  13.978 -0.1166 -0.3299 -0.4625
  872MPD2    C412847   3.994   3.665  13.856 -0.8456 -0.2500  0.5966
  872MPD2    C512848   4.061   3.696  13.742 -0.5263 -0.3162 -0.1269
  872MPD2     H12849   4.215   3.788  14.074 -1.5968 -0.6545  0.8424
  872MPD2    H112850   3.903   3.606  13.855 -0.5697 -0.6915  1.3015
  872MPD2    H212851   4.216   3.810  13.648 -1.8221 -1.1461 -1.6376
  872MPD2    H312852   4.032   3.658  13.645  1.3892 -0.0422 -0.8005
  872MPD2     N12853   3.964   3.662  14.088 -0.0607  0.0829 -0.4186
  872MPD2    H512854   3.876   3.616  14.069  0.1371 -0.8210  0.8793
  872MPD2    N112855   4.348   3.882  13.872  0.4121 -0.2617 -0.1874
  872MPD2    H712856   4.390   3.899  13.962  3.0179  1.1339 -1.6599
  873MPD2     C12857   1.856   3.263   0.938  0.0683  0.6251  0.4356
  873MPD2    C112858   1.736   3.259   1.005 -0.7466  0.3730  0.0042
  873MPD2    C212859   1.647   3.158   0.974  0.6239  0.6501 -0.0475
  873MPD2    C312860   1.677   3.048   0.895 -0.1521 -0.3387 -0.9111
  873MPD2    C412861   1.800   3.054   0.831 -0.3355  0.1708 -0.1247
  873MPD2    C512862   1.885   3.156   0.856 -0.1215 -0.4985  0.5306
  873MPD2     H12863   1.547   3.168   1.015  0.4737  1.3851 -0.5946
  873MPD2    H112864   1.833   2.978   0.761 -2.0985  0.7844 -1.5899
  873MPD2    H212865   1.928   3.344   0.951  1.4995 -0.4005 -0.9952
  873MPD2    H312866   1.977   3.154   0.799 -0.1532 -0.0549  0.4638
  873MPD2     N12867   1.586   2.942   0.868 -0.0232 -0.4161 -0.2065
  873MPD2    H512868   1.615   2.880   0.794 -1.3265  0.0773 -1.1386
  873MPD2    N112869   1.709   3.362   1.093  0.2653  0.1194 -0.0338
  873MPD2    H712870   1.783   3.430   1.102  0.6091 -0.3076  0.3416
  874MPD2     C12871   0.911   3.629  15.854  0.3532 -0.1793 -0.2292
  874MPD2    C112872   1.022   3.596  15.937 -0.2887 -0.6957  0.2609
  874MPD2    C212873   1.150   3.643  15.902  0.2262 -0.0924  0.7302
  874MPD2    C312874   1.164   3.736  15.801 -0.9060 -0.1759  0.3865
  874MPD2    C412875   1.055   3.769  15.721 -0.2188  0.1415  0.1309
  874MPD2    C512876   0.934   3.711  15.748  0.0942  0.1694  0.3143
  874MPD2     H12877   1.236   3.612  15.961 -1.1475 -3.1612  1.1190
  874MPD2    H112878   1.070   3.819  15.626 -0.8404 -0.1176 -0.1070
  874MPD2    H212879   0.811   3.595  15.876  0.1163  0.5411 -0.2120
  874MPD2    H312880   0.859   3.730  15.672 -0.9834 -2.4311  0.7002
  874MPD2     N12881   1.294   3.780  15.783 -0.5692  0.2264 -0.2802
  874MPD2    H512882   1.365   3.756  15.852 -2.8830  2.2277  2.8000
  874MPD2    N112883   1.007   3.504  16.048  0.8655 -0.1032 -0.4220
  874MPD2    H712884   0.911   3.486  16.075  1.4037  0.4333  1.8431
  875MPD2     C12885   2.078   1.659  14.785  0.8727 -0.5763 -0.4358
  875MPD2    C112886   2.073   1.779  14.721 -0.0740 -0.7063 -0.2629
  875MPD2    C212887   2.124   1.890  14.790  0.0548 -0.3135  0.4911
  875MPD2    C312888   2.162   1.881  14.919  0.2230 -0.0547 -0.6275
  875MPD2    C412889   2.163   1.759  14.988  0.2821  0.1079 -0.0784
  875MPD2    C512890   2.116   1.647  14.921 -0.2560 -0.6564  0.2683
  875MPD2     H12891   2.122   1.986  14.740 -0.3587  0.0120  1.1291
  875MPD2    H112892   2.204   1.750  15.089  1.9147  1.0210 -0.6663
  875MPD2    H212893   2.059   1.567  14.732 -0.4899 -1.0070  0.8138
  875MPD2    H312894   2.138   1.548  14.960 -1.9882 -1.0927  0.1252
  875MPD2     N12895   2.202   1.993  15.001 -0.1745  0.3674  0.2489
  875MPD2    H512896   2.208   1.981  15.102  4.0755  0.2109 -0.0344
  875MPD2    N112897   2.008   1.804  14.594  0.6635 -0.3346 -0.7805
  875MPD2    H712898   2.014   1.896  14.551 -1.9802 -1.0821 -2.7349
  876MPD2     C12899   0.908   3.085  16.054  0.3242  0.0694 -0.1016
  876MPD2    C112900   1.026   3.133  16.024  0.3137  0.4301 -0.2558
  876MPD2    C212901   1.124   3.099  16.114  0.2470  0.1616  0.1237
  876MPD2    C312902   1.115   3.010  16.224 -0.4508 -0.0865 -0.2941
  876MPD2    C412903   0.989   2.955  16.248  0.8501  0.1779  0.4759
  876MPD2    C512904   0.891   2.996  16.157  0.0082  0.0693  0.3469
  876MPD2     H12905   1.219   3.150  16.103 -0.4630  1.5744  0.5632
  876MPD2    H112906   0.952   2.902  16.335  2.7139 -1.4185  0.2931
  876MPD2    H212907   0.823   3.094  15.988 -0.8064  1.1545  1.4975
  876MPD2    H312908   0.791   2.956  16.172  0.2412 -0.6705 -0.0559
  876MPD2     N12909   1.231   2.975  16.307 -0.1888 -0.2442  0.8797
  876MPD2    H512910   1.321   3.013  16.278 -0.3860 -0.3362  0.1547
  876MPD2    N112911   1.045   3.222  15.913  0.1450  0.0372 -0.3987
  876MPD2    H712912   0.959   3.269  15.886 -0.2378 -0.8429 -0.7073
  877MPD2     C12913   0.814   3.460  15.201 -0.7249  0.0759  0.1965
  877MPD2    C112914   0.942   3.493  15.205  0.0099 -1.1214 -0.0880
  877MPD2    C212915   1.015   3.525  15.091 -0.6957  1.1289 -0.3283
  877MPD2    C312916   0.948   3.513  14.970 -0.8973  0.1609 -0.3315
  877MPD2    C412917   0.819   3.468  14.965  0.0552 -0.0113 -0.2032
  877MPD2    C512918   0.758   3.437  15.082 -0.6184  0.5196  0.2225
  877MPD2     H12919   1.117   3.558  15.078  0.4398 -1.3825  2.2011
  877MPD2    H112920   0.761   3.452  14.876  0.2129  0.6108 -0.4186
  877MPD2    H212921   0.751   3.422  15.280 -0.9982 -1.5700 -0.8128
  877MPD2    H312922   0.665   3.385  15.065 -1.4615  1.7184  1.1827
  877MPD2     N12923   1.012   3.532  14.843 -0.0266 -0.3853 -0.1219
  877MPD2    H512924   0.966   3.477  14.771  0.3891 -1.3005  0.3137
  877MPD2    N112925   1.015   3.504  15.329  0.6714 -0.0727 -0.0930
  877MPD2    H712926   1.112   3.528  15.314  1.2949 -1.3218  1.9319
  878MPD2     C12927   0.895   2.806  13.378 -0.1932 -0.3928 -0.5038
  878MPD2    C112928   0.969   2.917  13.400 -0.4946 -0.3336 -0.4979
  878MPD2    C212929   0.959   2.978  13.529  0.0421  0.1338  0.1296
  878MPD2    C312930   0.868   2.932  13.625  0.7638 -0.4246  0.7951
  878MPD2    C412931   0.772   2.844  13.580  0.3052  0.1265  0.2239
  878MPD2    C512932   0.799   2.768  13.471  0.3089  0.6063  0.2875
  878MPD2     H12933   1.031   3.053  13.561 -0.3080  0.0318  1.1773
  878MPD2    H112934   0.697   2.807  13.649 -0.7361  0.5870 -0.6444
  878MPD2    H212935   0.897   2.754  13.283 -0.2220 -0.8422 -0.2544
  878MPD2    H312936   0.734   2.688  13.438  0.5947 -0.3851  2.0733
  878MPD2     N12937   0.874   2.975  13.759  0.2535 -1.0663  0.5964
  878MPD2    H512938   0.968   3.004  13.786  0.7835 -1.5539 -0.7295
  878MPD2    N112939   1.049   2.962  13.292  0.1363 -0.5808  0.1110
  878MPD2    H712940   1.040   2.908  13.207 -0.2864  2.3254 -1.6786
  879MPD2     C12941   1.655   3.989   0.211  0.0276 -0.7414 -0.2525
  879MPD2    C112942   1.731   4.074   0.128  0.3905  0.4924  0.6484
  879MPD2    C212943   1.672   4.115   0.012  0.8211 -0.3743  0.3249
  879MPD2    C312944   1.538   4.070  17.730  0.7321  0.6851  0.4762
  879MPD2    C412945   1.463   3.998   0.075  0.1156 -0.3706 -0.0221
  879MPD2    C512946   1.528   3.944   0.184 -0.2538  0.4229 -0.5032
  879MPD2     H12947   1.728   4.175  17.688 -1.3857  3.1627  1.5412
  879MPD2    H112948   1.360   3.966   0.060  0.1272  0.0583 -0.9902
  879MPD2    H212949   1.706   3.959   0.301  3.5275 -1.7752 -2.5699
  879MPD2    H312950   1.470   3.884   0.253  0.8076 -1.4794 -1.2911
  879MPD2     N12951   1.473   4.091  17.610 -0.2488  0.3761  0.1741
  879MPD2    H512952   1.399   4.021  17.604 -2.5196  2.7908  0.0506
  879MPD2    N112953   1.859   4.104   0.177  0.2425 -0.2640  0.5877
  879MPD2    H712954   1.863   4.099   0.278 -2.3257  1.4947  0.7862
  880MPD2     C12955   2.454   1.298   0.192  0.2239 -0.2198  0.7625
  880MPD2    C112956   2.485   1.319   0.317 -0.2710 -0.4482 -0.8678
  880MPD2    C212957   2.525   1.205   0.389  0.5026 -0.0671 -0.3561
  880MPD2    C312958   2.543   1.087   0.327  0.6680  0.1765  0.5090
  880MPD2    C412959   2.511   1.068   0.192  0.4518 -0.5501  0.7840
  880MPD2    C512960   2.468   1.177   0.125  0.2216 -0.3465  0.0639
  880MPD2     H12961   2.545   1.219   0.495 -0.9540  1.8688 -0.3315
  880MPD2    H112962   2.531   0.973   0.143 -0.7628  0.4744 -1.6820
  880MPD2    H212963   2.421   1.384   0.135  3.4481  1.0124  0.7731
  880MPD2    H312964   2.443   1.158   0.021 -0.7968 -2.2470  0.6520
  880MPD2     N12965   2.609   0.985   0.402  0.6606 -0.5103 -0.6420
  880MPD2    H512966   2.613   0.992   0.503 -1.5853  0.2923 -0.6139
  880MPD2    N112967   2.493   1.459   0.361 -0.6724 -0.8162  0.2980
  880MPD2    H712968   2.458   1.524   0.292 -2.8111 -2.3099 -0.0323
  881MPD2     C12969   2.683   2.321  17.697 -0.1901 -1.0572 -0.7310
  881MPD2    C112970   2.732   2.191  17.694 -0.1926 -0.0310 -0.1586
  881MPD2    C212971   2.711   2.097   0.052 -0.0109  0.3355 -0.4817
  881MPD2    C312972   2.604   2.133   0.135  0.7544  0.1559 -0.2118
  881MPD2    C412973   2.536   2.252   0.110 -0.1046 -0.0047  0.0707
  881MPD2    C512974   2.577   2.349   0.027 -0.3773  0.1869 -0.0695
  881MPD2     H12975   2.780   2.015   0.061  0.3988  0.6909 -0.3924
  881MPD2    H112976   2.440   2.271   0.158 -0.3379  1.4736 -1.0108
  881MPD2    H212977   2.714   2.389  17.618 -0.1950  0.6108  0.7261
  881MPD2    H312978   2.515   2.436   0.011  0.0040  0.5732  0.5671
  881MPD2     N12979   2.562   2.059   0.244 -0.0859 -0.8550  0.4419
  881MPD2    H512980   2.487   2.098   0.302 -0.0762 -0.5180  0.2301
  881MPD2    N112981   2.830   2.166  17.592  0.8150  0.4458  0.3201
  881MPD2    H712982   2.854   2.238  17.526 -0.3089  0.4408 -0.0899
  882MPD2     C12983   1.010   3.343  14.024  0.1744  0.0949  0.5475
  882MPD2    C112984   0.961   3.407  14.141 -0.8955 -0.0316  0.4893
  882MPD2    C212985   0.832   3.458  14.137 -0.1438 -0.6142  0.6106
  882MPD2    C312986   0.760   3.466  14.018  0.3686 -0.3602  0.6351
  882MPD2    C412987   0.808   3.404  13.905 -0.6564 -0.4080  0.7410
  882MPD2    C512988   0.932   3.340  13.911  0.6018  0.3507 -0.2685
  882MPD2     H12989   0.778   3.493  14.224 -0.8566  0.4226 -0.2506
  882MPD2    H112990   0.749   3.402  13.814  1.1888 -1.9573 -0.4234
  882MPD2    H212991   1.102   3.287  14.018 -0.0312 -0.4222  2.0397
  882MPD2    H312992   0.970   3.285  13.826  2.8933  1.4088  0.0737
  882MPD2     N12993   0.625   3.498  14.014  0.4517  0.4521  0.1187
  882MPD2    H512994   0.572   3.478  13.929 -1.1990 -2.8935  1.9641
  882MPD2    N112995   1.031   3.411  14.265  0.5174 -0.3038 -0.2754
  882MPD2    H712996   1.118   3.360  14.265  1.1135  0.6913  2.2914
  883MPD2     C12997   3.212   3.184  16.140 -0.2366  0.1802  0.2755
  883MPD2    C112998   3.245   3.277  16.049 -0.5815  0.4486  0.3003
  883MPD2    C212999   3.342   3.374  16.080  0.1351 -0.0379  0.1120
  883MPD2    C313000   3.397   3.380  16.204  0.1109  0.7637  0.0278
  883MPD2    C413001   3.350   3.285  16.296  0.2416  0.1342  0.7664
  883MPD2    C513002   3.258   3.185  16.266  0.0991  0.0020 -0.6635
  883MPD2     H13003   3.366   3.432  15.991 -3.4446  0.6065 -0.4295
  883MPD2    H113004   3.376   3.280  16.401  1.1582  0.4109  0.5485
  883MPD2    H213005   3.147   3.099  16.122  0.1043  0.3445 -1.6924
  883MPD2    H313006   3.226   3.118  16.345  1.5021  0.0713 -0.0482
  883MPD2     N13007   3.499   3.474  16.232  0.1598 -0.7344 -0.0731
  883MPD2    H513008   3.532   3.523  16.150  1.1170 -3.3899 -1.2709
  883MPD2    N113009   3.189   3.279  15.920  0.1073 -0.0262  0.3334
  883MPD2    H713010   3.206   3.365  15.868 -0.0651 -0.3411 -0.2416
  884MPD2     C13011   0.403   4.413  15.556 -0.0032 -0.1450 -0.7831
  884MPD2    C113012   0.370   4.537  15.508 -0.0417  0.3565 -1.0023
  884MPD2    C213013   0.237   4.565  15.488 -0.0778  0.2247  1.2059
  884MPD2    C313014   0.144   4.463  15.489 -0.2631 -0.1183 -0.3530
  884MPD2    C413015   0.182   4.332  15.520 -0.3921 -0.0777  0.3773
  884MPD2    C513016   0.314   4.311  15.565  0.7804  0.1086 -0.1038
  884MPD2     H13017   0.214   4.670  15.474  0.5466  0.1749 -0.2891
  884MPD2    H113018   0.121   4.243  15.535  0.0309 -1.1612 -4.2565
  884MPD2    H213019   0.504   4.395  15.593  0.4887  1.3916 -1.3666
  884MPD2    H313020   0.339   4.213  15.606 -0.0252  0.1195  0.4057
  884MPD2     N13021   0.008   4.502  15.457  0.0810 -0.0064  0.0443
  884MPD2    H513022   4.727   4.601  15.445  1.2255  0.2260  0.2268
  884MPD2    N113023   0.468   4.634  15.489  1.1348 -0.0659  0.1195
  884MPD2    H713024   0.443   4.732  15.477  2.9670  0.5203  1.0910
  885MPD2     C13025   3.300   0.144   0.212  0.1550  0.6123  0.1316
  885MPD2    C113026   3.416   0.079   0.170  0.7657 -0.2128 -0.0563
  885MPD2    C213027   3.455   0.092   0.039  0.1816  0.2321 -0.2428
  885MPD2    C313028   3.383   0.166  17.690  0.8820 -0.5426 -0.6421
  885MPD2    C413029   3.264   0.224  17.740  0.2139  0.2686  0.0216
  885MPD2    C513030   3.230   0.219   0.129  0.1520  0.4715 -0.3786
  885MPD2     H13031   3.546   0.043   0.006 -0.0849 -1.4374  1.5259
  885MPD2    H113032   3.207   0.285  17.671 -1.3624  0.1285  1.2251
  885MPD2    H213033   3.269   0.128   0.315 -1.3380 -0.2368 -0.4475
  885MPD2    H313034   3.134   0.265   0.148 -0.8510 -0.9346 -1.9846
  885MPD2     N13035   3.428   0.157  17.554 -0.5486  0.4265 -0.8777
  885MPD2    H513036   3.505   0.092  17.546 -1.5230 -0.7687 -0.5928
  885MPD2    N113037   3.478   0.011   0.271  0.5362 -0.5064 -0.2488
  885MPD2    H713038   3.442   0.021   0.366  0.0942 -0.6022 -0.4093
  886MPD2     C13039   0.084   2.905  15.035 -0.5463  0.4067  0.8840
  886MPD2    C113040   0.127   2.919  15.164  0.0654  0.2190 -0.1659
  886MPD2    C213041   0.106   3.039  15.227  0.4380  0.5091  0.3027
  886MPD2    C313042   0.032   3.145  15.172  0.0180 -0.1242 -0.2079
  886MPD2    C413043   4.726   3.126  15.037 -0.2476 -0.6630  0.1207
  886MPD2    C513044   0.029   3.012  14.969 -0.0490  0.3294 -0.1650
  886MPD2     H13045   0.139   3.038  15.330 -1.4117 -0.5248  0.8850
  886MPD2    H113046   4.672   3.199  14.979 -0.8793 -1.1055  0.1594
  886MPD2    H213047   0.106   2.821  14.970 -0.1093 -0.7482  2.5118
  886MPD2    H313048   0.006   3.003  14.863 -0.0351  0.0510 -0.1419
  886MPD2     N13049   4.731   3.271  15.238  0.6480  0.1567 -0.2950
  886MPD2    H513050   4.669   3.326  15.180  0.6711  1.6625  1.1267
  886MPD2    N113051   0.207   2.815  15.230  0.4904  0.3883 -0.5435
  886MPD2    H713052   0.240   2.832  15.325 -3.1503 -0.0027  0.8114
  887MPD2     C13053   0.781   2.848  15.597 -0.3560 -0.8761  0.8291
  887MPD2    C113054   0.648   2.876  15.576 -0.6310 -0.1348  0.1519
  887MPD2    C213055   0.598   3.002  15.625  0.2210  0.1320 -0.6350
  887MPD2    C313056   0.681   3.092  15.688 -0.2482  0.1612 -0.8076
  887MPD2    C413057   0.813   3.058  15.700  0.0957 -0.4966 -0.1422
  887MPD2    C513058   0.863   2.937  15.662 -0.0483  0.2663  0.0198
  887MPD2     H13059   0.498   3.041  15.612  0.4529  1.1691  0.6514
  887MPD2    H113060   0.885   3.132  15.733  1.9753 -1.9212 -1.0300
  887MPD2    H213061   0.829   2.758  15.562 -0.3213 -1.8359  3.3451
  887MPD2    H313062   0.966   2.916  15.686  0.4409  1.8509 -0.6740
  887MPD2     N13063   0.622   3.213  15.739  0.1530 -0.0344  0.2025
  887MPD2    H513064   0.522   3.220  15.727  0.0529 -1.6858  0.0200
  887MPD2    N113065   0.560   2.790  15.507 -0.0858  0.4936 -1.2256
  887MPD2    H713066   0.466   2.826  15.502 -0.8063 -1.1399  0.3100
  888MPD2     C13067   2.011   3.129  14.838  0.2806  0.7490  0.4116
  888MPD2    C113068   2.006   3.166  14.971  1.2071 -0.1714  0.6509
  888MPD2    C213069   2.049   3.279  15.003  0.0697  0.2978 -0.7466
  888MPD2    C313070   2.111   3.379  14.920  0.8557  0.3644 -0.2145
  888MPD2    C413071   2.115   3.345  14.787 -0.0388  0.2343 -0.5246
  888MPD2    C513072   2.073   3.214  14.754 -1.0946  0.0721 -0.5896
  888MPD2     H13073   2.048   3.300  15.109  3.4393  0.6981 -0.7758
  888MPD2    H113074   2.160   3.408  14.710  0.2448 -0.4462 -0.9237
  888MPD2    H213075   1.987   3.029  14.804  2.3580  0.2716  0.3994
  888MPD2    H313076   2.079   3.173  14.654  0.8329 -2.6216  0.6179
  888MPD2     N13077   2.161   3.503  14.968 -0.0901  1.4840 -0.2744
  888MPD2    H513078   2.150   3.519  15.068  0.4238 -0.2210  0.0657
  888MPD2    N113079   1.968   3.083  15.076  0.5376 -0.5456  0.0030
  888MPD2    H713080   1.975   3.120  15.170  2.1666 -0.7152 -0.0551
  889MPD2     C13081   1.585   2.995  13.081 -0.2296 -0.2083 -0.8537
  889MPD2    C113082   1.649   2.972  13.200 -0.8048  0.5706 -0.1260
  889MPD2    C213083   1.615   3.063  13.301 -0.4993  0.0664  0.1397
  889MPD2    C313084   1.545   3.185  13.279 -0.1549 -0.0862 -0.0498
  889MPD2    C413085   1.494   3.202  13.151 -0.2121  0.1354 -0.1075
  889MPD2    C513086   1.520   3.109  13.059  0.0936  1.0889  0.2475
  889MPD2     H13087   1.654   3.043  13.400 -0.0396 -0.8469 -0.2290
  889MPD2    H113088   1.434   3.286  13.119  0.3882  1.3369  1.9429
  889MPD2    H213089   1.589   2.929  12.995  1.7055 -0.7247 -0.3762
  889MPD2    H313090   1.481   3.133  12.961  1.5954 -1.5566 -0.9932
  889MPD2     N13091   1.532   3.283  13.382  0.4364  0.2259 -0.6646
  889MPD2    H513092   1.560   3.255  13.476 -0.2936  0.7385 -0.2911
  889MPD2    N113093   1.688   2.836  13.218  0.4121  0.2381 -0.1756
  889MPD2    H713094   1.695   2.771  13.140 -2.7515  0.2887 -0.4996
  890MPD2     C13095   0.848   4.591  15.273  1.0232 -0.4340 -0.6826
  890MPD2    C113096   0.948   4.658  15.330  0.0855  0.5018 -0.2443
  890MPD2    C213097   1.023   4.592  15.421  0.0315  0.5787  0.9143
  890MPD2    C313098   0.992   4.463  15.468  0.3133 -0.0730 -0.2670
  890MPD2    C413099   0.885   4.395  15.410  0.2725  0.0058  0.0898
  890MPD2    C513100   0.814   4.464  15.310 -0.6087  0.5724  0.2647
  890MPD2     H13101   1.115   4.642  15.450  2.2477 -2.0759 -1.6213
  890MPD2    H113102   0.874   4.288  15.422  0.9686 -0.1373 -0.5657
  890MPD2    H213103   0.782   4.635  15.199 -0.2180 -1.0214  0.0789
  890MPD2    H313104   0.738   4.416  15.250 -1.7927 -0.4145  2.5388
  890MPD2     N13105   1.082   4.405  15.564 -0.1000  0.4550  0.0432
  890MPD2    H513106   1.159   4.464  15.592  0.3579 -0.4129  0.6196
  890MPD2    N113107   0.986   0.048  15.287  0.1311 -0.4217  0.0212
  890MPD2    H713108   0.921   0.088  15.219  0.4147  0.1682  0.0911
  891MPD2     C13109   4.171   3.075  16.430 -0.2243  0.2231 -0.7846
  891MPD2    C113110   4.083   3.011  16.518 -0.2776  0.1912 -0.7909
  891MPD2    C213111   4.133   2.972  16.644 -0.1335  0.2360 -0.9197
  891MPD2    C313112   4.267   2.990  16.670 -0.3071  0.0101  0.1422
  891MPD2    C413113   4.347   3.059  16.572 -0.1776  0.3608 -0.0815
  891MPD2    C513114   4.301   3.091  16.453  0.2544  0.1363 -0.4644
  891MPD2     H13115   4.072   2.918  16.716  1.4018 -2.7662 -1.8591
  891MPD2    H113116   4.451   3.079  16.595  0.6157 -0.3581 -3.0617
  891MPD2    H213117   4.136   3.102  16.331 -0.4632 -0.0598 -0.7757
  891MPD2    H313118   4.368   3.144  16.386 -0.0575  1.0421 -0.0634
  891MPD2     N13119   4.319   2.939  16.793 -0.7651 -0.0425  0.0137
  891MPD2    H513120   4.255   2.894  16.858 -0.4181 -0.3938  0.1089
  891MPD2    N113121   3.946   2.985  16.478  0.0492  0.1207 -0.8532
  891MPD2    H713122   3.908   3.032  16.396  0.2036  0.9428 -0.4600
  892MPD2     C13123   0.286   3.825  14.783 -0.4407  0.6987  0.8460
  892MPD2    C113124   0.172   3.850  14.705  0.2243 -0.2335 -0.1707
  892MPD2    C213125   0.166   3.818  14.574  0.0952 -0.8612  0.1359
  892MPD2    C313126   0.268   3.756  14.517 -0.1324 -1.1292  0.6156
  892MPD2    C413127   0.382   3.725  14.592 -0.3565  0.6240  0.1893
  892MPD2    C513128   0.389   3.767  14.723  0.0776  0.3485 -0.3688
  892MPD2     H13129   0.077   3.840  14.516 -0.3096 -1.6888  0.4533
  892MPD2    H113130   0.464   3.668  14.550  1.7856  1.7066  2.8807
  892MPD2    H213131   0.294   3.855  14.887  0.1710  0.0920  0.9791
  892MPD2    H313132   0.481   3.740  14.774 -2.0529 -0.7476  2.8822
  892MPD2     N13133   0.264   3.715  14.384  0.3491  0.0729  0.0603
  892MPD2    H513134   0.336   3.649  14.356 -1.0502 -0.9879 -1.0790
  892MPD2    N113135   0.060   3.925  14.755  0.6672 -0.3718  0.2941
  892MPD2    H713136   4.724   3.954  14.692 -0.5268 -2.3837  0.7664
  893MPD2     C13137   1.640   2.508   1.655  0.0898  0.1157  0.5913
  893MPD2    C113138   1.631   2.458   1.526 -0.2894  0.2336 -0.9191
  893MPD2    C213139   1.508   2.407   1.485 -0.1013 -0.3436  0.0755
  893MPD2    C313140   1.403   2.405   1.575  0.0912  0.7909  0.2653
  893MPD2    C413141   1.419   2.460   1.702  0.0937  0.6153  0.1189
  893MPD2    C513142   1.537   2.516   1.740 -0.1235  0.0159  0.4160
  893MPD2     H13143   1.493   2.373   1.384  1.9031  1.7118 -0.9090
  893MPD2    H113144   1.336   2.453   1.771 -1.1570  0.8969 -1.3567
  893MPD2    H213145   1.734   2.554   1.683  0.0175 -0.6446  2.1023
  893MPD2    H313146   1.571   2.543   1.839  0.1129 -3.5127  1.3146
  893MPD2     N13147   1.280   2.341   1.550 -0.1988 -0.7498 -0.2335
  893MPD2    H513148   1.210   2.349   1.623  0.5888  1.2340  0.2975
  893MPD2    N113149   1.749   2.461   1.452  0.1242  0.0329 -0.2449
  893MPD2    H713150   1.830   2.500   1.499 -1.1381  3.0087 -0.5671
  894MPD2     C13151   0.069   4.509   1.564 -0.5132 -1.1862  0.1277
  894MPD2    C113152   4.709   4.605   1.591  0.4511  0.8353  0.8396
  894MPD2    C213153   0.008   4.733   1.568  0.4359 -0.7739 -0.8544
  894MPD2    C313154   0.138   0.035   1.542  0.0768 -1.4599 -0.3522
  894MPD2    C413155   0.237   4.674   1.522 -0.5395  0.0077  0.2078
  894MPD2    C513156   0.199   4.544   1.537  0.1146  0.4682 -0.4582
  894MPD2     H13157   4.674   0.076   1.586  2.6192  0.5847  1.6071
  894MPD2    H113158   0.345   4.680   1.519 -0.5535 -0.2698 -0.7866
  894MPD2    H213159   0.039   4.407   1.585 -1.0450 -0.7874  1.3028
  894MPD2    H313160   0.274   4.467   1.529 -0.3700 -0.1390  0.9276
  894MPD2     N13161   0.169   0.169   1.546 -0.9155 -0.7736 -0.3981
  894MPD2    H513162   0.093   0.228   1.577 -2.2654 -1.4913 -2.3196
  894MPD2    N113163   4.571   4.574   1.621 -0.3127  0.2067 -0.0871
  894MPD2    H713164   4.519   4.657   1.649  0.2918  0.6275 -0.2176
  895MPD2     C13165   3.877   3.354  14.097 -0.3726 -0.5404 -0.3308
  895MPD2    C113166   3.866   3.324  13.959 -0.1569 -0.2544 -0.7532
  895MPD2    C213167   3.977   3.266  13.896 -0.2799  0.9652 -0.3147
  895MPD2    C313168   4.074   3.200  13.974 -0.2703 -0.0786  0.1606
  895MPD2    C413169   4.080   3.217  14.110  0.3355  0.3569 -0.2311
  895MPD2    C513170   3.982   3.293  14.165 -0.1557 -0.5354 -0.6499
  895MPD2     H13171   3.971   3.254  13.788  1.9015 -0.7686 -0.2325
  895MPD2    H113172   4.153   3.169  14.174 -1.1293  0.1601  1.2900
  895MPD2    H213173   3.806   3.410  14.156  0.7404  1.0961 -0.5378
  895MPD2    H313174   3.991   3.330  14.266 -1.5519 -1.8260 -0.0495
  895MPD2     N13175   4.179   3.130  13.903 -0.1060 -0.0063  0.3944
  895MPD2    H513176   4.175   3.143  13.803 -0.4921 -1.1045  0.2717
  895MPD2    N113177   3.760   3.365  13.879 -0.3567 -0.2135  0.3646
  895MPD2    H713178   3.757   3.325  13.786 -2.0340 -2.6578  1.4724
  896MPD2     C13179   1.683   1.225   1.810  0.3060 -0.5920  0.0532
  896MPD2    C113180   1.652   1.149   1.702  0.0030  1.0708  0.2870
  896MPD2    C213181   1.537   1.067   1.697  0.5744 -0.3568 -0.1201
  896MPD2    C313182   1.444   1.077   1.794 -0.1426 -0.0324  0.2678
  896MPD2    C413183   1.473   1.154   1.907 -0.1146 -0.1237 -0.0820
  896MPD2    C513184   1.597   1.228   1.916  0.3538 -0.2687 -0.0963
  896MPD2     H13185   1.519   1.016   1.603  0.4118  1.3395 -1.0147
  896MPD2    H113186   1.401   1.169   1.986 -0.2299 -0.3422 -0.1444
  896MPD2    H213187   1.777   1.278   1.807 -0.4251  0.6901 -0.2099
  896MPD2    H313188   1.626   1.287   2.002  1.8326  1.9028 -2.1127
  896MPD2     N13189   1.327   1.004   1.769 -0.0413  0.3383  0.1879
  896MPD2    H513190   1.313   0.968   1.675  0.3679 -3.3572  1.5490
  896MPD2    N113191   1.746   1.167   1.595  0.1598 -0.2613 -0.0209
  896MPD2    H713192   1.823   1.232   1.610  0.1315 -0.2184 -0.0616
  897MPD2     C13193   3.053   2.020  10.545 -0.3793 -0.5097 -0.0042
  897MPD2    C113194   3.010   2.149  10.549  0.2937  1.0312  0.0729
  897MPD2    C213195   2.925   2.186  10.645 -0.9551 -0.4307  0.1255
  897MPD2    C313196   2.872   2.092  10.737 -0.0638  0.1936 -0.3508
  897MPD2    C413197   2.917   1.963  10.727  0.3113  0.3047 -0.6054
  897MPD2    C513198   3.005   1.928  10.635  1.0955 -0.4327 -0.1582
  897MPD2     H13199   2.886   2.287  10.649  0.3590 -0.0398  2.9136
  897MPD2    H113200   2.885   1.880  10.789 -0.2321 -0.2057 -1.5562
  897MPD2    H213201   3.131   1.980  10.481 -0.9364  0.3315 -1.1985
  897MPD2    H313202   3.044   1.827  10.634 -0.0213 -0.9086  2.5791
  897MPD2     N13203   2.776   2.131  10.827 -0.5428 -0.7519 -0.4874
  897MPD2    H513204   2.738   2.225  10.818  0.8150  0.1018  2.6295
  897MPD2    N113205   3.069   2.243  10.464  0.3448 -0.1349  0.0606
  897MPD2    H713206   3.124   2.206  10.387 -0.5103  0.8001 -1.0063
  898MPD2     C13207   4.666   3.264   0.972  0.0988  0.5209 -0.6949
  898MPD2    C113208   0.060   3.307   0.928 -0.0322 -0.3327  0.4145
  898MPD2    C213209   0.059   3.390   0.814 -0.4568  0.9032  0.0008
  898MPD2    C313210   4.687   3.402   0.725  0.3744  0.7644  0.5345
  898MPD2    C413211   4.566   3.352   0.771  0.8583  0.3509  0.2398
  898MPD2    C513212   4.559   3.285   0.888  0.4308 -0.1045 -0.0912
  898MPD2     H13213   0.148   3.446   0.788  1.8886 -2.7651  0.1083
  898MPD2    H113214   4.469   3.377   0.729  1.5234  2.1350 -0.2122
  898MPD2    H213215   4.658   3.208   1.064  1.1743 -1.4521 -1.8004
  898MPD2    H313216   4.460   3.257   0.921  0.0732  0.4980 -0.6478
  898MPD2     N13217   4.717   3.481   0.614  0.1026  0.1697  0.4091
  898MPD2    H513218   0.076   3.514   0.606  1.2121 -3.4090 -1.1030
  898MPD2    N113219   0.186   3.276   0.983  0.3636 -0.2139 -0.1042
  898MPD2    H713220   0.267   3.327   0.949 -0.6788  1.8544  0.5295
  899MPD2     C13221   1.039   4.059  17.744 -0.5222 -0.2503 -0.4923
  899MPD2    C113222   1.132   4.149   0.051 -0.5501 -0.0849  0.1226
  899MPD2    C213223   1.184   4.130   0.174 -0.6039 -0.6153  0.1028
  899MPD2    C313224   1.153   4.014   0.243 -0.2610  0.6424  0.6041
  899MPD2    C413225   1.069   3.920   0.193  0.2246 -0.7516  0.3362
  899MPD2    C513226   1.013   3.942   0.066  0.5397 -1.2222  0.8851
  899MPD2     H13227   1.251   4.203   0.217 -0.2525  0.5251 -2.3902
  899MPD2    H113228   1.038   3.829   0.244  0.1596 -0.6655  0.4490
  899MPD2    H213229   0.979   4.090  17.659 -0.3592 -1.1124 -0.9173
  899MPD2    H313230   0.940   3.873   0.026 -0.9746  0.8729  0.0623
  899MPD2     N13231   1.196   3.994   0.381  0.1345 -0.4026 -0.3743
  899MPD2    H513232   1.161   3.910   0.426  1.9284  0.0204  1.7976
  899MPD2    N113233   1.145   4.278  17.730  0.7810  0.1513  0.3107
  899MPD2    H713234   1.087   4.295  17.648  2.0920 -1.8047 -1.0175
  900MPD2     C13235   0.312   0.788  12.260 -0.3356 -0.6476 -0.0532
  900MPD2    C113236   0.217   0.736  12.334  0.0450 -0.2981  0.7667
  900MPD2    C213237   0.100   0.805  12.337 -0.0557  0.1613  0.7469
  900MPD2    C313238   0.081   0.924  12.276 -0.4203 -0.5351 -0.0896
  900MPD2    C413239   0.192   0.989  12.226  0.2043 -0.1403  0.1159
  900MPD2    C513240   0.307   0.919  12.212  0.1359  0.1184 -1.1491
  900MPD2     H13241   0.018   0.768  12.398  0.5758  1.2204  2.2282
  900MPD2    H113242   0.178   1.087  12.183  3.0705  0.5365  0.7178
  900MPD2    H213243   0.410   0.743  12.249  0.0903  0.4205 -0.6248
  900MPD2    H313244   0.388   0.962  12.155  0.8886  0.2617  0.0412
  900MPD2     N13245   4.685   0.977  12.271 -0.0533 -0.1827  0.6180
  900MPD2    H513246   4.618   0.915  12.315  0.3684 -2.3278 -1.7675
  900MPD2    N113247   0.245   0.620  12.406  0.1282 -0.3011 -0.7430
  900MPD2    H713248   0.341   0.588  12.401  0.3430  0.0913  0.8643
  901MPD2     C13249   0.626   0.008  13.152  0.4917  0.3054  0.3319
  901MPD2    C113250   0.638   4.686  13.031  0.6316  0.2753 -0.8637
  901MPD2    C213251   0.579   0.009  12.921  0.0199 -0.1029  0.2831
  901MPD2    C313252   0.478   0.103  12.937  0.6695  0.3139  0.8799
  901MPD2    C413253   0.448   0.137  13.073 -0.0381  0.4812 -0.0602
  901MPD2    C513254   0.525   0.093  13.177  0.1378 -0.1130  0.5197
  901MPD2     H13255   0.603   4.711  12.822  0.7184 -0.1690  0.4739
  901MPD2    H113256   0.383   0.220  13.099  1.5279  1.1100  1.8890
  901MPD2    H213257   0.682   4.709  13.237  2.4703  0.8150 -0.7463
  901MPD2    H313258   0.513   0.128  13.279  2.3462  2.1072  0.0217
  901MPD2     N13259   0.413   0.148  12.828 -0.4395  0.5620 -0.0569
  901MPD2    H513260   0.434   0.112  12.736  0.3605 -1.0101  0.7426
  901MPD2    N113261   0.724   4.576  13.023 -0.1618 -0.4106 -0.4391
  901MPD2    H713262   0.760   4.541  13.111 -1.5560  0.1595  0.3510
  902MPD2     C13263   0.032   3.416  12.737 -0.1172  0.1119 -0.1144
  902MPD2    C113264   4.671   3.454  12.647  0.3711 -0.1315 -0.5819
  902MPD2    C213265   4.617   3.357  12.563 -0.3695  0.4163  1.1592
  902MPD2    C313266   4.656   3.224  12.563  0.5192 -0.4232  0.6393
  902MPD2    C413267   0.002   3.188  12.663 -0.0458 -0.7605  0.0688
  902MPD2    C513268   0.052   3.284  12.748  0.0117  0.1012  0.2999
  902MPD2     H13269   4.535   3.382  12.497 -1.1350 -0.1580  1.8913
  902MPD2    H113270   0.039   3.088  12.682 -0.3028 -0.8032  0.3385
  902MPD2    H213271   0.070   3.487  12.809 -0.9088 -1.0256  1.4238
  902MPD2    H313272   0.112   3.238  12.826 -2.0952  0.2337  2.0028
  902MPD2     N13273   4.595   3.130  12.480  0.1615  0.2250 -0.1233
  902MPD2    H513274   4.623   3.034  12.498  0.1567  0.5735  1.6972
  902MPD2    N113275   4.623   3.590  12.644 -0.3547  0.7067  0.0324
  902MPD2    H713276   4.666   3.645  12.718 -0.7529 -1.0835  1.6055
  903MPD2     C13277   4.067   2.860  11.742  0.0428  0.4127  0.6428
  903MPD2    C113278   4.063   2.901  11.877 -0.5264  0.2667 -0.0755
  903MPD2    C213279   3.937   2.910  11.947  0.6089 -0.1761  0.4273
  903MPD2    C313280   3.817   2.885  11.881  0.9720  0.0359 -0.3972
  903MPD2    C413281   3.827   2.854  11.746 -0.2334  0.5127  0.5141
  903MPD2    C513282   3.945   2.828  11.681 -0.9677 -0.3565  0.2402
  903MPD2     H13283   3.931   2.935  12.052 -0.8354 -0.2277  0.3585
  903MPD2    H113284   3.734   2.830  11.695 -0.0614  2.2540 -0.6357
  903MPD2    H213285   4.158   2.836  11.688  0.7364 -0.0111  2.0021
  903MPD2    H313286   3.952   2.797  11.577  2.6282 -2.3524  1.0619
  903MPD2     N13287   3.692   2.893  11.954  0.4423  0.2821  0.5774
  903MPD2    H513288   3.689   2.912  12.054 -1.1951  0.3363  0.5116
  903MPD2    N113289   4.180   2.940  11.942 -0.2461  0.1973  0.7471
  903MPD2    H713290   4.270   2.932  11.896  0.0017 -0.5194  1.3541
  904MPD2     C13291   3.979   2.375  13.898  0.0068 -0.3640  0.8538
  904MPD2    C113292   3.978   2.502  13.955  0.0375 -0.2305 -0.1782
  904MPD2    C213293   4.090   2.536  14.041  0.3080  0.4329  0.4949
  904MPD2    C313294   4.202   2.459  14.060 -0.0736  0.5087 -0.8783
  904MPD2    C413295   4.212   2.342  13.989 -0.0981 -0.8919 -0.1877
  904MPD2    C513296   4.100   2.298  13.911 -0.1311 -0.8394  0.2076
  904MPD2     H13297   4.096   2.639  14.073 -3.2614  1.0240 -0.6659
  904MPD2    H113298   4.297   2.275  13.993  1.2487  0.8659  0.4601
  904MPD2    H213299   3.898   2.341  13.834 -0.2837  0.5284  0.7595
  904MPD2    H313300   4.099   2.201  13.864 -2.4716 -1.2266  1.0689
  904MPD2     N13301   4.294   2.509  14.155  0.2800 -0.1243  0.4832
  904MPD2    H513302   4.268   2.587  14.214 -0.9972 -0.9779  1.0480
  904MPD2    N113303   3.880   2.597  13.921 -0.2902 -0.0594  0.1523
  904MPD2    H713304   3.874   2.669  13.993  0.6753  0.9012 -0.7283
  905MPD2     C13305   3.879   2.820  13.262  1.0927  0.1972 -0.1030
  905MPD2    C113306   3.873   2.899  13.375 -0.2965 -0.4870  0.3442
  905MPD2    C213307   3.986   2.955  13.419 -0.5175 -0.5176 -0.0004
  905MPD2    C313308   4.108   2.918  13.372  0.3716  0.3311 -0.4904
  905MPD2    C413309   4.106   2.846  13.252 -0.2779 -0.0034 -0.5744
  905MPD2    C513310   3.992   2.794  13.200  0.8187 -0.2028  0.7871
  905MPD2     H13311   3.985   3.034  13.493 -0.0477 -0.6937  0.1947
  905MPD2    H113312   4.201   2.821  13.206 -0.1372  1.2569 -0.9825
  905MPD2    H213313   3.790   2.777  13.220  0.9321  2.1579 -1.7672
  905MPD2    H313314   3.989   2.725  13.116  4.5524  0.5833 -0.0019
  905MPD2     N13315   4.230   2.969  13.422  0.2639  0.6675  0.2375
  905MPD2    H513316   4.313   2.922  13.388 -0.5491 -2.3514  2.5168
  905MPD2    N113317   3.750   2.909  13.448 -0.2330 -0.2000  0.0953
  905MPD2    H713318   3.670   2.858  13.413 -1.4577  1.6358  0.2704
  906MPD2     C13319   1.468   2.722  11.620  0.0891 -0.8026 -0.2203
  906MPD2    C113320   1.425   2.628  11.528  0.8700  0.2258  0.1321
  906MPD2    C213321   1.336   2.530  11.573 -0.1701  0.7150  0.9654
  906MPD2    C313322   1.296   2.530  11.704 -1.0866 -0.6394  0.1667
  906MPD2    C413323   1.342   2.625  11.791  0.2255  0.4626 -0.3144
  906MPD2    C513324   1.427   2.725  11.748 -1.0847  0.4800 -0.1084
  906MPD2     H13325   1.303   2.456  11.500  2.6519 -0.2012  0.6248
  906MPD2    H113326   1.325   2.620  11.898  2.8008 -2.2227 -0.0348
  906MPD2    H213327   1.524   2.807  11.583 -0.6207 -0.7192 -1.1170
  906MPD2    H313328   1.458   2.802  11.818  0.3832 -0.5480  0.3816
  906MPD2     N13329   1.205   2.436  11.751  0.4750 -0.2722  0.1118
  906MPD2    H513330   1.213   2.422  11.851 -1.8059 -1.0149  0.1921
  906MPD2    N113331   1.461   2.621  11.395 -0.2045 -0.1594 -0.1921
  906MPD2    H713332   1.447   2.534  11.346 -2.2686 -0.8855  1.6856
  907MPD2     C13333   0.533   2.020  15.514  0.0940  0.4052  0.3103
  907MPD2    C113334   0.479   1.893  15.528  0.7508 -0.5192 -1.2410
  907MPD2    C213335   0.458   1.845  15.656 -0.1151 -0.5719  0.4689
  907MPD2    C313336   0.487   1.914  15.775  0.1199 -1.0598  0.5275
  907MPD2    C413337   0.529   2.045  15.760 -0.4831 -1.0237 -0.2623
  907MPD2    C513338   0.548   2.099  15.631  0.1125  0.3221  0.5111
  907MPD2     H13339   0.417   1.745  15.662 -0.7068 -0.4296 -1.0318
  907MPD2    H113340   0.547   2.119  15.837 -2.2485 -2.0412  1.1171
  907MPD2    H213341   0.550   2.070  15.420 -2.1796  1.7074  0.6106
  907MPD2    H313342   0.596   2.196  15.619  0.4430  0.4842  3.1284
  907MPD2     N13343   0.467   1.852  15.899  0.2061 -0.2600  0.0472
  907MPD2    H513344   0.445   1.753  15.900 -0.1893 -0.1874 -2.2645
  907MPD2    N113345   0.460   1.809  15.414 -0.5518 -0.3332  0.4171
  907MPD2    H713346   0.401   1.728  15.430  0.1787 -1.2950 -1.7826
  908MPD2     C13347   2.993   2.097   9.633  0.4051 -0.2123  0.3454
  908MPD2    C113348   3.053   2.026   9.732 -0.1074 -0.1270  0.2936
  908MPD2    C213349   3.091   2.089   9.849  0.0349  0.1268 -0.7244
  908MPD2    C313350   3.051   2.218   9.870 -0.2250 -0.5498  0.0245
  908MPD2    C413351   2.981   2.287   9.774 -0.6954  0.1266 -0.1493
  908MPD2    C513352   2.959   2.226   9.651  0.0992  0.0565  0.4551
  908MPD2     H13353   3.153   2.040   9.922  0.0755 -1.0264 -1.5325
  908MPD2    H113354   2.928   2.375   9.807 -1.6129  0.2605 -1.9943
  908MPD2    H213355   2.972   2.045   9.540 -1.2891  3.0551 -1.1234
  908MPD2    H313356   2.901   2.273   9.572 -0.5864 -2.3996 -0.4846
  908MPD2     N13357   3.102   2.281   9.989 -0.1401 -0.1714  0.1370
  908MPD2    H513358   3.158   2.227  10.054 -2.9384 -0.0204  2.6512
  908MPD2    N113359   3.078   1.886   9.697 -0.3870  0.2984  0.0492
  908MPD2    H713360   3.049   1.854   9.605 -0.6043 -1.1855  0.6308
  909MPD2     C13361   2.817   0.097  11.797  0.0036 -0.4258 -0.1935
  909MPD2    C113362   2.821   0.241  11.799  0.2084 -0.3350  0.1332
  909MPD2    C213363   2.776   0.314  11.903 -0.0040  0.1745 -0.4371
  909MPD2    C313364   2.718   0.250  12.016 -0.4264 -0.2270 -0.0116
  909MPD2    C413365   2.715   0.109  12.018  0.1315 -0.4429 -0.3194
  909MPD2    C513366   2.770   0.037  11.911 -0.3287 -1.4019 -0.1990
  909MPD2     H13367   2.787   0.422  11.906 -0.0091  0.1689 -0.1216
  909MPD2    H113368   2.681   0.057  12.107  1.9494 -1.0247  0.0159
  909MPD2    H213369   2.844   0.034  11.714 -1.3489  1.3931 -2.0376
  909MPD2    H313370   2.779   4.666  11.911 -0.7640 -1.4401  0.4223
  909MPD2     N13371   2.670   0.328  12.121  0.1321  0.8864  0.2345
  909MPD2    H513372   2.695   0.425  12.129  2.6250 -0.0326  3.5048
  909MPD2    N113373   2.874   0.320  11.689  0.0550  0.0275 -0.1134
  909MPD2    H713374   2.861   0.421  11.698 -1.0970 -0.1768  0.5061
  910MPD2     C13375   4.477   2.763  16.186  0.4932  0.1930 -0.3685
  910MPD2    C113376   4.466   2.632  16.145 -0.0134 -0.4035 -0.9637
  910MPD2    C213377   4.407   2.610  16.018 -0.1593  0.3506  0.0225
  910MPD2    C313378   4.362   2.717  15.945  0.8563  0.7994  0.6668
  910MPD2    C413379   4.371   2.844  15.987  0.3901  0.5041 -0.3273
  910MPD2    C513380   4.433   2.868  16.112  0.1754  0.3295  0.4833
  910MPD2     H13381   4.404   2.511  15.973 -0.6232  0.1993  0.3752
  910MPD2    H113382   4.328   2.931  15.940  0.1298 -0.2002 -1.3872
  910MPD2    H213383   4.516   2.794  16.282 -1.0481  0.6423  0.1174
  910MPD2    H313384   4.431   2.968  16.153 -1.6288  0.3440  0.3728
  910MPD2     N13385   4.287   2.691  15.831  0.2627 -0.1164  0.6251
  910MPD2    H513386   4.278   2.763  15.761 -0.5618 -0.3750  0.4585
  910MPD2    N113387   4.517   2.515  16.212 -0.0870  0.0323 -0.0887
  910MPD2    H713388   4.501   2.419  16.181 -1.8072  0.6533 -1.1060
  911MPD2     C13389   2.409   2.757  15.911 -0.2857 -0.7610 -0.1444
  911MPD2    C113390   2.436   2.822  16.035  0.2830  0.5668  0.0112
  911MPD2    C213391   2.375   2.943  16.065 -0.5559 -0.0769  0.3206
  911MPD2    C313392   2.294   3.010  15.975 -0.1419 -0.5471  0.2301
  911MPD2    C413393   2.262   2.948  15.855  0.0542 -0.7823  0.7357
  911MPD2    C513394   2.323   2.825  15.827  0.1649  0.2455 -0.1509
  911MPD2     H13395   2.401   2.997  16.155 -1.9110 -0.3058  0.8390
  911MPD2    H113396   2.195   2.993  15.783 -0.0147  0.0604  1.3232
  911MPD2    H213397   2.460   2.666  15.883 -1.9944 -2.0095  0.7991
  911MPD2    H313398   2.300   2.783  15.729  0.6260  0.7005 -0.4536
  911MPD2     N13399   2.234   3.130  16.004 -0.0281 -0.2390  0.3836
  911MPD2    H513400   2.156   3.153  15.944 -0.2947 -1.5460  0.2432
  911MPD2    N113401   2.519   2.751  16.123 -0.1817  0.0414  0.5467
  911MPD2    H713402   2.559   2.664  16.091 -1.6959 -1.5699  3.0623
  912MPD2     C13403   1.873   3.037  15.684  0.3172 -0.3750 -0.1688
  912MPD2    C113404   1.911   3.055  15.814  0.0275 -0.1819 -0.0081
  912MPD2    C213405   1.934   2.940  15.889 -0.1783 -0.6948  0.3304
  912MPD2    C313406   1.905   2.813  15.830 -0.3125  0.2952 -0.0846
  912MPD2    C413407   1.872   2.805  15.695  0.3451 -0.4635  1.0488
  912MPD2    C513408   1.849   2.919  15.627 -0.2606 -0.2416  1.3205
  912MPD2     H13409   1.967   2.939  15.992 -2.6245  0.0387  1.1091
  912MPD2    H113410   1.865   2.705  15.652  0.7701 -0.3988  0.8288
  912MPD2    H213411   1.868   3.123  15.618 -1.8873 -0.5102 -0.1558
  912MPD2    H313412   1.808   2.915  15.526  0.3173 -0.3495  1.0885
  912MPD2     N13413   1.936   2.703  15.911  0.2345  0.2244 -0.4561
  912MPD2    H513414   1.959   2.726  16.007  0.9180 -3.0694  0.1572
  912MPD2    N113415   1.933   3.178  15.865  0.2493 -0.2898  0.1843
  912MPD2    H713416   1.922   3.255  15.800 -0.8934 -1.3198 -0.8511
  913MPD2     C13417   2.513   3.535  10.660  0.4471 -0.7813 -0.4333
  913MPD2    C113418   2.589   3.638  10.713 -0.5901 -0.5641  0.4854
  913MPD2    C213419   2.577   3.762  10.655  0.3428 -0.0953  0.3105
  913MPD2    C313420   2.498   3.779  10.543 -0.3250  0.9883 -0.4154
  913MPD2    C413421   2.433   3.669  10.491 -0.0951  0.0098  0.1113
  913MPD2    C513422   2.442   3.549  10.548 -0.8931 -0.2178  0.9416
  913MPD2     H13423   2.623   3.848  10.702  0.2957  0.4531 -0.6466
  913MPD2    H113424   2.371   3.677  10.402  1.1516 -1.3232 -0.8744
  913MPD2    H213425   2.518   3.436  10.705 -3.0878 -1.3457 -1.3352
  913MPD2    H313426   2.376   3.471  10.512  0.8508 -0.5407 -1.5782
  913MPD2     N13427   2.471   3.899  10.475  0.0330  0.0815  0.1297
  913MPD2    H513428   2.435   3.892  10.381  1.0347  1.4803 -0.3370
  913MPD2    N113429   2.667   3.603  10.830 -0.2850  0.5465  0.6851
  913MPD2    H713430   2.654   3.511  10.869 -0.8697  0.5817  0.5670
  914MPD2     C13431   0.614   4.052  12.319  0.6647 -0.1454 -0.1000
  914MPD2    C113432   0.565   4.172  12.377 -0.1236  0.5392  0.0740
  914MPD2    C213433   0.655   4.231  12.473  0.7975  0.1160 -0.0324
  914MPD2    C313434   0.764   4.164  12.521 -0.4039  0.0013 -0.0124
  914MPD2    C413435   0.794   4.038  12.473  0.0003  0.2220 -0.5069
  914MPD2    C513436   0.725   3.988  12.372 -0.3345 -0.1252 -0.7826
  914MPD2     H13437   0.635   4.332  12.508 -1.8194 -0.1504 -0.7632
  914MPD2    H113438   0.883   3.979  12.491 -2.2283 -2.8168  0.5447
  914MPD2    H213439   0.559   4.008  12.237  0.2709  0.7004 -0.2936
  914MPD2    H313440   0.758   3.897  12.323  3.9482  0.5587  0.9042
  914MPD2     N13441   0.850   4.233  12.612 -0.6288 -0.2741  0.3697
  914MPD2    H513442   0.823   4.323  12.651  3.3410  1.6038 -1.1346
  914MPD2    N113443   0.444   4.226  12.339 -0.3485  0.1322  0.2834
  914MPD2    H713444   0.392   4.182  12.265  0.9094 -1.9151  0.6329
  915MPD2     C13445   3.513   4.386  15.242 -0.5722  0.0343  0.2744
  915MPD2    C113446   3.408   4.317  15.298  0.5785 -0.6785  0.3146
  915MPD2    C213447   3.374   4.343  15.430 -0.1844  0.6122 -0.3789
  915MPD2    C313448   3.442   4.441  15.505  0.2064 -0.4406 -0.0899
  915MPD2    C413449   3.553   4.502  15.447 -0.3721 -0.8439  0.3830
  915MPD2    C513450   3.584   4.476  15.321 -0.3259 -0.0803 -0.0652
  915MPD2     H13451   3.295   4.291  15.484  0.6711  0.9563  1.2252
  915MPD2    H113452   3.626   4.558  15.506 -0.4827 -0.1007 -0.1894
  915MPD2    H213453   3.525   4.380  15.135  0.8013 -0.8222  0.4723
  915MPD2    H313454   3.675   4.522  15.285 -1.3818 -0.4064 -3.1560
  915MPD2     N13455   3.388   4.476  15.631  0.2254 -0.4097 -0.0509
  915MPD2    H513456   3.298   4.438  15.659  0.3636 -0.6408  0.0779
  915MPD2    N113457   3.341   4.224  15.220  0.5375 -0.1484  0.4343
  915MPD2    H713458   3.384   4.216  15.128 -0.2134 -2.4724  0.2820
  916MPD2     C13459   1.568   2.785  15.924 -0.3381  0.0406 -0.2340
  916MPD2    C113460   1.563   2.681  16.014 -0.1011  0.4566  0.3709
  916MPD2    C213461   1.546   2.550  15.965 -0.1653 -0.3246  0.4474
  916MPD2    C313462   1.517   2.533  15.833  0.6998  0.5027  0.2689
  916MPD2    C413463   1.524   2.631  15.742  0.6798 -0.4726 -0.1768
  916MPD2    C513464   1.540   2.762  15.795  0.0350  0.2289 -0.0018
  916MPD2     H13465   1.535   2.467  16.034  0.0984 -2.1443 -1.7154
  916MPD2    H113466   1.516   2.620  15.634 -0.4669  1.7494 -0.3231
  916MPD2    H213467   1.599   2.882  15.960  2.2924 -0.7189 -0.4216
  916MPD2    H313468   1.572   2.846  15.734  0.6465  0.3251  0.4520
  916MPD2     N13469   1.510   2.396  15.799  0.4768  0.3385  0.2239
  916MPD2    H513470   1.536   2.321  15.863  2.5812  0.8880  0.0212
  916MPD2    N113471   1.591   2.705  16.153  0.2032  0.5689  0.1396
  916MPD2    H713472   1.607   2.802  16.176  1.4615  0.7478 -1.5535
  917MPD2     C13473   1.601   0.144  11.051  0.5255 -0.7983  0.1850
  917MPD2    C113474   1.649   0.190  11.174 -0.8398 -0.0293 -0.4513
  917MPD2    C213475   1.726   0.302  11.176  0.1867  0.1706 -0.0801
  917MPD2    C313476   1.763   0.364  11.055 -0.3170 -1.0727  0.0679
  917MPD2    C413477   1.711   0.310  10.937  0.1145  0.3848 -0.2019
  917MPD2    C513478   1.634   0.195  10.931  0.4951 -0.8835  0.5250
  917MPD2     H13479   1.771   0.347  11.263 -0.3439 -0.9163  0.7652
  917MPD2    H113480   1.746   0.359  10.847  1.5363  1.7579  1.1117
  917MPD2    H213481   1.541   0.053  11.055 -0.6672  0.0485  1.6283
  917MPD2    H313482   1.600   0.147  10.840  1.2498  1.7087 -1.1307
  917MPD2     N13483   1.836   0.483  11.040 -0.3713 -0.2889 -0.6986
  917MPD2    H513484   1.838   0.528  10.949  0.0466  1.5874  0.2391
  917MPD2    N113485   1.597   0.131  11.290  0.0645  0.1940  0.7224
  917MPD2    H713486   1.514   0.073  11.282  1.9046 -2.2931 -0.4764
  918MPD2     C13487   1.456   0.467  12.293 -0.6742  0.3646 -0.2845
  918MPD2    C113488   1.578   0.432  12.242  0.5691 -0.1711  0.1659
  918MPD2    C213489   1.586   0.378  12.108  0.7475 -0.1216  0.5806
  918MPD2    C313490   1.469   0.349  12.039  0.1565 -0.0056  0.2201
  918MPD2    C413491   1.347   0.375  12.101  0.3663  0.3179 -0.4915
  918MPD2    C513492   1.345   0.437  12.225  0.1504 -0.1957 -0.6414
  918MPD2     H13493   1.681   0.349  12.066 -0.4093 -2.5777 -0.3401
  918MPD2    H113494   1.257   0.346  12.047  1.2846 -3.3417 -0.0380
  918MPD2    H213495   1.441   0.507  12.392 -2.1439 -2.7275  0.7456
  918MPD2    H313496   1.253   0.448  12.281  0.5391 -0.4840  0.0601
  918MPD2     N13497   1.484   0.291  11.912 -0.7945 -0.0880  0.1554
  918MPD2    H513498   1.576   0.288  11.869 -0.5392  0.2055  0.6810
  918MPD2    N113499   1.696   0.453  12.307  0.4698 -0.0011  0.0185
  918MPD2    H713500   1.781   0.411  12.270  0.6626 -0.4761  0.9839
  919MPD2     C13501   2.696   3.745  11.498 -0.0637  0.0751 -0.9369
  919MPD2    C113502   2.626   3.632  11.471 -0.1205  0.0545  0.0787
  919MPD2    C213503   2.565   3.625  11.349 -0.0239 -0.3902  0.0649
  919MPD2    C313504   2.562   3.736  11.260  0.3448  0.2412  0.0309
  919MPD2    C413505   2.625   3.846  11.300  0.6015  0.0859  0.5756
  919MPD2    C513506   2.697   3.851  11.413  0.0083 -0.1322  0.0542
  919MPD2     H13507   2.498   3.544  11.322  0.0887 -1.1161  1.9425
  919MPD2    H113508   2.614   3.939  11.245  0.9082 -0.8838 -1.1455
  919MPD2    H213509   2.743   3.768  11.592 -0.7606  1.2594 -0.8772
  919MPD2    H313510   2.733   3.946  11.452 -0.2787  0.4769 -1.1603
  919MPD2     N13511   2.479   3.742  11.150 -0.4138 -0.3128 -0.6197
  919MPD2    H513512   2.481   3.831  11.101  0.0250 -0.4014 -0.7618
  919MPD2    N113513   2.623   3.523  11.562 -0.4627  0.4329 -0.2088
  919MPD2    H713514   2.573   3.436  11.547  1.0672 -0.6153  0.7258
  920MPD2     C13515   2.090   4.312  10.400 -0.1049  0.0264 -0.2171
  920MPD2    C113516   1.989   4.213  10.401  0.5073  0.3909  0.7238
  920MPD2    C213517   2.009   4.104  10.486  1.0349 -0.4038 -0.8662
  920MPD2    C313518   2.112   4.091  10.579  0.6366  0.0142  0.2501
  920MPD2    C413519   2.205   4.199  10.578 -0.2297  0.3037  0.1644
  920MPD2    C513520   2.195   4.301  10.487  0.7111 -0.4420  0.2398
  920MPD2     H13521   1.930   4.030  10.481 -0.3979  1.0511  0.6447
  920MPD2    H113522   2.294   4.208  10.638  1.3698  0.5737 -2.2664
  920MPD2    H213523   2.086   4.401  10.338 -0.8600 -0.1540 -0.4321
  920MPD2    H313524   2.271   4.379  10.490  0.8944 -0.5475 -1.4882
  920MPD2     N13525   2.126   3.971  10.661  0.0810  0.5981 -0.0201
  920MPD2    H513526   2.060   3.895  10.648  0.9877 -0.0835 -0.6538
  920MPD2    N113527   1.870   4.212  10.317  0.8025 -0.2142 -0.2579
  920MPD2    H713528   1.813   4.128  10.325  2.2344 -1.2425 -0.7332
  921MPD2     C13529   3.184   2.997  16.730 -0.0262 -0.2819 -0.9627
  921MPD2    C113530   3.205   2.889  16.656  0.8028  0.0760 -0.2160
  921MPD2    C213531   3.107   2.800  16.615 -0.5128  0.3968  1.3185
  921MPD2    C313532   2.976   2.820  16.659  0.2025 -0.6094 -0.2570
  921MPD2    C413533   2.955   2.932  16.739  0.0840  0.1821 -0.4803
  921MPD2    C513534   3.056   3.020  16.770  0.0003  0.5691 -0.3585
  921MPD2     H13535   3.126   2.716  16.549 -1.0380  0.4358  1.1120
  921MPD2    H113536   2.857   2.960  16.777  1.2674  2.8577  0.5767
  921MPD2    H213537   3.265   3.062  16.762  0.7178 -2.0741  0.8192
  921MPD2    H313538   3.049   3.112  16.826  0.2611  0.5196 -0.2422
  921MPD2     N13539   2.866   2.737  16.625 -0.2385  0.1775 -0.5038
  921MPD2    H513540   2.776   2.773  16.655  0.1865 -0.0176  0.9910
  921MPD2    N113541   3.337   2.887  16.600  0.0916  0.2631 -0.5828
  921MPD2    H713542   3.399   2.966  16.616  0.3663  0.1480 -1.0691
  922MPD2     C13543   4.510   0.543  17.043  0.3134  0.2181 -0.6564
  922MPD2    C113544   4.516   0.638  17.142 -0.1117  0.7343 -0.4493
  922MPD2    C213545   4.405   0.658  17.225  0.5757  0.3069  0.1692
  922MPD2    C313546   4.291   0.586  17.206  0.7614 -0.3382 -0.0383
  922MPD2    C413547   4.283   0.509  17.096  0.1085 -0.1279 -0.5979
  922MPD2    C513548   4.388   0.488  17.013 -0.1349 -0.0393 -0.0353
  922MPD2     H13549   4.419   0.732  17.303  0.6334 -0.0699  0.5231
  922MPD2    H113550   4.190   0.461  17.068  1.0229 -2.3901  0.2379
  922MPD2    H213551   4.598   0.511  16.988  0.1257 -0.1365 -0.7569
  922MPD2    H313552   4.384   0.404  16.944 -0.6288 -0.4274  0.4602
  922MPD2     N13553   4.173   0.603  17.292 -0.1085 -0.1551  0.0065
  922MPD2    H513554   4.194   0.664  17.370 -1.9296  1.8466 -1.0410
  922MPD2    N113555   4.629   0.718  17.157  0.0382  0.0285  0.4349
  922MPD2    H713556   4.629   0.772  17.242  1.4817 -1.2304  1.2402
  923MPD2     C13557   1.166   2.778   9.372 -0.1900  0.0475 -0.3011
  923MPD2    C113558   1.117   2.847   9.485 -0.4368  0.1788  0.2296
  923MPD2    C213559   1.160   2.814   9.606  0.6806 -0.1892 -0.0212
  923MPD2    C313560   1.248   2.715   9.630 -0.1997  0.2530  0.2758
  923MPD2    C413561   1.312   2.657   9.517  0.2055  0.2715 -0.4888
  923MPD2    C513562   1.266   2.689   9.393 -0.2347  0.0956 -0.5415
  923MPD2     H13563   1.111   2.863   9.690  3.1083  0.4291  1.0222
  923MPD2    H113564   1.395   2.587   9.521 -0.4196 -0.3862  1.0334
  923MPD2    H213565   1.135   2.811   9.274  0.6430  0.7087 -0.3405
  923MPD2    H313566   1.314   2.642   9.307  0.5345  0.3396 -0.2460
  923MPD2     N13567   1.284   2.661   9.756  0.3688 -0.3860 -0.6369
  923MPD2    H513568   1.349   2.583   9.769  0.6550  0.1718  1.2691
  923MPD2    N113569   1.016   2.947   9.462  0.5735 -0.3954  0.2844
  923MPD2    H713570   0.990   2.961   9.365 -0.2014 -0.7790  0.4413
  924MPD2     C13571   0.577   1.145  16.642 -0.6150 -0.6979 -1.2442
  924MPD2    C113572   0.469   1.197  16.575 -0.2870 -0.0797 -0.2087
  924MPD2    C213573   0.494   1.281  16.466 -0.2395  0.1463 -0.3404
  924MPD2    C313574   0.625   1.323  16.423 -0.0652 -0.3333 -0.4567
  924MPD2    C413575   0.729   1.273  16.502  0.5452 -0.8963  0.6844
  924MPD2    C513576   0.704   1.187  16.612 -0.2581  0.2455 -0.0622
  924MPD2     H13577   0.408   1.324  16.416 -2.1545 -3.0498  0.2430
  924MPD2    H113578   0.831   1.304  16.483  0.1474 -0.2899 -0.4209
  924MPD2    H213579   0.567   1.067  16.716  0.6773 -1.3214 -1.7148
  924MPD2    H313580   0.788   1.138  16.661 -0.6481  1.2059  1.5564
  924MPD2     N13581   0.647   1.437  16.351 -0.1407  0.1355 -0.0636
  924MPD2    H513582   0.730   1.490  16.375  0.7875 -1.6330  0.6478
  924MPD2    N113583   0.346   1.162  16.622  0.2717  1.0665  0.2568
  924MPD2    H713584   0.333   1.107  16.706 -0.8671  0.8608 -0.0514
  925MPD2     C13585   3.890   3.553  14.958  0.0378 -0.7031 -0.0634
  925MPD2    C113586   3.821   3.663  14.917  0.2909 -0.2296  0.2014
  925MPD2    C213587   3.768   3.751  15.010 -0.2396  0.2552  0.1000
  925MPD2    C313588   3.785   3.730  15.146 -0.3587  0.7847 -0.1797
  925MPD2    C413589   3.854   3.615  15.188  0.0539  0.2692  0.6525
  925MPD2    C513590   3.908   3.531  15.091  0.3925 -0.3257 -0.2066
  925MPD2     H13591   3.718   3.837  14.966  1.0686  1.6507  1.3746
  925MPD2    H113592   3.876   3.600  15.293 -1.9356  0.6697  1.1145
  925MPD2    H213593   3.931   3.480  14.889  2.2517 -0.6108  1.1797
  925MPD2    H313594   3.938   3.436  15.135 -2.8587 -0.7955  1.0423
  925MPD2     N13595   3.746   3.821  15.239  0.1071  0.2894 -0.3355
  925MPD2    H513596   3.780   3.797  15.331  1.5738  0.5996 -0.7870
  925MPD2    N113597   3.799   3.691  14.785  0.0595  0.8089 -0.9830
  925MPD2    H713598   3.731   3.762  14.763 -1.7280  0.1817  2.5248
  926MPD2     C13599   2.380   1.579  13.142 -0.3604  0.4274  0.2681
  926MPD2    C113600   2.249   1.622  13.168 -0.6788  0.1027 -0.7186
  926MPD2    C213601   2.191   1.723  13.093 -0.5878  0.4684  0.4635
  926MPD2    C313602   2.242   1.765  12.972  1.3288 -0.8937  0.6988
  926MPD2    C413603   2.357   1.707  12.930 -0.4178  0.0870  0.0305
  926MPD2    C513604   2.425   1.613  13.018 -0.6293  0.9414 -0.4516
  926MPD2     H13605   2.103   1.773  13.130 -1.5772  0.6338 -2.1003
  926MPD2    H113606   2.403   1.719  12.833  1.5401  2.4750  1.2155
  926MPD2    H213607   2.433   1.507  13.203 -1.5150  0.6021  1.4556
  926MPD2    H313608   2.518   1.566  12.988 -0.1462  2.7466 -1.8319
  926MPD2     N13609   2.185   1.868  12.892 -0.3977 -0.7781  0.0197
  926MPD2    H513610   2.241   1.896  12.812 -0.4846  0.5092  0.4213
  926MPD2    N113611   2.190   1.605  13.296  0.4272  0.5661 -0.7909
  926MPD2    H713612   2.091   1.626  13.293  0.4667  0.9964  1.0726
  927MPD2     C13613   3.360   4.472  17.417 -0.2658 -0.4450 -0.3308
  927MPD2    C113614   3.243   4.524  17.474 -0.0636 -0.0788 -0.4659
  927MPD2    C213615   3.146   4.579  17.393 -0.5521 -0.5000 -0.4469
  927MPD2    C313616   3.163   4.586  17.257  0.1058 -0.2195  0.2256
  927MPD2    C413617   3.285   4.561  17.208  0.3801 -0.1706 -0.4405
  927MPD2    C513618   3.385   4.512  17.289  0.3765 -0.1197 -0.0604
  927MPD2     H13619   3.055   4.621  17.435  1.1401  2.5933  0.0834
  927MPD2    H113620   3.317   4.570  17.105  0.8522 -0.0515 -0.2849
  927MPD2    H213621   3.443   4.432  17.474  0.3368 -0.8241 -1.4791
  927MPD2    H313622   3.484   4.503  17.247 -1.7775  0.4885 -5.3789
  927MPD2     N13623   3.059   4.640  17.173  0.2845 -0.4702 -0.1046
  927MPD2    H513624   2.968   4.642  17.217 -0.4006 -1.4313 -1.4791
  927MPD2    N113625   3.237   4.517  17.618 -0.4323  0.1349  0.2445
  927MPD2    H713626   3.311   4.479  17.675  0.0352  0.7960  0.0789
  928MPD2     C13627   0.045   2.976   0.795  0.1138  0.1796 -0.3183
  928MPD2    C113628   0.147   2.933   0.882  0.6889  0.4766  0.0156
  928MPD2    C213629   0.275   2.910   0.829 -0.9322  0.4387  0.3889
  928MPD2    C313630   0.299   2.942   0.695  0.1373 -0.6263  0.3941
  928MPD2    C413631   0.199   2.989   0.612  0.5108 -0.5376  0.4285
  928MPD2    C513632   0.072   3.001   0.667 -0.2748  0.5892 -0.7591
  928MPD2     H13633   0.363   2.890   0.888  0.4938  0.2532 -1.8028
  928MPD2    H113634   0.211   3.007   0.506 -0.3642  2.1833  0.7941
  928MPD2    H213635   4.685   2.999   0.836  0.9816 -0.4066  2.0411
  928MPD2    H313636   4.734   3.036   0.597  0.1544 -0.4086 -1.7099
  928MPD2     N13637   0.424   2.921   0.635  0.6588  0.1637  0.0896
  928MPD2    H513638   0.438   2.951   0.539 -1.2381  1.6263  0.2741
  928MPD2    N113639   0.109   2.900   1.016 -0.3123  0.7289 -0.2167
  928MPD2    H713640   0.018   2.942   1.034 -0.5984 -0.3832  0.9688
  929MPD2     C13641   0.998   2.528  10.938  1.1571  0.1823 -0.0194
  929MPD2    C113642   0.876   2.484  10.900 -0.5697 -0.3127 -0.7104
  929MPD2    C213643   0.837   2.508  10.769 -0.2676 -0.1845 -0.4182
  929MPD2    C313644   0.914   2.581  10.682  0.3379 -0.0501  0.1112
  929MPD2    C413645   1.026   2.644  10.734 -0.2305  1.4414 -0.1341
  929MPD2    C513646   1.075   2.603  10.858  0.4793 -0.3960  0.1932
  929MPD2     H13647   0.738   2.485  10.730  1.4831 -0.2582 -4.8410
  929MPD2    H113648   1.089   2.700  10.666 -0.3784  1.6284 -0.1177
  929MPD2    H213649   1.042   2.501  11.033  0.7997 -0.0878  0.0678
  929MPD2    H313650   1.175   2.624  10.895  0.7080 -0.4363 -0.4122
  929MPD2     N13651   0.878   2.604  10.546  0.2731  0.0090 -0.1282
  929MPD2    H513652   0.936   2.662  10.485  1.1606 -1.9067 -1.1252
  929MPD2    N113653   0.799   2.424  11.005 -0.0372 -0.6954  0.2223
  929MPD2    H713654   0.847   2.428  11.094  0.4190 -0.0277 -0.0539
  930MPD2     C13655   2.340   4.661  14.593  0.3584 -0.4729  0.3927
  930MPD2    C113656   2.341   0.039  14.512  0.1125  0.1534 -0.5849
  930MPD2    C213657   2.296   0.028  14.383  0.0852  0.1472 -0.3426
  930MPD2    C313658   2.243   4.647  14.335  0.5757  0.6415 -0.4092
  930MPD2    C413659   2.218   4.548  14.419 -0.2615  0.3585 -1.5730
  930MPD2    C513660   2.265   4.555  14.548 -0.1407  0.3103  0.0707
  930MPD2     H13661   2.312   0.115  14.321  2.7956  0.6043  1.0212
  930MPD2    H113662   2.179   4.450  14.393 -0.9952  0.8986 -2.4925
  930MPD2    H213663   2.370   4.654  14.697  2.1639  0.2924 -0.0600
  930MPD2    H313664   2.260   4.468  14.611 -2.6420 -0.2766 -0.9170
  930MPD2     N13665   2.176   4.645  14.209 -0.1407  0.4955  0.2988
  930MPD2    H513666   2.165   4.551  14.173  1.8528 -0.0193  0.9735
  930MPD2    N113667   2.399   0.160  14.547 -0.1806  0.7155 -0.1619
  930MPD2    H713668   2.393   0.230  14.475 -0.8117 -0.0347 -0.8436
  931MPD2     C13669   3.186   4.088   0.522  0.4627 -0.2104 -0.5219
  931MPD2    C113670   3.061   4.148   0.513  0.2175  0.0186 -0.2316
  931MPD2    C213671   2.960   4.113   0.607 -0.3491  0.3675  0.6095
  931MPD2    C313672   2.991   4.020   0.704  0.6317  0.5519 -1.2045
  931MPD2    C413673   3.119   3.965   0.708 -0.4956 -0.1219  0.0847
  931MPD2    C513674   3.216   3.994   0.617  0.2522  0.1975  0.3742
  931MPD2     H13675   2.875   4.180   0.601  0.3144  1.0383 -1.1013
  931MPD2    H113676   3.142   3.887   0.779  0.6101  0.4826  0.4016
  931MPD2    H213677   3.265   4.119   0.455  0.2378 -1.5733 -1.4196
  931MPD2    H313678   3.301   3.927   0.607 -2.1261 -2.6289 -0.9953
  931MPD2     N13679   2.891   3.959   0.787 -0.3074 -0.1253  0.0711
  931MPD2    H513680   2.934   3.881   0.837 -0.1021  0.9945  1.6470
  931MPD2    N113681   3.022   4.248   0.413 -0.4448 -0.5122 -0.0305
  931MPD2    H713682   2.929   4.285   0.428  0.4319 -0.3676  5.0933
  932MPD2     C13683   3.890   2.822  11.312  0.0150  0.0584 -0.3723
  932MPD2    C113684   4.019   2.870  11.273 -0.7922  0.0653 -0.4096
  932MPD2    C213685   4.116   2.772  11.242 -1.1689  0.4133 -0.8758
  932MPD2    C313686   4.103   2.642  11.283 -0.4657  1.1643  0.4549
  932MPD2    C413687   3.988   2.608  11.341  0.3259 -0.5558 -0.1327
  932MPD2    C513688   3.879   2.689  11.344  0.3238 -0.6171  0.3587
  932MPD2     H13689   4.208   2.809  11.200 -1.0872  1.5572  0.3049
  932MPD2    H113690   3.961   2.511  11.381  0.6175 -1.6976 -2.6897
  932MPD2    H213691   3.799   2.881  11.316 -0.3479 -0.5118 -0.2797
  932MPD2    H313692   3.786   2.648  11.381  0.4952 -1.7774 -0.4848
  932MPD2     N13693   4.203   2.543  11.286  0.3528  0.2779 -0.1691
  932MPD2    H513694   4.188   2.459  11.341 -0.5121 -0.8248 -2.0676
  932MPD2    N113695   4.038   3.009  11.264  0.1871  0.4107 -0.3969
  932MPD2    H713696   4.123   3.047  11.223 -0.3943 -0.2468 -2.1867
  933MPD2     C13697   4.317   3.105   1.176 -0.2894 -0.6115 -0.4910
  933MPD2    C113698   4.387   3.105   1.296  0.6122  0.0030  0.4946
  933MPD2    C213699   4.352   3.192   1.400 -0.2628  0.5414 -0.6779
  933MPD2    C313700   4.243   3.276   1.373  0.3606  0.6889 -0.1820
  933MPD2    C413701   4.161   3.265   1.261  0.3127 -0.1108 -0.6155
  933MPD2    C513702   4.204   3.180   1.162  0.3208  1.2733 -0.1242
  933MPD2     H13703   4.406   3.199   1.493  0.2799  1.5292 -1.0731
  933MPD2    H113704   4.062   3.308   1.249  0.3586 -0.2312 -1.4240
  933MPD2    H213705   4.342   3.038   1.094  0.5862  0.1370 -0.8357
  933MPD2    H313706   4.143   3.168   1.073 -0.4936  2.2203  0.3054
  933MPD2     N13707   4.221   3.362   1.482 -0.8090  0.6596 -0.0189
  933MPD2    H513708   4.264   3.339   1.571  0.8958  0.3013 -0.9480
  933MPD2    N113709   4.506   3.030   1.302 -0.0064  0.0067 -0.5740
  933MPD2    H713710   4.529   2.980   1.217  1.0861 -1.1676  0.4177
  934MPD2     C13711   1.645   0.928   2.104  0.2277  0.2298 -0.4642
  934MPD2    C113712   1.674   0.826   2.016 -0.2442  0.1446  0.1078
  934MPD2    C213713   1.590   0.720   2.010 -0.2375  0.0487  0.1926
  934MPD2    C313714   1.480   0.705   2.094  0.1214  0.1514 -0.4444
  934MPD2    C413715   1.450   0.816   2.172 -0.4734  0.4443  0.3189
  934MPD2    C513716   1.530   0.928   2.174  0.6428 -0.3957 -0.6066
  934MPD2     H13717   1.614   0.642   1.940 -1.8204 -1.3087  1.1579
  934MPD2    H113718   1.362   0.818   2.235  0.7415  3.4076  1.9860
  934MPD2    H213719   1.703   1.020   2.107 -3.3287  2.5218 -1.7593
  934MPD2    H313720   1.491   1.014   2.228  2.6486  0.4996 -0.5841
  934MPD2     N13721   1.388   0.595   2.087 -0.1785  0.3986 -0.1875
  934MPD2    H513722   1.306   0.603   2.146 -1.0810  1.7996 -1.6459
  934MPD2    N113723   1.785   0.820   1.935 -0.6169  0.1512  0.0031
  934MPD2    H713724   1.790   0.747   1.865  0.1339  0.0539  0.1596
  935MPD2     C13725   1.169   4.295   2.197  0.3745  0.1228 -0.1529
  935MPD2    C113726   1.229   4.339   2.082  0.0249 -0.5114 -0.3628
  935MPD2    C213727   1.223   4.478   2.050  0.2044 -0.0408  0.2747
  935MPD2    C313728   1.166   4.564   2.139 -0.2281 -0.0855 -0.5207
  935MPD2    C413729   1.105   4.516   2.252  0.4509 -0.7654 -0.2437
  935MPD2    C513730   1.101   4.379   2.277  0.3782 -0.2370  0.7355
  935MPD2     H13731   1.280   4.514   1.965 -1.4922  2.1258  0.0486
  935MPD2    H113732   1.061   4.593   2.315  1.9571 -0.1050  0.0002
  935MPD2    H213733   1.168   4.188   2.215  1.7607  0.4510  1.8551
  935MPD2    H313734   1.052   4.349   2.369  0.9766 -2.9490  0.1462
  935MPD2     N13735   1.173   4.703   2.123 -0.0700  0.0585 -0.5041
  935MPD2    H513736   1.120   0.023   2.188  2.1557 -0.3036  1.6405
  935MPD2    N113737   1.294   4.251   2.001  0.1063 -0.0964  0.3715
  935MPD2    H713738   1.318   4.289   1.910  0.8518 -1.7586 -0.1155
  936MPD2     C13739   0.088   1.819  12.234 -0.3680 -0.7461  0.9217
  936MPD2    C113740   0.168   1.753  12.330 -0.4385  0.3206  0.3809
  936MPD2    C213741   0.226   1.827  12.426  0.4134 -0.2327  0.3890
  936MPD2    C313742   0.206   1.964  12.435  0.5024  0.5422 -0.4503
  936MPD2    C413743   0.142   2.031  12.332 -0.7626 -0.2764 -0.3406
  936MPD2    C513744   0.071   1.955  12.246  0.1533 -0.1206 -0.8572
  936MPD2     H13745   0.275   1.765  12.500 -0.1969 -0.7251  0.3783
  936MPD2    H113746   0.136   2.139  12.328 -2.6440 -0.3295  1.1149
  936MPD2    H213747   0.022   1.770  12.163 -3.4795  3.3970  0.9468
  936MPD2    H313748   0.013   2.019  12.181  1.5271  0.0604 -1.9139
  936MPD2     N13749   0.278   2.030  12.531  0.0646 -0.2372 -0.4258
  936MPD2    H513750   0.343   1.974  12.586 -0.2270  0.2284  0.3854
  936MPD2    N113751   0.197   1.612  12.314  0.4965  0.0387  0.6945
  936MPD2    H713752   0.149   1.562  12.240  1.9148  0.5138 -0.5539
  937MPD2     C13753   2.875   2.846  11.514  0.2954 -0.1688  0.0817
  937MPD2    C113754   2.906   2.974  11.528  0.1500  0.1005 -0.1813
  937MPD2    C213755   3.027   3.018  11.469  0.5416  0.0933 -0.5786
  937MPD2    C313756   3.092   2.940  11.380  0.4808 -0.1236  0.0984
  937MPD2    C413757   3.068   2.803  11.370  0.5237  0.1517 -0.1582
  937MPD2    C513758   2.954   2.759  11.442  0.0580 -0.8723  0.4134
  937MPD2     H13759   3.061   3.119  11.486  1.0242 -0.3466  1.0731
  937MPD2    H113760   3.131   2.731  11.320  3.0991  2.5156 -0.2938
  937MPD2    H213761   2.784   2.810  11.560  0.0709 -0.0949 -0.3046
  937MPD2    H313762   2.932   2.652  11.440 -1.9110 -0.4514 -0.7939
  937MPD2     N13763   3.211   2.999  11.312  0.2420 -0.0419 -0.7542
  937MPD2    H513764   3.243   3.085  11.355 -1.8527  1.0588 -1.3830
  937MPD2    N113765   2.851   3.070  11.611 -0.1767 -0.3746 -0.4854
  937MPD2    H713766   2.904   3.154  11.633 -2.3030  0.7269  0.4880
  938MPD2     C13767   0.780   4.230   1.069  0.0575  0.1614 -0.4111
  938MPD2    C113768   0.681   4.307   1.108  0.5784 -0.7337 -0.6328
  938MPD2    C213769   0.581   4.267   1.198  0.2062 -0.8216 -0.3852
  938MPD2    C313770   0.589   4.143   1.254 -0.3186 -0.2292  0.5268
  938MPD2    C413771   0.685   4.053   1.207 -0.3858  0.6637  0.6113
  938MPD2    C513772   0.776   4.101   1.118 -0.6251  0.2004 -0.5767
  938MPD2     H13773   0.502   4.339   1.217  0.9668 -0.4597  1.4056
  938MPD2    H113774   0.700   3.950   1.237  2.0571  0.7880 -0.1251
  938MPD2    H213775   0.867   4.261   1.011  0.4264  1.3827  0.8168
  938MPD2    H313776   0.852   4.031   1.085  1.2100  1.9455 -0.0519
  938MPD2     N13777   0.505   4.089   1.350  0.4569  0.4093 -0.1433
  938MPD2    H513778   0.526   3.994   1.379  0.0109 -0.0208 -1.2502
  938MPD2    N113779   0.686   4.445   1.071  0.1046  0.1886 -0.1396
  938MPD2    H713780   0.608   4.502   1.103 -0.3892 -0.5934  0.0634
  939MPD2     C13781   1.444   1.282   0.608 -0.1790 -0.2266 -0.0911
  939MPD2    C113782   1.479   1.182   0.700 -0.2078  0.3328 -0.1636
  939MPD2    C213783   1.562   1.078   0.671  0.1042 -1.1710  0.0615
  939MPD2    C313784   1.600   1.063   0.540  0.5014 -1.1559 -0.2650
  939MPD2    C413785   1.557   1.155   0.444  0.0305 -0.6103 -0.1033
  939MPD2    C513786   1.484   1.265   0.478  0.4364 -0.0235 -0.1292
  939MPD2     H13787   1.591   1.006   0.747  2.0339  0.0848  0.5288
  939MPD2    H113788   1.588   1.152   0.340  1.8865 -1.6396  0.4808
  939MPD2    H213789   1.381   1.364   0.640  0.4042  0.0393  0.3821
  939MPD2    H313790   1.446   1.334   0.403 -0.9624  1.9468  2.3798
  939MPD2     N13791   1.679   0.949   0.510  0.4183  0.4749 -0.0094
  939MPD2    H513792   1.723   0.902   0.589  0.0155  0.9581  0.5035
  939MPD2    N113793   1.436   1.199   0.825 -0.1043 -0.2014  0.3754
  939MPD2    H713794   1.393   1.285   0.856  3.3757  1.3688  0.9212
  940MPD2     C13795   1.074   2.202  13.244 -0.2260  0.2344  0.0384
  940MPD2    C113796   0.979   2.111  13.246  0.4321  0.1920 -0.0670
  940MPD2    C213797   0.975   2.023  13.141 -0.0711  0.0293  0.7962
  940MPD2    C313798   1.066   2.028  13.037  0.2070  0.2541  0.3742
  940MPD2    C413799   1.168   2.121  13.036  0.2686 -0.4772  0.6287
  940MPD2    C513800   1.165   2.206  13.143 -0.6808 -0.0408 -0.1545
  940MPD2     H13801   0.894   1.951  13.140  0.3272 -0.4383  1.9839
  940MPD2    H113802   1.247   2.113  12.963  0.1680  1.9034  0.2867
  940MPD2    H213803   1.091   2.282  13.315  2.5403 -0.1864 -0.1313
  940MPD2    H313804   1.249   2.274  13.140 -0.0814 -0.8099 -0.8142
  940MPD2     N13805   1.074   1.917  12.954 -0.2005  0.0677 -0.1162
  940MPD2    H513806   1.166   1.896  12.916  1.0537 -0.6754  3.3191
  940MPD2    N113807   0.892   2.103  13.358 -1.0680 -0.5237 -0.1305
  940MPD2    H713808   0.884   2.189  13.411  0.7541 -0.8918  0.7602
  941MPD2     C13809   4.253   1.384   9.613 -0.1535 -0.5456 -0.2237
  941MPD2    C113810   4.216   1.349   9.742 -1.0092  0.3091 -0.1609
  941MPD2    C213811   4.079   1.336   9.766 -0.0332 -1.1688  0.2118
  941MPD2    C313812   3.982   1.347   9.667 -0.5434  0.0123  0.2359
  941MPD2    C413813   4.024   1.395   9.551 -0.1627  0.1823 -0.1619
  941MPD2    C513814   4.156   1.405   9.523  0.0234  0.4451 -0.5035
  941MPD2     H13815   4.049   1.301   9.864  1.1662 -1.7036  0.3815
  941MPD2    H113816   3.952   1.402   9.470  0.3864  1.1148 -0.5672
  941MPD2    H213817   4.355   1.383   9.576 -0.2261 -0.8029 -0.4186
  941MPD2    H313818   4.177   1.421   9.418 -1.8097  3.5573 -0.3592
  941MPD2     N13819   3.846   1.314   9.682  0.0757  0.0839  0.3788
  941MPD2    H513820   3.797   1.302   9.594  0.0851 -2.8583  0.7698
  941MPD2    N113821   4.304   1.331   9.850 -0.2431  0.6908 -0.4379
  941MPD2    H713822   4.275   1.305   9.944 -1.3141  0.8887 -0.7187
  942MPD2     C13823   0.319   2.996   9.419 -1.1180  0.1396 -0.2339
  942MPD2    C113824   0.429   2.999   9.334  0.1175 -0.1559  0.7418
  942MPD2    C213825   0.533   2.905   9.358  0.2330  0.0421 -0.4924
  942MPD2    C313826   0.519   2.807   9.457 -0.0436 -0.0579 -0.3649
  942MPD2    C413827   0.406   2.803   9.537  0.1564 -0.0852  0.0246
  942MPD2    C513828   0.308   2.901   9.513  0.0751  0.7823  0.7228
  942MPD2     H13829   0.622   2.910   9.296 -0.1981 -0.1175 -1.1286
  942MPD2    H113830   0.387   2.741   9.624 -0.2771  0.5714  0.3938
  942MPD2    H213831   0.231   3.059   9.409  0.1282  1.9327  0.1228
  942MPD2    H313832   0.221   2.898   9.578  1.3467 -0.0424  2.3739
  942MPD2     N13833   0.614   2.704   9.488  0.0993  0.6429 -0.7125
  942MPD2    H513834   0.605   2.647   9.572 -1.1689  0.9402 -0.6539
  942MPD2    N113835   0.443   3.094   9.226  0.1812 -0.2496  0.0279
  942MPD2    H713836   0.515   3.062   9.162 -1.5298 -0.8075 -1.6152
  943MPD2     C13837   3.551   0.754  10.324  0.5318  0.0347 -0.5639
  943MPD2    C113838   3.428   0.716  10.369 -0.1734  0.4575  0.0547
  943MPD2    C213839   3.368   0.791  10.476  0.0100  0.1878  0.5047
  943MPD2    C313840   3.433   0.907  10.520  0.3085  0.5118 -0.8474
  943MPD2    C413841   3.558   0.942  10.461 -0.2462 -0.4362  0.4597
  943MPD2    C513842   3.616   0.871  10.360 -0.0427 -0.3607 -0.0367
  943MPD2     H13843   3.272   0.767  10.519  0.0596  0.2054  0.6248
  943MPD2    H113844   3.612   1.024  10.505 -0.5695 -1.1724  2.2416
  943MPD2    H213845   3.605   0.695  10.250 -0.7503 -2.2804  0.3537
  943MPD2    H313846   3.705   0.897  10.305  1.1963 -2.2296  1.1074
  943MPD2     N13847   3.387   0.981  10.633  0.2446 -0.2719 -0.2819
  943MPD2    H513848   3.442   1.062  10.660 -0.5232  0.9875 -2.5301
  943MPD2    N113849   3.367   0.606  10.306  0.2380 -1.1278 -0.2942
  943MPD2    H713850   3.417   0.555  10.234  1.6209  0.9220 -0.7747
  944MPD2     C13851   2.850   0.062  11.176  0.2398  0.2082 -0.3103
  944MPD2    C113852   2.796   0.003  11.290 -0.3800 -0.7889 -0.7923
  944MPD2    C213853   2.720   0.077  11.382  0.4307  0.7033 -0.1497
  944MPD2    C313854   2.701   0.215  11.360  0.1172  0.0145  0.0505
  944MPD2    C413855   2.769   0.273  11.251 -1.1200 -0.0557 -0.5763
  944MPD2    C513856   2.849   0.204  11.161 -0.6087  0.5955  0.5822
  944MPD2     H13857   2.673   0.032  11.469  0.0009 -0.9776 -1.2697
  944MPD2    H113858   2.765   0.381  11.240  0.8423  0.1603  0.7031
  944MPD2    H213859   2.896   0.008  11.095  0.4621 -3.0468  1.9755
  944MPD2    H313860   2.908   0.252  11.084 -2.5488 -0.1875 -1.3887
  944MPD2     N13861   2.623   0.295  11.448 -0.2575 -0.4041 -0.0935
  944MPD2    H513862   2.584   0.243  11.526 -1.2986  0.0273 -0.3322
  944MPD2    N113863   2.811   4.599  11.295 -0.4153 -0.2229 -0.6963
  944MPD2    H713864   2.849   4.551  11.214  0.2725 -2.2727  0.8469
    1TMC1    C113865   1.739   0.645  14.681 -0.2160  0.6427 -0.4127
    1TMC1    C213866   1.839   0.588  14.765  0.0241  0.0126  0.1265
    1TMC1    C313867   1.887   0.472  14.714 -0.1015  0.4265 -0.3300
    1TMC1    C413868   1.691   0.595  14.563  0.8430 -0.0500 -0.3392
    1TMC1    C513869   1.756   0.483  14.523 -0.4985 -0.1255 -0.6016
    1TMC1    C613870   1.855   0.418  14.593 -0.8525 -0.2669 -0.0012
    1TMC1     C13871   1.678   0.769  14.725 -0.2732  0.6001  0.6287
    1TMC1     O13872   1.565   0.793  14.681  0.0592 -0.5996  0.8372
    1TMC1     H13873   1.872   0.620  14.864  0.1772 -0.7630  0.3281
    1TMC1    H113874   1.628   0.648  14.492  3.8628  0.2997 -2.7568
    1TMC1    H213875   1.900   0.325  14.560 -1.1319 -0.4111  0.0224
    1TMC1    C713876   1.711   0.430  14.402  2.1762 -0.0938  0.1598
    1TMC1    C813877   1.994   0.401  14.790 -0.3016 -0.0715 -0.2236
    1TMC1    O113878   1.604   0.459  14.349  0.0727  0.0473  0.0302
    1TMC1    O213879   2.093   0.347  14.740 -0.4652 -0.2085 -0.2747
    1TMC1    O313880   1.820   0.409  14.327 -0.4550  0.0724 -0.0397
    1TMC1    H313881   1.900   0.433  14.379 -0.5517  1.7225 -0.6802
    1TMC1    O513882   1.976   0.418  14.924  0.2307 -0.2830 -0.3214
    1TMC1    H513883   1.883   0.441  14.947  1.0279  0.8245  1.7987
    2MPD2     C13884   1.625   1.202  14.984 -0.4467 -0.0859 -0.4996
    2MPD2    C113885   1.572   1.165  14.860  0.4347 -0.1732  0.1138
    2MPD2    C213886   1.609   1.042  14.807  0.0132  0.4331 -0.3659
    2MPD2    C313887   1.705   0.962  14.871 -0.1676 -0.4594  0.0155
    2MPD2    C413888   1.758   1.007  14.989  0.3027 -0.3338 -0.1704
    2MPD2    C513889   1.721   1.123  15.045 -0.1677  0.2685 -0.1598
    2MPD2     H13890   1.577   1.016  14.707 -0.5877 -1.0190  0.1970
    2MPD2    H113891   1.839   0.944  15.024  0.3255 -0.0086  0.3735
    2MPD2    H213892   1.590   1.293  15.030 -0.2278 -0.5199  0.5354
    2MPD2    H313893   1.770   1.155  15.137  0.9033  3.4716 -1.8520
    2MPD2     N13894   1.754   0.841  14.814  0.2210  0.4041 -0.9983
    2MPD2    H513895   1.836   0.800  14.857  0.5932  0.4960 -1.6227
    2MPD2    N113896   1.479   1.253  14.800 -0.3564 -0.2177  0.0515
    2MPD2    H713897   1.470   1.340  14.852  1.1571 -0.2233  0.3145
    3TMC2    C113898   1.344   1.369  14.632  0.3735 -1.0077  0.2712
    3TMC2    C213899   1.330   1.475  14.720  0.4691  0.2133 -0.2530
    3TMC2    C313900   1.295   1.595  14.676 -0.0228  0.4412  0.0607
    3TMC2    C413901   1.321   1.384  14.501  0.5739  0.2115 -0.1086
    3TMC2    C513902   1.298   1.516  14.457  0.0385  0.4375 -0.2631
    3TMC2    C613903   1.291   1.628  14.543 -0.0999  0.4456  1.0159
    3TMC2     C13904   1.420   1.248  14.678  0.1581 -0.9162  0.3248
    3TMC2     O13905   1.428   1.161  14.591  0.7987 -0.4224 -0.5557
    3TMC2     H13906   1.342   1.459  14.826 -0.2083  0.5611 -0.1229
    3TMC2    H113907   1.326   1.304  14.428 -0.7015  1.4384 -1.5441
    3TMC2    H213908   1.269   1.730  14.511 -1.9686 -1.0593 -2.5127
    3TMC2    C713909   1.273   1.523  14.316  0.0941 -0.2398  0.5006
    3TMC2    C813910   1.276   1.709  14.771 -0.7148  0.3456 -0.1088
    3TMC2    O113911   1.222   1.424  14.264 -0.2743  0.0109  0.9187
    3TMC2    O213912   1.238   1.685  14.887 -0.0341  0.0793 -0.1702
    3TMC2    O513913   1.369   1.795  14.738  0.0652  0.5816 -0.1539
    3TMC2    H513914   1.430   1.768  14.666 -1.1131  0.9354 -1.2972
    4TMC2    C113915   1.354   2.375  13.883  0.3679 -0.1862 -0.8202
    4TMC2    C213916   1.474   2.432  13.890 -0.2110  1.1330  0.2424
    4TMC2    C313917   1.578   2.349  13.894 -0.3096  0.1644 -0.0231
    4TMC2    C413918   1.336   2.239  13.862 -0.5964  0.1464  0.6166
    4TMC2    C513919   1.448   2.154  13.848 -0.4527  0.2239 -0.3292
    4TMC2    C613920   1.570   2.212  13.876  0.1159  0.1133  0.2787
    4TMC2     C13921   1.243   2.453  13.927  0.2960 -0.1950  0.2431
    4TMC2     O13922   1.262   2.552  14.001  0.5046  0.3983  0.1654
    4TMC2     H13923   1.479   2.537  13.917 -0.0745  1.4303 -0.9486
    4TMC2    H113924   1.237   2.194  13.854 -1.7465  2.3030  2.7583
    4TMC2    H213925   1.656   2.147  13.878  0.1829  0.2222  0.8064
    4TMC2    C713926   1.437   2.021  13.902  0.0952  0.6478  0.1115
    4TMC2    C813927   1.714   2.397  13.918 -0.8852  0.3175  0.1060
    4TMC2    O113928   1.536   1.978  13.963  0.4269  0.3561 -0.3453
    4TMC2    O213929   1.808   2.329  13.958  0.3353 -0.1061 -0.1419
    4TMC2    O513930   1.737   2.518  13.859 -0.2054  0.4254  0.6430
    4TMC2    H513931   1.670   2.539  13.791  0.7613 -0.5389 -0.6069
    5MPD2     C13932   0.750   2.571  13.858  0.0962 -0.5557  0.0521
    5MPD2    C113933   0.799   2.500  13.747 -0.4656  0.5700 -0.0404
    5MPD2    C213934   0.925   2.449  13.750  0.3908  0.4551 -0.0364
    5MPD2    C313935   1.001   2.484  13.854  0.7468 -0.1473  0.5625
    5MPD2    C413936   0.959   2.556  13.963  0.0548 -0.8739  1.3763
    5MPD2    C513937   0.837   2.603  13.956  0.0757  1.2906 -0.0644
    5MPD2     H13938   0.969   2.405  13.662 -1.5836 -0.5967 -0.4818
    5MPD2    H113939   1.025   2.587  14.044 -0.5964 -0.3524  1.7034
    5MPD2    H213940   0.650   2.611  13.855  0.8507  1.3086  0.2578
    5MPD2    H313941   0.798   2.658  14.041  0.6373  2.2180 -0.3962
    5MPD2     N13942   1.132   2.430  13.847 -0.5910  0.2502  0.0211
    5MPD2    H513943   1.152   2.363  13.773  0.7512  2.3744 -1.5463
    5MPD2    N113944   0.709   2.477  13.637  0.3329 -0.4764 -0.0908
    5MPD2    H713945   0.611   2.504  13.644 -0.0067 -1.8373  0.6473
    6MPD1     C13946   4.200   3.462  12.688 -0.7893  0.6262  0.3075
    6MPD1    C113947   4.306   3.490  12.776  0.6313  0.3891 -0.2394
    6MPD1    C213948   4.377   3.383  12.825  0.4092  0.1605 -0.5538
    6MPD1    C313949   4.366   3.251  12.783 -0.2693  0.4923 -0.1953
    6MPD1    C413950   4.265   3.230  12.695  0.5427 -0.1799 -0.0773
    6MPD1    C513951   4.176   3.331  12.660  0.2703  0.3883 -0.2224
    6MPD1     H13952   4.452   3.416  12.897 -0.4007 -0.3285  0.5078
    6MPD1    H113953   4.238   3.128  12.669 -0.8700 -0.2356  1.6144
    6MPD1    H213954   4.129   3.533  12.648  1.5305  2.2861 -0.8620
    6MPD1    H313955   4.085   3.302  12.609  0.9733 -1.1954 -0.5844
    6MPD1     N13956   4.440   3.140  12.821  0.1504  0.1585 -0.3417
    6MPD1    H513957   4.442   3.063  12.755 -1.6632  0.0922 -0.2946
    6MPD1    N113958   4.306   3.616  12.843 -0.2948  0.0842 -0.0945
    6MPD1    H613959   4.260   3.688  12.789  0.8876  0.1303 -1.0376
    6MPD1    H713960   4.398   3.646  12.877 -0.5923  1.3107 -0.3889
    7MPD2     C13961   4.691   2.712  13.532  0.2486 -0.0681 -0.4591
    7MPD2    C113962   0.000   2.668  13.411  0.0367 -0.3576 -0.4081
    7MPD2    C213963   0.110   2.577  13.403  0.6618  0.5215  0.4275
    7MPD2    C313964   0.159   2.520  13.520 -0.7089  0.0621 -0.4992
    7MPD2    C413965   0.104   2.564  13.645 -0.2434 -0.3398  0.6598
    7MPD2    C513966   0.018   2.672  13.650  0.0765  0.7437  0.8584
    7MPD2     H13967   0.155   2.554  13.308  2.5920 -1.9501  1.9561
    7MPD2    H113968   0.127   2.511  13.736  0.5964  0.8836  1.1542
    7MPD2    H213969   4.601   2.772  13.544  0.8722  0.7638  0.0659
    7MPD2    H313970   4.710   2.702  13.743  0.1025  0.9484  0.8047
    7MPD2     N13971   0.263   2.418  13.521 -0.0447 -0.5748 -0.5241
    7MPD2    H513972   0.296   2.390  13.612 -0.4430  0.7179  0.0250
    7MPD2    N113973   4.672   2.712  13.290 -0.5841 -0.1667 -0.2101
    7MPD2    H713974   4.713   2.684  13.201  0.2845 -2.3309  0.8677
    8TMC3    C113975   0.424   2.279  13.412 -0.0644 -0.5776 -1.4492
    8TMC3    C213976   0.516   2.344  13.487 -0.6145  0.1767 -0.4356
    8TMC3    C313977   0.638   2.374  13.433 -0.0858  0.1270  0.2494
    8TMC3    C413978   0.454   2.246  13.282  0.1711  0.0475 -0.3630
    8TMC3    C513979   0.572   2.275  13.230 -0.2560 -0.4695 -0.0441
    8TMC3    C613980   0.665   2.343  13.299 -0.8534  0.7096  0.1066
    8TMC3     C13981   0.308   2.363  13.403  0.3050 -0.1474  0.5247
    8TMC3     O13982   0.267   2.366  13.290 -0.3945  0.6786 -0.2041
    8TMC3     H13983   0.494   2.358  13.593 -0.1328  1.3462 -0.4926
    8TMC3    H113984   0.379   2.182  13.236  0.0550 -0.4162  0.4675
    8TMC3    H213985   0.758   2.362  13.247 -0.5953  1.6054  0.8974
    8TMC3    C713986   0.563   2.313  13.091 -0.2248  0.3590  0.5065
    8TMC3    C813987   0.751   2.413  13.517 -0.0726 -0.2643 -0.5691
    8TMC3    O113988   0.664   2.332  13.027 -0.5338  0.6686  0.3422
    8TMC3    O213989   0.861   2.403  13.467 -0.1138  0.5007  0.0793
    9TMC3    C113990   4.551   3.005  12.974  0.6797 -0.3185  0.2819
    9TMC3    C213991   4.591   2.921  12.873  0.1047  0.4812 -0.0410
    9TMC3    C313992   4.635   2.796  12.909 -0.2857  0.0626  0.7622
    9TMC3    C413993   4.533   2.969  13.105 -0.3433 -0.4055  0.1597
    9TMC3    C513994   4.561   2.840  13.138  0.5313 -0.3048 -0.2568
    9TMC3    C613995   4.606   2.750  13.039 -0.2471  0.3865 -0.0866
    9TMC3     C13996   4.488   3.133  12.945  0.1877  0.5174 -0.4507
    9TMC3     O13997   4.465   3.216  13.034 -0.0967 -0.2883 -0.4449
    9TMC3     H13998   4.621   2.962  12.777  0.3268  0.1579 -0.1113
    9TMC3    H113999   4.509   3.039  13.185 -0.1370  1.1906 -1.1754
    9TMC3    H214000   4.628   2.647  13.064 -1.3771  0.0963 -0.2785
    9TMC3    C714001   4.572   2.801  13.274  0.9053 -0.2008  0.2709
    9TMC3    C814002   0.011   2.744  12.835  0.4596  0.3066 -0.3739
    9TMC3    O114003   4.509   2.875  13.353 -0.3157  0.0874  0.2574
    9TMC3    O214004   0.071   2.822  12.760  0.1767  0.4812  0.4126
   10MPD2     C14005   0.455   2.475  12.856 -0.0517 -0.1927  0.2287
   10MPD2    C114006   0.386   2.452  12.974 -0.1195  0.1368 -0.4367
   10MPD2    C214007   0.262   2.509  12.984 -0.4735  0.0477  0.0325
   10MPD2    C314008   0.202   2.581  12.878 -0.0321  0.1553  0.1311
   10MPD2    C414009   0.272   2.598  12.764 -0.6044 -0.2926  0.1011
   10MPD2    C514010   0.399   2.557  12.757 -0.2910 -0.5628  0.5564
   10MPD2     H14011   0.215   2.507  13.082 -4.5296 -0.2983 -1.9550
   10MPD2    H114012   0.228   2.649  12.680  0.7838  2.7104  1.1869
   10MPD2    H214013   0.556   2.436  12.844  0.3628  1.3438 -1.4140
   10MPD2    H314014   0.457   2.590  12.672 -1.4543 -1.9016 -0.7510
   10MPD2     N14015   0.072   2.636  12.903 -0.6696  0.6041 -0.1345
   10MPD2    H514016   0.020   2.591  12.977  2.3948 -2.4688  0.1280
   10MPD2    N114017   0.438   2.372  13.077 -1.0997  0.4103 -0.5942
   10MPD2    H714018   0.374   2.352  13.153 -1.0891  0.4680 -0.5705
   11MPD2     C14019   1.197   1.592  14.025  0.3331  0.6275 -0.5183
   11MPD2    C114020   1.256   1.680  14.110 -0.5446  0.4687  0.0882
   11MPD2    C214021   1.291   1.804  14.062 -0.1385 -0.1287 -0.6233
   11MPD2    C314022   1.275   1.838  13.924 -0.1739  0.0300  0.4961
   11MPD2    C414023   1.208   1.746  13.843 -0.3558 -1.0156 -0.1741
   11MPD2    C514024   1.170   1.631  13.897  0.6164  0.3344  0.4337
   11MPD2     H14025   1.346   1.871  14.127  1.2606 -1.8493 -0.0264
   11MPD2    H114026   1.195   1.754  13.736 -1.4555 -0.7860 -0.0223
   11MPD2    H214027   1.159   1.493  14.050  0.7683  0.4793 -0.4454
   11MPD2    H314028   1.123   1.558  13.833 -2.7464  3.7225 -0.9467
   11MPD2     N14029   1.323   1.955  13.864  0.0393  0.0677 -0.2528
   11MPD2    H514030   1.271   1.985  13.782  0.6506  0.5252 -0.4787
   11MPD2    N114031   1.281   1.647  14.249 -0.2604  0.7627 -0.9217
   11MPD2    H714032   1.318   1.722  14.308  1.4329  1.9606 -3.5051
    1MPD1     C14033   3.264   3.306  17.491  0.1976  0.2296 -0.5258
    1MPD1    C114034   3.390   3.331  17.543  0.4334  0.0498 -0.5943
    1MPD1    C214035   3.503   3.341  17.461  0.3526  0.6183 -1.1481
    1MPD1    C314036   3.488   3.314  17.327 -0.1265 -0.4991  0.0699
    1MPD1    C414037   3.365   3.282  17.276  0.5069 -0.0237 -0.1464
    1MPD1    C514038   3.255   3.282  17.358  0.4305  0.3527  0.2305
    1MPD1     H14039   3.602   3.359  17.502  0.5757 -0.9396 -1.0188
    1MPD1    H114040   3.345   3.269  17.170 -0.4257  0.7159 -0.0633
    1MPD1    H214041   3.177   3.306  17.555  0.0029 -1.0220 -0.7861
    1MPD1    H314042   3.156   3.266  17.317  0.0730  2.1446  0.3816
    1MPD1     N14043   3.591   3.314  17.235  0.3037  0.2162  1.0536
    1MPD1    H514044   3.565   3.292  17.139 -1.7600 -1.2917  1.9816
    1MPD1    N114045   3.393   3.379  17.674 -0.7905  0.1511  0.1977
    1MPD1    H614046   3.481   3.379  17.724 -0.7040  0.0157  0.0459
    1MPD1    H714047   3.331   3.332  17.741  0.6820 -2.1538 -0.0574
    2MPD1     C14048   4.619   3.312  17.277 -0.5355  0.2249 -0.0674
    2MPD1    C114049   4.521   3.345  17.371  0.1198  0.0509  0.3956
    2MPD1    C214050   4.398   3.307  17.338 -0.9077 -0.0852 -0.6965
    2MPD1    C314051   4.359   3.263  17.218 -0.5956  0.0246 -0.6385
    2MPD1    C414052   4.456   3.234  17.122 -0.0972  0.0372 -0.9177
    2MPD1    C514053   4.587   3.252  17.159  0.2053  0.0504  0.0554
    2MPD1     H14054   4.317   3.321  17.409  0.4776 -1.7915  1.1958
    2MPD1    H114055   4.432   3.197  17.023  1.6674  0.4104 -1.4904
    2MPD1    H214056   4.725   3.332  17.282 -0.6051  0.7592 -0.7826
    2MPD1    H314057   4.663   3.220  17.089 -1.9178 -0.6929 -1.8794
    2MPD1     N14058   4.220   3.269  17.185 -0.0562  0.2770 -0.0294
    2MPD1    H514059   4.157   3.288  17.263 -1.4936 -0.1915 -1.0824
    2MPD1    N114060   4.559   3.374  17.504  0.0177  0.1059 -0.5219
    2MPD1    H614061   4.488   3.407  17.570 -1.2227 -3.5354 -0.0714
    2MPD1    H714062   4.646   3.426  17.513 -0.1999  0.2390  0.8764
    3TMC3    C114063   4.018   3.253  17.057  0.1161  0.7632  0.5655
    3TMC3    C214064   3.963   3.236  16.937  0.2210 -0.2010  0.0713
    3TMC3    C314065   3.829   3.257  16.922 -0.5704  0.5024  0.5394
    3TMC3    C414066   3.944   3.298  17.169 -0.3989  0.5057  0.3762
    3TMC3    C514067   3.810   3.322  17.151 -0.0963 -0.2904  0.1049
    3TMC3    C614068   3.757   3.308  17.021  0.3496 -0.9978  0.0353
    3TMC3     C14069   4.166   3.239  17.065 -0.0298  0.5107  0.7652
    3TMC3     O14070   4.222   3.203  16.963  0.0596  0.2852  0.2313
    3TMC3     H14071   4.022   3.198  16.854  0.5629  1.0925 -0.2840
    3TMC3    H114072   3.981   3.296  17.271 -0.7186 -1.6429  0.4556
    3TMC3    H214073   3.656   3.341  17.000  0.6187 -0.1108  0.1243
    3TMC3    C714074   3.724   3.341  17.262 -0.7104  0.6047  0.4250
    3TMC3    C814075   3.781   3.290  16.787  0.5026 -0.7002  0.0200
    3TMC3    O114076   3.779   3.384  17.366  0.6934  0.8336  0.5885
    3TMC3    O214077   3.663   3.315  16.778 -0.2420 -0.8163 -0.2177
    4MPD1     C14078   3.879   3.334  16.299 -0.1058  0.8828 -0.4967
    4MPD1    C114079   3.982   3.398  16.366  0.2632  0.9586  0.0020
    4MPD1    C214080   3.972   3.383  16.503  0.8921  0.4129  0.3992
    4MPD1    C314081   3.874   3.318  16.568  0.2627 -0.6598 -0.5873
    4MPD1    C414082   3.772   3.255  16.493 -0.1243  0.7846  0.2280
    4MPD1    C514083   3.767   3.273  16.360  0.0596  0.7294  0.0649
    4MPD1     H14084   4.054   3.425  16.560  1.4004  0.5275 -0.4108
    4MPD1    H114085   3.690   3.199  16.537 -0.3022  1.3432  0.6134
    4MPD1    H214086   3.867   3.343  16.191 -0.9011 -2.0279 -0.6480
    4MPD1    H314087   3.679   3.239  16.305 -0.6011  2.4382  0.0713
    4MPD1     N14088   3.885   3.314  16.705 -0.1088 -0.0820  0.2492
    4MPD1    H514089   3.964   3.355  16.754  0.5830  0.2119 -1.1210
    4MPD1    N114090   4.085   3.479  16.306 -0.4195 -0.4300 -0.3711
    4MPD1    H614091   4.159   3.492  16.374 -0.0066 -0.2602 -0.8538
    4MPD1    H714092   4.125   3.429  16.227  0.3244  0.5719 -0.6153
    1TCq1    O114093   0.649   2.889  11.538 -0.0510  0.2487 -0.3769
    1TCq1    C114094   0.582   2.884  11.652 -0.7904 -0.4185 -0.1196
    1TCq1    O214095   0.620   2.913  11.763 -0.3494 -0.2068 -0.4306
    1TCq1    C214096   0.442   2.877  11.612  1.0144 -0.2102  0.0459
    1TCq1    C314097   0.414   2.793  11.508 -0.9207 -0.9312 -0.1224
    1TCq1    C414098   0.285   2.759  11.480 -0.2404 -0.4766  0.2464
    1TCq1    C514099   0.187   2.812  11.562  0.1810  0.4126  0.0140
    1TCq1    C614100   0.212   2.908  11.661  0.3790 -0.0863  0.5539
    1TCq1    C714101   0.343   2.936  11.685  0.8856 -0.6898  0.1088
    1TCq1    C814102   0.113   2.968  11.736 -0.2680  0.5996  0.4649
    1TCq1    O414103   0.145   2.991  11.853 -0.3332  0.9386 -0.2813
    1TCq1    C914104   0.254   2.638  11.408 -1.0585  0.3442  0.1074
    1TCq1    O514105   0.352   2.558  11.391  0.6634 -0.4496  0.3558
    1TCq1    O614106   0.135   2.611  11.384 -0.4114 -0.1163 -0.0446
    1TCq1    H114107   0.589   2.870  11.462  1.3154  0.9973 -1.6395
    1TCq1    H214108   0.492   2.734  11.462 -0.5550  0.2109 -0.9608
    1TCq1    H314109   0.097   2.752  11.569  0.7465 -0.4715 -0.1660
    1TCq1    H414110   0.357   3.010  11.763  0.0991  0.6801 -1.0440
    2MPD1     C14111   4.371   3.132  11.778  0.1808 -0.1506  0.1732
    2MPD1    C114112   4.385   3.077  11.655  0.5695  0.4893  0.7101
    2MPD1    C214113   4.511   3.030  11.620  0.0465 -0.6893 -0.4402
    2MPD1    C314114   4.608   3.025  11.721 -0.3616  0.7069 -0.4019
    2MPD1    C414115   4.584   3.073  11.847  0.5585 -0.5326 -0.5420
    2MPD1    C514116   4.465   3.124  11.876  0.4344 -0.4929  0.0029
    2MPD1     H14117   4.526   2.984  11.523  0.4003 -0.6440 -0.4073
    2MPD1    H114118   4.659   3.063  11.925 -0.4152 -0.2930  0.4251
    2MPD1    H214119   4.279   3.188  11.795 -1.1608 -1.3787 -3.1341
    2MPD1    H314120   4.439   3.164  11.973  2.2540  2.2145 -0.6314
    2MPD1     N14121   4.730   2.968  11.678 -0.0744  0.2287 -0.0466
    2MPD1    H514122   4.737   2.923  11.587  1.9719  0.1972  0.1194
    2MPD1    N114123   4.285   3.085  11.555 -0.2490 -0.0385  0.3185
    2MPD1    H614124   4.295   3.017  11.480  0.0416 -0.0327  0.3492
    2MPD1    H714125   4.189   3.082  11.587 -0.0580 -2.9032  0.6448
    1TMC1    C114126   0.427   4.363   1.866  0.0816  0.4470  0.6244
    1TMC1    C214127   0.325   4.463   1.856 -0.2200  0.1339  1.1725
    1TMC1    C314128   0.229   4.466   1.945  0.3386  0.6600  0.0612
    1TMC1    C414129   0.424   4.272   1.969 -0.0814  0.1902  0.4690
    1TMC1    C514130   0.328   4.292   2.066  0.2297 -0.3152  0.1262
    1TMC1    C614131   0.230   4.387   2.057  0.2457  0.1230 -0.6235
    1TMC1     C14132   0.537   4.348   1.776 -0.0027  0.6788  0.7059
    1TMC1     O14133   0.607   4.249   1.775  0.1010 -0.4463 -0.2571
    1TMC1     H14134   0.317   4.542   1.782  0.3975  0.0319  1.0007
    1TMC1    H114135   0.493   4.190   1.978 -0.1639 -0.3290 -3.4390
    1TMC1    H214136   0.168   4.409   2.143  0.2363  1.5581 -0.9992
    1TMC1    C714137   0.301   4.192   2.160  0.7151  0.1084 -0.2532
    1TMC1    C814138   0.140   4.580   1.955 -0.3293  0.3889  1.1324
    1TMC1    O114139   0.190   4.170   2.201  0.0130 -0.3293  0.0030
    1TMC1    O214140   0.176   4.697   1.933  0.0015  0.0762 -0.8450
    1TMC1    O314141   0.420   4.141   2.203 -0.5044  0.4827 -0.4576
    1TMC1    H314142   0.498   4.196   2.181 -0.7014  0.4041 -1.3217
    1TMC1    O514143   0.016   4.534   1.964 -0.3695  0.0448  0.0091
    1TMC1    H514144   0.004   4.437   1.971  1.3722 -0.1309  0.5483
    2MPD1     C14145   0.818   4.573   1.411 -0.3263 -0.3596  0.3174
    2MPD1    C114146   0.762   4.669   1.486 -0.5558 -0.3948  0.4400
    2MPD1    C214147   0.668   4.627   1.579  0.4476 -0.1077  0.0681
    2MPD1    C314148   0.647   4.495   1.604 -0.3154 -0.9084 -0.0065
    2MPD1    C414149   0.719   4.396   1.534 -0.3359  0.3375  0.8191
    2MPD1    C514150   0.801   4.438   1.430 -0.1637 -0.1507  0.8932
    2MPD1     H14151   0.619   4.700   1.643  1.7386  1.8460 -1.2076
    2MPD1    H114152   0.716   4.293   1.566 -0.0446  0.3481  0.8797
    2MPD1    H214153   0.890   4.598   1.334 -1.6241 -2.3448 -1.5664
    2MPD1    H314154   0.852   4.368   1.365 -0.0509  0.8724 -0.1295
    2MPD1     N14155   0.549   4.468   1.706  0.5024 -0.1734 -0.2039
    2MPD1    H514156   0.492   4.545   1.740  0.4303 -0.6903  0.8588
    2MPD1    N114157   0.778   0.065   1.454 -1.1253 -0.1718  0.8670
    2MPD1    H614158   0.769   0.127   1.535  3.9794  1.7843 -0.0503
    2MPD1    H714159   0.862   0.095   1.405  0.7049 -2.6573  2.5159
    1MPD1     C14160   0.987   2.205  12.068  0.5526  0.5122 -0.4293
    1MPD1    C114161   1.072   2.107  12.104 -1.0910 -0.7959 -1.0007
    1MPD1    C214162   1.199   2.135  12.147 -0.0831 -0.0077  0.5220
    1MPD1    C314163   1.251   2.260  12.143 -0.7683 -0.3331  0.2663
    1MPD1    C414164   1.173   2.364  12.083  0.4326  0.0546  0.0959
    1MPD1    C514165   1.038   2.336  12.058  0.1559  0.0082  0.3598
    1MPD1     H14166   1.266   2.066  12.199 -3.4227 -1.4814  2.8524
    1MPD1    H114167   1.206   2.467  12.084 -0.9487  0.5001 -0.4476
    1MPD1    H214168   0.883   2.186  12.047  0.5865  0.0999 -0.2289
    1MPD1    H314169   0.980   2.421  12.023 -1.4107 -1.4391 -0.5822
    1MPD1     N14170   1.383   2.280  12.191 -0.5064  0.8177  0.4848
    1MPD1    H514171   1.437   2.200  12.222  0.0203  1.9238  2.4980
    1MPD1    N114172   1.023   1.975  12.115  0.1563  0.9865 -0.1348
    1MPD1    H614173   0.953   1.944  12.048 -0.5239  2.2304 -0.0105
    1MPD1    H714174   1.098   1.905  12.113 -1.7321 -1.0024 -0.9279
    2MPD1     C14175   1.516   4.229  10.962 -0.7693 -0.1491  0.3292
    2MPD1    C114176   1.458   4.131  10.883 -0.0285  0.0013  0.6583
    2MPD1    C214177   1.530   4.012  10.868 -0.6709  0.5786  0.4167
    2MPD1    C314178   1.648   3.977  10.938  0.5078 -0.2764 -0.0561
    2MPD1    C414179   1.693   4.067  11.030  0.5266 -0.1925 -1.4321
    2MPD1    C514180   1.632   4.194  11.034  0.4518  0.0927  0.0673
    2MPD1     H14181   1.495   3.932  10.804 -0.5425 -1.0303  2.3377
    2MPD1    H114182   1.769   4.043  11.103  0.7216  1.1397 -1.1855
    2MPD1    H214183   1.466   4.325  10.971 -0.0901  0.2165  0.2143
    2MPD1    H314184   1.668   4.268  11.104 -1.0282 -1.9193  2.9688
    2MPD1     N14185   1.705   3.846  10.916 -0.0748  0.1300 -0.0562
    2MPD1    H514186   1.660   3.776  10.858  1.0796 -0.1050 -0.6577
    2MPD1    N114187   1.348   4.163  10.798  0.2080  0.6794 -0.3972
    2MPD1    H614188   1.293   4.088  10.757 -0.8264  1.2466 -0.0418
    2MPD1    H714189   1.287   4.233  10.840  0.7755 -1.1443  3.4759
    3MPD1     C14190   1.586   2.996  10.419  0.3418  0.5818  0.3802
    3MPD1    C114191   1.697   2.964  10.485 -0.5733  0.4711 -0.0773
    3MPD1    C214192   1.757   3.059  10.563  0.3320  0.9199 -0.0990
    3MPD1    C314193   1.701   3.186  10.597 -1.1229  0.0990 -0.4883
    3MPD1    C414194   1.579   3.217  10.535  0.0391 -0.5738 -0.4739
    3MPD1    C514195   1.526   3.118  10.452 -0.2937  0.4437  0.1744
    3MPD1     H14196   1.853   3.038  10.608 -0.1441 -0.0229  0.4633
    3MPD1    H114197   1.527   3.311  10.545 -1.7909 -1.6923  0.5128
    3MPD1    H214198   1.537   2.933  10.345 -0.2592  1.7928 -0.2522
    3MPD1    H314199   1.436   3.144  10.398 -0.1187  0.2948 -0.1886
    3MPD1     N14200   1.770   3.272  10.694  0.0549 -0.2183 -0.0390
    3MPD1    H514201   1.858   3.238  10.732  1.5752  0.0856 -3.2370
    3MPD1    N114202   1.731   2.828  10.476  0.1423  0.4640  0.2972
    3MPD1    H614203   1.828   2.804  10.494 -0.2207  0.5401  2.3645
    3MPD1    H714204   1.711   2.793  10.383 -4.0997  1.8947  0.6862
    4MPD2     C14205   1.929   2.874  12.335  0.4025  0.2380 -0.2885
    4MPD2    C114206   1.967   2.756  12.276  0.2787 -0.4095 -1.0495
    4MPD2    C214207   2.061   2.755  12.173  0.8698  0.8413 -0.4628
    4MPD2    C314208   2.115   2.883  12.123 -0.8432 -0.0626  0.1604
    4MPD2    C414209   2.072   2.998  12.183 -0.1194 -0.4317 -0.7915
    4MPD2    C514210   1.986   2.990  12.291 -0.1803  0.4386 -0.2946
    4MPD2     H14211   2.086   2.658  12.131  1.1486 -0.2580  2.2463
    4MPD2    H114212   2.120   3.092  12.157 -0.1771 -0.8405 -2.3541
    4MPD2    H214213   1.850   2.873  12.409 -0.7403  2.2804 -1.4750
    4MPD2    H314214   1.941   3.077  12.337  0.9370 -0.6416  2.9282
    4MPD2     N14215   2.204   2.886  12.013 -0.2309  0.3314 -0.0798
    4MPD2    H514216   2.239   2.977  11.985 -0.3322  0.7002  0.9807
    4MPD2    N114217   1.898   2.636  12.303 -0.9654  0.3386 -0.1784
    4MPD2    H714218   1.927   2.559  12.244  1.3943  1.6254 -0.6930
    5TMC3    C114219   1.739   2.479  12.366  0.1111 -0.2027  0.5579
    5TMC3    C214220   1.605   2.468  12.352 -0.5849 -0.4700  0.1528
    5TMC3    C314221   1.564   2.380  12.260  0.3269  0.6460 -0.8430
    5TMC3    C414222   1.829   2.391  12.304 -0.1790  0.5322 -0.3772
    5TMC3    C514223   1.786   2.304  12.207 -0.1203 -0.1796  0.5480
    5TMC3    C614224   1.652   2.299  12.192 -0.5906  0.0122  0.3306
    5TMC3     C14225   1.788   2.616  12.388 -0.2758  0.7207  0.3426
    5TMC3     O14226   1.733   2.697  12.466 -0.0530  0.5292 -0.2624
    5TMC3     H14227   1.541   2.548  12.385 -2.4213 -1.5670 -0.7731
    5TMC3    H114228   1.936   2.389  12.322 -0.2523  1.3370  0.1526
    5TMC3    H214229   1.610   2.240  12.112 -1.7901  0.0489  0.9330
    5TMC3    C714230   1.871   2.335  12.089  0.2619  0.1771  0.1198
    5TMC3    C814231   1.440   2.401  12.200 -0.0992  0.7954  0.2189
    5TMC3    O114232   1.941   2.435  12.102 -0.5871 -0.5470 -0.4527
    5TMC3    O214233   1.390   2.512  12.203 -0.2315  0.2490  0.2448
    6TMC3    C114234   1.853   3.665  10.936 -0.3170  0.0698 -1.2372
    6TMC3    C214235   1.780   3.604  10.841  0.7225 -0.3290 -0.2485
    6TMC3    C314236   1.800   3.469  10.830  0.2450 -0.7127 -0.1777
    6TMC3    C414237   1.928   3.604  11.032  0.3324  0.2046 -0.8562
    6TMC3    C514238   1.942   3.472  11.020 -0.4202  0.3338  0.5162
    6TMC3    C614239   1.877   3.398  10.922  0.0437 -1.2318 -0.5748
    6TMC3     C14240   1.826   3.808  10.963 -0.3529  0.6444 -0.3684
    6TMC3     O14241   1.898   3.863  11.044 -0.7328  0.0718 -0.4393
    6TMC3     H14242   1.725   3.662  10.768  0.2110 -1.2259 -0.5693
    6TMC3    H114243   1.971   3.665  11.111  1.4426 -0.2783 -1.0891
    6TMC3    H214244   1.868   3.290  10.927 -5.1211 -0.7188  1.5405
    6TMC3    C714245   1.970   3.391  11.132  0.2582 -0.2349  0.2852
    6TMC3    C814246   1.725   3.401  10.729  0.0607 -0.1187  0.8605
    6TMC3    O114247   1.998   3.271  11.108 -0.3583  0.5099  0.3421
    6TMC3    O214248   1.642   3.467  10.670 -0.0218 -0.8354 -0.4322
    7MPD2     C14249   2.079   2.281  11.620  0.3064 -0.1797 -0.6445
    7MPD2    C114250   2.095   2.380  11.713  0.3733  0.3332  0.2898
    7MPD2    C214251   2.026   2.374  11.837 -0.1201 -0.7162  0.1228
    7MPD2    C314252   1.942   2.259  11.861 -0.1775  0.1057  0.2293
    7MPD2    C414253   1.938   2.158  11.768  0.4234 -0.1790  0.2262
    7MPD2    C514254   1.991   2.178  11.644  0.2831  0.4833 -0.1470
    7MPD2     H14255   2.039   2.458  11.905  0.7378  0.9438 -2.0773
    7MPD2    H114256   1.896   2.060  11.791  3.8326 -1.6763  0.0279
    7MPD2    H214257   2.127   2.274  11.524  0.0637  1.3205 -0.8798
    7MPD2    H314258   1.973   2.094  11.578 -1.5027 -0.1051  1.0624
    7MPD2     N14259   1.872   2.240  11.983 -0.2171  0.2252 -0.6631
    7MPD2    H514260   1.813   2.159  11.999 -1.9107  1.9120  1.7716
    7MPD2    N114261   2.168   2.502  11.694 -0.3809 -0.5105  0.7603
    7MPD2    H714262   2.167   2.565  11.773  1.5427  0.6426 -0.1280
    8TMC3    C114263   2.263   2.688  11.597  0.6099 -0.3578 -0.2162
    8TMC3    C214264   2.194   2.788  11.541 -0.1876  0.4961 -0.1123
    8TMC3    C314265   2.179   2.911  11.603  0.7576 -0.1442 -0.1811
    8TMC3    C414266   2.313   2.709  11.722 -0.2308 -0.3210  0.3766
    8TMC3    C514267   2.283   2.820  11.794  0.3423 -0.2636  0.2402
    8TMC3    C614268   2.227   2.926  11.737  0.2840  0.0116 -0.0011
    8TMC3     C14269   2.206   2.557  11.572  0.1755 -0.2490 -0.5308
    8TMC3     O14270   2.161   2.530  11.464  0.1048 -0.0218  0.3091
    8TMC3     H14271   2.142   2.777  11.446  2.3331  1.3711 -1.5893
    8TMC3    H114272   2.366   2.631  11.774  1.0286 -0.8199 -1.6238
    8TMC3    H214273   2.222   3.023  11.785  3.2863 -0.3396  1.0163
    8TMC3    C714274   2.232   2.779  11.925 -0.3901 -0.8097 -0.3765
    8TMC3    C814275   2.118   3.019  11.526 -0.2710 -0.6605  0.2736
    8TMC3    O114276   2.215   2.661  11.943  0.5125  0.1504  0.1483
    8TMC3    O214277   2.071   2.987  11.414  0.4668 -0.0992  0.0488
    9MPD2     C14278   2.016   3.348  11.650  0.0944 -0.2248 -0.6308
    9MPD2    C114279   2.060   3.257  11.554 -0.0727 -0.1708  0.8994
    9MPD2    C214280   2.030   3.284  11.419  0.5712 -0.5613 -0.1187
    9MPD2    C314281   1.982   3.410  11.384 -0.6188 -0.4161  0.1903
    9MPD2    C414282   1.954   3.498  11.481 -0.2241  0.0835 -0.3105
    9MPD2    C514283   1.964   3.470  11.613 -0.3293 -0.5759 -0.2197
    9MPD2     H14284   2.041   3.207  11.345 -0.0988  0.0550 -0.8566
    9MPD2    H114285   1.911   3.594  11.456  2.0925  0.6941 -1.9876
    9MPD2    H214286   2.049   3.335  11.752  1.6843  1.1495 -0.9744
    9MPD2    H314287   1.944   3.545  11.688 -1.0608  0.8831 -1.8896
    9MPD2     N14288   1.958   3.461  11.252  0.0325 -1.0596  0.1181
    9MPD2    H514289   1.899   3.544  11.256 -0.3108 -1.3695  1.7463
    9MPD2    N114290   2.109   3.134  11.601  0.3373  0.1203 -0.2963
    9MPD2    H714291   2.098   3.133  11.702 -3.1264  0.0824 -0.6585
    1MPD1     C14292   1.766   2.097  16.801  0.1963  0.1256  0.2041
    1MPD1    C114293   1.747   2.204  16.718 -0.4124  0.3514  0.1704
    1MPD1    C214294   1.631   2.218  16.650 -0.1050  0.3831  0.6292
    1MPD1    C314295   1.526   2.128  16.672  0.1113 -0.4731 -0.1849
    1MPD1    C414296   1.543   2.023  16.755  0.3366  0.5688 -0.6540
    1MPD1    C514297   1.660   2.012  16.818  0.8507  0.0061  0.5735
    1MPD1     H14298   1.606   2.300  16.584 -1.7358  0.0559  0.8534
    1MPD1    H114299   1.470   1.943  16.750 -0.0740  0.9212 -0.3210
    1MPD1    H214300   1.858   2.079  16.855  1.2925  0.6134 -1.4828
    1MPD1    H314301   1.677   1.924  16.879 -1.6143 -0.8987 -0.0735
    1MPD1     N14302   1.409   2.135  16.590 -0.4121 -0.4980 -0.0014
    1MPD1    H514303   1.405   2.218  16.532 -1.5904 -1.7786 -1.7710
    1MPD1    N114304   1.849   2.296  16.690 -0.4818  0.5581 -0.2153
    1MPD1    H614305   1.893   2.315  16.780 -3.4709 -1.7753  1.7411
    1MPD1    H714306   1.798   2.381  16.667 -0.2055  0.7442 -0.1429
    2TMC2    C114307   1.116   2.255  16.341  0.2007  1.1223 -0.2076
    2TMC2    C214308   0.989   2.198  16.349 -1.1476  0.2352 -0.6224
    2TMC2    C314309   0.968   2.113  16.450  0.5950  0.2161 -0.2032
    2TMC2    C414310   1.217   2.214  16.425 -0.3916 -0.2237 -0.8112
    2TMC2    C514311   1.186   2.122  16.520 -0.1485  0.8041  0.0526
    2TMC2    C614312   1.061   2.073  16.540  0.4413 -0.7131 -0.4393
    2TMC2     C14313   1.142   2.380  16.273 -0.2879  0.3417  0.6514
    2TMC2     O14314   1.258   2.415  16.259  0.0804 -0.0459 -0.5836
    2TMC2     H14315   0.903   2.228  16.291 -0.5815  1.2014 -0.9542
    2TMC2    H114316   1.316   2.255  16.406 -0.0407 -0.7273 -0.0216
    2TMC2    H214317   1.037   1.999  16.615  0.2243 -0.2122 -0.0114
    2TMC2    C714318   1.289   2.077  16.614 -0.3685 -0.5101 -0.2366
    2TMC2    C814319   0.837   2.051  16.462 -0.4289 -0.0572 -0.0095
    2TMC2    O114320   1.249   1.995  16.696 -0.0958  0.3148  0.4814
    2TMC2    O214321   0.824   1.972  16.560 -0.4224  0.3159 -0.1358
    2TMC2    O514322   0.796   2.041  16.332 -0.0553  0.1266 -0.5679
    2TMC2    H514323   0.823   2.104  16.261  0.1986 -1.7863 -2.1623
    3MPD1     C14324   0.981   2.761  15.968 -0.1787  0.3356 -0.4548
    3MPD1    C114325   0.872   2.692  16.011 -0.2410  0.3826  0.0863
    3MPD1    C214326   0.897   2.585  16.100 -0.3719  0.6497  0.1178
    3MPD1    C314327   1.026   2.540  16.132  0.1949 -0.7658 -0.3359
    3MPD1    C414328   1.132   2.615  16.091  0.2479 -0.1751  0.6314
    3MPD1    C514329   1.111   2.726  16.012  1.1721 -0.2793  1.0099
    3MPD1     H14330   0.811   2.536  16.143 -0.6105 -0.0003 -1.1125
    3MPD1    H114331   1.238   2.603  16.112  0.5471  0.4990 -0.4787
    3MPD1    H214332   0.969   2.835  15.890  0.4213  0.9900  0.0804
    3MPD1    H314333   1.196   2.790  15.993  0.1977 -0.3282 -3.4772
    3MPD1     N14334   1.025   2.438  16.229 -0.3872 -0.8035 -0.4236
    3MPD1    H514335   0.938   2.398  16.263 -0.6611  0.0369 -0.1405
    3MPD1    N114336   0.742   2.717  15.962 -0.0597 -0.4525  0.7118
    3MPD1    H614337   0.728   2.804  15.912  1.4395 -0.6507 -0.0584
    3MPD1    H714338   0.674   2.694  16.035 -0.4920  3.3055  1.5088
    1TMC1    C114339   0.376   1.484  13.250 -0.0079 -0.4633 -0.0619
    1TMC1    C214340   0.376   1.346  13.255  0.0910  0.4346  0.1725
    1TMC1    C314341   0.312   1.281  13.151 -0.4580  0.2048  0.4570
    1TMC1    C414342   0.303   1.556  13.158  0.2319  0.2519  0.0475
    1TMC1    C514343   0.246   1.486  13.055  0.5257  0.1961  0.1454
    1TMC1    C614344   0.248   1.346  13.054  0.5990 -0.1678 -0.1206
    1TMC1     C14345   0.477   1.553  13.336 -0.3809  0.0680 -0.2650
    1TMC1     O14346   0.509   1.662  13.297  0.4611 -0.4372 -0.2159
    1TMC1     H14347   0.437   1.294  13.328 -0.6376  0.2244  0.6360
    1TMC1    H114348   0.295   1.664  13.165  0.2912  0.3640 -1.4547
    1TMC1    H214349   0.207   1.293  12.969  2.0088 -1.5829  0.0883
    1TMC1    C714350   0.179   1.547  12.946  0.0782 -0.0982  0.4531
    1TMC1    C814351   0.269   1.149  13.163 -0.4047  0.2804 -0.6938
    1TMC1    O114352   0.158   1.499  12.835 -0.6455  0.2307  0.6510
    1TMC1    O214353   0.280   1.068  13.074 -0.1346  0.5195  0.8274
    1TMC1    O314354   0.175   1.677  12.978  0.1378  0.0071 -0.1433
    1TMC1    H314355   0.174   1.703  13.073  1.9324 -0.1332 -0.0802
    1TMC1    O514356   0.256   1.121  13.290 -0.1782 -0.2056 -0.1805
    1TMC1    H514357   0.222   1.199  13.339  0.5425  2.3791 -3.8481
    2MPD2     C14358   0.705   1.631  13.500  0.0931  0.0412  0.0464
    2MPD2    C114359   0.620   1.534  13.546 -0.3751  0.0280  0.0050
    2MPD2    C214360   0.633   1.482  13.672  0.3970 -0.4014  0.3591
    2MPD2    C314361   0.729   1.531  13.756 -0.3943 -0.3907 -0.5529
    2MPD2    C414362   0.822   1.629  13.702  0.1800 -0.1754  0.2678
    2MPD2    C514363   0.807   1.671  13.577 -0.1987 -0.3769  0.8073
    2MPD2     H14364   0.564   1.405  13.706  1.4912 -0.9947  1.2404
    2MPD2    H114365   0.903   1.663  13.764  0.8946 -0.1532 -0.6778
    2MPD2    H214366   0.714   1.663  13.397  2.3563  1.2798  0.6216
    2MPD2    H314367   0.879   1.738  13.532 -0.7970  1.8293  3.1548
    2MPD2     N14368   0.736   1.489  13.886  0.2322 -0.1911  0.9662
    2MPD2    H514369   0.666   1.423  13.919 -0.7035  0.4355  0.2351
    2MPD2    N114370   0.519   1.489  13.452  0.2391 -0.0684 -0.4185
    2MPD2    H714371   0.458   1.414  13.485  1.3447 -1.4414 -1.5264
    3TCq1    O114372   0.909   1.438  14.552  0.2706 -0.2382  0.4823
    3TCq1    C114373   0.923   1.521  14.450  0.8650 -0.1435  0.4165
    3TCq1    O214374   0.922   1.640  14.462 -0.7291  0.5278 -0.6025
    3TCq1    C214375   0.872   1.452  14.337 -0.6256  0.1955  0.3172
    3TCq1    C314376   0.773   1.356  14.356  0.2896  0.4832 -0.6044
    3TCq1    C414377   0.699   1.320  14.246  0.4895  0.5446 -0.1082
    3TCq1    C514378   0.711   1.382  14.129 -0.6269  1.0752  0.2377
    3TCq1    C614379   0.802   1.474  14.117 -0.0905 -0.0117  0.2059
    3TCq1    C714380   0.893   1.509  14.212 -0.3438  0.2486  0.7515
    3TCq1    C814381   0.812   1.543  13.990  0.2689 -0.1445  0.4014
    3TCq1    O414382   0.874   1.651  13.993 -0.1145  0.0849 -0.1207
    3TCq1    C914383   0.598   1.220  14.257 -0.4035  0.5182 -0.7941
    3TCq1    O514384   0.573   1.195  14.374  0.9012  0.3354  0.1073
    3TCq1    O614385   0.553   1.167  14.152 -0.4475 -0.2562 -0.0815
    3TCq1    H114386   0.940   1.348  14.532  2.3757  0.5313  0.2848
    3TCq1    H214387   0.764   1.303  14.450  0.6181  1.6400  0.0828
    3TCq1    H314388   0.654   1.347  14.043 -2.4823  0.1672  1.8494
    3TCq1    H414389   0.968   1.585  14.194  2.3235 -2.6385 -0.2695
    1MPD2     C14390   4.109   2.412  15.028 -0.2323 -0.8278  0.2120
    1MPD2    C114391   4.158   2.433  14.902 -0.1400 -0.9364 -0.4331
    1MPD2    C214392   4.293   2.439  14.890 -0.6382 -0.0393  0.7484
    1MPD2    C314393   4.375   2.409  14.995  0.2183  0.2662 -0.4860
    1MPD2    C414394   4.319   2.380  15.116 -0.3781 -0.2840 -0.2722
    1MPD2    C514395   4.186   2.385  15.132  0.1904 -0.0263 -0.0657
    1MPD2     H14396   4.341   2.454  14.794  0.2740 -0.2684  1.1703
    1MPD2    H114397   4.387   2.364  15.198 -0.8914 -0.0076  0.2084
    1MPD2    H214398   4.003   2.388  15.034 -0.3073 -0.8264 -1.0976
    1MPD2    H314399   4.131   2.359  15.222  0.3978 -0.4075 -0.0521
    1MPD2     N14400   4.518   2.390  14.960 -0.0845 -0.1711  0.4070
    1MPD2    H514401   4.534   2.392  14.860  0.7549 -1.7580  0.5109
    1MPD2    N114402   4.062   2.453  14.797  0.2238  0.3421 -0.5617
    1MPD2    H714403   3.964   2.441  14.817  0.4676  0.7544  0.9366
    2TMC3    C114404   3.961   2.461  14.591  1.0672  0.3938 -0.2115
    2TMC3    C214405   3.949   2.328  14.564 -0.4341 -0.3795 -0.6856
    2TMC3    C314406   3.938   2.284  14.435 -0.0237 -1.4101 -0.3675
    2TMC3    C414407   3.940   2.543  14.486 -1.1707  0.4000  0.3470
    2TMC3    C514408   3.914   2.501  14.356 -0.6610  0.3001  0.7581
    2TMC3    C614409   3.921   2.368  14.322 -0.9254  0.1920 -0.0457
    2TMC3     C14410   4.086   2.475  14.663 -0.2524  0.1910 -0.6767
    2TMC3     O14411   4.191   2.466  14.598  0.0220 -0.2154  0.0974
    2TMC3     H14412   3.972   2.257  14.642 -3.4861 -0.0773  0.4753
    2TMC3    H114413   3.953   2.651  14.495 -0.9422  0.5838 -2.3283
    2TMC3    H214414   3.917   2.329  14.221 -0.6874  1.6653 -0.6223
    2TMC3    C714415   3.803   2.568  14.297 -0.8886  0.1854  0.0229
    2TMC3    C814416   4.033   2.184  14.396  0.6800 -0.1394 -0.0159
    2TMC3    O114417   3.772   2.525  14.188  0.4354 -0.2314  0.6454
    2TMC3    O214418   4.012   2.126  14.293  0.8288  0.0190 -0.2271
    3TCq1    O114419   3.586   3.453  14.681 -0.4239  0.2433 -0.3298
    3TCq1    C114420   3.492   3.399  14.755  0.3282 -0.2649 -0.4472
    3TCq1    O214421   3.523   3.322  14.844  0.3865 -0.0787 -0.6853
    3TCq1    C214422   3.387   3.361  14.657  0.0803  0.4296 -0.4908
    3TCq1    C314423   3.275   3.438  14.644  0.7964 -0.0674 -0.2924
    3TCq1    C414424   3.161   3.377  14.601 -0.4262  0.5143 -0.5915
    3TCq1    C514425   3.152   3.248  14.561 -0.1769  0.1517  0.5978
    3TCq1    C614426   3.265   3.178  14.564 -0.0871  0.1014 -0.5742
    3TCq1    C714427   3.384   3.235  14.610 -0.1877  0.3015 -0.2832
    3TCq1    C814428   3.270   3.057  14.482  0.3424  0.5784 -0.2982
    3TCq1    O414429   3.172   3.038  14.412  0.1627  0.2699  0.0883
    3TCq1    C914430   3.045   3.465  14.584  0.2564 -1.0944 -0.1583
    3TCq1    O514431   2.946   3.408  14.540 -0.6067 -0.4599  0.1663
    3TCq1    O614432   3.054   3.585  14.609 -0.0277 -0.1835 -0.1629
    3TCq1    H114433   3.548   3.493  14.600 -0.2298  1.3367  0.1109
    3TCq1    H214434   3.273   3.542  14.673  1.4760 -0.4497  1.1284
    3TCq1    H314435   3.057   3.204  14.534  0.7937 -1.1544 -0.7407
    3TCq1    H414436   3.472   3.172  14.608  0.5152  1.2626  0.2143
    4MPD2     C14437   3.368   2.849  14.296 -0.0790  0.0656  0.3519
    4MPD2    C114438   3.434   2.879  14.407 -0.2817 -0.1176 -0.1035
    4MPD2    C214439   3.559   2.818  14.430 -0.9151  0.0378  0.2819
    4MPD2    C314440   3.618   2.725  14.343 -0.2963 -0.1046 -0.3078
    4MPD2    C414441   3.539   2.687  14.237 -0.3244  0.2591 -0.1999
    4MPD2    C514442   3.418   2.756  14.203  0.6198  0.0363  0.0430
    4MPD2     H14443   3.616   2.848  14.517  1.4049 -2.0833 -0.5144
    4MPD2    H114444   3.555   2.598  14.176 -0.5160 -1.1400  1.7790
    4MPD2    H214445   3.279   2.907  14.274 -0.2947 -1.3850 -2.5370
    4MPD2    H314446   3.369   2.725  14.111 -1.1384 -1.7551  1.5860
    4MPD2     N14447   3.737   2.662  14.378 -0.4361  0.9196 -0.0953
    4MPD2    H514448   3.786   2.698  14.459  1.2017 -2.4630  0.4490
    4MPD2    N114449   3.388   2.986  14.498  0.5569 -0.3058 -0.2325
    4MPD2    H714450   3.456   3.000  14.573 -0.5678  0.4309  0.6444
    5TMC2    C114451   0.012   2.273  14.739  0.2845  0.0484 -0.6246
    5TMC2    C214452   0.057   2.152  14.774  0.5660 -0.4954 -0.7128
    5TMC2    C314453   0.065   2.117  14.905 -0.3406  0.0789  0.2494
    5TMC2    C414454   4.725   2.363  14.835  0.4683  0.5191  0.5574
    5TMC2    C514455   4.734   2.322  14.970 -0.0575 -0.7013  0.5344
    5TMC2    C614456   0.040   2.201  15.011 -0.7076  0.1450 -0.1178
    5TMC2     C14457   4.642   2.278  14.645  0.5271  0.0547 -0.0826
    5TMC2     O14458   4.560   2.366  14.670  0.0532 -0.0511 -0.0269
    5TMC2     H14459   0.096   2.085  14.698  0.4976 -1.1015 -0.2127
    5TMC2    H114460   4.694   2.465  14.815 -0.5689 -0.0156 -0.5290
    5TMC2    H214461   0.006   2.163  15.107 -2.5804 -1.8111 -1.5366
    5TMC2    C714462   4.622   2.360  15.047 -0.2936 -0.4858 -0.5091
    5TMC2    C814463   0.097   1.976  14.917 -0.2687 -0.2121  0.0302
    5TMC2    O114464   4.627   2.362  15.169 -0.0052 -0.9237  0.0229
    5TMC2    O214465   0.041   1.895  14.842 -0.5227 -0.3059 -0.4074
    5TMC2    O514466   0.132   1.952  15.047  0.0824 -0.5338 -0.6148
    5TMC2    H514467   0.177   2.029  15.089 -1.5148  0.2282 -0.3035
    6MPD2     C14468   4.281   2.023  14.375 -0.4221  0.2143  0.4749
    6MPD2    C114469   4.273   2.143  14.446 -0.3438  0.6568 -0.6926
    6MPD2    C214470   4.388   2.188  14.502 -0.6513 -0.2016  0.2857
    6MPD2    C314471   4.509   2.125  14.493  0.4463 -0.7288 -0.8437
    6MPD2    C414472   4.513   2.014  14.413  0.0262 -0.3363  0.0712
    6MPD2    C514473   4.405   1.964  14.348 -0.2953  0.7175  0.7253
    6MPD2     H14474   4.382   2.285  14.551  1.5012 -0.2085  0.5353
    6MPD2    H114475   4.608   1.963  14.402 -0.8665 -1.7906 -0.8770
    6MPD2    H214476   4.201   1.971  14.325 -1.4272  0.7815  1.4866
    6MPD2    H314477   4.412   1.876  14.285 -1.1722  1.4479 -0.3973
    6MPD2     N14478   4.625   2.161  14.569 -0.1933  0.1791  0.4993
    6MPD2    H514479   4.701   2.095  14.563 -0.3925 -0.1649  1.9271
    6MPD2    N114480   4.149   2.205  14.468 -0.1304  0.6343 -0.3975
    6MPD2    H714481   4.143   2.283  14.534  0.4599 -0.2529  0.7077
  945NH4     N114482   4.643   3.101  17.556  0.1439  0.5265  0.3997
  945NH4     H214483   4.605   3.197  17.540 -0.3822  0.9678  4.3214
  945NH4     H314484   4.634   3.062  17.652  1.3639  0.9340  0.6775
  945NH4     H414485   0.008   3.113  17.543 -0.0404  0.5191 -1.0727
  945NH4     H514486   4.610   3.038  17.480 -1.1727 -3.2675  4.1545
  946SOD     NA14487   3.807   1.950  13.029  0.0688  0.1049  0.2739
  947SOD     NA14488   2.870   3.603  14.483  0.0725 -0.5089  0.0323
  948SOD     NA14489   4.198   3.425  13.303 -0.2117 -0.3630 -0.1302
  949SOD     NA14490   3.712   0.960  15.318  0.1357 -0.1648  0.4981
  950SOD     NA14491   3.001   3.229   6.702  0.0431 -0.1934  0.6523
  951SOD     NA14492   4.528   0.776  11.033 -0.5789  0.0484 -0.2634
  952SOD     NA14493   2.651   3.118  15.258 -0.2012 -0.3754  0.2340
  953SOL     OW14494   0.097   3.219  13.061  0.1404  0.4774 -0.2336
  953SOL    HW114495   0.192   3.208  13.062  0.1289  0.3754 -0.2216
  953SOL    HW214496   0.071   3.303  13.023 -1.8019  0.6602  1.4737
  954SOL     OW14497   2.374   1.562  12.562 -0.0350 -0.4028 -0.2616
  954SOL    HW114498   2.293   1.593  12.603  1.1759  0.7638  1.2702
  954SOL    HW214499   2.357   1.470  12.544  1.0355 -1.3049  3.3100
  955SOL     OW14500   3.970   0.510   1.766  0.1188  0.1909  0.2910
  955SOL    HW114501   3.882   0.530   1.799 -0.4152 -1.6286 -0.0209
  955SOL    HW214502   3.999   0.459   1.841 -0.4136 -0.7061 -0.1190
  956SOL     OW14503   1.604   0.581   3.579 -0.0243 -0.1664  0.5895
  956SOL    HW114504   1.656   0.512   3.538 -1.5012 -1.0380  0.2225
  956SOL    HW214505   1.516   0.548   3.564 -0.5593  1.8468 -0.8403
  957SOL     OW14506   3.698   1.225  15.954 -0.4701  0.1446  1.0117
  957SOL    HW114507   3.623   1.255  16.006 -2.9647 -2.4591 -1.0444
  957SOL    HW214508   3.656   1.211  15.869  2.5849  1.1226 -0.6405
  958SOL     OW14509   0.291   2.866  12.556 -0.0900  0.4404 -0.0799
  958SOL    HW114510   0.262   2.833  12.641 -0.2201  0.7375 -0.0103
  958SOL    HW214511   0.266   2.958  12.562 -2.4542 -0.2416  0.6887
  959SOL     OW14512   4.111   1.120   0.330  0.7662 -0.2921  0.1208
  959SOL    HW114513   4.160   1.140   0.251  1.5089 -1.3574  0.3054
  959SOL    HW214514   4.024   1.123   0.291 -0.0506 -2.1662  1.7759
  960SOL     OW14515   4.123   4.286   7.029 -0.3270  0.1189  0.2065
  960SOL    HW114516   4.212   4.317   7.009 -0.2861  0.3338  0.7370
  960SOL    HW214517   4.119   4.199   6.989 -0.9902  0.0181  0.5049
  961SOL     OW14518   2.327   1.437   1.290  0.0181 -0.0413  0.0314
  961SOL    HW114519   2.363   1.423   1.203  0.4227 -0.5680  0.2873
  961SOL    HW214520   2.241   1.399   1.273  0.8142 -1.4699 -0.7608
  962SOL     OW14521   2.332   2.754   1.072 -0.0947 -0.1872  0.2189
  962SOL    HW114522   2.409   2.716   1.028 -0.1846  0.3552 -0.4009
  962SOL    HW214523   2.369   2.794   1.151  0.5190  0.3822 -0.3550
  963SOL     OW14524   4.379   0.298  12.688  0.0763 -0.2412 -0.3160
  963SOL    HW114525   4.377   0.317  12.594  0.5779  1.9118  0.1217
  963SOL    HW214526   4.356   0.379  12.732  0.4958 -1.5186  2.2403
  964SOL     OW14527   2.447   2.351   8.469  0.3412 -0.4116  0.0307
  964SOL    HW114528   2.384   2.294   8.426 -0.2160  0.9244 -0.9131
  964SOL    HW214529   2.523   2.295   8.450  0.2401 -0.5317 -0.0147
  965SOL     OW14530   3.279   0.519  17.560  0.0017 -0.5431  0.2842
  965SOL    HW114531   3.263   0.434  17.519  0.1057 -0.1609 -0.5589
  965SOL    HW214532   3.240   0.515  17.647  2.8941 -1.0592  1.5549
  966SOL     OW14533   3.934   4.687   3.418 -0.2847 -0.4358 -0.4899
  966SOL    HW114534   4.029   4.675   3.412 -0.1597  0.8789 -1.1805
  966SOL    HW214535   3.929   4.645   3.504 -1.9669 -1.3800 -1.0450
  967SOL     OW14536   0.450   0.426  16.462  0.0697  0.1362  0.0111
  967SOL    HW114537   0.467   0.504  16.410  0.3035  0.2969  0.3256
  967SOL    HW214538   0.390   0.372  16.411  0.2408 -0.1500  0.1082
  968SOL     OW14539   0.605   1.326   3.580  0.2976  0.2159 -0.1349
  968SOL    HW114540   0.696   1.319   3.551  0.2790  0.6646 -0.3120
  968SOL    HW214541   0.571   1.405   3.536  1.1676 -0.5570 -2.1831
  969SOL     OW14542   1.964   0.465   7.434  0.1190 -0.1511  0.0267
  969SOL    HW114543   1.981   0.555   7.460 -0.3052 -0.3239  0.8943
  969SOL    HW214544   1.875   0.473   7.402 -0.1418 -0.5466  0.6412
  970SOL     OW14545   2.803   3.590   4.984 -0.2495 -0.6121  0.1467
  970SOL    HW114546   2.755   3.514   4.950 -0.4994  0.3546 -1.6423
  970SOL    HW214547   2.863   3.537   5.037  2.1042  1.5731 -0.3569
  971SOL     OW14548   0.937   0.136   8.539 -0.4344  0.0820  0.3756
  971SOL    HW114549   0.987   0.128   8.457  1.1436  2.8590  1.0715
  971SOL    HW214550   0.904   0.047   8.543 -2.0116  0.7358  1.9267
  972SOL     OW14551   3.151   2.714   6.064 -0.0137  1.0293 -0.5980
  972SOL    HW114552   3.101   2.795   6.053  0.2640  1.2858  0.0724
  972SOL    HW214553   3.181   2.688   5.977  0.1457 -2.9286  0.6093
  973SOL     OW14554   1.366   1.953   9.468 -0.0778 -0.0724 -0.5967
  973SOL    HW114555   1.459   1.951   9.447  0.2061  2.2182  0.3799
  973SOL    HW214556   1.342   1.868   9.432  0.9236 -1.0022  0.9122
  974SOL     OW14557   2.465   3.216   0.441  0.7592 -0.0805  0.2495
  974SOL    HW114558   2.475   3.228   0.535  0.1457 -2.1750  0.5862
  974SOL    HW214559   2.458   3.121   0.432  2.9290 -0.4140  2.1828
  975SOL     OW14560   3.693   2.733   4.490  0.6921 -0.2748 -0.0651
  975SOL    HW114561   3.781   2.747   4.524  1.0905 -1.1636 -0.7414
  975SOL    HW214562   3.691   2.812   4.435 -3.4357 -0.5428 -0.3093
  976SOL     OW14563   4.415   4.670   7.211  0.3589 -0.1888  0.7439
  976SOL    HW114564   4.379   0.017   7.240 -0.8103  0.1258 -1.6346
  976SOL    HW214565   4.352   4.644   7.144  0.0237 -0.1571  1.0441
  977SOL     OW14566   1.016   1.493   5.737  0.0388  0.1912  0.3562
  977SOL    HW114567   0.947   1.460   5.795 -1.1858  1.2825 -0.4948
  977SOL    HW214568   0.958   1.530   5.670  3.0817  1.8408 -1.3275
  978SOL     OW14569   3.334   0.714  12.889 -0.0630 -0.6224  0.5261
  978SOL    HW114570   3.325   0.620  12.904  0.0876 -0.8308 -0.6744
  978SOL    HW214571   3.349   0.728  12.982  3.6776 -1.5729  0.0650
  979SOL     OW14572   4.372   3.140   4.229 -0.5092 -0.5990  0.0684
  979SOL    HW114573   4.325   3.212   4.273  0.1452  1.1963 -2.1318
  979SOL    HW214574   4.303   3.081   4.199 -0.4678 -0.4365 -0.3581
  980SOL     OW14575   3.555   0.797   4.197 -0.1432  0.0709 -0.1062
  980SOL    HW114576   3.479   0.774   4.143 -1.7031  1.9561  1.2954
  980SOL    HW214577   3.603   0.851   4.135  1.3512 -1.9817 -0.7480
  981SOL     OW14578   2.337   4.336   6.109  0.3111  0.3553  0.1025
  981SOL    HW114579   2.245   4.313   6.104  0.7283 -1.2249 -0.2444
  981SOL    HW214580   2.335   4.384   6.192  1.5718  0.3334  0.1480
  982SOL     OW14581   3.346   3.374   9.384 -0.1770  0.0908 -0.1721
  982SOL    HW114582   3.357   3.461   9.344  2.0514 -0.7255 -1.3279
  982SOL    HW214583   3.410   3.385   9.455 -0.2423 -0.8475  0.0290
  983SOL     OW14584   2.397   0.518   3.235  0.1859  0.4990 -0.0988
  983SOL    HW114585   2.406   0.423   3.239  1.5144  0.5265 -2.1417
  983SOL    HW214586   2.378   0.517   3.141 -2.3623  0.5061  0.4159
  984SOL     OW14587   0.958   1.890   6.431  0.0129  0.3156  0.0925
  984SOL    HW114588   0.891   1.899   6.364  0.2103 -3.0510 -0.5471
  984SOL    HW214589   1.031   1.859   6.377 -0.1356 -1.8645  1.1428
  985SOL     OW14590   4.405   2.830   5.264  0.5110 -0.3192 -0.2770
  985SOL    HW114591   4.446   2.823   5.178 -1.3817 -0.8598 -1.1366
  985SOL    HW214592   4.325   2.777   5.258  0.3152  0.0656 -1.0371
  986SOL     OW14593   0.020   3.286   3.469  0.3691  0.0688  0.1363
  986SOL    HW114594   0.114   3.282   3.488  0.2373 -2.2335  0.3270
  986SOL    HW214595   4.721   3.307   3.555 -0.8026 -1.3235 -0.0197
  987SOL     OW14596   1.491   1.330   3.598  0.6481 -0.1087 -0.0540
  987SOL    HW114597   1.565   1.390   3.600  1.3299 -1.0280  2.7354
  987SOL    HW214598   1.464   1.341   3.506 -0.5522  1.6879  0.5097
  988SOL     OW14599   2.699   2.584  12.457  0.4552 -0.5537  0.0170
  988SOL    HW114600   2.627   2.523  12.439 -1.0785  0.8223  1.5416
  988SOL    HW214601   2.737   2.586  12.369  0.0450 -1.7006 -0.1982
  989SOL     OW14602   1.899   2.668  17.653  0.2485  0.1216  0.2481
  989SOL    HW114603   1.827   2.653  17.591  0.0498  0.3903  0.4134
  989SOL    HW214604   1.924   2.576  17.660 -1.7593 -0.4489 -0.1015
  990SOL     OW14605   0.405   1.632   9.197 -0.5127  0.6164  0.4293
  990SOL    HW114606   0.487   1.662   9.158  0.5494 -2.3425  0.4193
  990SOL    HW214607   0.415   1.676   9.282  0.3894 -0.3004  0.7867
  991SOL     OW14608   2.598   0.257   7.343 -0.3259  0.2179 -0.7055
  991SOL    HW114609   2.605   0.162   7.355  0.4005  0.4968  1.0925
  991SOL    HW214610   2.597   0.283   7.435 -0.7101  0.5277 -0.7982
  992SOL     OW14611   3.550   3.462   9.548  0.1814 -0.1585 -0.0731
  992SOL    HW114612   3.624   3.428   9.599 -0.4807 -0.2342  0.8230
  992SOL    HW214613   3.541   3.549   9.587  0.8159  0.4972 -1.3664
  993SOL     OW14614   4.207   2.352   1.158 -0.5014 -0.3038 -0.3967
  993SOL    HW114615   4.265   2.417   1.119 -0.3777  0.2858  0.7859
  993SOL    HW214616   4.123   2.379   1.119 -0.6361  0.7967  0.6536
  994SOL     OW14617   1.852   0.812  13.033  0.0660 -0.2974  0.1310
  994SOL    HW114618   1.878   0.788  13.122  2.2132  0.5375 -0.2734
  994SOL    HW214619   1.935   0.790  12.990  0.2857  0.2490  0.2757
  995SOL     OW14620   3.394   0.649   7.395 -0.3735  0.1069 -0.0744
  995SOL    HW114621   3.425   0.665   7.484  0.8856 -1.2122 -0.2839
  995SOL    HW214622   3.300   0.669   7.402 -1.0976 -3.0281 -0.7048
  996SOL     OW14623   1.846   4.603   5.161 -0.4591 -0.0192 -0.1474
  996SOL    HW114624   1.876   4.517   5.190  1.8067  1.4989  2.0284
  996SOL    HW214625   1.758   4.616   5.197  0.5321  2.3159  1.4129
  997SOL     OW14626   0.811   1.307  11.849  0.2691  0.4837 -0.2617
  997SOL    HW114627   0.820   1.218  11.884  0.0535  0.2633 -0.7606
  997SOL    HW214628   0.715   1.307  11.840  0.3243 -1.4742 -0.9561
  998SOL     OW14629   4.017   1.520   7.803  0.0644  0.5288  0.4220
  998SOL    HW114630   4.068   1.438   7.805 -1.2232 -0.3111 -0.9961
  998SOL    HW214631   4.069   1.583   7.853 -0.7662  2.5597 -1.2941
  999SOL     OW14632   2.261   0.925   8.014  0.3998 -0.1908 -0.2181
  999SOL    HW114633   2.193   0.909   7.948  0.7437 -0.6023 -0.4726
  999SOL    HW214634   2.216   0.952   8.094  0.2587  2.1018 -1.0657
 1000SOL     OW14635   3.068   1.667  16.690 -0.5968  0.3121  0.5186
 1000SOL    HW114636   3.106   1.723  16.622  1.0008 -0.9930  0.3370
 1000SOL    HW214637   3.038   1.590  16.643  2.3765 -0.5331  0.0193
 1001SOL     OW14638   1.771   2.567  16.648 -0.3719 -0.4226  0.3507
 1001SOL    HW114639   1.775   2.659  16.672  0.2456 -0.5858  0.8691
 1001SOL    HW214640   1.832   2.585  16.576  1.4317 -0.2435  1.9138
 1002SOL     OW14641   2.426   2.615   5.313 -0.1858 -0.0181 -0.0046
 1002SOL    HW114642   2.505   2.566   5.337  0.3455  0.0931 -1.5528
 1002SOL    HW214643   2.364   2.545   5.294  0.7519 -0.7070 -0.5645
 1003SOL     OW14644   0.761   2.914   6.889  0.0046 -0.2638 -0.7349
 1003SOL    HW114645   0.845   2.922   6.935  0.0193  0.0994 -0.8248
 1003SOL    HW214646   0.702   2.915   6.964  1.4614 -0.8286  0.4249
 1004SOL     OW14647   1.501   0.575   2.645  0.7474  1.1886 -0.0672
 1004SOL    HW114648   1.527   0.496   2.598  2.1183  1.7471 -0.2505
 1004SOL    HW214649   1.410   0.594   2.619  0.9126  0.5433 -1.1012
 1005SOL     OW14650   4.727   1.566  12.667 -0.0294  0.6434  0.2274
 1005SOL    HW114651   0.054   1.515  12.715 -1.4126 -0.7693  0.5543
 1005SOL    HW214652   0.045   1.643  12.652 -2.8465  2.6099  0.0013
 1006SOL     OW14653   2.665   3.692   0.377 -0.2373  0.1994 -0.3557
 1006SOL    HW114654   2.690   3.687   0.285  0.0135 -2.4353 -0.1468
 1006SOL    HW214655   2.613   3.613   0.390  0.7798 -0.7207 -1.8327
 1007SOL     OW14656   2.910   0.771   3.545 -0.3810 -0.0886 -0.2151
 1007SOL    HW114657   2.958   0.757   3.463  0.7102  0.1625  0.3887
 1007SOL    HW214658   2.861   0.689   3.547 -3.4455  1.8147  2.4255
 1008SOL     OW14659   2.019   4.182   3.445  0.3240  0.0446  0.0166
 1008SOL    HW114660   2.021   4.146   3.356 -0.1225  1.3140 -0.5013
 1008SOL    HW214661   2.102   4.152   3.482  0.4663 -1.7815 -1.8191
 1009SOL     OW14662   3.429   0.194   2.107 -0.7603  0.0685 -0.2426
 1009SOL    HW114663   3.351   0.173   2.158 -1.7149  3.1656 -0.3881
 1009SOL    HW214664   3.495   0.133   2.140  0.2808  1.9097  1.1445
 1010SOL     OW14665   3.945   0.509   3.880  0.8730 -0.2399 -0.0975
 1010SOL    HW114666   3.853   0.483   3.885  0.3972  1.6960  1.4222
 1010SOL    HW214667   3.990   0.426   3.892  0.3300 -0.8985 -2.5960
 1011SOL     OW14668   4.292   0.079   8.397  0.2449  0.4914  0.2121
 1011SOL    HW114669   4.351   0.097   8.470 -0.5594  0.2599  0.9351
 1011SOL    HW214670   4.238   0.007   8.429  0.5628 -0.6722 -1.8740
 1012SOL     OW14671   0.867   4.213   5.852  0.0909 -0.0872 -0.6046
 1012SOL    HW114672   0.808   4.258   5.792 -1.9683 -0.7084  0.9467
 1012SOL    HW214673   0.944   4.270   5.857  0.6102 -0.9276  0.8098
 1013SOL     OW14674   0.579   1.514  10.896 -0.0320  0.1289 -0.1789
 1013SOL    HW114675   0.536   1.454  10.957 -2.0935  0.2779 -1.4879
 1013SOL    HW214676   0.596   1.583  10.960 -1.3256  0.5592 -0.2929
 1014SOL     OW14677   1.404   0.451  10.045 -0.6443  0.1050  0.4412
 1014SOL    HW114678   1.397   0.399  10.125 -0.4573  1.3962  1.2924
 1014SOL    HW214679   1.347   0.525  10.066 -0.8462  0.0664  0.0328
 1015SOL     OW14680   2.877   4.482   5.107 -0.1716 -0.6732  0.3305
 1015SOL    HW114681   2.811   4.470   5.039 -0.9821  0.2795  0.9355
 1015SOL    HW214682   2.932   4.541   5.056 -2.7850  1.4971 -0.0068
 1016SOL     OW14683   2.233   2.536   2.371 -0.0392 -0.5434 -0.1243
 1016SOL    HW114684   2.170   2.500   2.433 -1.0148 -1.8146 -1.8763
 1016SOL    HW214685   2.171   2.585   2.317  0.4527 -1.4247 -1.4768
 1017SOL     OW14686   4.494   4.663   0.790  0.0895 -0.1332 -0.3124
 1017SOL    HW114687   4.454   4.665   0.876  2.9938 -0.1212  1.0397
 1017SOL    HW214688   4.475   4.572   0.768  0.8556 -0.5237  0.6427
 1018SOL     OW14689   0.893   0.863   4.500  0.2227 -0.0965 -0.1211
 1018SOL    HW114690   0.942   0.843   4.580 -3.4584  0.7047  2.3071
 1018SOL    HW214691   0.852   0.940   4.537  0.0522  0.0639 -0.6416
 1019SOL     OW14692   4.527   2.177   1.893 -0.3980 -0.0554 -0.2811
 1019SOL    HW114693   4.592   2.153   1.959  1.3069  4.8706 -0.1280
 1019SOL    HW214694   4.541   2.099   1.839 -0.8341 -1.0626  1.0800
 1020SOL     OW14695   0.691   1.965   5.226 -0.1398  0.0676 -0.2778
 1020SOL    HW114696   0.690   1.909   5.149 -1.4738  0.6350 -0.6705
 1020SOL    HW214697   0.599   1.969   5.252  0.0209 -1.0348  0.4848
 1021SOL     OW14698   3.815   1.844   1.383 -0.2150  0.5624  0.4340
 1021SOL    HW114699   3.827   1.815   1.473 -0.3669  1.1129  0.6303
 1021SOL    HW214700   3.787   1.764   1.338  0.0206  0.1448  1.0376
 1022SOL     OW14701   4.685   0.901   5.677 -0.1416  0.2147 -0.6129
 1022SOL    HW114702   4.663   0.831   5.737  0.0659 -0.5649 -1.4427
 1022SOL    HW214703   0.034   0.869   5.649  0.2538  2.1482 -1.6472
 1023SOL     OW14704   4.604   4.454   2.896  0.9429  0.1981  0.0242
 1023SOL    HW114705   4.622   4.548   2.894 -0.5663  0.4466 -2.1965
 1023SOL    HW214706   4.672   4.425   2.835  0.9270  1.1998 -0.4594
 1024SOL     OW14707   1.566   3.072   7.698 -0.3812 -0.0630  0.0889
 1024SOL    HW114708   1.649   3.085   7.653  0.0538  1.3196  1.2935
 1024SOL    HW214709   1.507   3.071   7.622 -2.2711  3.1604  1.5193
 1025SOL     OW14710   1.638   0.383  16.959  0.2596 -0.2879 -0.3032
 1025SOL    HW114711   1.544   0.400  16.970  0.5832  1.6771 -0.5317
 1025SOL    HW214712   1.656   0.463  16.910  1.8337 -1.0017 -0.8827
 1026SOL     OW14713   1.615   0.778  12.358  0.2915  0.3154  0.1258
 1026SOL    HW114714   1.574   0.715  12.298  3.1661 -2.8259  1.4250
 1026SOL    HW214715   1.538   0.826  12.389 -0.8070 -0.5454 -1.2294
 1027SOL     OW14716   2.321   1.329   3.212  0.3545  0.6144  0.5545
 1027SOL    HW114717   2.339   1.386   3.137  0.1698 -0.5516 -0.3742
 1027SOL    HW214718   2.411   1.298   3.219 -0.3558 -1.7614 -0.8405
 1028SOL     OW14719   4.457   2.321   9.232 -0.5446  0.4236 -0.6582
 1028SOL    HW114720   4.367   2.304   9.260 -0.4865  0.4807 -0.4360
 1028SOL    HW214721   4.471   2.253   9.166  1.2270  1.7177 -1.6276
 1029SOL     OW14722   1.293   3.068   5.885  0.2647 -0.4372 -0.4145
 1029SOL    HW114723   1.319   3.059   5.977 -0.5609  2.2552  0.0808
 1029SOL    HW214724   1.372   3.042   5.837  1.8611  0.6921  1.6149
 1030SOL     OW14725   4.207   3.470   4.633 -0.5348  0.3768 -0.3097
 1030SOL    HW114726   4.208   3.451   4.727 -0.1595 -0.5171 -0.4990
 1030SOL    HW214727   4.259   3.550   4.631  0.6853 -0.4408 -0.9248
 1031SOL     OW14728   4.055   2.704  17.190 -0.7205 -0.4986 -0.5169
 1031SOL    HW114729   4.101   2.648  17.253 -2.1446 -1.4592 -0.3212
 1031SOL    HW214730   3.970   2.660  17.196 -0.9741 -0.1301 -1.4582
 1032SOL     OW14731   1.968   0.817   3.066  0.8699 -0.1885  0.6716
 1032SOL    HW114732   1.959   0.778   2.980 -1.4339 -1.3165  1.4183
 1032SOL    HW214733   1.877   0.835   3.090  0.9090 -0.1448  0.7895
 1033SOL     OW14734   3.556   1.066   3.275 -0.3235 -0.3526 -0.0360
 1033SOL    HW114735   3.504   1.009   3.330 -0.3835  1.1422  1.4429
 1033SOL    HW214736   3.491   1.136   3.282  0.5764  0.4909 -0.0030
 1034SOL     OW14737   3.891   4.346   4.455 -0.7619 -0.3319  0.0886
 1034SOL    HW114738   3.975   4.389   4.471 -1.2262  0.6960 -0.2246
 1034SOL    HW214739   3.829   4.419   4.449 -2.2089 -1.5699  0.1391
 1035SOL     OW14740   2.133   3.426   2.512  0.3598 -0.0409  0.1742
 1035SOL    HW114741   2.152   3.369   2.587  0.6680  0.6726  0.6386
 1035SOL    HW214742   2.042   3.444   2.537  0.6229  0.5525  0.6915
 1036SOL     OW14743   2.689   2.814   8.203 -0.2251  0.0979  0.3996
 1036SOL    HW114744   2.745   2.865   8.145  2.3893 -1.9130  1.1273
 1036SOL    HW214745   2.744   2.797   8.279 -1.3334  0.8593  1.3738
 1037SOL     OW14746   0.231   4.511   5.609  0.0551 -0.2911  0.0864
 1037SOL    HW114747   0.223   4.606   5.615  0.9443 -0.1690 -0.6376
 1037SOL    HW214748   0.203   4.484   5.697 -0.4428  0.1668  0.0645
 1038SOL     OW14749   3.450   3.764   9.027 -0.2871  0.0761 -0.1364
 1038SOL    HW114750   3.448   3.705   8.951  0.6416 -1.1819  0.8076
 1038SOL    HW214751   3.443   3.698   9.096  0.2924  0.3865  0.2235
 1039SOL     OW14752   4.639   4.725  14.928  0.0857 -0.2740 -0.1582
 1039SOL    HW114753   4.685   4.683  14.855 -0.1925  2.1190 -1.7252
 1039SOL    HW214754   4.547   4.709  14.911 -0.0384 -0.5796  0.8397
 1040SOL     OW14755   3.175   1.822   3.240  0.0152 -0.7285  0.0452
 1040SOL    HW114756   3.158   1.772   3.319 -0.4213 -0.7354 -0.0524
 1040SOL    HW214757   3.139   1.910   3.253 -0.3862 -1.3676  3.0717
 1041SOL     OW14758   3.982   4.676  14.513 -0.2398  0.1944  0.1153
 1041SOL    HW114759   4.012   4.694  14.424  1.3385 -0.1771  0.5627
 1041SOL    HW214760   3.890   4.702  14.511 -0.3063 -0.0714 -0.1865
 1042SOL     OW14761   1.305   2.084   3.541  0.1612 -0.4646 -0.0925
 1042SOL    HW114762   1.219   2.123   3.556 -0.0477 -0.8999 -0.1443
 1042SOL    HW214763   1.310   2.013   3.605 -0.9260 -1.4972 -1.1152
 1043SOL     OW14764   1.986   4.575   8.242 -0.3244  0.1712 -0.8222
 1043SOL    HW114765   1.894   4.600   8.244  0.2146  2.0061  1.2080
 1043SOL    HW214766   2.009   4.609   8.328 -1.8495 -1.0176  0.0507
 1044SOL     OW14767   3.378   1.633   6.841 -0.0246  0.1364 -0.3101
 1044SOL    HW114768   3.379   1.587   6.757 -0.7206  1.6702 -1.1618
 1044SOL    HW214769   3.442   1.586   6.894  1.0151 -0.3059 -1.9506
 1045SOL     OW14770   2.758   1.696   4.667  0.4462 -0.3353 -0.1109
 1045SOL    HW114771   2.679   1.724   4.619 -0.4351 -2.2887  0.1927
 1045SOL    HW214772   2.793   1.629   4.608  1.0616  0.0883 -0.2331
 1046SOL     OW14773   2.403   2.401  15.844 -0.2358  0.0886  0.2466
 1046SOL    HW114774   2.351   2.402  15.924 -0.8959  0.1003 -0.1743
 1046SOL    HW214775   2.332   2.421  15.783  0.2936  0.2759 -0.3043
 1047SOL     OW14776   3.306   1.510   4.029  0.2433 -0.3052  0.1328
 1047SOL    HW114777   3.364   1.439   4.057 -0.2766 -0.2984  1.2538
 1047SOL    HW214778   3.298   1.480   3.939 -0.9754  2.4639 -0.6756
 1048SOL     OW14779   3.448   3.753   6.026  0.0548  0.1227  0.1106
 1048SOL    HW114780   3.367   3.803   6.032 -0.9131 -1.4694  0.1019
 1048SOL    HW214781   3.442   3.697   5.949 -1.8896  0.4888 -0.0047
 1049SOL     OW14782   2.771   1.128   3.078 -0.5399 -0.0383  0.2700
 1049SOL    HW114783   2.858   1.158   3.052  0.4135 -1.9964  1.1594
 1049SOL    HW214784   2.786   1.038   3.108 -1.2505 -0.0304  0.6400
 1050SOL     OW14785   4.214   1.759  12.529  0.2216 -0.7608  0.1355
 1050SOL    HW114786   4.296   1.808  12.538 -0.3781  0.1538  0.4840
 1050SOL    HW214787   4.152   1.809  12.581 -1.1548 -0.5057 -1.7510
 1051SOL     OW14788   4.488   0.291   9.364 -0.1345  0.7085 -0.3415
 1051SOL    HW114789   4.471   0.347   9.441  1.4340  0.1001  0.4360
 1051SOL    HW214790   4.396   0.283   9.339 -0.2533 -1.1565  0.6840
 1052SOL     OW14791   0.419   0.597  16.253  0.4655  0.0906 -0.5397
 1052SOL    HW114792   0.493   0.653  16.229  0.7064  0.5264  1.2263
 1052SOL    HW214793   0.421   0.542  16.175 -0.1704  1.6395 -1.6683
 1053SOL     OW14794   2.844   1.805   5.758  0.5658 -0.0990  0.4392
 1053SOL    HW114795   2.933   1.776   5.777  0.9467 -1.2098 -3.1252
 1053SOL    HW214796   2.825   1.765   5.673 -1.9313  0.7125  0.6055
 1054SOL     OW14797   4.476   2.177   6.502 -0.7847  0.2205 -0.2174
 1054SOL    HW114798   4.521   2.234   6.564 -0.8227  0.5841 -0.5179
 1054SOL    HW214799   4.451   2.098   6.550  1.9227 -1.4369 -1.5044
 1055SOL     OW14800   3.526   1.948   6.521  0.4498 -0.4395  0.9161
 1055SOL    HW114801   3.493   1.874   6.469  0.2342 -0.6054  1.2935
 1055SOL    HW214802   3.620   1.938   6.511  0.6183  3.0251 -1.0850
 1056SOL     OW14803   3.457   0.571   9.183  0.6461 -0.0661  0.4469
 1056SOL    HW114804   3.460   0.662   9.212  0.9493 -0.6486  2.2076
 1056SOL    HW214805   3.460   0.530   9.269 -0.2954 -0.1799  0.4244
 1057SOL     OW14806   2.177   3.431   5.424 -0.9285  0.4966  0.2609
 1057SOL    HW114807   2.107   3.456   5.484 -0.7377  0.6927  0.4011
 1057SOL    HW214808   2.153   3.338   5.415  0.0430  0.3591 -0.9494
 1058SOL     OW14809   1.520   0.158  10.317 -0.1770 -0.2878  0.2596
 1058SOL    HW114810   1.535   0.065  10.298 -0.1371 -0.3266  0.4891
 1058SOL    HW214811   1.474   0.186  10.238  1.3190  3.3311  0.6924
 1059SOL     OW14812   4.520   2.573   6.002 -0.1438 -0.5528  0.7161
 1059SOL    HW114813   4.526   2.498   5.942  1.2386  0.1862 -0.0653
 1059SOL    HW214814   4.506   2.525   6.084 -0.2629 -0.4515  0.7537
 1060SOL     OW14815   0.474   3.840   2.616 -0.7053 -0.3696 -0.0104
 1060SOL    HW114816   0.504   3.930   2.601 -1.4658  0.1288  1.4376
 1060SOL    HW214817   0.475   3.833   2.712  0.3560  2.0001  0.1487
 1061SOL     OW14818   2.235   4.554  12.489  0.1911 -0.0978 -0.0782
 1061SOL    HW114819   2.272   4.485  12.544  0.8367  0.6522  0.4289
 1061SOL    HW214820   2.318   4.601  12.474  1.2640 -0.9370  3.1786
 1062SOL     OW14821   1.043   1.679   4.513 -0.4681  0.3718  0.2256
 1062SOL    HW114822   1.066   1.684   4.606 -0.1679  1.1360  0.1074
 1062SOL    HW214823   1.073   1.765   4.486  0.8892  0.9592  3.5750
 1063SOL     OW14824   3.699   4.375   9.667 -0.0461 -0.8025 -0.4274
 1063SOL    HW114825   3.773   4.326   9.630  1.2694 -0.2076  1.4475
 1063SOL    HW214826   3.619   4.324   9.660 -0.2445 -0.5072 -0.2809
 1064SOL     OW14827   0.441   3.860   6.025  0.1976 -0.4015 -0.4939
 1064SOL    HW114828   0.460   3.922   5.954  1.5990  1.7138  1.7275
 1064SOL    HW214829   0.526   3.816   6.025  0.7979  0.7620  0.3542
 1065SOL     OW14830   3.847   1.215  12.225  0.1717  0.2263 -0.2804
 1065SOL    HW114831   3.801   1.290  12.261 -0.5267  0.9577 -2.6615
 1065SOL    HW214832   3.798   1.138  12.252 -0.0431  0.0677 -1.1166
 1066SOL     OW14833   0.313   1.688  11.018  0.0290  0.0111  0.0949
 1066SOL    HW114834   0.394   1.701  11.069 -0.1541  0.0259  0.3800
 1066SOL    HW214835   0.320   1.757  10.952 -0.3269 -2.0727 -2.1100
 1067SOL     OW14836   1.843   4.610   1.435  0.1029 -0.6345 -0.1657
 1067SOL    HW114837   1.805   4.553   1.368  2.2869 -1.0572 -1.0626
 1067SOL    HW214838   1.885   4.669   1.372  1.0038 -1.7140 -0.5780
 1068SOL     OW14839   1.394   4.256   7.300  1.1332 -0.3386  0.3078
 1068SOL    HW114840   1.324   4.202   7.336 -0.2074  1.2161  0.0059
 1068SOL    HW214841   1.474   4.217   7.335  0.5689  0.0495  1.9990
 1069SOL     OW14842   3.757   3.311   4.423 -0.1517 -0.0218 -0.6638
 1069SOL    HW114843   3.686   3.253   4.453  0.3551 -0.2481  0.0961
 1069SOL    HW214844   3.766   3.245   4.355  2.1992  0.0212 -0.3802
 1070SOL     OW14845   0.125   1.645   7.379  0.1879  0.1318  0.3838
 1070SOL    HW114846   0.117   1.588   7.303 -1.6637  0.3412  0.4257
 1070SOL    HW214847   0.220   1.652   7.392  0.1365  0.6468  0.5164
 1071SOL     OW14848   3.422   1.418   0.298 -0.2660 -0.1070  0.2060
 1071SOL    HW114849   3.366   1.441   0.224  0.1055  0.2622  0.0407
 1071SOL    HW214850   3.455   1.505   0.322  0.6519 -0.1892 -0.7231
 1072SOL     OW14851   1.430   0.984   7.572 -0.2770 -0.6236  0.5076
 1072SOL    HW114852   1.476   0.903   7.595 -2.8465 -2.3104 -0.3783
 1072SOL    HW214853   1.454   1.046   7.642 -0.8874  1.4420 -1.1186
 1073SOL     OW14854   4.656   0.586   7.476  0.1857  0.1646  0.2262
 1073SOL    HW114855   4.726   0.525   7.499  0.3638  0.4265  0.3844
 1073SOL    HW214856   4.600   0.542   7.412 -0.4607  0.9309  0.2652
 1074SOL     OW14857   3.066   0.509  17.274 -0.3816  0.3112  0.0006
 1074SOL    HW114858   3.128   0.522  17.345 -1.7094 -0.5221  1.3279
 1074SOL    HW214859   3.022   0.594  17.279 -1.5780 -0.3753  1.2053
 1075SOL     OW14860   1.932   4.638  17.434  0.3770  0.0787 -0.3382
 1075SOL    HW114861   1.903   4.548  17.418 -0.2435  0.1459  0.4084
 1075SOL    HW214862   1.882   4.650  17.514 -0.6233  0.1775 -0.9732
 1076SOL     OW14863   1.777   0.523   4.278 -0.3451 -0.5207 -0.2199
 1076SOL    HW114864   1.767   0.601   4.224  1.9183  0.1302  0.3123
 1076SOL    HW214865   1.829   0.549   4.355 -2.0439  2.2106  0.0062
 1077SOL     OW14866   3.443   3.643   4.481  0.1252 -0.2039 -0.1821
 1077SOL    HW114867   3.443   3.562   4.532  1.7458  0.6140  1.1212
 1077SOL    HW214868   3.525   3.629   4.434  1.0834  1.3254  1.0188
 1078SOL     OW14869   2.930   2.553   9.251 -0.4012  0.1238  0.6483
 1078SOL    HW114870   2.935   2.579   9.343  2.9462  2.5756 -0.1933
 1078SOL    HW214871   2.841   2.580   9.228 -0.4213  0.7720  1.4879
 1079SOL     OW14872   4.081   1.325  17.601 -0.7286 -0.0766  0.0855
 1079SOL    HW114873   3.991   1.341  17.630 -0.5463  1.9498 -0.4819
 1079SOL    HW214874   4.087   1.383  17.525 -0.0588  0.0357  0.2270
 1080SOL     OW14875   1.196   0.427   4.945 -0.3892 -0.5929  0.3554
 1080SOL    HW114876   1.200   0.338   4.910 -1.0642 -0.0551 -1.0872
 1080SOL    HW214877   1.290   0.444   4.938 -0.5455 -0.0838 -0.4049
 1081SOL     OW14878   1.739   0.620   9.153 -0.1076 -0.5900 -0.0893
 1081SOL    HW114879   1.747   0.703   9.107  1.5487 -0.2312  0.8529
 1081SOL    HW214880   1.830   0.606   9.177  0.5278  1.4524 -1.3382
 1082SOL     OW14881   3.259   3.120   9.417 -0.4102 -0.2390 -0.3184
 1082SOL    HW114882   3.243   3.124   9.511 -0.5689 -1.1507 -0.3077
 1082SOL    HW214883   3.290   3.210   9.405  1.8122 -1.0123 -0.2286
 1083SOL     OW14884   3.294   3.930   3.659 -0.0358 -0.4631  0.1750
 1083SOL    HW114885   3.353   3.864   3.621  0.3451 -0.5764  0.9722
 1083SOL    HW214886   3.335   3.945   3.744  0.5616 -0.2823 -0.1439
 1084SOL     OW14887   2.906   0.683   6.018  0.2715 -0.2357 -0.3918
 1084SOL    HW114888   2.952   0.761   5.988  1.0416 -0.6824 -0.3721
 1084SOL    HW214889   2.818   0.714   5.997  0.3809  0.2384 -0.1464
 1085SOL     OW14890   0.849   2.828   4.695 -0.0969  0.0501 -0.7624
 1085SOL    HW114891   0.789   2.764   4.656 -0.4958  0.1351 -0.2956
 1085SOL    HW214892   0.883   2.789   4.776 -2.1491 -1.7826 -0.7775
 1086SOL     OW14893   0.781   3.828   5.377 -0.2754 -0.2430 -0.3709
 1086SOL    HW114894   0.864   3.790   5.347  0.3691 -0.9861  2.4304
 1086SOL    HW214895   0.767   3.894   5.308  1.7647  1.1339  0.5235
 1087SOL     OW14896   4.588   4.276   5.008 -0.2009  0.3733 -0.1043
 1087SOL    HW114897   4.617   4.294   5.098 -0.1091  0.2755 -0.1140
 1087SOL    HW214898   4.520   4.211   5.025  1.7945 -1.4676  0.8582
 1088SOL     OW14899   0.586   2.064   2.985 -0.4623 -0.1950 -0.1346
 1088SOL    HW114900   0.497   2.091   3.007 -0.3487  0.4439 -0.4507
 1088SOL    HW214901   0.641   2.137   3.016 -1.7242  0.1726  1.2261
 1089SOL     OW14902   1.050   2.145   0.213 -0.2932 -0.2108  0.0860
 1089SOL    HW114903   1.040   2.065   0.162 -2.8219  2.2426 -3.2664
 1089SOL    HW214904   1.026   2.209   0.146  0.1605 -1.7443 -1.5376
 1090SOL     OW14905   2.040   4.649   4.607  0.2794  0.0045 -0.3153
 1090SOL    HW114906   2.061   4.656   4.700 -0.4797 -2.7217  0.0405
 1090SOL    HW214907   2.069   4.737   4.581  0.5888  0.0702  0.2447
 1091SOL     OW14908   3.691   0.272   5.634 -0.0159 -0.3500 -0.8287
 1091SOL    HW114909   3.720   0.309   5.717 -1.3470 -0.8943 -0.1150
 1091SOL    HW214910   3.759   0.206   5.623 -1.1391 -1.4838 -1.0216
 1092SOL     OW14911   3.491   0.757   0.315 -0.2182 -0.0380  0.1053
 1092SOL    HW114912   3.447   0.823   0.262  1.0589 -0.1181 -1.0380
 1092SOL    HW214913   3.441   0.778   0.394  1.9947  0.5229  1.3534
 1093SOL     OW14914   0.471   1.442   9.496 -0.9787  0.0280  0.0898
 1093SOL    HW114915   0.539   1.441   9.429 -0.9393 -1.3364  0.1347
 1093SOL    HW214916   0.438   1.531   9.486 -0.3984  0.6331  3.5603
 1094SOL     OW14917   4.166   3.545   7.497 -0.2983 -0.5052 -0.5142
 1094SOL    HW114918   4.228   3.502   7.438 -0.6689 -0.3846 -0.9920
 1094SOL    HW214919   4.163   3.484   7.571 -0.3587 -0.7747 -0.7349
 1095SOL     OW14920   2.576   1.287   4.995  0.0124 -0.4427  0.6167
 1095SOL    HW114921   2.577   1.292   4.900 -0.0322  3.5022  0.8150
 1095SOL    HW214922   2.482   1.305   5.000  0.0744 -0.1324  0.6758
 1096SOL     OW14923   3.747   4.578  10.072  0.1684  0.0414 -0.0388
 1096SOL    HW114924   3.722   4.485  10.073  0.7312 -0.1281 -2.0546
 1096SOL    HW214925   3.700   4.605   9.994 -0.6172 -0.7414  0.1693
 1097SOL     OW14926   3.034   4.191  15.879 -0.1947  0.6154 -0.3355
 1097SOL    HW114927   3.045   4.276  15.923  2.0820 -0.8347  1.8996
 1097SOL    HW214928   2.965   4.146  15.929 -0.7376  1.7976 -0.0135
 1098SOL     OW14929   3.144   1.495   8.877  0.0940  0.0547 -0.0762
 1098SOL    HW114930   3.232   1.496   8.841 -0.1907 -1.6018 -0.8193
 1098SOL    HW214931   3.152   1.445   8.958  4.2778 -1.9144 -1.7393
 1099SOL     OW14932   0.812   2.547   8.174 -0.6871  0.3381  0.0156
 1099SOL    HW114933   0.820   2.453   8.158 -0.2388  0.2995  0.4622
 1099SOL    HW214934   0.829   2.556   8.268 -0.1440 -1.2217  0.0632
 1100SOL     OW14935   4.415   0.999   7.872 -0.5239 -0.0526  0.0896
 1100SOL    HW114936   4.355   0.931   7.842 -0.9306  0.5674 -0.5027
 1100SOL    HW214937   4.490   0.975   7.817  0.8452 -1.4978  2.6157
 1101SOL     OW14938   1.880   4.418   4.597 -0.0173  0.3138  0.3221
 1101SOL    HW114939   1.907   4.508   4.576 -1.1690  0.7006  0.4589
 1101SOL    HW214940   1.957   4.368   4.620 -0.3552 -0.5874 -0.5200
 1102SOL     OW14941   4.121   4.714   2.343 -0.1129  0.0767 -0.4056
 1102SOL    HW114942   4.205   4.671   2.329  0.2613  1.2511 -1.7912
 1102SOL    HW214943   4.128   0.042   2.273 -0.6841  0.9763  0.3585
 1103SOL     OW14944   3.338   2.953   9.006  0.5577 -0.8048  0.4472
 1103SOL    HW114945   3.420   2.985   8.968 -0.4204 -0.5320 -1.4361
 1103SOL    HW214946   3.366   2.881   9.062  0.4169 -1.1100  0.1309
 1104SOL     OW14947   2.447   4.019  13.201  0.3898  0.1808  0.2728
 1104SOL    HW114948   2.404   3.981  13.124 -1.1920  1.9388  0.2853
 1104SOL    HW214949   2.508   4.080  13.160  0.5176 -1.2628 -1.6938
 1105SOL     OW14950   0.977   4.723   8.040  0.2371 -0.1205  0.5370
 1105SOL    HW114951   0.932   4.695   7.960  0.9538  0.1163  0.0508
 1105SOL    HW214952   0.910   4.704   8.106 -0.5536 -1.0430 -0.5296
 1106SOL     OW14953   4.271   0.222   8.023 -0.4726 -0.0170 -0.2860
 1106SOL    HW114954   4.189   0.228   7.974 -0.9354  0.3510  0.5348
 1106SOL    HW214955   4.316   0.305   8.001  0.9939 -1.1040 -1.4239
 1107SOL     OW14956   1.463   0.622   1.693  0.0661  0.1581  0.0905
 1107SOL    HW114957   1.389   0.562   1.698 -1.1750  1.4573 -2.5121
 1107SOL    HW214958   1.514   0.586   1.766  1.8140 -1.7042 -2.0435
 1108SOL     OW14959   2.826   3.704   3.628 -0.5094 -0.2396 -0.0230
 1108SOL    HW114960   2.856   3.678   3.541  0.8463 -0.4438  0.5167
 1108SOL    HW214961   2.873   3.787   3.638  0.0188 -0.6191  0.6125
 1109SOL     OW14962   3.712   4.616   9.790  0.0004  0.1766  0.2839
 1109SOL    HW114963   3.792   4.651   9.752  1.7927 -2.1623  1.9329
 1109SOL    HW214964   3.688   4.539   9.738 -1.6829 -0.2100  1.6318
 1110SOL     OW14965   2.902   0.001   1.753  0.5049 -0.0319 -0.1866
 1110SOL    HW114966   2.967   4.669   1.740 -1.1074 -1.8752  1.3583
 1110SOL    HW214967   2.931   0.047   1.675 -1.3522  1.5832  0.0554
 1111SOL     OW14968   0.145   2.560   9.370 -0.7478 -0.4864  0.4299
 1111SOL    HW114969   0.156   2.576   9.276 -1.7893 -0.0466  0.3887
 1111SOL    HW214970   0.050   2.556   9.376 -1.0043  2.7450 -1.4265
 1112SOL     OW14971   0.555   0.329   5.244  0.3568 -0.1611  0.2671
 1112SOL    HW114972   0.505   0.262   5.197 -1.4843  1.3516  0.0943
 1112SOL    HW214973   0.515   0.404   5.199 -1.0255 -1.7364 -1.1270
 1113SOL     OW14974   2.939   4.519   4.524 -0.4189  0.3425 -0.8881
 1113SOL    HW114975   2.897   4.605   4.533 -0.2601  0.2029  1.0708
 1113SOL    HW214976   2.961   4.517   4.431  2.1682 -0.8635 -0.2449
 1114SOL     OW14977   4.312   0.496   8.810 -0.2720  0.1212 -0.4672
 1114SOL    HW114978   4.229   0.544   8.817 -0.0126  0.7598 -1.7439
 1114SOL    HW214979   4.309   0.462   8.721 -1.4652 -1.0548  0.0209
 1115SOL     OW14980   0.958   4.317  11.081  0.3246 -0.3926 -0.2346
 1115SOL    HW114981   0.939   4.397  11.033  1.9210  0.9131  1.3388
 1115SOL    HW214982   0.885   4.320  11.143 -1.8082 -2.5420 -2.6116
 1116SOL     OW14983   1.650   4.319   8.221 -0.3821 -0.4536  0.2402
 1116SOL    HW114984   1.668   4.225   8.222 -1.4135 -0.6240  3.4169
 1116SOL    HW214985   1.569   4.317   8.170 -1.3466 -0.5567  1.7913
 1117SOL     OW14986   2.738   3.839   1.850  0.4364 -0.0431  0.3174
 1117SOL    HW114987   2.688   3.887   1.916  1.1269 -1.0003  1.5405
 1117SOL    HW214988   2.772   3.910   1.796  1.8835 -0.3667  0.7994
 1118SOL     OW14989   0.282   4.037  10.931 -0.0192  0.3326 -0.4385
 1118SOL    HW114990   0.199   3.988  10.934 -0.5350  1.2906  0.9183
 1118SOL    HW214991   0.334   3.967  10.893 -1.0808 -2.0240  2.4846
 1119SOL     OW14992   1.524   2.396   8.639 -0.0552 -0.1481 -0.2657
 1119SOL    HW114993   1.483   2.335   8.578 -0.6812 -0.5820  0.5714
 1119SOL    HW214994   1.613   2.409   8.607 -0.1335  0.7942 -0.1044
 1120SOL     OW14995   0.373   3.136  13.015  0.5816  0.0524  0.0445
 1120SOL    HW114996   0.446   3.156  12.957  0.9639 -2.5089 -0.3334
 1120SOL    HW214997   0.339   3.055  12.976 -2.7157  0.3619  2.2080
 1121SOL     OW14998   4.070   2.531   3.599  0.2997  0.3795 -0.3780
 1121SOL    HW114999   4.153   2.577   3.583  0.5735  0.7724  2.0895
 1121SOL    HW215000   4.007   2.602   3.608  0.8346  0.6594  1.2480
 1122SOL     OW15001   1.401   2.006   0.114  0.4512  0.7425  0.6442
 1122SOL    HW115002   1.389   2.077   0.050 -1.3954 -0.9731 -0.9141
 1122SOL    HW215003   1.492   1.983   0.098  1.0391  3.0099  0.7268
 1123SOL     OW15004   3.436   4.073   6.442  0.8044  0.5478  0.1178
 1123SOL    HW115005   3.395   4.079   6.528  0.8376 -0.9905  0.2370
 1123SOL    HW215006   3.363   4.026   6.402  1.0238 -0.4522  0.9102
 1124SOL     OW15007   0.131   2.599   3.119 -0.3613 -0.3016 -0.2265
 1124SOL    HW115008   0.155   2.554   3.200 -0.4761 -1.3108 -0.7566
 1124SOL    HW215009   0.050   2.558   3.089 -0.5156  0.4672 -0.8884
 1125SOL     OW15010   2.508   4.198   6.244  0.3066  0.3712 -0.1196
 1125SOL    HW115011   2.458   4.130   6.289 -2.0636  1.6587 -0.7893
 1125SOL    HW215012   2.438   4.247   6.199 -0.3921 -0.5530 -0.0323
 1126SOL     OW15013   2.298   0.139   7.451 -0.1846  0.1930  0.0409
 1126SOL    HW115014   2.368   0.076   7.469 -1.0612 -0.0003  2.7542
 1126SOL    HW215015   2.223   0.096   7.492  0.9098 -1.2799  0.4957
 1127SOL     OW15016   2.219   1.771   0.713  0.4144 -0.4616 -0.3189
 1127SOL    HW115017   2.136   1.729   0.734  0.5226 -1.2772 -1.5536
 1127SOL    HW215018   2.217   1.772   0.618  1.6377 -0.7664 -0.3544
 1128SOL     OW15019   0.946   1.135   5.128  0.0764  0.2480  0.3480
 1128SOL    HW115020   0.910   1.151   5.041 -0.2917 -0.5923  0.3381
 1128SOL    HW215021   0.904   1.050   5.143 -2.2317  1.0076 -1.6117
 1129SOL     OW15022   4.323   1.635   8.248 -0.9879  0.4858 -0.2047
 1129SOL    HW115023   4.296   1.698   8.315 -2.1454 -0.1449 -0.0773
 1129SOL    HW215024   4.280   1.551   8.266 -1.3451  1.1343  1.9900
 1130SOL     OW15025   4.438   2.548  17.715  0.5609  0.7071 -0.0194
 1130SOL    HW115026   4.418   2.613  17.647  1.6196  1.1214  0.0573
 1130SOL    HW215027   4.531   2.544  17.693  0.9950  0.3684  1.9105
 1131SOL     OW15028   4.303   1.485  13.281 -0.1064  0.1149  0.2861
 1131SOL    HW115029   4.380   1.478  13.225  1.1413  0.2205  1.9961
 1131SOL    HW215030   4.283   1.391  13.284 -1.5166  0.5128  2.8679
 1132SOL     OW15031   1.111   3.291   2.847 -0.6202  0.2767 -0.4395
 1132SOL    HW115032   1.119   3.365   2.786 -1.0611  0.5470 -0.1659
 1132SOL    HW215033   1.167   3.227   2.804  0.3426 -0.4860  1.9744
 1133SOL     OW15034   4.393   3.112   6.061 -0.4394  0.0767  0.2352
 1133SOL    HW115035   4.454   3.119   6.134 -1.3230  0.0210  0.9842
 1133SOL    HW215036   4.347   3.029   6.079 -0.8737  0.1573 -0.5210
 1134SOL     OW15037   3.335   3.608   7.782 -0.0709  0.9505 -0.1653
 1134SOL    HW115038   3.407   3.629   7.721  0.7787 -0.8336  0.2172
 1134SOL    HW215039   3.302   3.691   7.814  0.4818  0.0519  2.6674
 1135SOL     OW15040   0.129   2.000  17.575 -0.3738  0.0120 -0.0644
 1135SOL    HW115041   0.052   2.029  17.526 -0.4706  1.0598  0.7017
 1135SOL    HW215042   0.167   2.083  17.604  2.9446 -0.4896 -2.9852
 1136SOL     OW15043   3.104   2.382  17.515 -0.3527 -0.1346  0.4931
 1136SOL    HW115044   3.157   2.462  17.509  1.3137 -1.1099  2.3612
 1136SOL    HW215045   3.157   2.330  17.575  3.4025  1.0378 -1.7782
 1137SOL     OW15046   2.695   2.638   3.116  0.1043 -0.5334 -0.0559
 1137SOL    HW115047   2.788   2.640   3.094 -0.0438 -0.1694 -0.6443
 1137SOL    HW215048   2.660   2.571   3.057 -2.9807  1.3934 -0.3786
 1138SOL     OW15049   4.477   3.621   7.531 -0.0128 -0.4178 -0.4398
 1138SOL    HW115050   4.439   3.687   7.472 -0.2665  0.8519  1.1472
 1138SOL    HW215051   4.429   3.641   7.612  0.1477  0.1043 -0.4693
 1139SOL     OW15052   3.553   4.587  16.643  0.1236 -0.5113 -0.4841
 1139SOL    HW115053   3.469   4.566  16.684  0.8200 -1.1277  0.6495
 1139SOL    HW215054   3.604   4.514  16.677  0.0305 -0.0312  0.6866
 1140SOL     OW15055   4.489   3.129   5.312 -0.2835 -0.3965  0.1817
 1140SOL    HW115056   4.468   3.047   5.357  0.2492 -0.5057  0.2386
 1140SOL    HW215057   4.583   3.111   5.301 -0.4493 -1.3981  0.4246
 1141SOL     OW15058   4.015   4.707  13.527  0.2239 -0.1899 -0.0979
 1141SOL    HW115059   4.003   4.688  13.434 -2.3135 -0.8767  0.3504
 1141SOL    HW215060   4.043   4.620  13.556 -0.9856  0.3716  2.7860
 1142SOL     OW15061   4.008   0.769   7.678  0.0744 -0.0741  0.3832
 1142SOL    HW115062   3.964   0.837   7.730  0.6098  0.8504 -0.3654
 1142SOL    HW215063   3.963   0.688   7.700  0.4458  0.0864  1.7188
 1143SOL     OW15064   4.013   1.704  11.244  0.4587  0.5325  0.1495
 1143SOL    HW115065   4.046   1.638  11.305 -2.4539 -0.1915  0.9878
 1143SOL    HW215066   3.923   1.677  11.224  1.0143 -2.3592  1.6184
 1144SOL     OW15067   2.005   2.752   8.300  0.4199  1.0135  0.2354
 1144SOL    HW115068   1.994   2.783   8.390 -2.3277  1.0223 -0.1153
 1144SOL    HW215069   2.094   2.774   8.272 -0.0844 -0.3038 -2.4375
 1145SOL     OW15070   2.329   4.193   8.909 -1.2398  0.0322  0.3249
 1145SOL    HW115071   2.345   4.166   8.819 -1.4705 -0.5965  0.4755
 1145SOL    HW215072   2.307   4.112   8.956 -0.1649 -0.3287  0.2163
 1146SOL     OW15073   2.098   0.944   5.463 -0.5936 -0.1098  0.0073
 1146SOL    HW115074   2.125   0.914   5.549 -0.1614  0.9767  0.2529
 1146SOL    HW215075   2.002   0.943   5.469 -0.6605  0.0895 -1.0204
 1147SOL     OW15076   1.623   1.611  13.379  0.1826 -0.9717  0.3735
 1147SOL    HW115077   1.608   1.548  13.309 -1.6274  0.0709 -0.1779
 1147SOL    HW215078   1.532   1.633  13.397 -0.1840  1.2134 -4.2085
 1148SOL     OW15079   0.060   1.732   1.161  0.4091  0.4081  0.2466
 1148SOL    HW115080   0.069   1.644   1.198 -1.1041  0.4211  0.6675
 1148SOL    HW215081   0.053   1.705   1.070  2.1732  1.1426 -0.1095
 1149SOL     OW15082   1.208   2.876   1.392 -0.4340  0.6873  0.3004
 1149SOL    HW115083   1.202   2.808   1.459 -0.8565  1.1372  0.7156
 1149SOL    HW215084   1.152   2.845   1.320  0.0946  0.4021  0.0122
 1150SOL     OW15085   2.859   4.181   2.358  0.0612  0.4429  0.2753
 1150SOL    HW115086   2.907   4.192   2.439 -0.6147 -0.4925  0.8055
 1150SOL    HW215087   2.812   4.265   2.355  0.2228  0.5677  1.2862
 1151SOL     OW15088   2.558   4.008   1.986  0.1094  0.0929 -0.2829
 1151SOL    HW115089   2.491   4.032   1.921 -1.0347  0.6337  1.1003
 1151SOL    HW215090   2.533   4.056   2.065  1.7121  0.9019 -0.2592
 1152SOL     OW15091   3.786   1.867   9.953 -0.3095 -0.0163  0.1064
 1152SOL    HW115092   3.784   1.927   9.879  1.4675 -1.4824 -1.1241
 1152SOL    HW215093   3.799   1.938  10.015 -1.9975  1.0747 -0.7842
 1153SOL     OW15094   2.627   3.613   9.504  0.0295  0.1863  0.0231
 1153SOL    HW115095   2.588   3.684   9.554  3.0132  0.8669  1.4356
 1153SOL    HW215096   2.590   3.542   9.556  3.2048 -1.4869 -0.0019
 1154SOL     OW15097   3.590   3.139  15.022  0.8050  0.0308 -0.4333
 1154SOL    HW115098   3.592   3.204  14.952 -0.9373  0.2176 -0.3068
 1154SOL    HW215099   3.506   3.096  15.004  0.9304  0.0736 -1.1209
 1155SOL     OW15100   3.294   2.448   5.442  0.4504 -0.1775 -0.6048
 1155SOL    HW115101   3.335   2.497   5.371  0.4416 -0.9332 -1.1340
 1155SOL    HW215102   3.239   2.520   5.475 -0.0926 -0.6187 -0.5484
 1156SOL     OW15103   2.387   3.959  11.493  0.0617 -0.2717 -0.0622
 1156SOL    HW115104   2.470   3.924  11.463  0.8925  1.0013  0.7311
 1156SOL    HW215105   2.332   3.883  11.514  1.3082 -1.1981 -0.1371
 1157SOL     OW15106   2.962   1.797   5.121 -0.0733  0.5473 -0.6017
 1157SOL    HW115107   2.987   1.705   5.111  0.3588  0.5447  0.4830
 1157SOL    HW215108   2.996   1.836   5.041  1.9630  2.5914  1.2632
 1158SOL     OW15109   2.585   1.259   3.228  0.3920 -0.2780 -0.6481
 1158SOL    HW115110   2.653   1.227   3.169 -0.2984 -0.3908 -1.3769
 1158SOL    HW215111   2.640   1.296   3.298  0.1350 -1.1418 -0.0012
 1159SOL     OW15112   4.657   1.307  15.277 -0.1001  0.4113 -0.1406
 1159SOL    HW115113   4.720   1.327  15.346 -0.6156 -0.2893  0.5348
 1159SOL    HW215114   4.663   1.215  15.251  1.3760  0.6918 -0.7997
 1160SOL     OW15115   3.186   2.447   2.670  0.4121  0.0479 -0.4051
 1160SOL    HW115116   3.274   2.481   2.685 -0.2365  1.7834 -0.5888
 1160SOL    HW215117   3.209   2.361   2.705  3.4799  0.3193 -1.7476
 1161SOL     OW15118   2.684   2.411   5.093 -0.0051  0.2270  0.2321
 1161SOL    HW115119   2.764   2.372   5.129  0.5551  1.0786 -0.1150
 1161SOL    HW215120   2.618   2.396   5.161 -1.2518  1.0036 -0.8061
 1162SOL     OW15121   1.071   2.281   3.824  0.2343 -0.2698  0.0777
 1162SOL    HW115122   1.113   2.215   3.880 -0.3505  0.7350  1.7036
 1162SOL    HW215123   1.041   2.342   3.891  0.2090 -0.8079  0.5619
 1163SOL     OW15124   0.262   3.245  12.508  0.0076  0.2395  0.3014
 1163SOL    HW115125   0.179   3.293  12.513  0.4941  1.2493 -1.3319
 1163SOL    HW215126   0.264   3.210  12.420  1.0444 -1.4870  1.0091
 1164SOL     OW15127   2.703   4.493   6.034 -0.1888  0.8333 -0.2501
 1164SOL    HW115128   2.725   4.481   6.126  0.5346  0.9020 -0.4159
 1164SOL    HW215129   2.776   4.546   6.002 -1.1924  2.4128  0.0701
 1165SOL     OW15130   4.643   3.464   2.124 -0.5185 -0.3209 -0.1032
 1165SOL    HW115131   4.634   3.405   2.049 -2.0083 -1.3593  0.9215
 1165SOL    HW215132   4.724   3.512   2.104  0.5529 -1.0719  2.4378
 1166SOL     OW15133   4.521   1.626   0.328  0.5270  0.4673  0.5692
 1166SOL    HW115134   4.558   1.688   0.391  0.6010 -0.6174  1.5764
 1166SOL    HW215135   4.581   1.634   0.253 -1.8984 -1.5534 -1.5889
 1167SOL     OW15136   2.124   2.574   3.955 -0.4494  0.1920  0.3684
 1167SOL    HW115137   2.173   2.505   3.912  1.0063 -0.0293  2.3868
 1167SOL    HW215138   2.106   2.545   4.045 -2.1505  0.4174  0.0986
 1168SOL     OW15139   1.567   3.200  12.497  0.5186  0.5081 -0.1245
 1168SOL    HW115140   1.472   3.212  12.496  0.5275  0.4991 -0.7513
 1168SOL    HW215141   1.600   3.285  12.527 -0.8561  0.7410  0.7544
 1169SOL     OW15142   2.725   1.615   3.778  0.4303 -0.5009 -0.1838
 1169SOL    HW115143   2.818   1.595   3.776  0.7603  1.1671 -0.9476
 1169SOL    HW215144   2.696   1.530   3.812 -0.9891 -0.6948 -1.8632
 1170SOL     OW15145   1.083   0.477  17.573  0.3584 -0.3102 -0.2032
 1170SOL    HW115146   1.031   0.547  17.534 -0.1136 -1.4194 -1.5753
 1170SOL    HW215147   1.065   0.491  17.666  0.5524 -1.3934 -0.0029
 1171SOL     OW15148   0.847   3.641   0.333  0.9186 -0.0461 -0.3644
 1171SOL    HW115149   0.785   3.613   0.400 -1.1305  2.5393 -1.1767
 1171SOL    HW215150   0.796   3.711   0.293 -0.5608  0.7881  2.9973
 1172SOL     OW15151   3.345   2.101   8.900  0.1491 -0.1569  0.3393
 1172SOL    HW115152   3.349   2.007   8.914 -1.7329 -0.2377  0.4348
 1172SOL    HW215153   3.250   2.109   8.884 -0.3252 -2.5356  2.0822
 1173SOL     OW15154   4.009   3.567  13.306 -0.3571  0.4322 -0.2695
 1173SOL    HW115155   3.949   3.618  13.360 -0.9240 -0.4139 -0.0923
 1173SOL    HW215156   3.952   3.533  13.238  0.5418 -1.2767 -0.1750
 1174SOL     OW15157   4.594   2.407   8.278 -0.1557  0.0192 -0.1011
 1174SOL    HW115158   4.665   2.449   8.326  0.0841 -1.4205  0.8017
 1174SOL    HW215159   4.571   2.476   8.216  1.7801  0.6812 -0.0752
 1175SOL     OW15160   3.074   0.615   6.926  0.4224  0.1896  0.0540
 1175SOL    HW115161   2.987   0.576   6.919  0.4344  0.3178 -0.9228
 1175SOL    HW215162   3.110   0.578   7.006  3.5644 -1.4584 -2.0852
 1176SOL     OW15163   1.360   1.343   3.824 -0.8477 -0.0091  0.0800
 1176SOL    HW115164   1.273   1.368   3.793 -0.2930  0.9155 -0.7495
 1176SOL    HW215165   1.418   1.339   3.748  0.4171 -0.3966  1.0697
 1177SOL     OW15166   0.408   3.055   5.082  0.2387  0.1113  0.5162
 1177SOL    HW115167   0.449   3.139   5.103 -2.1623  1.5285 -0.3398
 1177SOL    HW215168   0.482   3.000   5.057 -1.6774 -1.2911 -2.1141
 1178SOL     OW15169   0.670   0.320   4.282  0.1959 -0.4768 -0.3667
 1178SOL    HW115170   0.660   0.225   4.277  0.3887 -0.6253  2.1114
 1178SOL    HW215171   0.742   0.332   4.344 -0.5171  1.0194  0.1720
 1179SOL     OW15172   0.898   0.116  17.498 -0.2992  0.1902  0.0738
 1179SOL    HW115173   0.856   0.113  17.584 -1.4368 -0.2271 -0.5016
 1179SOL    HW215174   0.852   0.044  17.456  1.7558 -1.8606  1.3518
 1180SOL     OW15175   4.464   0.767   6.251 -0.2871  0.1884 -0.0482
 1180SOL    HW115176   4.393   0.824   6.221 -1.5878 -1.8382 -0.7344
 1180SOL    HW215177   4.540   0.824   6.234 -0.0907  0.1316  0.6497
 1181SOL     OW15178   2.349   0.141   4.871 -0.5202 -0.0034  0.3687
 1181SOL    HW115179   2.434   0.102   4.893  0.1583  1.4025  0.2542
 1181SOL    HW215180   2.327   0.190   4.950  0.9291  2.7298 -0.9219
 1182SOL     OW15181   1.049   0.179  11.648  0.9031 -0.3088 -0.0158
 1182SOL    HW115182   1.095   0.175  11.731  1.4926  1.5852 -0.2567
 1182SOL    HW215183   1.039   0.274  11.642  0.1196 -0.2719  1.7987
 1183SOL     OW15184   0.006   2.940   9.192 -0.6700 -0.4279  0.2624
 1183SOL    HW115185   4.726   2.933   9.286  0.2786  0.5873  0.5091
 1183SOL    HW215186   4.653   2.923   9.164 -0.3980  0.1423 -0.9585
 1184SOL     OW15187   1.413   2.623   4.248 -0.3670  0.1367 -0.2141
 1184SOL    HW115188   1.468   2.630   4.171  0.6200 -2.2176  0.2819
 1184SOL    HW215189   1.455   2.683   4.309  1.6584  0.0520 -1.5530
 1185SOL     OW15190   0.758   0.638   3.088  0.2685  0.2803  0.1943
 1185SOL    HW115191   0.736   0.723   3.127 -1.0141  0.4076 -0.8133
 1185SOL    HW215192   0.706   0.623   3.008  1.2661  0.9833 -0.5875
 1186SOL     OW15193   2.509   1.438   2.653  0.0394 -0.1196 -0.7991
 1186SOL    HW115194   2.548   1.493   2.722 -2.8514 -0.0353  0.7582
 1186SOL    HW215195   2.421   1.471   2.633  0.2067  1.3987  0.8758
 1187SOL     OW15196   0.240   1.675   8.623 -0.1284 -0.0337 -0.1917
 1187SOL    HW115197   0.165   1.646   8.571 -0.5133  0.6543 -0.0141
 1187SOL    HW215198   0.311   1.622   8.587 -0.5493 -1.3525  0.9293
 1188SOL     OW15199   3.932   0.781   3.843 -0.5104  0.0948 -0.0304
 1188SOL    HW115200   4.025   0.786   3.863 -1.0369  2.5344  1.7741
 1188SOL    HW215201   3.927   0.687   3.827  0.5957 -0.2669  1.8367
 1189SOL     OW15202   2.473   3.399  17.660  0.4912 -0.0572  0.2416
 1189SOL    HW115203   2.385   3.368  17.678 -0.3756  1.1923 -1.8999
 1189SOL    HW215204   2.491   3.435   0.000  0.0658  2.5913 -0.7659
 1190SOL     OW15205   2.839   0.873   6.549  0.2681  0.2554 -0.1051
 1190SOL    HW115206   2.824   0.875   6.454  1.6455  3.3842 -0.2611
 1190SOL    HW215207   2.849   0.965   6.575 -1.3553  0.3695  0.1243
 1191SOL     OW15208   2.557   3.222   4.473 -0.2043 -0.2828  0.1774
 1191SOL    HW115209   2.577   3.297   4.418  0.2460 -0.2255  0.4140
 1191SOL    HW215210   2.477   3.193   4.429  0.1589 -0.5705 -0.2886
 1192SOL     OW15211   2.141   0.904   8.458  0.2974 -0.0764 -0.4392
 1192SOL    HW115212   2.220   0.957   8.449 -2.4166  4.0397  0.2162
 1192SOL    HW215213   2.133   0.892   8.553 -1.8037 -0.8618 -0.7136
 1193SOL     OW15214   0.177   3.053   9.016 -0.9230  0.2871  0.4004
 1193SOL    HW115215   0.140   3.141   9.025  0.5968  0.9124  0.4676
 1193SOL    HW215216   0.116   3.004   9.071 -1.3625  1.8084  1.2644
 1194SOL     OW15217   2.514   3.480   5.823  0.4918  0.2954 -0.1577
 1194SOL    HW115218   2.537   3.542   5.753  0.9738  1.3704  0.9704
 1194SOL    HW215219   2.559   3.400   5.796  2.1092  1.1010  0.1612
 1195SOL     OW15220   0.300   4.063  12.167 -0.2318 -0.4899 -0.0475
 1195SOL    HW115221   0.246   3.994  12.205  1.1813 -1.1267  0.7885
 1195SOL    HW215222   0.290   4.054  12.072 -0.9522 -0.0680 -0.0058
 1196SOL     OW15223   2.301   3.332   3.110  0.1572  0.4060  0.6343
 1196SOL    HW115224   2.257   3.261   3.061  2.9357 -0.1111 -1.0918
 1196SOL    HW215225   2.387   3.332   3.068 -1.3685  2.3360 -2.4926
 1197SOL     OW15226   3.095   4.214   5.628 -0.3675 -0.1253  0.5791
 1197SOL    HW115227   3.120   4.125   5.650 -1.4074 -0.8993 -1.4021
 1197SOL    HW215228   3.152   4.263   5.687  0.6729  1.0280 -1.3690
 1198SOL     OW15229   1.978   4.193   5.009 -0.1220 -0.6524  0.2814
 1198SOL    HW115230   2.004   4.106   4.979  2.9682 -0.6252  2.8538
 1198SOL    HW215231   2.004   4.240   4.929  2.7080 -1.2988  0.8328
 1199SOL     OW15232   3.753   2.522  15.269 -0.3337  0.0255  0.7519
 1199SOL    HW115233   3.701   2.576  15.210  2.6074  2.6722  0.5930
 1199SOL    HW215234   3.739   2.430  15.247  1.5867 -0.3457  1.0374
 1200SOL     OW15235   3.927   2.104  10.446  0.0303  0.2352 -0.3159
 1200SOL    HW115236   3.862   2.146  10.389  0.4367  0.2764 -0.7487
 1200SOL    HW215237   3.903   2.138  10.532  1.7816  0.1902  0.1723
 1201SOL     OW15238   2.988   3.504   6.450  0.0865  0.3557  0.5442
 1201SOL    HW115239   3.018   3.587   6.412 -2.5831  1.7544  1.4810
 1201SOL    HW215240   2.963   3.456   6.372 -0.9596  2.2971 -0.3222
 1202SOL     OW15241   0.720   3.088   0.037  0.2831 -0.7483 -0.0576
 1202SOL    HW115242   0.792   3.026   0.043 -0.3409 -1.7167 -2.7718
 1202SOL    HW215243   0.666   3.051  17.714 -1.1652 -0.9246  1.1563
 1203SOL     OW15244   3.150   1.620   4.383 -0.1348  0.2553  0.3061
 1203SOL    HW115245   3.158   1.692   4.445 -0.0015  0.7050 -0.2367
 1203SOL    HW215246   3.237   1.583   4.368 -0.1264  1.1170 -1.8077
 1204SOL     OW15247   0.905   0.497   8.901 -0.9267 -0.1695 -0.0519
 1204SOL    HW115248   0.847   0.499   8.825 -2.3549  1.6036  1.0663
 1204SOL    HW215249   0.942   0.409   8.894 -0.5054 -0.1771  2.0588
 1205SOL     OW15250   4.524   3.519  11.658 -0.5843 -0.3805  0.0704
 1205SOL    HW115251   4.579   3.534  11.582 -1.6592 -0.0217 -0.6305
 1205SOL    HW215252   4.437   3.531  11.620 -0.0458 -1.7445 -1.6145
 1206SOL     OW15253   4.019   0.882   5.550  0.2618  0.2159 -0.7894
 1206SOL    HW115254   3.933   0.890   5.590 -0.6058 -2.0504 -2.1413
 1206SOL    HW215255   4.061   0.947   5.606 -1.2094 -0.8367  1.5416
 1207SOL     OW15256   2.195   0.358   6.939  0.5981  0.4047  0.6257
 1207SOL    HW115257   2.160   0.311   6.863  4.3275 -0.7657 -0.3958
 1207SOL    HW215258   2.205   0.294   7.009  0.7846  0.3775  0.5734
 1208SOL     OW15259   4.488   2.759   3.126  0.1458  0.0579  0.0271
 1208SOL    HW115260   4.535   2.813   3.190 -1.2349 -1.9033  2.7307
 1208SOL    HW215261   4.535   2.676   3.132  0.9278  0.5449  0.5490
 1209SOL     OW15262   4.140   3.167   7.174 -0.1165  0.0289 -0.3574
 1209SOL    HW115263   4.205   3.219   7.222 -0.2139  1.7951 -2.1563
 1209SOL    HW215264   4.149   3.093   7.234  1.2210 -2.6904 -3.9078
 1210SOL     OW15265   2.049   1.119   3.821 -0.1571 -0.3161 -0.3634
 1210SOL    HW115266   2.007   1.199   3.788  1.7402  0.6916 -0.3158
 1210SOL    HW215267   1.984   1.053   3.798  0.8493 -1.1094 -0.9078
 1211SOL     OW15268   2.684   2.440   2.931 -0.3410  0.9303  0.1238
 1211SOL    HW115269   2.777   2.425   2.917 -0.3854  0.5546  0.2371
 1211SOL    HW215270   2.658   2.431   2.839  0.7813 -0.7724 -0.0288
 1212SOL     OW15271   0.342   1.167  15.814  0.0638 -0.5418  0.1945
 1212SOL    HW115272   0.409   1.228  15.783 -2.4539  2.0475 -0.1027
 1212SOL    HW215273   0.328   1.193  15.905 -0.9786 -1.8221  0.4057
 1213SOL     OW15274   1.086   0.419   8.073 -0.5474 -0.0974 -0.4266
 1213SOL    HW115275   1.088   0.485   8.004  0.1623  0.2805 -0.0528
 1213SOL    HW215276   1.101   0.344   8.017 -0.1187 -1.5791  1.6615
 1214SOL     OW15277   3.629   0.793   4.889 -0.2943  0.9580 -0.0604
 1214SOL    HW115278   3.639   0.853   4.814  0.4210  0.4516 -0.3678
 1214SOL    HW215279   3.696   0.727   4.876 -0.4402  0.5639  1.2061
 1215SOL     OW15280   1.461   0.951   7.273  0.0292  0.0053  0.0574
 1215SOL    HW115281   1.552   0.955   7.304 -0.6284 -0.3262  2.0508
 1215SOL    HW215282   1.414   0.973   7.353  2.1351 -1.1634  1.6267
 1216SOL     OW15283   2.883   0.415  10.608  0.2834 -0.1290 -0.5408
 1216SOL    HW115284   2.956   0.474  10.623  0.1971  0.5619 -2.8148
 1216SOL    HW215285   2.853   0.404  10.698  1.2665 -1.5115 -0.3739
 1217SOL     OW15286   4.665   2.557   6.937  0.0412  0.0284 -0.2400
 1217SOL    HW115287   4.688   2.648   6.958 -2.6146  1.0288 -1.6714
 1217SOL    HW215288   4.733   2.507   6.982 -1.7938 -3.9117 -1.8793
 1218SOL     OW15289   1.771   0.098  14.868 -0.8734 -0.1836 -0.0111
 1218SOL    HW115290   1.854   0.054  14.848 -0.8349  0.8043 -1.9676
 1218SOL    HW215291   1.728   0.019  14.901 -1.5531  0.2318  0.0941
 1219SOL     OW15292   3.401   2.010   0.983  0.5771 -0.5936 -0.2031
 1219SOL    HW115293   3.405   2.054   1.068 -0.1374 -0.4444 -0.2524
 1219SOL    HW215294   3.477   1.953   0.973  0.4732 -0.8020  0.2141
 1220SOL     OW15295   4.321   0.074   6.179 -0.1243 -0.7589  1.0079
 1220SOL    HW115296   4.380   0.003   6.153  0.0253 -0.7353  1.2905
 1220SOL    HW215297   4.301   0.114   6.094 -0.2969 -0.2220  1.2994
 1221SOL     OW15298   0.221   2.105   9.014 -0.7053  0.4987 -0.0402
 1221SOL    HW115299   0.183   2.020   9.036  0.9938 -0.4539 -0.7184
 1221SOL    HW215300   0.299   2.075   8.967 -0.4891 -2.3898  2.1413
 1222SOL     OW15301   2.884   1.161  15.475  0.1133  0.4498  0.3339
 1222SOL    HW115302   2.959   1.104  15.458  0.0082 -1.2951  5.5131
 1222SOL    HW215303   2.916   1.248  15.452  2.4104 -0.7959 -1.1296
 1223SOL     OW15304   0.148   3.411  14.365 -0.4351 -0.0798 -0.2442
 1223SOL    HW115305   0.109   3.369  14.442 -0.5100  1.9384  0.8200
 1223SOL    HW215306   0.239   3.387  14.385 -0.1348 -0.1583 -1.7159
 1224SOL     OW15307   3.490   0.703  14.705  0.2718  0.3042 -0.0377
 1224SOL    HW115308   3.519   0.761  14.634 -1.0320  3.0371  1.6482
 1224SOL    HW215309   3.399   0.715  14.679 -0.2568 -0.9675  1.2354
 1225SOL     OW15310   3.640   1.216   1.814 -0.6138  0.0829 -0.1134
 1225SOL    HW115311   3.638   1.135   1.865 -3.5652  1.7378  2.3653
 1225SOL    HW215312   3.569   1.197   1.753 -0.9907  2.5314 -0.4357
 1226SOL     OW15313   1.476   2.479   5.051  0.3104 -0.6041  0.2028
 1226SOL    HW115314   1.560   2.436   5.071  0.5155 -1.0651 -1.6346
 1226SOL    HW215315   1.503   2.557   5.004 -0.5025  0.3162  1.2771
 1227SOL     OW15316   1.282   0.870   3.416 -0.8554  0.1315  0.1063
 1227SOL    HW115317   1.374   0.892   3.401 -0.9777 -0.2951 -1.2935
 1227SOL    HW215318   1.278   0.775   3.422 -0.3443  0.0344 -1.1593
 1228SOL     OW15319   4.349   0.093   8.711  0.3502  0.2139 -0.0638
 1228SOL    HW115320   4.308   0.008   8.693 -1.1391  1.0090 -0.4375
 1228SOL    HW215321   4.269   0.145   8.707 -0.9783 -1.6641  1.7956
 1229SOL     OW15322   2.645   1.494   5.276 -0.3971  0.0749  0.6593
 1229SOL    HW115323   2.739   1.508   5.292 -0.0284 -1.4068 -0.2904
 1229SOL    HW215324   2.661   1.400   5.270 -0.4602  0.2267 -1.7103
 1230SOL     OW15325   3.013   4.000   7.448  0.5260 -0.4020  0.5705
 1230SOL    HW115326   2.995   4.024   7.357 -1.9616 -0.4031  1.0660
 1230SOL    HW215327   2.930   3.966   7.481  1.2817 -2.2456  0.6156
 1231SOL     OW15328   3.134   3.965   7.015  0.3455  0.2968  0.0778
 1231SOL    HW115329   3.075   3.899   7.052  0.2658  0.3283  0.0070
 1231SOL    HW215330   3.085   4.046   7.033  0.9161  0.5442  0.5171
 1232SOL     OW15331   0.437   0.967   3.911  0.1691 -0.0892  0.6893
 1232SOL    HW115332   0.486   1.002   3.837 -1.7932  0.3999 -0.3898
 1232SOL    HW215333   0.347   0.980   3.881  1.0099  2.7212 -0.6121
 1233SOL     OW15334   2.639   3.906   0.088 -0.1761  0.3932  0.0612
 1233SOL    HW115335   2.618   3.875   0.000  4.2275 -3.0575  0.2435
 1233SOL    HW215336   2.693   3.836   0.125  2.1617  0.9723 -2.2504
 1234SOL     OW15337   2.046   1.992   5.909  0.5216  0.1031  0.2008
 1234SOL    HW115338   2.081   2.080   5.924  0.5161  0.0421  0.5616
 1234SOL    HW215339   1.951   1.998   5.913  0.5398 -0.3143  1.1972
 1235SOL     OW15340   1.879   0.658  10.096  0.8541  0.6519  0.0245
 1235SOL    HW115341   1.825   0.582  10.120 -0.7063  1.5674 -0.5999
 1235SOL    HW215342   1.900   0.647  10.003  1.6784  2.2211  0.0350
 1236SOL     OW15343   1.724   2.502   2.124  0.5752  0.1672  0.4644
 1236SOL    HW115344   1.677   2.573   2.082  1.6903  0.7651  0.2148
 1236SOL    HW215345   1.699   2.506   2.216 -2.0469  0.6166 -0.2696
 1237SOL     OW15346   1.426   0.743   7.706  0.3279 -0.5796  0.2508
 1237SOL    HW115347   1.346   0.698   7.679  0.3251  0.4791 -1.4933
 1237SOL    HW215348   1.481   0.665   7.710  0.5298 -0.5039 -0.9183
 1238SOL     OW15349   0.167   1.764   4.813  0.0627  0.5612 -0.1817
 1238SOL    HW115350   0.169   1.770   4.909 -0.7491  3.3229 -0.3533
 1238SOL    HW215351   0.091   1.707   4.804  1.4844 -1.6518  1.8506
 1239SOL     OW15352   2.842   0.481   9.781  0.1731 -0.0061 -0.7498
 1239SOL    HW115353   2.826   0.404   9.727 -2.1263 -0.5041  0.6668
 1239SOL    HW215354   2.914   0.448   9.835 -0.1941  1.1524  0.4399
 1240SOL     OW15355   2.307   2.583   6.610 -0.3189 -0.3373  0.0622
 1240SOL    HW115356   2.239   2.630   6.659  0.9713  0.4103  1.1470
 1240SOL    HW215357   2.370   2.562   6.679 -1.2350 -1.2618  0.6274
 1241SOL     OW15358   0.349   1.289  13.571 -0.0859  0.0572 -0.1631
 1241SOL    HW115359   0.360   1.195  13.587 -0.6988  0.1006  0.5040
 1241SOL    HW215360   0.264   1.287  13.527 -0.6846 -0.8302  1.0315
 1242SOL     OW15361   2.190   3.348   4.351 -0.1358  0.0535 -0.4944
 1242SOL    HW115362   2.199   3.353   4.256  0.0685 -2.6277 -0.6162
 1242SOL    HW215363   2.246   3.272   4.366  0.4397  0.3016 -1.4334
 1243SOL     OW15364   0.308   0.860   2.365 -0.2925  0.3347  0.0175
 1243SOL    HW115365   0.334   0.790   2.426  3.8537  0.5627 -1.4885
 1243SOL    HW215366   0.218   0.876   2.391 -1.6551 -2.5659 -2.8586
 1244SOL     OW15367   2.351   3.436   9.795 -0.4965  0.3303 -0.3873
 1244SOL    HW115368   2.399   3.514   9.821  1.0248 -0.5547 -0.5235
 1244SOL    HW215369   2.269   3.444   9.844  0.1495 -0.5177  0.8459
 1245SOL     OW15370   3.626   0.618  15.109  0.4457  0.5637 -0.2307
 1245SOL    HW115371   3.591   0.541  15.064 -1.8782  2.6730 -2.0059
 1245SOL    HW215372   3.626   0.581  15.197  1.4057  1.0556 -0.0264
 1246SOL     OW15373   4.120   2.855   5.151  0.2006  0.2289  0.2089
 1246SOL    HW115374   4.060   2.896   5.214 -0.4877 -1.2102  0.4928
 1246SOL    HW215375   4.136   2.765   5.180  0.0757  0.5779  1.3663
 1247SOL     OW15376   2.647   1.979   3.055  0.3288 -0.2229  0.3516
 1247SOL    HW115377   2.552   1.989   3.047 -0.1339 -0.8298  4.6901
 1247SOL    HW215378   2.654   1.888   3.027  3.6567  0.3037 -0.5816
 1248SOL     OW15379   0.753   4.079   6.683  0.1813 -0.1479  0.5231
 1248SOL    HW115380   0.675   4.134   6.690  0.5059  0.2921  0.6646
 1248SOL    HW215381   0.813   4.131   6.629  0.8210 -0.7226  0.6806
 1249SOL     OW15382   0.883   1.699   9.821  0.2303 -0.2696 -0.5990
 1249SOL    HW115383   0.817   1.733   9.882  2.3994  1.2814  0.8607
 1249SOL    HW215384   0.937   1.661   9.890 -1.3853 -1.1872  0.1925
 1250SOL     OW15385   0.187   0.049  16.083 -0.0548  0.1048 -0.4998
 1250SOL    HW115386   0.157   4.701  16.051 -0.1928  0.8778 -2.4381
 1250SOL    HW215387   0.106   0.099  16.081 -0.8621 -1.2155 -0.2465
 1251SOL     OW15388   3.540   2.632   7.350 -0.4373  0.6251  0.0910
 1251SOL    HW115389   3.531   2.537   7.350 -0.7864  0.6614 -0.0726
 1251SOL    HW215390   3.452   2.660   7.375 -1.0502 -0.3939 -0.9422
 1252SOL     OW15391   1.150   1.877  17.468  0.2044 -0.1772  0.0466
 1252SOL    HW115392   1.239   1.902  17.489 -0.2717  0.5655  1.1500
 1252SOL    HW215393   1.101   1.854  17.547  1.2453 -0.4354  0.6172
 1253SOL     OW15394   0.446   2.652   1.719  0.3797 -0.1903  0.7878
 1253SOL    HW115395   0.529   2.630   1.676 -0.3139 -1.9078  0.3325
 1253SOL    HW215396   0.438   2.745   1.698 -2.6021 -0.0003  2.7225
 1254SOL     OW15397   1.125   0.395  13.978  0.3096  0.1177  0.4863
 1254SOL    HW115398   1.211   0.367  13.948  0.1985 -1.4193  1.6053
 1254SOL    HW215399   1.131   0.448  14.057  1.6659  2.1483 -0.9798
 1255SOL     OW15400   3.316   3.272   5.203 -0.4402 -0.2399  0.1572
 1255SOL    HW115401   3.330   3.319   5.285 -0.3632  0.9815 -0.5618
 1255SOL    HW215402   3.347   3.342   5.146 -2.1554  2.1049  2.1003
 1256SOL     OW15403   4.388   3.988   2.679  0.6249 -0.5962 -0.1691
 1256SOL    HW115404   4.433   3.932   2.616  0.0200 -1.6339  0.3234
 1256SOL    HW215405   4.300   3.957   2.654  0.1967 -0.4467  1.1538
 1257SOL     OW15406   4.574   2.519   3.184  0.3589 -0.0263  0.1229
 1257SOL    HW115407   4.484   2.488   3.196 -0.3994  1.5053 -1.5979
 1257SOL    HW215408   4.609   2.499   3.270  1.3537 -1.4593 -0.6131
 1258SOL     OW15409   3.664   3.967   5.911 -0.6169  0.8444  0.2637
 1258SOL    HW115410   3.686   4.040   5.969  0.1623  0.8519 -0.0433
 1258SOL    HW215411   3.598   3.921   5.963 -1.5313  1.1369 -0.6295
 1259SOL     OW15412   1.571   2.786  17.140 -0.5855  0.4487  0.3260
 1259SOL    HW115413   1.600   2.869  17.177 -0.7587  0.3848  0.6035
 1259SOL    HW215414   1.654   2.739  17.136 -0.4426  0.6214  1.3914
 1260SOL     OW15415   0.114   2.021  16.808  0.2882 -0.3855  0.1054
 1260SOL    HW115416   0.129   1.985  16.895 -0.6274 -0.6701  0.1503
 1260SOL    HW215417   0.040   2.081  16.824  2.5583  2.3746  0.2664
 1261SOL     OW15418   0.805   0.989  15.276 -0.1795 -0.2846 -0.6039
 1261SOL    HW115419   0.826   0.945  15.194  1.7044 -0.2466 -0.1380
 1261SOL    HW215420   0.802   0.911  15.332 -1.6056  1.6432  2.0125
 1262SOL     OW15421   2.520   1.953   4.779  0.3668 -0.5222 -0.2223
 1262SOL    HW115422   2.591   1.966   4.716  0.8058  0.3804  0.4485
 1262SOL    HW215423   2.479   1.874   4.745 -1.8244  0.7523 -0.5538
 1263SOL     OW15424   3.445   0.211   7.268  0.0998 -0.1262 -0.2311
 1263SOL    HW115425   3.495   0.289   7.248 -0.5638  0.9798  2.4138
 1263SOL    HW215426   3.440   0.208   7.363 -0.8365  0.3842 -0.2597
 1264SOL     OW15427   3.787   3.938   8.336 -0.1476 -0.0934 -0.4070
 1264SOL    HW115428   3.719   3.988   8.291 -0.1703 -0.7063 -1.0550
 1264SOL    HW215429   3.866   3.973   8.296  0.7793 -2.1859 -0.4217
 1265SOL     OW15430   2.889   2.982   5.686  0.2525 -0.0856  0.1967
 1265SOL    HW115431   2.865   2.896   5.652  2.4495 -1.0015  0.9075
 1265SOL    HW215432   2.843   3.047   5.633  0.6913 -0.9999 -1.3062
 1266SOL     OW15433   0.328   2.185  14.077  0.3353  0.2221  0.5218
 1266SOL    HW115434   0.406   2.231  14.046  0.0373  0.8082  0.6335
 1266SOL    HW215435   0.271   2.198  14.001 -0.1773  1.0318  1.0372
 1267SOL     OW15436   1.328   0.472   7.758  0.4667 -0.1733 -0.6134
 1267SOL    HW115437   1.260   0.518   7.807  2.1024  0.1773  1.3044
 1267SOL    HW215438   1.361   0.415   7.828 -1.4591  0.9659  1.2083
 1268SOL     OW15439   0.670   1.713   7.304 -0.1207  0.4988 -0.5513
 1268SOL    HW115440   0.694   1.778   7.238  1.6389 -0.4751 -0.8914
 1268SOL    HW215441   0.575   1.722   7.302 -0.2276 -0.1031  1.4298
 1269SOL     OW15442   4.010   1.352   5.894 -0.2132 -0.3485 -0.3958
 1269SOL    HW115443   3.952   1.428   5.890  0.9769  0.4062 -2.8357
 1269SOL    HW215444   3.967   1.296   5.959  2.6312 -1.5853  0.4164
 1270SOL     OW15445   3.307   4.457   8.420  0.2561  0.7244  0.2579
 1270SOL    HW115446   3.214   4.464   8.402  0.1899  0.7762  0.6229
 1270SOL    HW215447   3.305   4.409   8.503  0.2852 -0.7204 -0.5783
 1271SOL     OW15448   3.011   3.200   7.997  0.0277 -0.4049 -0.4249
 1271SOL    HW115449   3.027   3.280   7.948  3.6711 -0.1585  1.1736
 1271SOL    HW215450   3.060   3.212   8.079  2.8822 -2.3981 -1.8414
 1272SOL     OW15451   0.049   4.515  14.065  0.4247  0.0395 -0.2070
 1272SOL    HW115452   0.128   4.569  14.071 -0.2650  1.1153 -0.9115
 1272SOL    HW215453   0.047   4.485  13.975  0.1640  0.7307 -0.4332
 1273SOL     OW15454   0.664   2.019   6.601 -0.5069  0.1203 -0.5887
 1273SOL    HW115455   0.571   2.037   6.615 -0.2426  2.3609 -1.7120
 1273SOL    HW215456   0.696   2.063   6.680 -0.4205 -1.3938  0.2143
 1274SOL     OW15457   2.922   4.609   1.383  0.1421 -0.3672 -0.0830
 1274SOL    HW115458   3.011   4.602   1.416 -0.5580 -1.9201  1.4636
 1274SOL    HW215459   2.874   4.562   1.451  0.6183 -1.0884 -0.2546
 1275SOL     OW15460   1.264   1.628   5.157 -0.7395  0.0928 -0.1356
 1275SOL    HW115461   1.330   1.598   5.094 -0.6907  2.6399 -1.3103
 1275SOL    HW215462   1.228   1.702   5.107 -0.1159  0.8321  0.5219
 1276SOL     OW15463   2.282   4.034   5.477  0.0993 -0.5178  0.4169
 1276SOL    HW115464   2.334   3.958   5.454  0.5472 -0.2878  0.6677
 1276SOL    HW215465   2.353   4.098   5.485  0.5466 -1.1693  1.6353
 1277SOL     OW15466   1.514   0.110  10.000  0.0293 -0.0805 -0.0831
 1277SOL    HW115467   1.534   0.093   9.908 -0.2999 -0.3973 -0.0964
 1277SOL    HW215468   1.488   0.201   9.990 -2.0341 -0.5042  1.3812
 1278SOL     OW15469   2.741   3.175   3.658  0.2126 -0.1089 -0.0639
 1278SOL    HW115470   2.789   3.179   3.575 -0.4235 -1.4344 -0.5053
 1278SOL    HW215471   2.809   3.181   3.724  1.6887 -1.4087 -1.4759
 1279SOL     OW15472   0.425   4.179   6.202  0.2905  0.2267 -0.4111
 1279SOL    HW115473   0.505   4.131   6.221  0.9454  1.1406 -0.8413
 1279SOL    HW215474   0.456   4.223   6.122  1.6185  0.3822  0.1879
 1280SOL     OW15475   3.029   2.512   8.421  0.4238  0.5500  0.0772
 1280SOL    HW115476   3.117   2.548   8.432  0.0110  1.0657  1.6330
 1280SOL    HW215477   3.007   2.545   8.334  1.3639 -3.3017 -1.6453
 1281SOL     OW15478   4.288   1.937   7.372  0.5628 -0.0497  0.5373
 1281SOL    HW115479   4.287   1.842   7.386 -0.9845  0.0667  1.2653
 1281SOL    HW215480   4.373   1.946   7.413 -0.1292  0.0424  1.9601
 1282SOL     OW15481   2.084   0.637   9.259 -0.7094  0.2604 -0.1802
 1282SOL    HW115482   2.043   0.643   9.346  0.1728 -0.5470  0.2857
 1282SOL    HW215483   2.154   0.573   9.274  0.0550  1.0412 -0.4150
 1283SOL     OW15484   4.010   0.892   3.454 -0.0491  0.4651  0.0006
 1283SOL    HW115485   4.099   0.904   3.420 -0.0012 -1.7597 -0.7043
 1283SOL    HW215486   3.965   0.954   3.398 -3.6201 -1.5139  0.6790
 1284SOL     OW15487   3.933   2.429   6.326 -0.3927  0.1352 -0.1006
 1284SOL    HW115488   3.850   2.442   6.281 -0.8351 -2.0830  0.0910
 1284SOL    HW215489   3.903   2.392   6.409 -0.4020  1.0601  0.3157
 1285SOL     OW15490   0.412   2.827   5.524 -0.0893 -0.6912 -0.2565
 1285SOL    HW115491   0.375   2.903   5.478  1.6616  1.0436  1.2103
 1285SOL    HW215492   0.353   2.755   5.500  1.4355 -1.3344 -2.1003
 1286SOL     OW15493   2.004   1.576   8.658 -0.2620 -0.6520 -0.1099
 1286SOL    HW115494   1.969   1.489   8.637  3.8320 -2.2117 -0.3878
 1286SOL    HW215495   1.987   1.587   8.752 -0.8190  3.7209 -0.7601
 1287SOL     OW15496   4.474   1.831  17.440  0.8168  0.2638 -0.5819
 1287SOL    HW115497   4.394   1.835  17.388  0.7185 -1.6443 -0.5770
 1287SOL    HW215498   4.529   1.778  17.381  2.8208 -1.1391  2.5547
 1288SOL     OW15499   3.212   1.461   6.991 -0.2468  0.2512 -0.2571
 1288SOL    HW115500   3.256   1.519   6.929  0.4183  2.1919  2.0141
 1288SOL    HW215501   3.275   1.452   7.063 -1.0859 -0.5858  0.3712
 1289SOL     OW15502   3.184   4.595  10.455  0.6230 -0.1653  0.5397
 1289SOL    HW115503   3.202   4.634  10.370 -1.2062  2.5624  1.3953
 1289SOL    HW215504   3.166   4.505  10.427  0.4980  0.1636 -0.4424
 1290SOL     OW15505   1.346   2.602   4.783  0.0421 -0.6577  0.4041
 1290SOL    HW115506   1.336   2.539   4.712  0.1437 -1.5822  1.2279
 1290SOL    HW215507   1.439   2.597   4.802  0.2546  0.1133 -0.3983
 1291SOL     OW15508   2.252   3.729   7.288  0.2042  0.1800 -0.6338
 1291SOL    HW115509   2.311   3.804   7.281 -2.6478  2.3868 -1.2919
 1291SOL    HW215510   2.164   3.762   7.266 -0.4323 -1.1366 -0.0560
 1292SOL     OW15511   0.689   1.680   3.701 -0.2550 -0.0628  0.0068
 1292SOL    HW115512   0.609   1.643   3.663 -0.0225  0.8148 -1.3440
 1292SOL    HW215513   0.726   1.602   3.742  0.1252  0.5299  0.7708
 1293SOL     OW15514   1.002   3.056  12.060 -0.4673 -0.0233  0.2424
 1293SOL    HW115515   0.919   3.077  12.017 -0.7490  1.8619  1.7092
 1293SOL    HW215516   1.067   3.047  11.990  0.4838  0.4232  1.0826
 1294SOL     OW15517   3.392   1.332   6.120 -0.6428 -0.1194 -0.1261
 1294SOL    HW115518   3.468   1.382   6.092 -1.1067 -0.5144 -2.1013
 1294SOL    HW215519   3.425   1.264   6.178  2.3000  2.2005  0.9192
 1295SOL     OW15520   3.461   1.076  12.670  0.8170 -0.4654  0.2035
 1295SOL    HW115521   3.375   1.041  12.647  0.9438 -0.5702 -0.1023
 1295SOL    HW215522   3.436   1.114  12.755 -1.9347  1.1456 -1.3303
 1296SOL     OW15523   0.067   0.435   5.480 -0.2778  0.2751 -0.1022
 1296SOL    HW115524   0.029   0.500   5.421 -0.7134 -0.4362 -0.6010
 1296SOL    HW215525   0.155   0.469   5.498 -1.2641  1.2716  2.8641
 1297SOL     OW15526   0.702   3.744  14.429  0.2710  0.1965  0.9561
 1297SOL    HW115527   0.663   3.699  14.355  0.0170 -0.2918  1.3878
 1297SOL    HW215528   0.777   3.685  14.438  0.0303 -0.4654 -1.4287
 1298SOL     OW15529   2.432   2.794   4.030  0.5331  0.0477 -0.0096
 1298SOL    HW115530   2.527   2.790   4.019  0.6306 -1.3217  1.2407
 1298SOL    HW215531   2.426   2.880   4.072 -2.5699  1.5274 -3.5783
 1299SOL     OW15532   4.537   0.465   3.897  0.8176  0.1050  0.3312
 1299SOL    HW115533   4.564   0.468   3.989 -1.2368  0.3901  0.9027
 1299SOL    HW215534   4.449   0.433   3.914  1.1885 -0.4583  1.2605
 1300SOL     OW15535   0.310   4.721  17.582 -0.3300  0.0910  0.4482
 1300SOL    HW115536   0.353   4.722  17.496 -1.6430 -0.3499 -0.2084
 1300SOL    HW215537   0.219   4.726  17.555 -0.5425 -1.2088  0.9382
 1301SOL     OW15538   3.638   3.283  15.278 -0.0818 -0.5613  0.7210
 1301SOL    HW115539   3.729   3.259  15.265  0.2605  0.7110  0.7674
 1301SOL    HW215540   3.593   3.220  15.222  0.7687  0.5373 -1.1631
 1302SOL     OW15541   3.399   1.797   7.181 -0.0489 -0.3080 -0.1382
 1302SOL    HW115542   3.404   1.888   7.151 -0.4168 -0.0999  0.4257
 1302SOL    HW215543   3.342   1.805   7.257  0.4208 -4.0071  0.5823
 1303SOL     OW15544   3.915   1.421  10.148  0.1567  0.5203  0.2916
 1303SOL    HW115545   3.842   1.466  10.191  0.9343  0.9547  1.1519
 1303SOL    HW215546   3.890   1.398  10.059  0.8215  1.6521 -0.1862
 1304SOL     OW15547   3.443   2.120   6.027  0.3763 -0.3958  0.6539
 1304SOL    HW115548   3.511   2.161   6.081  1.6477 -0.8374 -0.6211
 1304SOL    HW215549   3.416   2.191   5.969  2.1840 -0.9136 -0.8559
 1305SOL     OW15550   0.747   3.872  16.596 -0.5074 -0.2840  0.1217
 1305SOL    HW115551   0.702   3.947  16.636 -6.0291 -2.1165 -2.6798
 1305SOL    HW215552   0.829   3.918  16.575 -1.6176  1.5120 -0.3187
 1306SOL     OW15553   2.551   2.088  16.244 -0.1667 -0.5118  0.1599
 1306SOL    HW115554   2.538   2.000  16.280  0.2524 -0.2943  0.8448
 1306SOL    HW215555   2.590   2.068  16.158  1.2731  0.0744  0.6746
 1307SOL     OW15556   2.632   0.375  16.321  0.4137  0.6058 -0.1705
 1307SOL    HW115557   2.643   0.450  16.380 -1.2970  0.8214 -0.1276
 1307SOL    HW215558   2.681   0.308  16.370 -0.9757 -0.0541  0.3228
 1308SOL     OW15559   0.229   0.023   4.947  0.1522  0.6190 -0.2094
 1308SOL    HW115560   0.253   0.060   4.862 -0.3860  0.7033 -0.3272
 1308SOL    HW215561   0.287   4.686   4.961 -0.2134  0.5121  0.7796
 1309SOL     OW15562   0.512   0.865   5.494  0.7482 -0.7377 -0.3852
 1309SOL    HW115563   0.549   0.947   5.528 -0.6905 -0.2518  0.0094
 1309SOL    HW215564   0.485   0.900   5.409  0.4550  0.3442  0.1551
 1310SOL     OW15565   1.264   3.849  17.631  0.2203 -0.0747 -0.3991
 1310SOL    HW115566   1.201   3.833  17.702  0.8974 -1.2545 -0.0669
 1310SOL    HW215567   1.297   3.760  17.623 -0.7664 -0.5617  0.8932
 1311SOL     OW15568   1.625   4.319   4.063 -0.5344  0.2475 -0.2840
 1311SOL    HW115569   1.656   4.244   4.013  0.0059 -0.0127  0.4501
 1311SOL    HW215570   1.539   4.290   4.094 -0.5832  0.8706  0.1547
 1312SOL     OW15571   3.638   1.746   5.359  0.1648  0.1371  0.0551
 1312SOL    HW115572   3.687   1.826   5.342  0.8683 -0.5320 -1.0512
 1312SOL    HW215573   3.553   1.780   5.330  0.7216  1.0059 -0.5715
 1313SOL     OW15574   2.163   3.248  10.158 -0.3373 -0.1489  0.3577
 1313SOL    HW115575   2.167   3.162  10.117  0.5147 -0.1038  0.3413
 1313SOL    HW215576   2.085   3.235  10.211 -0.0550 -0.8806  0.5966
 1314SOL     OW15577   2.826   2.980   8.052 -0.4513 -0.0485 -0.1760
 1314SOL    HW115578   2.774   2.969   7.972 -0.5518  1.6184 -0.3400
 1314SOL    HW215579   2.902   3.032   8.026 -0.8703 -0.0745 -1.4831
 1315SOL     OW15580   3.115   2.602  13.262  0.3874 -0.0724  0.0566
 1315SOL    HW115581   3.049   2.669  13.245  3.1146  2.2054 -1.6524
 1315SOL    HW215582   3.164   2.644  13.333  0.3353  0.2248 -0.0831
 1316SOL     OW15583   3.703   0.980   7.628 -0.1082 -0.0471  0.2310
 1316SOL    HW115584   3.770   1.021   7.574  1.4364 -1.6720  0.8925
 1316SOL    HW215585   3.632   1.042   7.616 -0.8550 -0.9498 -0.0687
 1317SOL     OW15586   2.849   4.469   4.039 -0.0045  0.2232  0.6276
 1317SOL    HW115587   2.812   4.464   3.951  2.9331  1.7060 -0.7168
 1317SOL    HW215588   2.786   4.416   4.088 -1.0069  0.8517  0.0238
 1318SOL     OW15589   0.689   2.933  12.017 -0.3222  0.5730 -0.5202
 1318SOL    HW115590   0.741   3.014  12.023  0.5121 -0.0189  0.2257
 1318SOL    HW215591   0.676   2.916  11.924  1.1348 -1.3666 -0.3554
 1319SOL     OW15592   3.897   3.687   3.621 -0.2690  0.3058 -0.0570
 1319SOL    HW115593   3.970   3.745   3.595  0.1721 -0.3586 -0.2894
 1319SOL    HW215594   3.905   3.693   3.716  1.7614 -1.2847 -0.1240
 1320SOL     OW15595   3.082   3.927   6.613 -0.3704  0.0258 -0.5296
 1320SOL    HW115596   2.990   3.952   6.626  0.1492  1.9847 -0.5104
 1320SOL    HW215597   3.079   3.838   6.648  3.6004  0.7280  1.6277
 1321SOL     OW15598   3.037   1.977  14.229  0.0460 -0.1289  0.1958
 1321SOL    HW115599   3.010   1.893  14.266  1.7566 -0.1974  1.2849
 1321SOL    HW215600   2.965   2.013  14.177 -0.1512  1.9264  1.8801
 1322SOL     OW15601   1.577   4.145   2.773  0.6354 -0.3029  0.2461
 1322SOL    HW115602   1.533   4.200   2.709 -2.3536 -1.4376  1.3382
 1322SOL    HW215603   1.525   4.158   2.852 -0.2450 -0.5642 -0.2923
 1323SOL     OW15604   2.768   0.302   5.195  0.3855 -0.0347  0.4241
 1323SOL    HW115605   2.817   0.221   5.184  0.8796  0.3090  0.0511
 1323SOL    HW215606   2.692   0.274   5.245 -0.8267 -0.9925 -1.9541
 1324SOL     OW15607   1.488   2.154   4.642  0.0973 -0.1333  0.0801
 1324SOL    HW115608   1.522   2.071   4.674  0.0775  0.3270  1.3057
 1324SOL    HW215609   1.544   2.158   4.565  0.7588 -0.3466  0.5505
 1325SOL     OW15610   4.549   0.423   8.934 -0.0538  1.0104 -0.1795
 1325SOL    HW115611   4.581   0.490   8.874 -0.8604  1.0120 -0.6117
 1325SOL    HW215612   4.455   0.435   8.920 -0.5191 -1.3445  0.8004
 1326SOL     OW15613   1.110   3.794  16.734 -0.4987 -0.2086 -0.6310
 1326SOL    HW115614   1.151   3.880  16.734 -0.8637 -0.0577  2.3708
 1326SOL    HW215615   1.140   3.765  16.820 -1.6677 -0.5456 -0.3442
 1327SOL     OW15616   0.324   4.301   9.416  0.4175 -0.1276  0.1149
 1327SOL    HW115617   0.271   4.228   9.448 -2.1923  0.5450 -2.5772
 1327SOL    HW215618   0.261   4.367   9.386 -1.8783 -1.7875  1.2786
 1328SOL     OW15619   3.562   3.841   8.640 -0.5210  0.3608 -0.2036
 1328SOL    HW115620   3.613   3.857   8.719 -3.5472  1.2950  1.5952
 1328SOL    HW215621   3.535   3.930   8.617 -0.6258  0.5019  0.4600
 1329SOL     OW15622   2.688   1.324  13.532 -0.3687 -0.3012 -0.5731
 1329SOL    HW115623   2.723   1.235  13.521  0.3655  0.0065 -0.6742
 1329SOL    HW215624   2.640   1.319  13.450  1.6989 -1.2741 -1.7342
 1330SOL     OW15625   3.938   1.865   3.111  0.0813 -0.5948 -0.2295
 1330SOL    HW115626   3.857   1.912   3.129  0.4413  0.7582 -2.0653
 1330SOL    HW215627   3.923   1.774   3.136 -0.7221 -0.6331 -0.8674
 1331SOL     OW15628   3.706   0.203   4.996  0.3086 -1.0723 -0.2487
 1331SOL    HW115629   3.729   0.212   5.088 -1.2752  1.4336 -0.1176
 1331SOL    HW215630   3.690   0.108   4.989  0.9930 -1.0959 -1.5079
 1332SOL     OW15631   3.025   1.238   3.449  0.4966 -0.3553  0.2297
 1332SOL    HW115632   3.021   1.291   3.369 -1.6014 -2.5912 -1.1363
 1332SOL    HW215633   2.934   1.216   3.468  0.4075  0.4662  0.7665
 1333SOL     OW15634   2.224   3.441   4.082  0.1019  0.0878 -0.0557
 1333SOL    HW115635   2.262   3.524   4.110 -1.9590  0.7399  0.7807
 1333SOL    HW215636   2.297   3.411   4.028 -0.1086 -0.7632  0.1246
 1334SOL     OW15637   3.382   2.233   2.442  0.2914 -0.4709 -0.2316
 1334SOL    HW115638   3.370   2.322   2.408  1.3348 -0.0783  0.4377
 1334SOL    HW215639   3.471   2.228   2.477  0.2465 -2.4877 -0.4092
 1335SOL     OW15640   0.482   3.030  17.555  0.2922 -0.0281  0.1911
 1335SOL    HW115641   0.442   2.944  17.550 -0.3625  0.2728  0.2488
 1335SOL    HW215642   0.525   3.038  17.470 -0.2984 -1.1106 -0.2063
 1336SOL     OW15643   1.870   4.452   8.690 -0.0752 -0.1126 -0.1336
 1336SOL    HW115644   1.848   4.451   8.597 -1.1270 -3.3963  0.1625
 1336SOL    HW215645   1.851   4.545   8.699 -2.1451 -0.7006  1.5577
 1337SOL     OW15646   4.371   4.577   5.254 -0.1242 -0.4198 -0.0613
 1337SOL    HW115647   4.339   4.543   5.170  2.8045 -1.7364 -0.6497
 1337SOL    HW215648   4.443   4.520   5.280 -0.9548 -2.4526 -2.1976
 1338SOL     OW15649   2.104   1.063   2.940  0.1632  0.8266  0.7094
 1338SOL    HW115650   2.088   0.988   2.998  1.8757  1.3680  1.8996
 1338SOL    HW215651   2.182   1.095   2.986  2.0794  0.9396 -2.6217
 1339SOL     OW15652   0.661   3.999   9.660 -0.6242 -0.4664  0.1672
 1339SOL    HW115653   0.678   4.039   9.745 -3.0902 -0.1613  0.5118
 1339SOL    HW215654   0.621   4.072   9.612  0.8540  0.8058  0.8740
 1340SOL     OW15655   0.705   1.408   4.509 -0.3018  0.3199 -0.0450
 1340SOL    HW115656   0.656   1.406   4.426 -0.9307  0.7230  0.3182
 1340SOL    HW215657   0.740   1.496   4.516  1.5905 -0.5608  1.3867
 1341SOL     OW15658   2.979   2.226   5.463 -0.2645 -0.0164 -0.4786
 1341SOL    HW115659   2.951   2.185   5.545  2.6513 -3.1503 -1.0739
 1341SOL    HW215660   3.001   2.154   5.405 -2.3669 -1.4464  0.5064
 1342SOL     OW15661   3.682   1.343   0.190 -0.5464 -0.1893  0.4807
 1342SOL    HW115662   3.734   1.346   0.270 -1.3429 -1.8328  1.0614
 1342SOL    HW215663   3.592   1.342   0.223  0.4884 -0.7548  3.2354
 1343SOL     OW15664   4.555   2.850   5.012 -0.2200 -0.5794 -0.3653
 1343SOL    HW115665   4.519   2.912   4.949  1.6713  1.8095  0.9016
 1343SOL    HW215666   4.598   2.793   4.948  2.2457 -0.9080  1.5575
 1344SOL     OW15667   0.114   2.085  12.978 -0.0646 -0.7710  0.1916
 1344SOL    HW115668   0.179   2.017  12.996 -0.2990 -1.0123  0.1251
 1344SOL    HW215669   0.087   2.107  13.067  0.9595  0.8604  0.0983
 1345SOL     OW15670   3.532   0.410  12.279  0.5135 -0.4469 -0.0786
 1345SOL    HW115671   3.460   0.452  12.231  0.1806  2.6170  3.1126
 1345SOL    HW215672   3.518   0.320  12.251  1.9809 -0.5614 -0.4429
 1346SOL     OW15673   0.811   1.397   2.410 -0.1907 -0.0493  0.1073
 1346SOL    HW115674   0.888   1.342   2.395  1.0032  2.3147 -2.4258
 1346SOL    HW215675   0.810   1.439   2.324  1.7360 -0.6622 -0.2086
 1347SOL     OW15676   0.161   3.987   4.417  0.2495  0.4524 -0.1425
 1347SOL    HW115677   0.145   3.908   4.365 -0.0978  1.7335 -1.9893
 1347SOL    HW215678   0.117   4.053   4.362 -1.8476 -1.6530 -0.9990
 1348SOL     OW15679   1.589   2.956   4.649 -0.3797 -0.3702  0.5691
 1348SOL    HW115680   1.631   3.037   4.620 -0.1771 -0.8635 -0.5293
 1348SOL    HW215681   1.557   2.979   4.736  0.2053  0.3465  0.5939
 1349SOL     OW15682   2.356   4.189   3.492 -0.1133 -0.0701 -0.4451
 1349SOL    HW115683   2.413   4.247   3.543  0.9822 -1.3177 -0.2395
 1349SOL    HW215684   2.358   4.112   3.548 -0.7232  0.7714  0.7176
 1350SOL     OW15685   3.520   1.327  10.512  0.0192  0.0606 -0.1611
 1350SOL    HW115686   3.471   1.281  10.443  1.8425 -2.9583  0.5533
 1350SOL    HW215687   3.496   1.417  10.492  0.6022  0.5993  1.6105
 1351SOL     OW15688   0.174   1.446   1.797 -0.0503  0.1124  0.4747
 1351SOL    HW115689   0.082   1.473   1.804  0.3988  2.0609 -1.4018
 1351SOL    HW215690   0.222   1.515   1.752  1.3851 -0.3570  1.2902
 1352SOL     OW15691   0.407   2.379   9.052  0.6232 -0.0185  0.1408
 1352SOL    HW115692   0.376   2.461   9.090  0.9504  0.1591  0.0205
 1352SOL    HW215693   0.344   2.312   9.078  0.7156 -0.2534 -0.2406
 1353SOL     OW15694   1.946   1.774   2.743  0.0045 -0.5468  0.1512
 1353SOL    HW115695   1.951   1.813   2.830 -1.2578 -2.8229  1.2318
 1353SOL    HW215696   1.962   1.852   2.690  0.1427 -0.9124 -0.3455
 1354SOL     OW15697   3.528   2.680   1.363 -0.2738 -0.6862 -0.2226
 1354SOL    HW115698   3.608   2.710   1.406 -0.9315  0.0186  0.4984
 1354SOL    HW215699   3.527   2.751   1.299 -0.0766  0.1274  0.6954
 1355SOL     OW15700   3.717   4.734   7.104 -0.5196 -0.3271 -0.4715
 1355SOL    HW115701   3.708   4.646   7.142 -0.5457  0.4694  1.3287
 1355SOL    HW215702   3.644   0.041   7.147 -0.2506  0.0741 -0.4330
 1356SOL     OW15703   3.537   2.124  11.396 -0.6469 -0.2223 -0.8499
 1356SOL    HW115704   3.589   2.201  11.375  0.0234  0.0138  1.6801
 1356SOL    HW215705   3.469   2.119  11.329 -0.4207 -2.5997 -0.8961
 1357SOL     OW15706   0.393   1.348   5.334 -0.4082  0.6004  0.0445
 1357SOL    HW115707   0.316   1.401   5.356 -1.3066 -0.4723 -0.4940
 1357SOL    HW215708   0.360   1.259   5.350  0.3782  0.5085  1.1822
 1358SOL     OW15709   1.641   3.142   9.185  0.3578 -0.2520  0.3333
 1358SOL    HW115710   1.554   3.129   9.148  0.2707 -1.4535  0.9537
 1358SOL    HW215711   1.655   3.235   9.169  1.4008  0.0144  2.6885
 1359SOL     OW15712   4.302   1.144   7.288  0.7071  0.4287  0.2751
 1359SOL    HW115713   4.272   1.080   7.353  1.6647 -0.9154 -0.5983
 1359SOL    HW215714   4.328   1.082   7.220 -1.4255  0.2102 -0.3244
 1360SOL     OW15715   4.693   3.246  14.755  0.0756 -0.0047 -0.1665
 1360SOL    HW115716   0.051   3.260  14.747  0.1044  0.7985  1.6313
 1360SOL    HW215717   4.670   3.204  14.672 -0.2169 -1.6505  0.7557
 1361SOL     OW15718   0.850   4.669   2.123 -0.3662 -0.5755  0.0334
 1361SOL    HW115719   0.831   4.591   2.071 -1.8911  0.9088 -1.6379
 1361SOL    HW215720   0.811   4.736   2.067 -0.2753 -1.2316 -0.8141
 1362SOL     OW15721   2.185   3.183   1.284  0.6703 -0.6894  0.1980
 1362SOL    HW115722   2.270   3.201   1.324  0.0783 -2.0244  2.0392
 1362SOL    HW215723   2.210   3.117   1.218  0.3445 -1.7078  1.0980
 1363SOL     OW15724   1.487   1.616   7.402 -0.4679  0.2998  0.2684
 1363SOL    HW115725   1.531   1.615   7.487  0.9177 -1.4875 -0.4726
 1363SOL    HW215726   1.478   1.522   7.391  0.2966  0.3407 -0.7176
 1364SOL     OW15727   2.814   3.326   6.800  0.3600 -0.2716 -0.4403
 1364SOL    HW115728   2.824   3.346   6.893  0.8855  0.6859 -0.7009
 1364SOL    HW215729   2.729   3.367   6.783 -0.9420 -2.9591 -0.4168
 1365SOL     OW15730   4.236   0.343  16.315 -0.5660  0.0497 -0.1854
 1365SOL    HW115731   4.171   0.371  16.380 -1.0021 -1.3441 -0.0253
 1365SOL    HW215732   4.287   0.274  16.357 -0.5293 -0.6134 -1.3184
 1366SOL     OW15733   0.546   3.300   3.148  0.1187  0.6445  0.2074
 1366SOL    HW115734   0.636   3.328   3.168 -0.6959  1.1309  3.0818
 1366SOL    HW215735   0.567   3.270   3.059 -2.8293 -0.7225 -0.0090
 1367SOL     OW15736   1.907   1.790   1.085 -0.4032 -0.7661 -0.0851
 1367SOL    HW115737   1.990   1.831   1.107  0.7914 -2.9750 -0.5297
 1367SOL    HW215738   1.911   1.766   0.992  1.5957  0.6140 -0.3513
 1368SOL     OW15739   2.927   1.554   5.358 -0.1127 -0.2213 -0.4929
 1368SOL    HW115740   3.010   1.580   5.317  0.7988 -0.4229  1.2231
 1368SOL    HW215741   2.955   1.539   5.448 -0.5793  2.3172  0.0868
 1369SOL     OW15742   0.979   1.404   9.485  0.7487 -0.2729 -0.1712
 1369SOL    HW115743   0.994   1.335   9.549  0.5558 -0.0076  0.1613
 1369SOL    HW215744   1.009   1.475   9.543 -1.6225 -1.8288  2.9677
 1370SOL     OW15745   2.898   1.757   2.822  0.8285  0.3148  0.6459
 1370SOL    HW115746   2.861   1.823   2.764  1.7777 -1.1197 -1.5829
 1370SOL    HW215747   2.979   1.738   2.774  0.0505  0.6481 -0.7736
 1371SOL     OW15748   3.858   4.573  11.681  0.2503  0.0587  0.1342
 1371SOL    HW115749   3.879   4.585  11.774  1.9853  1.0822 -0.3850
 1371SOL    HW215750   3.803   4.498  11.704  2.4525 -2.1009 -1.7050
 1372SOL     OW15751   4.093   2.246   8.472  0.2269 -0.4895  0.2969
 1372SOL    HW115752   4.118   2.191   8.547 -0.9230 -0.8080  0.4436
 1372SOL    HW215753   4.059   2.329   8.506  2.4389  1.1112 -1.3601
 1373SOL     OW15754   0.473   3.472   3.587  0.3796  0.0604 -0.1436
 1373SOL    HW115755   0.504   3.510   3.504  0.3969  0.3261 -0.0146
 1373SOL    HW215756   0.392   3.520   3.603  0.5112  0.6716 -1.2571
 1374SOL     OW15757   4.568   2.606  12.519  0.0842  0.6267  0.4238
 1374SOL    HW115758   4.652   2.563  12.532  0.5770  1.3661 -0.2673
 1374SOL    HW215759   4.549   2.574  12.431  1.1667  1.3805 -0.0899
 1375SOL     OW15760   0.523   3.724  17.143  0.4529  0.1878 -0.2190
 1375SOL    HW115761   0.578   3.801  17.129 -1.0179  0.9673 -1.6607
 1375SOL    HW215762   0.460   3.720  17.071  1.3151  0.5090 -0.9907
 1376SOL     OW15763   1.814   0.437  10.221 -0.1485  0.7897  0.4047
 1376SOL    HW115764   1.807   0.355  10.269  0.7871  1.3506  1.4828
 1376SOL    HW215765   1.773   0.499  10.281 -2.0607  0.7047 -0.8006
 1377SOL     OW15766   2.973   3.019   4.147  0.2330 -0.0359 -0.8515
 1377SOL    HW115767   2.967   2.924   4.156 -0.6344  0.1534  0.7583
 1377SOL    HW215768   2.886   3.048   4.177  1.4104  1.1822  1.3826
 1378SOL     OW15769   4.489   2.378   7.815  0.5505 -0.8446  0.2105
 1378SOL    HW115770   4.464   2.438   7.885 -1.7940  0.0319 -1.3637
 1378SOL    HW215771   4.426   2.400   7.746 -1.2963 -3.1169  1.1738
 1379SOL     OW15772   1.301   0.252   0.450  0.0656  0.6287 -0.0493
 1379SOL    HW115773   1.361   0.238   0.377 -1.4249 -1.2705 -0.9283
 1379SOL    HW215774   1.326   0.172   0.497 -0.3310  1.3774  1.4300
 1380SOL     OW15775   1.726   0.461   4.796 -0.3203 -0.7170  0.5432
 1380SOL    HW115776   1.645   0.439   4.841 -1.4097  1.2616 -0.4447
 1380SOL    HW215777   1.755   0.520   4.865 -1.0363 -1.2992  1.3495
 1381SOL     OW15778   3.470   1.233   6.800 -0.6343 -0.1506 -0.9113
 1381SOL    HW115779   3.537   1.257   6.737 -1.3522  3.3892 -0.3190
 1381SOL    HW215780   3.402   1.185   6.752 -0.7214 -0.5841 -0.3550
 1382SOL     OW15781   1.315   0.096   8.461 -0.6869 -0.9532  0.3338
 1382SOL    HW115782   1.290   0.166   8.400  2.8607  0.6865  0.7584
 1382SOL    HW215783   1.274   0.124   8.543 -0.3530 -1.2564  0.6063
 1383SOL     OW15784   4.639   2.085   2.968  0.1970  0.1369  0.1434
 1383SOL    HW115785   4.650   2.178   2.987 -0.9029  0.4051 -0.5671
 1383SOL    HW215786   4.681   2.075   2.883 -3.5829  2.0408 -1.9403
 1384SOL     OW15787   2.490   2.081  13.038  0.2888 -0.2211 -0.6501
 1384SOL    HW115788   2.429   2.078  13.112  2.6473 -0.3108  1.3211
 1384SOL    HW215789   2.572   2.035  13.057  1.6290  1.9823 -1.0679
 1385SOL     OW15790   1.302   4.002   7.819  0.4582 -0.7517 -0.2306
 1385SOL    HW115791   1.397   3.996   7.819  0.5966  1.4785 -0.5463
 1385SOL    HW215792   1.265   3.914   7.829  0.4321 -0.9118 -1.7211
 1386SOL     OW15793   2.334   3.188   5.245 -0.0160 -0.1622  0.3973
 1386SOL    HW115794   2.274   3.177   5.318  0.6356  0.0554  0.9706
 1386SOL    HW215795   2.288   3.155   5.168 -1.8626  1.8149  0.6886
 1387SOL     OW15796   0.164   2.271   2.891  0.0026  0.2696  0.2076
 1387SOL    HW115797   0.082   2.319   2.905 -1.6225 -2.2762 -0.5153
 1387SOL    HW215798   0.140   2.219   2.814 -0.6692 -0.8359  1.1571
 1388SOL     OW15799   2.619   3.457   6.677 -0.3125 -0.1899 -0.5716
 1388SOL    HW115800   2.695   3.445   6.619 -2.3440 -1.3343 -2.9867
 1388SOL    HW215801   2.568   3.521   6.627 -0.1953  0.9901  0.8146
 1389SOL     OW15802   4.328   2.365   6.682 -0.3529  0.0107 -0.4058
 1389SOL    HW115803   4.342   2.363   6.587 -0.0476 -2.4010 -0.3025
 1389SOL    HW215804   4.315   2.459   6.695 -0.7267 -0.1052  0.0366
 1390SOL     OW15805   4.462   4.698   3.365  0.0628  0.2939  0.4150
 1390SOL    HW115806   4.505   0.044   3.348  0.8972 -0.3019 -0.3940
 1390SOL    HW215807   4.498   4.646   3.293  0.2695 -0.3269  0.9633
 1391SOL     OW15808   3.462   2.568   5.225 -0.3206 -0.0732 -0.4419
 1391SOL    HW115809   3.491   2.481   5.198 -0.9353 -0.6864  0.8649
 1391SOL    HW215810   3.450   2.611   5.141 -1.6670 -0.7047 -0.5725
 1392SOL     OW15811   0.572   2.167   4.227  0.3962  0.1826 -0.1406
 1392SOL    HW115812   0.499   2.107   4.213  0.4510  0.3588 -1.1663
 1392SOL    HW215813   0.637   2.134   4.166  0.9382 -0.4239  0.7622
 1393SOL     OW15814   4.466   2.539   7.225 -0.1449 -0.5018 -0.5496
 1393SOL    HW115815   4.551   2.527   7.267 -0.1583 -0.9798 -0.6591
 1393SOL    HW215816   4.461   2.634   7.233  2.8892 -0.2873 -1.0637
 1394SOL     OW15817   4.382   2.233   0.003  0.7285  0.0313  0.2767
 1394SOL    HW115818   4.311   2.281   0.046  0.8700 -0.7353  1.3372
 1394SOL    HW215819   4.332   2.192  17.679 -1.0784  0.4317  1.3441
 1395SOL     OW15820   2.872   2.066   7.291  0.1982  0.1592  0.0513
 1395SOL    HW115821   2.961   2.086   7.320  0.4472  0.8229 -1.1660
 1395SOL    HW215822   2.861   2.131   7.221 -3.6674 -0.3016  0.2574
 1396SOL     OW15823   0.346   1.303   4.359  0.4435  0.1257 -0.1671
 1396SOL    HW115824   0.370   1.214   4.383  1.2027  1.1926  3.0812
 1396SOL    HW215825   0.377   1.304   4.268  1.7360  0.7904  0.2751
 1397SOL     OW15826   1.607   1.817   6.106  0.3600  0.7486  0.1023
 1397SOL    HW115827   1.643   1.811   6.018  1.5561  1.0483  0.5614
 1397SOL    HW215828   1.555   1.896   6.096 -1.4785 -0.3468  0.9647
 1398SOL     OW15829   0.435   4.714   6.459 -0.2772 -0.2064  0.1804
 1398SOL    HW115830   0.467   4.636   6.415 -0.0520  0.4263 -0.7766
 1398SOL    HW215831   0.501   0.041   6.432 -4.7026  3.3308 -2.2487
 1399SOL     OW15832   0.182   0.357   3.237  0.4110 -0.1812  0.7534
 1399SOL    HW115833   0.186   0.331   3.329  1.9218  0.1282  0.7846
 1399SOL    HW215834   0.274   0.337   3.222  0.0668 -0.7850 -0.5501
 1400SOL     OW15835   2.450   3.807   0.496  0.3228 -0.2624 -0.2412
 1400SOL    HW115836   2.538   3.785   0.466  0.5802  1.5764 -0.8051
 1400SOL    HW215837   2.405   3.722   0.491 -0.6261  0.1358  1.7218
 1401SOL     OW15838   3.371   0.025   9.001  0.1157 -0.2912 -0.5835
 1401SOL    HW115839   3.416   0.108   8.983 -0.4004  0.3108  0.8843
 1401SOL    HW215840   3.427   4.695   8.962 -2.6334 -3.6184  1.1790
 1402SOL     OW15841   0.356   4.469   6.304  0.1988 -0.4102  0.3672
 1402SOL    HW115842   0.304   4.394   6.332 -0.8211 -0.1398 -0.8148
 1402SOL    HW215843   0.439   4.435   6.338 -0.8468 -1.1185  2.1871
 1403SOL     OW15844   2.926   4.205   8.125 -0.2976 -0.1066 -0.5797
 1403SOL    HW115845   2.970   4.204   8.210 -1.2615 -2.5975 -0.1023
 1403SOL    HW215846   2.838   4.229   8.152  1.1271  3.4648  0.8797
 1404SOL     OW15847   0.804   4.344  17.672  0.1474  0.9594  0.3781
 1404SOL    HW115848   0.813   4.437  17.693  0.9839  0.8246  0.6347
 1404SOL    HW215849   0.769   4.347  17.583  0.3102 -0.4972  0.2657
 1405SOL     OW15850   3.918   1.827   4.722 -0.2615  0.1094  0.0669
 1405SOL    HW115851   3.928   1.873   4.639 -3.3044  0.3784 -0.1278
 1405SOL    HW215852   3.876   1.747   4.690 -1.1552  0.8403 -0.5947
 1406SOL     OW15853   4.114   2.568  10.368  0.1464 -0.0445  0.0731
 1406SOL    HW115854   4.097   2.516  10.447  1.2151  0.1654  0.4463
 1406SOL    HW215855   4.202   2.535  10.348 -0.5755  0.5730 -4.1502
 1407SOL     OW15856   2.067   0.465  14.416  0.2597 -0.3693  0.0064
 1407SOL    HW115857   2.126   0.511  14.475  1.9967 -1.4184 -0.9278
 1407SOL    HW215858   2.137   0.412  14.379 -0.0324 -0.0590 -0.9814
 1408SOL     OW15859   3.039   4.570   8.937  0.2313 -0.2656  0.3668
 1408SOL    HW115860   3.012   4.662   8.937 -0.2835 -0.4144 -0.8724
 1408SOL    HW215861   3.045   4.561   8.842 -1.9740 -0.1006  0.2047
 1409SOL     OW15862   3.887   1.937   6.259  0.1811  0.4054  0.7960
 1409SOL    HW115863   3.845   2.022   6.246 -0.4785  0.0970  0.8855
 1409SOL    HW215864   3.897   1.945   6.354  2.1776 -2.2151  0.8005
 1410SOL     OW15865   4.355   1.014   3.876 -0.1279  0.0244 -0.0564
 1410SOL    HW115866   4.294   0.941   3.874  1.0889 -1.0470  2.1185
 1410SOL    HW215867   4.312   1.076   3.934  0.2410  0.2329 -0.0004
 1411SOL     OW15868   3.511   0.074   6.884  0.4690  0.2242 -0.2178
 1411SOL    HW115869   3.432   0.084   6.937  0.1237  1.5137 -0.9685
 1411SOL    HW215870   3.529   0.168   6.879 -2.5874  0.8328 -0.2617
 1412SOL     OW15871   2.062   2.192  16.969 -0.4293 -0.6039 -0.4521
 1412SOL    HW115872   2.135   2.251  16.950 -1.4875  0.2058 -1.9594
 1412SOL    HW215873   2.030   2.237  17.047 -2.4038 -0.4987 -1.3221
 1413SOL     OW15874   0.878   3.472   6.964  0.1661  0.2347  0.2627
 1413SOL    HW115875   0.802   3.530   6.961  1.2694  1.5763 -2.1590
 1413SOL    HW215876   0.830   3.390   6.976  1.4749 -0.5149  0.4094
 1414SOL     OW15877   3.654   0.844   5.862 -0.1966  0.2573 -0.3119
 1414SOL    HW115878   3.582   0.879   5.809 -1.2264  1.0390  1.6234
 1414SOL    HW215879   3.606   0.810   5.937  1.6958  0.8204  1.1469
 1415SOL     OW15880   0.340   2.981  10.635  0.5156 -0.9930  0.1442
 1415SOL    HW115881   0.366   2.889  10.631 -1.3405 -1.5310  0.8142
 1415SOL    HW215882   0.286   2.987  10.556 -0.7138 -0.4646  1.0228
 1416SOL     OW15883   3.635   1.109   3.813  0.0254  0.5187  0.1371
 1416SOL    HW115884   3.550   1.067   3.796  0.6553 -0.8633  0.3645
 1416SOL    HW215885   3.677   1.074   3.735 -0.0620 -2.9239  1.6023
 1417SOL     OW15886   4.288   4.515   3.633 -0.4085  0.0504  0.2868
 1417SOL    HW115887   4.299   4.549   3.544  1.1705  1.1790  0.9323
 1417SOL    HW215888   4.251   4.429   3.612  0.9769 -0.1835 -1.1920
 1418SOL     OW15889   4.005   0.122   3.725 -0.0597 -0.0500  0.1031
 1418SOL    HW115890   4.064   0.196   3.714 -0.6103  0.3743  0.0545
 1418SOL    HW215891   3.972   0.131   3.814 -1.7165 -0.4715 -0.4711
 1419SOL     OW15892   2.269   1.023  17.589 -0.0222  0.6042  0.2426
 1419SOL    HW115893   2.290   0.944  17.639  0.7653 -1.6137 -3.6150
 1419SOL    HW215894   2.357   1.051  17.563  0.7659 -1.3486  0.7814
 1420SOL     OW15895   4.032   4.009   5.133 -0.0268  0.1172  0.4002
 1420SOL    HW115896   4.127   4.006   5.130 -0.0804  0.9970 -1.8552
 1420SOL    HW215897   4.013   4.062   5.056  0.0302 -1.2198 -0.5292
 1421SOL     OW15898   3.690   3.186   1.994 -0.4185 -0.0040  0.7764
 1421SOL    HW115899   3.610   3.189   2.048 -1.8880  0.3123 -1.4205
 1421SOL    HW215900   3.646   3.224   1.918 -1.1625  1.7463  2.0941
 1422SOL     OW15901   4.104   2.714   2.569 -0.1426  0.1102 -0.0068
 1422SOL    HW115902   4.070   2.626   2.585  1.4129 -0.0823  2.2108
 1422SOL    HW215903   4.181   2.706   2.626  0.3412  1.4836 -0.4607
 1423SOL     OW15904   0.495   1.051   3.309 -0.1828 -0.1222 -0.0754
 1423SOL    HW115905   0.502   1.143   3.284  2.8106 -0.2227  0.3333
 1423SOL    HW215906   0.404   1.039   3.284  0.5761 -3.2493 -1.3695
 1424SOL     OW15907   3.281   0.659   2.230 -0.3703  0.1551 -0.2967
 1424SOL    HW115908   3.346   0.696   2.291 -0.6255  1.1210 -0.6051
 1424SOL    HW215909   3.260   0.574   2.269  0.7272  1.0560  2.2693
 1425SOL     OW15910   0.039   3.237   5.135  0.2719 -0.4831 -0.1224
 1425SOL    HW115911   0.101   3.205   5.200 -0.1334  0.9626  0.9952
 1425SOL    HW215912   0.092   3.245   5.055  0.6277 -0.8438  0.0776
 1426SOL     OW15913   3.767   3.413   7.114 -0.6225 -0.4230  0.6174
 1426SOL    HW115914   3.767   3.340   7.053  1.1524 -0.1513  0.2974
 1426SOL    HW215915   3.832   3.368   7.168  1.4525  1.7331 -0.0977
 1427SOL     OW15916   3.985   4.302   8.086 -0.1185 -0.5224  0.2532
 1427SOL    HW115917   3.986   4.343   8.000 -2.6642 -0.2586  0.3432
 1427SOL    HW215918   3.928   4.365   8.130  0.3813 -0.1318  0.3414
 1428SOL     OW15919   4.180   1.990   8.039 -0.0320 -0.0690  0.6741
 1428SOL    HW115920   4.230   2.072   8.033 -0.5063  0.1731  0.0564
 1428SOL    HW215921   4.239   1.924   8.003 -1.2524 -0.2999 -0.9110
 1429SOL     OW15922   1.580   3.812   9.638  0.2419 -0.2685  0.3602
 1429SOL    HW115923   1.639   3.885   9.659  0.3513 -0.7365  1.6774
 1429SOL    HW215924   1.603   3.792   9.547 -1.1480  0.3075 -0.1226
 1430SOL     OW15925   4.429   1.618   4.865 -0.7593 -0.8885 -0.2099
 1430SOL    HW115926   4.340   1.654   4.857 -0.7649 -1.0362 -0.7715
 1430SOL    HW215927   4.439   1.597   4.958  0.2799  1.8103  0.2852
 1431SOL     OW15928   2.517   1.326   2.245  0.2371  0.5085 -0.1564
 1431SOL    HW115929   2.495   1.322   2.152  2.3679 -2.8353 -0.5345
 1431SOL    HW215930   2.433   1.362   2.274  0.7823 -0.1663  2.2119
 1432SOL     OW15931   0.543   1.403   2.375  0.3736 -0.8599 -0.1534
 1432SOL    HW115932   0.551   1.337   2.305 -0.4060 -1.0529 -0.0652
 1432SOL    HW215933   0.631   1.411   2.411 -0.3694 -0.8464  1.6549
 1433SOL     OW15934   3.601   0.468   2.963 -0.2686 -0.1474  0.7043
 1433SOL    HW115935   3.693   0.474   2.990 -0.2170  0.4610  0.3881
 1433SOL    HW215936   3.611   0.458   2.868 -2.2468  1.0183  0.3703
 1434SOL     OW15937   2.123   0.165   4.574 -0.0752  0.4378 -0.5142
 1434SOL    HW115938   2.072   0.246   4.568 -0.4025  0.3403  0.9656
 1434SOL    HW215939   2.184   0.176   4.501 -2.4092  2.4497 -2.1654
 1435SOL     OW15940   1.682   0.841  16.911 -0.5323  0.2214 -0.7597
 1435SOL    HW115941   1.705   0.753  16.881  0.8703  0.0917  0.7180
 1435SOL    HW215942   1.766   0.883  16.891 -0.2146  0.8045  1.8338
 1436SOL     OW15943   2.504   3.544   0.156  0.3729  0.0801 -0.6627
 1436SOL    HW115944   2.456   3.532   0.238 -0.2885 -2.2654 -1.3816
 1436SOL    HW215945   2.454   3.620   0.128 -1.3085 -0.8577 -0.2015
 1437SOL     OW15946   0.240   3.144   8.585  0.0689 -0.2805  0.2522
 1437SOL    HW115947   0.171   3.203   8.615  2.5874  1.5512  2.4577
 1437SOL    HW215948   0.278   3.186   8.507  2.2976  0.3229  1.6640
 1438SOL     OW15949   3.840   4.615   6.891 -0.7134 -0.3296 -0.3097
 1438SOL    HW115950   3.904   4.686   6.876 -0.8352  0.0798  1.1230
 1438SOL    HW215951   3.781   4.654   6.956 -1.1330 -2.1031  0.3601
 1439SOL     OW15952   0.466   0.639   9.133 -0.2106  0.5382 -0.3913
 1439SOL    HW115953   0.374   0.640   9.109 -0.4254  0.1893  0.4250
 1439SOL    HW215954   0.468   0.704   9.203  1.4147 -2.3046  2.2297
 1440SOL     OW15955   2.506   1.424   8.661  0.2870 -0.0015 -0.0705
 1440SOL    HW115956   2.567   1.386   8.724 -0.4763 -0.0079  0.6657
 1440SOL    HW215957   2.539   1.395   8.576  2.0345 -0.2670  0.6991
 1441SOL     OW15958   3.110   0.056   5.212  0.5312 -0.0163  0.0819
 1441SOL    HW115959   3.165   0.134   5.216 -0.0045  0.3672  0.0209
 1441SOL    HW215960   3.166   4.722   5.242 -1.1261 -0.3648  2.3609
 1442SOL     OW15961   4.322   0.893   5.592  0.4381 -0.1187 -0.0215
 1442SOL    HW115962   4.264   0.912   5.518  0.2407 -1.7302 -0.2919
 1442SOL    HW215963   4.363   0.979   5.599 -1.3367  0.6316  1.2833
 1443SOL     OW15964   2.816   1.135   6.673 -0.1389  0.0179 -0.3295
 1443SOL    HW115965   2.796   1.151   6.765 -3.6306  0.2991 -1.1335
 1443SOL    HW215966   2.868   1.212   6.648 -1.2749  0.6032 -0.9166
 1444SOL     OW15967   4.702   4.671   4.928 -0.3581  0.1625  0.2979
 1444SOL    HW115968   0.056   4.702   4.921  0.9504 -3.3475  1.9644
 1444SOL    HW215969   4.700   4.654   5.023 -0.0966 -1.2333  0.0550
 1445SOL     OW15970   2.728   2.924   6.351  0.3560 -0.1254 -0.5453
 1445SOL    HW115971   2.746   2.834   6.377 -0.2110  0.2161  0.9860
 1445SOL    HW215972   2.791   2.937   6.280  0.1758  2.2002 -0.2833
 1446SOL     OW15973   0.683   0.050   6.648 -0.8966  0.1917  0.5527
 1446SOL    HW115974   0.643   0.137   6.653  0.8000  1.1363 -2.3828
 1446SOL    HW215975   0.762   0.074   6.697 -0.5791  0.6321 -0.1797
 1447SOL     OW15976   1.784   2.958   8.444  0.4934  0.0850 -0.1557
 1447SOL    HW115977   1.732   2.916   8.375 -0.7943 -0.9624  1.4729
 1447SOL    HW215978   1.818   2.880   8.488 -4.4841 -2.1246 -0.3008
 1448SOL     OW15979   0.090   0.807  16.443  0.3528  0.3942 -0.4526
 1448SOL    HW115980   0.044   0.834  16.522  1.0090 -3.5755  1.2924
 1448SOL    HW215981   0.090   0.874  16.375 -0.8248  0.8520 -0.0097
 1449SOL     OW15982   0.182   0.953   3.837 -0.4016 -0.4545 -0.1913
 1449SOL    HW115983   0.173   0.984   3.928  0.1733  1.5987 -0.8240
 1449SOL    HW215984   0.097   0.912   3.821  0.4918 -1.9873 -0.9483
 1450SOL     OW15985   1.611   3.549   4.023  0.4760 -0.3609 -0.2912
 1450SOL    HW115986   1.528   3.595   4.014  1.6399  1.5357 -1.2784
 1450SOL    HW215987   1.643   3.571   4.111 -0.5047 -1.0340  0.2363
 1451SOL     OW15988   0.891   2.460   6.684 -0.2671 -0.2651  0.0632
 1451SOL    HW115989   0.797   2.479   6.679 -0.0867 -0.3083 -3.4681
 1451SOL    HW215990   0.897   2.419   6.598  0.9109 -1.0904  0.5484
 1452SOL     OW15991   0.727   2.916   3.426 -0.9683 -0.1671  0.2102
 1452SOL    HW115992   0.817   2.901   3.394 -2.0334 -1.4556 -2.2202
 1452SOL    HW215993   0.680   2.911   3.342  2.7581  1.0755 -1.9781
 1453SOL     OW15994   2.504   4.272  13.061  0.3135 -0.0254  0.4756
 1453SOL    HW115995   2.540   4.266  12.972 -0.6149 -2.2317  0.2331
 1453SOL    HW215996   2.436   4.338  13.051  2.3092  1.9321 -0.2927
 1454SOL     OW15997   0.452   3.249   3.992  0.3415 -0.2197 -0.5248
 1454SOL    HW115998   0.456   3.338   4.028 -5.0525  0.3851 -1.2966
 1454SOL    HW215999   0.502   3.254   3.910 -0.3177  2.7185 -0.7568
 1455SOL     OW16000   0.700   0.098   7.875  0.2397 -0.2743 -0.1783
 1455SOL    HW116001   0.666   0.133   7.957 -1.4607 -0.4842 -0.7956
 1455SOL    HW216002   0.695   0.002   7.884 -1.0035 -0.2095 -0.1938
 1456SOL     OW16003   0.187   1.476   0.592 -0.1776  0.3288 -0.2667
 1456SOL    HW116004   0.107   1.488   0.644 -0.2267  1.9179 -0.6996
 1456SOL    HW216005   0.197   1.566   0.562  0.2230  0.2732 -0.2950
 1457SOL     OW16006   1.208   2.723  17.481 -0.1754  0.2150 -0.1329
 1457SOL    HW116007   1.147   2.781  17.435 -0.3002  1.0065  1.0243
 1457SOL    HW216008   1.156   2.644  17.495  0.3060 -0.0725  0.0098
 1458SOL     OW16009   4.664   2.952   0.033  0.5721  0.5055  0.7528
 1458SOL    HW116010   4.697   3.001   0.109  0.8070  0.7406  0.4993
 1458SOL    HW216011   4.701   2.867   0.055 -0.5882 -0.0884  0.3714
 1459SOL     OW16012   1.130   3.691   0.396 -0.1222 -0.0338  0.1181
 1459SOL    HW116013   1.045   3.655   0.370 -0.7267  1.1990  0.3913
 1459SOL    HW216014   1.137   3.642   0.478  2.6959  1.0431  0.5100
 1460SOL     OW16015   0.932   4.505   8.902 -0.2608  0.5509 -0.0948
 1460SOL    HW116016   0.859   4.509   8.840  0.5201  0.2800 -1.0318
 1460SOL    HW216017   0.895   4.560   8.971 -2.6646 -1.2821  0.0578
 1461SOL     OW16018   2.544   1.618  16.141 -0.1778  0.4047 -0.0433
 1461SOL    HW116019   2.581   1.530  16.154 -0.3051  0.4075  0.3443
 1461SOL    HW216020   2.451   1.596  16.134 -0.6531  2.4600  0.0526
 1462SOL     OW16021   2.634   2.836   7.213 -0.0604 -0.0962 -0.3677
 1462SOL    HW116022   2.636   2.807   7.122  1.2392 -1.8823  0.2381
 1462SOL    HW216023   2.658   2.929   7.208 -1.3880  0.1640 -2.1812
 1463SOL     OW16024   0.867   3.853   2.989 -0.4671 -0.5750 -0.0521
 1463SOL    HW116025   0.927   3.869   3.061  0.1163 -0.2175 -0.6153
 1463SOL    HW216026   0.838   3.941   2.961  1.3534 -0.1460 -0.5502
 1464SOL     OW16027   3.753   2.038   1.026 -0.1245  0.0923 -0.1278
 1464SOL    HW116028   3.712   2.085   1.098 -2.3842 -0.1721 -1.2441
 1464SOL    HW216029   3.723   1.947   1.033  0.1279 -0.0341 -0.6604
 1465SOL     OW16030   1.269   0.477   6.136 -0.5207  0.3152  0.2321
 1465SOL    HW116031   1.342   0.464   6.075  0.2732 -1.6079  1.5796
 1465SOL    HW216032   1.318   0.521   6.206 -0.3381  0.0651  0.2643
 1466SOL     OW16033   2.428   3.546  12.851 -0.8667 -0.1501 -0.5361
 1466SOL    HW116034   2.452   3.627  12.805 -3.3914 -0.4780 -2.4190
 1466SOL    HW216035   2.347   3.524  12.804 -1.2526 -2.6621  1.3347
 1467SOL     OW16036   0.718   0.571  12.555  0.4867 -0.1210 -0.1154
 1467SOL    HW116037   0.703   0.480  12.581  1.8315 -0.5585 -0.8117
 1467SOL    HW216038   0.692   0.608  12.638  0.6701 -0.1426 -0.0470
 1468SOL     OW16039   3.275   4.527   6.831 -0.2379  0.5151 -0.2656
 1468SOL    HW116040   3.370   4.542   6.834  0.1350 -1.8676 -0.7710
 1468SOL    HW216041   3.256   4.519   6.738  0.1743 -0.9568 -0.2094
 1469SOL     OW16042   4.085   0.642   4.382  0.1596  0.5536 -0.0328
 1469SOL    HW116043   4.043   0.596   4.454  0.8367  0.7864  0.5193
 1469SOL    HW216044   4.016   0.640   4.316  0.9397  1.4546 -0.8858
 1470SOL     OW16045   1.651   1.329   9.661  0.2425 -0.2418 -0.3667
 1470SOL    HW116046   1.703   1.333   9.581  0.6005 -0.4037 -0.1413
 1470SOL    HW216047   1.721   1.344   9.725 -1.6947  1.7565  1.3005
 1471SOL     OW16048   2.626   3.633   9.122 -0.6432 -0.1273  0.3492
 1471SOL    HW116049   2.607   3.715   9.166 -0.3792  0.4565 -0.6252
 1471SOL    HW216050   2.697   3.656   9.062 -0.8961 -2.4366 -0.8385
 1472SOL     OW16051   1.503   2.023   3.333  0.2369 -0.2322 -0.3759
 1472SOL    HW116052   1.444   2.031   3.408 -0.3417 -1.9235 -0.6418
 1472SOL    HW216053   1.451   1.988   3.260  0.2113 -3.1106  1.0261
 1473SOL     OW16054   4.474   1.708  17.029  0.1320  0.3636 -0.3830
 1473SOL    HW116055   4.528   1.688  16.953  2.2032  1.8150  0.6842
 1473SOL    HW216056   4.410   1.773  16.999 -0.1151 -0.8841 -2.5300
 1474SOL     OW16057   4.041   1.173   6.570  0.1520 -0.2736  0.3091
 1474SOL    HW116058   4.072   1.263   6.574 -1.8266  0.4044  0.2248
 1474SOL    HW216059   4.122   1.125   6.589 -0.9315 -2.9547 -1.8640
 1475SOL     OW16060   3.054   2.713   3.945 -0.5053  0.5288 -0.2180
 1475SOL    HW116061   2.991   2.653   3.986 -0.0593  0.2088  0.0001
 1475SOL    HW216062   3.140   2.715   3.987 -0.1372  0.6271 -0.9724
 1476SOL     OW16063   0.868   0.871   7.173 -0.2196 -0.3796 -0.0857
 1476SOL    HW116064   0.783   0.829   7.185  0.1546 -0.8549  0.8946
 1476SOL    HW216065   0.920   0.810   7.224  0.3707  2.2051  2.4322
 1477SOL     OW16066   2.696   2.389   6.278  0.3899 -0.2847  0.1296
 1477SOL    HW116067   2.633   2.354   6.215  0.6948 -1.2640  0.3720
 1477SOL    HW216068   2.668   2.480   6.273  1.1826 -0.0922 -0.7847
 1478SOL     OW16069   0.875   3.977   2.693 -0.3691  0.3864  0.0547
 1478SOL    HW116070   0.931   4.022   2.757  1.0377 -0.1546 -0.7887
 1478SOL    HW216071   0.900   4.010   2.607  2.7684  1.9500  1.5418
 1479SOL     OW16072   1.086   2.837   3.686  0.2301  0.2335 -0.7070
 1479SOL    HW116073   1.181   2.850   3.693  0.4880 -2.5891  1.0248
 1479SOL    HW216074   1.077   2.770   3.618  1.2551 -1.9386  1.3065
 1480SOL     OW16075   2.904   0.039   2.890  0.3146 -0.2698  0.2308
 1480SOL    HW116076   2.958   0.049   2.969 -1.2071  0.0245  1.2462
 1480SOL    HW216077   2.891   4.683   2.908 -2.7013  0.0152 -0.4686
 1481SOL     OW16078   1.847   4.174   9.127  0.3415  0.1294  0.0451
 1481SOL    HW116079   1.855   4.269   9.123 -0.8713  0.2690  0.9629
 1481SOL    HW216080   1.777   4.169   9.063  1.1123  2.1131 -0.9540
 1482SOL     OW16081   4.083   1.400   5.208 -0.2763 -0.1977 -0.2250
 1482SOL    HW116082   4.029   1.352   5.146  0.6850  0.2433 -1.4010
 1482SOL    HW216083   4.085   1.476   5.151 -0.7008 -0.2060 -0.2463
 1483SOL     OW16084   1.567   2.958   3.696  0.2504 -0.1174  0.5977
 1483SOL    HW116085   1.570   3.053   3.688  0.8664 -0.2736 -0.8910
 1483SOL    HW216086   1.492   2.941   3.753  0.6563  0.8124  1.4112
 1484SOL     OW16087   4.617   0.165  10.470  0.1824  0.0458 -0.0427
 1484SOL    HW116088   4.646   0.228  10.536  0.2944  1.6689 -1.6502
 1484SOL    HW216089   4.659   0.082  10.495  0.6506  1.1361  2.8464
 1485SOL     OW16090   4.226   2.514   1.925  0.3236 -0.4763 -0.5070
 1485SOL    HW116091   4.234   2.419   1.919 -0.8251 -0.6156  0.1511
 1485SOL    HW216092   4.185   2.540   1.842 -2.2170  2.0378  1.5333
 1486SOL     OW16093   1.886   1.759   0.438 -0.7210  0.2020  0.5364
 1486SOL    HW116094   1.826   1.686   0.420  0.1944 -0.3675 -0.2416
 1486SOL    HW216095   1.821   1.818   0.475 -0.3963 -0.4506  2.1383
 1487SOL     OW16096   4.294   1.918   3.402 -0.3630 -0.2386  0.6253
 1487SOL    HW116097   4.241   1.930   3.324 -1.1940  1.6344  1.4766
 1487SOL    HW216098   4.258   1.978   3.467  1.2082  0.4624  0.8559
 1488SOL     OW16099   2.356   2.421   3.548  0.0360 -0.2908  0.3653
 1488SOL    HW116100   2.380   2.443   3.458 -1.1927  0.9727  0.3460
 1488SOL    HW216101   2.348   2.504   3.596  2.8039  0.5846 -0.6587
 1489SOL     OW16102   0.555   2.518  15.107  0.0487 -0.2051 -0.2131
 1489SOL    HW116103   0.621   2.454  15.078 -1.0873  0.2845 -3.8471
 1489SOL    HW216104   0.607   2.584  15.153 -1.0111  1.7241 -1.7937
 1490SOL     OW16105   3.545   2.959   4.897 -0.1855  0.9800  0.4819
 1490SOL    HW116106   3.620   2.932   4.844  1.5912  1.7857  2.5779
 1490SOL    HW216107   3.592   3.019   4.954  1.3255  0.4484 -0.1927
 1491SOL     OW16108   0.470   2.552  17.160 -0.1689 -0.4975 -0.5184
 1491SOL    HW116109   0.449   2.631  17.111  0.4918  0.0668  0.1151
 1491SOL    HW216110   0.425   2.573  17.242 -0.5657  0.4260 -0.9739
 1492SOL     OW16111   4.328   2.076   5.865  0.2432  0.0569  0.3300
 1492SOL    HW116112   4.336   1.981   5.868 -0.8313 -0.0508  0.0193
 1492SOL    HW216113   4.411   2.113   5.894 -1.1153  1.7909  1.9779
 1493SOL     OW16114   4.429   1.353   2.175 -0.0215  0.5006  0.3445
 1493SOL    HW116115   4.523   1.338   2.166 -0.2917 -0.2881 -1.3279
 1493SOL    HW216116   4.411   1.336   2.082 -0.3575  1.1560  0.2905
 1494SOL     OW16117   1.992   0.205   1.638  0.1889 -0.3770  0.1675
 1494SOL    HW116118   1.957   0.187   1.725  0.9108 -1.4200  0.2297
 1494SOL    HW216119   1.971   0.299   1.635 -0.3172 -0.4551  1.1706
 1495SOL     OW16120   2.756   3.654   0.136  0.0388 -0.0736  0.4227
 1495SOL    HW116121   2.692   3.584   0.128  0.1483 -0.0772 -0.4020
 1495SOL    HW216122   2.794   3.664   0.049  0.4125 -0.0965  0.5825
 1496SOL     OW16123   4.528   1.046   1.820 -0.3279 -0.1036  0.3222
 1496SOL    HW116124   4.549   1.128   1.865  4.5815 -2.0164  1.5359
 1496SOL    HW216125   4.502   0.995   1.897  1.5004 -3.0984 -1.0366
 1497SOL     OW16126   1.660   2.252   3.263  0.1232  0.1353 -0.1318
 1497SOL    HW116127   1.620   2.165   3.271  0.0285  0.0022 -2.1357
 1497SOL    HW216128   1.591   2.318   3.266 -0.2052 -0.0347 -3.5317
 1498SOL     OW16129   0.731   2.323  15.010  0.3226  0.3623 -0.1119
 1498SOL    HW116130   0.730   2.305  14.915  0.2815 -0.1093 -0.0230
 1498SOL    HW216131   0.822   2.342  15.029  1.0795 -1.4845 -1.8917
 1499SOL     OW16132   3.437   2.562   0.766 -0.2693 -0.0115  0.0702
 1499SOL    HW116133   3.390   2.637   0.801  0.3081  0.5543 -0.3842
 1499SOL    HW216134   3.370   2.501   0.799  2.2536 -0.9259  3.4530
 1500SOL     OW16135   3.906   1.997   8.032  0.4788 -0.0735 -0.3599
 1500SOL    HW116136   3.901   2.030   8.122  2.5245  1.0388 -0.6653
 1500SOL    HW216137   4.000   1.982   8.023  0.4370 -1.1295  0.9691
 1501SOL     OW16138   0.085   0.666  10.512 -0.2402  0.0069 -0.1580
 1501SOL    HW116139   0.162   0.610  10.497  0.8821  1.6217 -0.4185
 1501SOL    HW216140   0.112   0.712  10.591 -0.4359  0.4019 -0.3235
 1502SOL     OW16141   3.664   0.460  13.938  0.7238 -0.3058  0.1744
 1502SOL    HW116142   3.732   0.410  13.893  0.6611 -0.0427 -0.2103
 1502SOL    HW216143   3.594   0.439  13.876 -0.0242 -1.8813  1.5406
 1503SOL     OW16144   0.154   3.438   7.488 -0.1874  0.0044  0.5056
 1503SOL    HW116145   0.192   3.438   7.400  0.8575 -1.6878  0.9534
 1503SOL    HW216146   0.118   3.527   7.485 -0.1163  0.0098 -0.3633
 1504SOL     OW16147   3.914   1.648   5.540 -0.2914 -0.0808  0.6091
 1504SOL    HW116148   4.008   1.654   5.557 -0.1032 -2.4074  0.4092
 1504SOL    HW216149   3.879   1.737   5.547 -0.5963 -0.0751 -0.8907
 1505SOL     OW16150   1.914   1.570  16.283  0.5946  0.4507  0.2209
 1505SOL    HW116151   1.947   1.492  16.239  0.5024  0.4369  0.1750
 1505SOL    HW216152   1.879   1.624  16.212  2.8427  0.7665 -0.6400
 1506SOL     OW16153   2.917   1.569   1.445 -0.3448  0.0215 -0.3350
 1506SOL    HW116154   2.986   1.572   1.378 -0.8823  1.5288 -0.8366
 1506SOL    HW216155   2.861   1.506   1.400 -1.3941  0.4978  0.3062
 1507SOL     OW16156   0.692   2.236   7.226  0.0818  0.4697 -1.0242
 1507SOL    HW116157   0.769   2.251   7.171  0.8636  0.7434  0.1617
 1507SOL    HW216158   0.629   2.272   7.163 -1.7185  0.0176  0.5332
 1508SOL     OW16159   0.218   2.757   7.233 -0.0792 -0.3143  0.4578
 1508SOL    HW116160   0.298   2.731   7.188 -0.0750 -0.1104  0.3479
 1508SOL    HW216161   0.156   2.757   7.160  2.0040  0.3043 -1.3040
 1509SOL     OW16162   3.249   3.949   5.264 -0.6065  0.0402 -0.1237
 1509SOL    HW116163   3.156   3.946   5.240 -1.0397  1.8855  1.2258
 1509SOL    HW216164   3.248   4.027   5.320 -0.7804 -0.3636  0.4402
 1510SOL     OW16165   4.346   1.802   5.815  0.7290 -0.1944  0.7178
 1510SOL    HW116166   4.303   1.718   5.831  1.4605 -0.2197  2.5559
 1510SOL    HW216167   4.424   1.798   5.870  1.7047 -1.0662 -0.7215
 1511SOL     OW16168   3.895   4.685   7.458  0.3024 -0.0685  0.3237
 1511SOL    HW116169   3.868   4.612   7.514  0.6968 -0.8016 -0.4449
 1511SOL    HW216170   3.943   4.642   7.387 -2.9042 -0.9797 -1.3030
 1512SOL     OW16171   2.702   2.845   4.037 -0.1755 -0.5160 -0.3681
 1512SOL    HW116172   2.771   2.895   3.993  0.7809 -0.1137  1.5767
 1512SOL    HW216173   2.756   2.810   4.108 -1.9213 -2.1351  0.1509
 1513SOL     OW16174   2.143   3.156   2.971  0.3026 -0.5023  0.1830
 1513SOL    HW116175   2.149   3.063   2.952  1.1129 -0.4533  0.1700
 1513SOL    HW216176   2.061   3.154   3.019  0.3600 -2.0667  0.2152
 1514SOL     OW16177   3.563   4.665  14.657 -0.5602 -1.0354 -0.3422
 1514SOL    HW116178   3.616   4.649  14.579 -0.3890  1.1669 -0.6944
 1514SOL    HW216179   3.593   4.590  14.707 -0.4535 -0.4207  0.5189
 1515SOL     OW16180   2.410   0.833   3.950  0.7094 -0.1313  0.1447
 1515SOL    HW116181   2.443   0.769   4.012 -0.2636  0.1547  0.9525
 1515SOL    HW216182   2.487   0.865   3.902 -0.0464 -0.1366 -1.0693
 1516SOL     OW16183   2.205   2.300   9.005 -0.3028 -0.1272 -0.0950
 1516SOL    HW116184   2.133   2.335   8.953  0.8531  1.3623 -0.6816
 1516SOL    HW216185   2.274   2.349   8.960 -0.6484 -1.5947 -2.2243
 1517SOL     OW16186   0.556   4.271   6.735 -0.0064 -0.2235 -0.4305
 1517SOL    HW116187   0.587   4.361   6.739 -0.5194 -0.0404 -0.6216
 1517SOL    HW216188   0.537   4.258   6.828 -0.0608 -1.9375 -0.6685
 1518SOL     OW16189   2.073   2.126  16.348 -0.4315 -0.0213 -0.3785
 1518SOL    HW116190   2.101   2.162  16.264 -0.3238  1.7830  0.4279
 1518SOL    HW216191   2.046   2.039  16.318  0.9864  0.0884 -1.9839
 1519SOL     OW16192   0.813   1.082   2.470  0.5523 -0.2131 -0.3479
 1519SOL    HW116193   0.864   1.103   2.392 -2.0181 -1.3516 -2.3450
 1519SOL    HW216194   0.727   1.084   2.429 -0.4884  1.4146  1.8627
 1520SOL     OW16195   0.802   1.201   6.554  0.1899 -0.0530  0.0874
 1520SOL    HW116196   0.847   1.133   6.604 -1.5793 -2.0783 -1.0805
 1520SOL    HW216197   0.871   1.266   6.565 -1.3346  1.5439  0.1613
 1521SOL     OW16198   2.144   2.469   9.264 -0.0457 -0.1317 -0.0827
 1521SOL    HW116199   2.060   2.496   9.227 -0.1957  1.9334  1.7385
 1521SOL    HW216200   2.165   2.405   9.197 -0.0100  1.3386 -1.4822
 1522SOL     OW16201   1.636   2.511   4.537 -0.0688 -0.3589  0.4972
 1522SOL    HW116202   1.699   2.505   4.609 -2.5350  0.9003  2.7777
 1522SOL    HW216203   1.692   2.544   4.467 -1.6084  0.6005 -0.2770
 1523SOL     OW16204   0.080   0.163   8.590 -0.1879  0.1846 -0.1254
 1523SOL    HW116205   0.124   0.080   8.574 -1.9540 -0.4465 -1.6080
 1523SOL    HW216206   0.052   0.146   8.680 -1.2552 -1.2697 -0.7385
 1524SOL     OW16207   0.070   4.671   0.504  0.9296  0.4423 -0.3077
 1524SOL    HW116208   0.023   4.726   0.567  0.3227 -0.2703 -0.1318
 1524SOL    HW216209   0.066   4.721   0.423 -1.3197 -2.1236 -1.8183
 1525SOL     OW16210   1.538   2.395   3.919  0.4168 -0.0943 -0.8171
 1525SOL    HW116211   1.552   2.477   3.966 -2.1170  0.6535 -1.3932
 1525SOL    HW216212   1.445   2.388   3.938  0.8337 -0.5457  0.9963
 1526SOL     OW16213   3.398   1.149   2.437 -0.3985 -0.2197  0.0562
 1526SOL    HW116214   3.381   1.223   2.497  1.3377 -0.7872  1.2527
 1526SOL    HW216215   3.321   1.095   2.453  0.8993 -2.3356 -0.8287
 1527SOL     OW16216   0.955   0.733   8.649  0.1114  0.3208 -0.3795
 1527SOL    HW116217   0.889   0.789   8.609  0.4218  0.5845 -0.5214
 1527SOL    HW216218   0.899   0.679   8.705  1.4869 -0.6333  0.0565
 1528SOL     OW16219   3.724   4.496   4.613 -0.4429 -0.3929  0.0763
 1528SOL    HW116220   3.697   4.423   4.668 -0.1565 -0.0533  0.6679
 1528SOL    HW216221   3.781   4.544   4.673  1.3990  1.1406 -2.8494
 1529SOL     OW16222   1.972   2.812   1.116  0.0816  0.0791 -0.0017
 1529SOL    HW116223   1.901   2.859   1.160  2.9335  2.7930  1.7224
 1529SOL    HW216224   1.934   2.724   1.126  2.3111 -0.7386  1.4927
 1530SOL     OW16225   1.420   1.792   8.247  0.3131 -0.1403 -0.6486
 1530SOL    HW116226   1.402   1.698   8.241  1.0876 -0.2700 -0.9134
 1530SOL    HW216227   1.351   1.836   8.198 -0.4000 -2.1555 -1.4557
 1531SOL     OW16228   1.031   2.187   9.697  0.5362  0.1803  0.6916
 1531SOL    HW116229   0.981   2.173   9.617  0.5486  1.5950  0.4302
 1531SOL    HW216230   1.004   2.108   9.744  0.4967 -0.2504 -0.0606
 1532SOL     OW16231   1.292   2.459   8.381  0.6242  0.0291 -0.7129
 1532SOL    HW116232   1.261   2.377   8.419  4.9329 -0.0527  2.6540
 1532SOL    HW216233   1.255   2.445   8.294 -3.1647 -0.9397  1.0480
 1533SOL     OW16234   1.093   0.498   9.451 -0.0128  0.6516 -0.3705
 1533SOL    HW116235   1.013   0.537   9.418 -0.3685  2.0587  2.2002
 1533SOL    HW216236   1.154   0.513   9.378  2.4886 -1.8774  1.1861
 1534SOL     OW16237   3.634   1.905  10.231  0.0768  0.4907  0.3851
 1534SOL    HW116238   3.565   1.918  10.166  1.0390 -0.2975 -0.7926
 1534SOL    HW216239   3.591   1.883  10.314 -0.4306 -0.4042 -0.1242
 1535SOL     OW16240   3.583   1.183   2.228 -0.2469 -0.3787  0.3502
 1535SOL    HW116241   3.577   1.276   2.246  0.3292 -0.3543  0.4230
 1535SOL    HW216242   3.509   1.161   2.284  0.8225 -1.8094  1.2295
 1536SOL     OW16243   0.228   1.618   3.788  0.2333  0.3715 -0.1424
 1536SOL    HW116244   0.285   1.694   3.777 -0.9920  1.4204  0.6963
 1536SOL    HW216245   0.240   1.584   3.700  1.0385 -0.3117  0.2288
 1537SOL     OW16246   2.013   3.557   4.879 -0.0923 -0.5164 -0.4155
 1537SOL    HW116247   2.011   3.652   4.876  0.1251 -0.4385  2.7251
 1537SOL    HW216248   1.919   3.537   4.876 -0.0209 -0.5475 -2.6567
 1538SOL     OW16249   0.009   2.647   3.729  0.0743  0.2685  0.2105
 1538SOL    HW116250   0.103   2.650   3.713  0.1874 -0.8835  0.6690
 1538SOL    HW216251   0.003   2.582   3.798  3.1006 -2.6024 -2.2552
 1539SOL     OW16252   1.446   3.311   5.369  0.5599 -0.0299 -0.2591
 1539SOL    HW116253   1.359   3.272   5.383  0.4110  0.1021 -0.8081
 1539SOL    HW216254   1.504   3.284   5.439 -0.5960  0.5265  0.9048
 1540SOL     OW16255   0.007   1.410  15.964  0.2461 -0.0979  0.6083
 1540SOL    HW116256   4.655   1.427  15.935  0.8775  0.0928 -1.2220
 1540SOL    HW216257   4.731   1.363  16.046  0.1846 -0.8448  0.1662
 1541SOL     OW16258   0.102   0.191   6.199  0.2786 -0.5677  0.0575
 1541SOL    HW116259   0.153   0.246   6.259  0.5330 -1.0278  0.2681
 1541SOL    HW216260   0.018   0.235   6.200  0.1310 -0.8387 -1.2367
 1542SOL     OW16261   3.312   2.052   7.160  0.3109 -0.4125  0.2070
 1542SOL    HW116262   3.334   2.111   7.088 -1.9412 -0.3697 -0.4503
 1542SOL    HW216263   3.341   2.101   7.237  3.4319 -1.3292 -0.3768
 1543SOL     OW16264   0.067   1.827   3.358 -0.4863 -0.2334 -0.0155
 1543SOL    HW116265   4.711   1.842   3.368 -0.3125  1.0895 -0.5053
 1543SOL    HW216266   0.078   1.743   3.313 -0.7739  0.2308 -0.9410
 1544SOL     OW16267   1.200   3.850   4.406  0.3382 -0.4586  0.3156
 1544SOL    HW116268   1.208   3.769   4.456  3.3318 -0.2352  0.2475
 1544SOL    HW216269   1.111   3.839   4.373  0.1174 -1.4777  1.2598
 1545SOL     OW16270   2.424   2.241   6.880  0.1678  1.0066 -0.0656
 1545SOL    HW116271   2.346   2.207   6.837  0.3237 -0.4264  0.7896
 1545SOL    HW216272   2.397   2.242   6.972  2.6279 -0.6459  0.6717
 1546SOL     OW16273   0.188   0.916   2.638  0.0706  0.2836 -0.1173
 1546SOL    HW116274   0.120   0.910   2.571  0.0599 -1.2530  0.0299
 1546SOL    HW216275   0.240   0.987   2.601 -0.6196  0.8890  0.0783
 1547SOL     OW16276   3.293   0.894   2.693 -0.2104  0.2863 -0.0504
 1547SOL    HW116277   3.300   0.879   2.599 -1.6520 -0.3994 -0.0455
 1547SOL    HW216278   3.204   0.879   2.725  0.1189 -1.5636 -0.0149
 1548SOL     OW16279   4.121   3.601  10.696 -0.0421 -0.1572 -0.2744
 1548SOL    HW116280   4.188   3.663  10.724  1.2850 -1.1949 -1.1542
 1548SOL    HW216281   4.080   3.647  10.623 -0.3599  1.9503  1.2227
 1549SOL     OW16282   0.715   3.379  14.550  0.1950 -0.3367 -0.4038
 1549SOL    HW116283   0.778   3.310  14.569  0.7178 -0.3059 -2.0326
 1549SOL    HW216284   0.699   3.361  14.457 -0.6845  0.1722 -0.3615
 1550SOL     OW16285   4.352   2.380   9.556  0.3705 -0.1744  0.1406
 1550SOL    HW116286   4.284   2.349   9.615  1.0221 -1.9963 -0.0829
 1550SOL    HW216287   4.398   2.442   9.613 -1.0525  1.8480 -0.8765
 1551SOL     OW16288   2.868   2.196   2.102  0.2150 -0.3210 -0.2199
 1551SOL    HW116289   2.786   2.245   2.103  1.3435  1.5671  1.0151
 1551SOL    HW216290   2.929   2.267   2.124 -0.5105 -0.6172  2.7127
 1552SOL     OW16291   2.826   2.369  11.516  0.3291 -0.4258 -0.3046
 1552SOL    HW116292   2.897   2.367  11.452  0.7328 -1.6904  0.1945
 1552SOL    HW216293   2.822   2.276  11.537  1.1640 -0.1587  1.0523
 1553SOL     OW16294   2.769   3.131   4.631 -0.4079  0.1127 -0.4767
 1553SOL    HW116295   2.772   3.040   4.601 -0.6146  0.2100 -0.7996
 1553SOL    HW216296   2.700   3.169   4.577  1.1405  1.5088 -1.4754
 1554SOL     OW16297   0.775   4.015   4.904 -0.8740 -0.1143 -0.5791
 1554SOL    HW116298   0.860   4.015   4.860 -0.7519  0.3040 -0.3377
 1554SOL    HW216299   0.719   4.063   4.842  0.0725  2.2462  0.3943
 1555SOL     OW16300   3.196   1.966  11.488 -0.3468  0.3314 -0.3442
 1555SOL    HW116301   3.146   1.911  11.427  2.9065 -0.7550 -2.0203
 1555SOL    HW216302   3.182   1.916  11.568  0.0362  0.6401 -0.0897
 1556SOL     OW16303   4.662   2.383  12.924  0.1356 -0.2002 -0.0096
 1556SOL    HW116304   4.700   2.349  12.843  0.7062 -1.5999  0.8465
 1556SOL    HW216305   4.705   2.332  12.992  0.4565  1.6022  1.1343
 1557SOL     OW16306   2.129   0.764   9.022 -0.0890  0.0789  0.0499
 1557SOL    HW116307   2.146   0.696   8.957  0.2704  1.6372 -1.4615
 1557SOL    HW216308   2.094   0.723   9.101  1.3360 -1.1296  0.0558
 1558SOL     OW16309   0.533   1.262   8.185  0.0080 -0.7366  0.0799
 1558SOL    HW116310   0.464   1.219   8.134 -0.0437  0.9961 -1.3232
 1558SOL    HW216311   0.602   1.207   8.147  0.5853  0.1721 -0.1865
 1559SOL     OW16312   4.659   2.338   1.711 -0.1749 -0.0146  0.3681
 1559SOL    HW116313   4.709   2.369   1.787 -0.7439  0.3565  0.5931
 1559SOL    HW216314   4.595   2.282   1.755 -0.2267 -0.2525 -0.0130
 1560SOL     OW16315   3.372   4.160   6.899  0.0905  0.1116 -0.0272
 1560SOL    HW116316   3.341   4.222   6.965 -2.8419 -0.3340 -0.9762
 1560SOL    HW216317   3.467   4.167   6.900  0.1700 -0.8461 -1.0466
 1561SOL     OW16318   3.606   1.493   6.960  0.1012 -0.0272  0.1707
 1561SOL    HW116319   3.646   1.528   6.880 -0.6224 -1.2990 -0.7610
 1561SOL    HW216320   3.606   1.400   6.936 -1.0702 -0.7162  2.8132
 1562SOL     OW16321   2.671   2.808   2.820 -0.1642  0.1965  0.2357
 1562SOL    HW116322   2.740   2.824   2.884  0.9917 -0.9953 -0.7275
 1562SOL    HW216323   2.649   2.898   2.798  2.2827  0.4678 -1.0396
 1563SOL     OW16324   0.674   2.095  11.818 -0.4707  0.6693  0.6043
 1563SOL    HW116325   0.675   2.094  11.914 -1.5018 -1.7746  0.5939
 1563SOL    HW216326   0.602   2.155  11.799 -0.3358  0.4880 -0.4863
 1564SOL     OW16327   1.309   3.746   3.551 -0.1723  0.6233  0.4560
 1564SOL    HW116328   1.295   3.718   3.642  0.6765 -1.4071 -0.0376
 1564SOL    HW216329   1.218   3.757   3.522 -0.8098 -2.8758  1.0828
 1565SOL     OW16330   0.780   1.220  14.753 -0.3125  0.2809  0.0999
 1565SOL    HW116331   0.739   1.233  14.839  0.8356  0.9729  0.5421
 1565SOL    HW216332   0.831   1.301  14.753 -1.0851  0.7726  1.3263
 1566SOL     OW16333   1.815   1.470  14.958 -0.0206 -0.4503 -0.1354
 1566SOL    HW116334   1.857   1.508  15.035 -1.6847  2.3300 -0.5992
 1566SOL    HW216335   1.727   1.491  14.988  0.2758 -0.5255  0.7869
 1567SOL     OW16336   3.890   2.978   1.314 -0.0130  0.1084  0.4574
 1567SOL    HW116337   3.959   2.983   1.247  0.4284  0.4328  0.9442
 1567SOL    HW216338   3.836   3.054   1.295 -1.5661 -0.8524  1.0434
 1568SOL     OW16339   1.554   1.751  14.544 -0.6080  0.6393  0.2278
 1568SOL    HW116340   1.558   1.791  14.457  0.9040 -1.5893 -0.7388
 1568SOL    HW216341   1.603   1.671  14.525 -0.0411  1.0334  0.0451
 1569SOL     OW16342   0.011   4.488   6.118 -0.4451  0.2051 -0.6981
 1569SOL    HW116343   0.049   4.416   6.168  1.4150  1.4225 -0.3549
 1569SOL    HW216344   0.046   4.571   6.149  1.0644  0.3187 -2.6825
 1570SOL     OW16345   3.654   2.300   5.521  0.8832 -0.2108  0.5394
 1570SOL    HW116346   3.624   2.209   5.515 -0.7316  0.4006 -0.7171
 1570SOL    HW216347   3.582   2.331   5.576  1.1896  0.5849  0.4950
 1571SOL     OW16348   1.962   1.805   9.274 -0.3703  0.7307 -0.3781
 1571SOL    HW116349   2.006   1.825   9.191 -0.3312 -2.8920 -1.2173
 1571SOL    HW216350   1.947   1.892   9.311  0.8713  0.9448 -0.3924
 1572SOL     OW16351   3.359   3.544  17.081 -0.2474 -0.0796 -0.9018
 1572SOL    HW116352   3.418   3.610  17.119 -2.4330  1.5557 -0.3116
 1572SOL    HW216353   3.295   3.525  17.150 -1.0412  3.6651 -0.5826
 1573SOL     OW16354   1.783   3.747  11.941  0.0585  0.0397 -0.3546
 1573SOL    HW116355   1.851   3.775  11.880 -1.1153  2.6029 -0.4671
 1573SOL    HW216356   1.812   3.788  12.023 -1.1381 -0.8267  0.5114
 1574SOL     OW16357   0.290   2.451   1.624 -0.7590 -0.6014 -0.3625
 1574SOL    HW116358   0.336   2.389   1.680  0.0952 -0.5689 -1.0367
 1574SOL    HW216359   0.341   2.530   1.641  1.1991 -1.8557 -0.5340
 1575SOL     OW16360   0.087   0.284   2.099  0.0504  0.2433 -0.0881
 1575SOL    HW116361   0.072   0.377   2.083  1.4042  0.5584  0.4596
 1575SOL    HW216362   0.039   0.243   2.027 -4.7346  1.7181  2.2955
 1576SOL     OW16363   2.610   0.605  16.501  0.2312 -0.7426  0.3686
 1576SOL    HW116364   2.530   0.555  16.512  0.5575 -0.9507  1.7384
 1576SOL    HW216365   2.603   0.673  16.568  0.6777 -0.5764  0.2481
 1577SOL     OW16366   0.367   1.443   6.988 -0.1721 -0.4331  0.2482
 1577SOL    HW116367   0.387   1.358   7.025  1.3383 -0.0837  0.2175
 1577SOL    HW216368   0.334   1.418   6.902 -0.0576  2.7254 -0.7421
 1578SOL     OW16369   2.440   1.368   5.670  0.9215 -0.1858  0.0259
 1578SOL    HW116370   2.345   1.363   5.678  0.5445  2.3210 -2.6632
 1578SOL    HW216371   2.459   1.327   5.585 -1.6024 -3.6582  1.1516
 1579SOL     OW16372   4.417   1.958   7.616 -0.3247  0.0175 -0.1835
 1579SOL    HW116373   4.443   2.047   7.593 -0.2486 -0.7932 -3.2184
 1579SOL    HW216374   4.327   1.976   7.642 -0.3218  1.4129 -1.0982
 1580SOL     OW16375   2.307   0.981   6.687 -0.0164  0.1483  0.5891
 1580SOL    HW116376   2.286   1.002   6.778  0.6407 -0.6824  0.9372
 1580SOL    HW216377   2.239   1.017   6.630 -0.0330 -0.1590  0.4128
 1581SOL     OW16378   0.861   1.970   9.488  0.0744 -0.3399 -1.0764
 1581SOL    HW116379   0.818   2.047   9.525  0.7271 -1.3216  1.6605
 1581SOL    HW216380   0.935   2.008   9.440  0.0816  0.2547 -0.5995
 1582SOL     OW16381   1.821   0.410   6.380 -0.2581 -0.1895  0.3406
 1582SOL    HW116382   1.850   0.489   6.426 -1.1129 -1.3152  2.8310
 1582SOL    HW216383   1.781   0.354   6.447  0.8359 -0.0391  1.1188
 1583SOL     OW16384   3.837   0.995   6.258  0.4616  0.2558 -0.0856
 1583SOL    HW116385   3.802   0.906   6.263  0.3498  0.3435  0.7358
 1583SOL    HW216386   3.871   0.992   6.169  0.5821 -0.9501  0.0015
 1584SOL     OW16387   4.685   1.728  16.839  0.1575 -0.6466  0.2508
 1584SOL    HW116388   4.696   1.749  16.747 -0.8017 -0.5324  0.1671
 1584SOL    HW216389   0.034   1.749  16.874 -0.4802 -0.7074  1.8970
 1585SOL     OW16390   1.952   2.229   3.678 -0.0667  0.0171  0.0792
 1585SOL    HW116391   2.029   2.281   3.701 -0.1862  1.6020 -3.2072
 1585SOL    HW216392   1.987   2.146   3.646 -1.4599 -0.8532  0.8028
 1586SOL     OW16393   2.391   2.464   9.388 -0.4291  0.2446  0.0402
 1586SOL    HW116394   2.384   2.542   9.443 -2.3129  1.7324 -2.3027
 1586SOL    HW216395   2.303   2.427   9.386  0.0438 -0.8949  0.9440
 1587SOL     OW16396   2.052   1.851  16.245 -0.7236  0.3619 -0.1527
 1587SOL    HW116397   2.019   1.782  16.301  0.0789 -1.2131 -1.6206
 1587SOL    HW216398   1.980   1.856  16.182 -1.2134 -0.9271  0.3235
 1588SOL     OW16399   3.349   1.980   2.166 -0.5391  0.1448 -0.2716
 1588SOL    HW116400   3.256   1.962   2.153 -0.6210 -1.0304  1.9101
 1588SOL    HW216401   3.376   1.938   2.248 -1.4268  0.7590  0.3329
 1589SOL     OW16402   1.681   2.516   5.510  0.0066 -0.0043  0.1365
 1589SOL    HW116403   1.625   2.486   5.581 -1.2764  2.4767  0.1615
 1589SOL    HW216404   1.696   2.435   5.462 -0.7873  1.2522 -2.2256
 1590SOL     OW16405   1.766   0.295  11.796 -0.3777  0.6570  0.4408
 1590SOL    HW116406   1.839   0.309  11.856  0.8669  2.1696 -1.4438
 1590SOL    HW216407   1.806   0.304  11.709 -1.2347  1.7509  0.1631
 1591SOL     OW16408   1.502   0.116  12.248  0.6426  0.2727  0.9773
 1591SOL    HW116409   1.412   0.119  12.217  1.0986  2.7445 -0.1676
 1591SOL    HW216410   1.550   0.182  12.197  0.3823  0.4939  1.0149
 1592SOL     OW16411   0.648   3.320   6.947 -0.2438 -0.1210  0.4895
 1592SOL    HW116412   0.558   3.341   6.924 -0.0809  0.9524  0.8194
 1592SOL    HW216413   0.642   3.229   6.976  0.6001 -0.7125 -1.1769
 1593SOL     OW16414   0.629   0.877  12.061  0.5493 -0.5878 -0.3771
 1593SOL    HW116415   0.682   0.924  12.124  1.4593  0.5342 -1.9687
 1593SOL    HW216416   0.631   0.944  11.992 -4.0856 -0.9195 -0.8480
 1594SOL     OW16417   2.628   2.646   9.377 -0.4371 -0.1686  0.2965
 1594SOL    HW116418   2.578   2.599   9.311  0.2167  0.3009 -0.5263
 1594SOL    HW216419   2.655   2.716   9.318  0.9288 -0.2947  0.7675
 1595SOL     OW16420   0.989   3.292   6.222 -0.2049 -0.3772  0.2998
 1595SOL    HW116421   1.012   3.265   6.134  1.1800  1.0065  0.2254
 1595SOL    HW216422   0.911   3.240   6.234 -0.0240 -0.0369  3.0040
 1596SOL     OW16423   0.888   2.796   7.286 -0.1039  0.1654 -0.1673
 1596SOL    HW116424   0.834   2.851   7.343 -0.0999 -0.3411  0.3198
 1596SOL    HW216425   0.943   2.765   7.358  0.6279  0.3001 -0.6694
 1597SOL     OW16426   0.017   1.503   1.325  0.4020 -0.4781 -0.2591
 1597SOL    HW116427   4.732   1.410   1.334  0.0658 -0.3413  0.3034
 1597SOL    HW216428   4.670   1.543   1.347  0.0570  0.6743 -3.6989
 1598SOL     OW16429   0.732   4.521  10.452  0.3943  0.0606  0.3445
 1598SOL    HW116430   0.656   4.507  10.509  0.8635 -0.6381  0.7900
 1598SOL    HW216431   0.695   4.481  10.373  1.2335 -0.0644  0.0205
 1599SOL     OW16432   3.351   2.135   4.920 -0.2001 -0.9173  0.2681
 1599SOL    HW116433   3.427   2.148   4.864 -0.8230  0.8312 -0.1799
 1599SOL    HW216434   3.389   2.136   5.008  0.9671  0.7594 -0.2462
 1600SOL     OW16435   1.345   3.537   7.643 -0.1216 -0.0145 -0.4905
 1600SOL    HW116436   1.340   3.611   7.702 -2.3974 -1.2805  0.9229
 1600SOL    HW216437   1.259   3.496   7.660 -0.3261  0.5776 -0.0994
 1601SOL     OW16438   0.868   3.095   8.627 -0.2873 -0.0394 -0.2055
 1601SOL    HW116439   0.841   3.184   8.651  0.5161 -0.0566  0.8036
 1601SOL    HW216440   0.787   3.047   8.608 -1.2358  1.3334  0.4202
 1602SOL     OW16441   3.625   0.048  11.537 -0.1423  0.2472  0.4246
 1602SOL    HW116442   3.664   0.033  11.623 -0.1903  2.0755  0.7822
 1602SOL    HW216443   3.689   0.091  11.480  1.4576 -0.2389  1.8640
 1603SOL     OW16444   3.771   2.631   6.121 -0.1702  0.0576  0.0809
 1603SOL    HW116445   3.849   2.685   6.136  1.3515 -1.7990 -1.1329
 1603SOL    HW216446   3.741   2.618   6.211 -0.5405  0.3276 -0.0016
 1604SOL     OW16447   3.798   3.796   9.642  0.3039 -0.7928  0.2876
 1604SOL    HW116448   3.762   3.866   9.589  0.8886  1.6683  3.1249
 1604SOL    HW216449   3.805   3.834   9.730  0.2295 -1.1322  0.4421
 1605SOL     OW16450   2.545   3.566   9.970 -0.0720 -0.8547 -0.2083
 1605SOL    HW116451   2.484   3.548  10.042  0.5818 -0.7667  0.3724
 1605SOL    HW216452   2.616   3.613  10.015 -0.2525 -0.4546 -0.3419
 1606SOL     OW16453   1.232   2.465   6.973 -0.6414 -0.0682  0.0729
 1606SOL    HW116454   1.243   2.394   7.036  1.8595  0.4230  0.2042
 1606SOL    HW216455   1.316   2.452   6.929  0.8164 -0.8816  3.1670
 1607SOL     OW16456   2.712   3.307   6.004 -0.1768 -0.2886  0.5895
 1607SOL    HW116457   2.660   3.228   6.022 -0.0744 -0.2005  1.2388
 1607SOL    HW216458   2.719   3.301   5.908  1.1309 -0.0692  0.6691
 1608SOL     OW16459   2.089   4.626   3.896  0.1518  0.1954  0.6263
 1608SOL    HW116460   2.106   4.565   3.968  1.1130  0.5608  0.7201
 1608SOL    HW216461   2.170   4.606   3.848  0.5205  2.2042  0.4222
 1609SOL     OW16462   0.766   1.058   2.120  0.5937 -0.0113  0.2971
 1609SOL    HW116463   0.852   1.043   2.081 -0.1236 -0.5598 -1.0811
 1609SOL    HW216464   0.767   0.977   2.171  1.7827 -0.0703  0.1784
 1610SOL     OW16465   2.578   1.656  11.154 -0.5639  0.1822 -0.2258
 1610SOL    HW116466   2.497   1.673  11.203 -1.2065 -0.6230 -1.0033
 1610SOL    HW216467   2.623   1.596  11.214 -0.5882  0.7851  0.3904
 1611SOL     OW16468   3.742   1.732  10.860  0.3531  0.3812  1.1522
 1611SOL    HW116469   3.803   1.775  10.920  1.3492 -0.5090  0.7807
 1611SOL    HW216470   3.663   1.726  10.915 -0.7527 -3.1644 -0.7675
 1612SOL     OW16471   4.327   1.542  11.772 -0.1455  0.2032 -0.4858
 1612SOL    HW116472   4.239   1.576  11.786 -0.8836 -2.4630  1.4569
 1612SOL    HW216473   4.349   1.489  11.849  1.4183 -0.0390 -1.0935
 1613SOL     OW16474   1.080   0.687   7.275  0.3626 -0.3215 -0.6732
 1613SOL    HW116475   1.116   0.771   7.304  2.6191  0.1637 -4.8999
 1613SOL    HW216476   1.133   0.669   7.197  2.7948  0.4795  0.8057
 1614SOL     OW16477   0.933   3.821   3.796 -0.5682  0.3987 -0.5415
 1614SOL    HW116478   0.886   3.877   3.858 -1.6679 -2.5710  1.2858
 1614SOL    HW216479   1.019   3.860   3.808  0.5320 -1.8100 -1.4162
 1615SOL     OW16480   4.139   4.478   3.326  0.1004 -0.5213 -0.9218
 1615SOL    HW116481   4.166   4.388   3.342  0.4785 -0.2606 -0.0718
 1615SOL    HW216482   4.129   4.473   3.231 -2.6644  1.0709 -0.7211
 1616SOL     OW16483   1.502   1.346   7.422 -0.4193 -0.5464 -0.1149
 1616SOL    HW116484   1.573   1.283   7.417  1.4042  1.3750  1.5364
 1616SOL    HW216485   1.424   1.299   7.392  0.4691 -1.8800 -0.3068
 1617SOL     OW16486   3.292   4.540   5.654 -0.4378  0.3288 -0.1975
 1617SOL    HW116487   3.309   4.503   5.740 -0.3517 -1.4262 -0.9805
 1617SOL    HW216488   3.199   4.521   5.646 -0.2439 -0.7217  0.0666
 1618SOL     OW16489   1.704   2.832   8.816 -0.0146 -0.8852 -0.9170
 1618SOL    HW116490   1.744   2.919   8.813 -0.2237 -0.7710 -0.2754
 1618SOL    HW216491   1.731   2.796   8.731  0.9931  0.0464 -0.9983
 1619SOL     OW16492   3.046   3.321   2.656 -0.2526  0.1794  0.3153
 1619SOL    HW116493   3.034   3.415   2.639  0.2726 -0.5390 -4.0799
 1619SOL    HW216494   3.059   3.320   2.751  1.2743  1.0664  0.1197
 1620SOL     OW16495   1.845   3.738  11.304 -0.5765 -0.2988 -0.6260
 1620SOL    HW116496   1.752   3.728  11.329 -0.6556  1.9789 -0.0262
 1620SOL    HW216497   1.837   3.779  11.218  2.3464  1.6123  0.0380
 1621SOL     OW16498   4.405   1.089  17.653 -0.1132  0.0753  0.2581
 1621SOL    HW116499   4.353   1.060  17.578  0.6446 -0.4654 -0.0499
 1621SOL    HW216500   4.336   1.106  17.718 -0.0368 -0.5571  0.5034
 1622SOL     OW16501   3.232   1.126   4.427 -0.6339 -0.1406 -0.0316
 1622SOL    HW116502   3.296   1.061   4.400  1.8564  2.5406 -0.5391
 1622SOL    HW216503   3.275   1.208   4.406 -0.2269 -0.3989 -0.1986
 1623SOL     OW16504   4.307   2.663   3.718  0.5883 -0.3619 -0.0399
 1623SOL    HW116505   4.281   2.661   3.810 -3.3443  2.8105 -1.1051
 1623SOL    HW216506   4.392   2.619   3.725  1.2494  0.7709 -0.8897
 1624SOL     OW16507   4.407   2.731  11.536 -0.5527  0.3652 -0.2199
 1624SOL    HW116508   4.366   2.731  11.450  0.6806  1.5063 -0.8038
 1624SOL    HW216509   4.498   2.725  11.506 -0.2089  1.0641  0.6615
 1625SOL     OW16510   2.240   3.196   5.767 -0.3518 -0.0043 -0.2246
 1625SOL    HW116511   2.283   3.215   5.683 -2.3684 -0.6505 -1.3993
 1625SOL    HW216512   2.258   3.102   5.758 -1.8806 -0.1824 -1.4458
 1626SOL     OW16513   2.982   1.482  16.128  0.3882  0.8805 -0.9152
 1626SOL    HW116514   2.927   1.559  16.115 -0.4067  0.4554 -0.0703
 1626SOL    HW216515   2.934   1.436  16.196  2.1509  1.6580  0.8429
 1627SOL     OW16516   3.550   0.458   8.073 -0.3013  0.2659  0.2624
 1627SOL    HW116517   3.485   0.416   8.130  0.4667 -1.0463  0.1721
 1627SOL    HW216518   3.622   0.451   8.135 -0.9291 -0.9366  0.8608
 1628SOL     OW16519   0.150   4.218   6.145  0.0018  0.0415 -0.2639
 1628SOL    HW116520   0.152   4.163   6.067 -1.4134 -1.7044  0.9262
 1628SOL    HW216521   0.242   4.212   6.171  0.2060 -1.0820 -1.2222
 1629SOL     OW16522   3.220   2.640   5.806  0.1122  0.1042  0.4407
 1629SOL    HW116523   3.187   2.553   5.784  0.4852 -0.4159  1.9133
 1629SOL    HW216524   3.168   2.704   5.758 -1.8105 -2.4325 -0.8916
 1630SOL     OW16525   0.153   0.089   7.401 -0.0081  0.6882 -0.4561
 1630SOL    HW116526   0.244   0.087   7.370 -0.1828 -0.5032 -0.8847
 1630SOL    HW216527   0.102   0.060   7.326 -0.8430 -0.8819  0.7186
 1631SOL     OW16528   0.560   0.999  13.105 -0.3527  0.0240  0.1886
 1631SOL    HW116529   0.465   1.010  13.095 -0.3875  0.6890  1.3340
 1631SOL    HW216530   0.568   0.957  13.191 -0.9199  0.8467  0.6460
 1632SOL     OW16531   2.944   4.004   9.902  0.6660  0.2190 -0.2002
 1632SOL    HW116532   3.021   4.054   9.932  0.7549  0.3207 -0.5963
 1632SOL    HW216533   2.909   4.048   9.825 -0.0009 -0.2647 -0.1707
 1633SOL     OW16534   1.394   0.574  11.018 -0.2634 -0.4706 -0.6884
 1633SOL    HW116535   1.486   0.593  11.039 -0.5466 -0.3918  0.5082
 1633SOL    HW216536   1.376   0.487  11.054 -1.9038  0.5527  0.9778
 1634SOL     OW16537   3.470   4.237   3.116  0.3441  0.1762  1.0732
 1634SOL    HW116538   3.501   4.246   3.206  1.8970 -1.4919  0.7015
 1634SOL    HW216539   3.423   4.320   3.116 -0.5952 -0.3436 -0.6715
 1635SOL     OW16540   3.426   0.543   9.887  0.4503  0.3107 -0.1174
 1635SOL    HW116541   3.471   0.485   9.949  2.0499  1.5125 -0.1813
 1635SOL    HW216542   3.467   0.626   9.910  1.5675  0.1451 -1.5879
 1636SOL     OW16543   2.082   1.229   6.344 -0.1484  0.2317  0.1605
 1636SOL    HW116544   2.117   1.318   6.352  0.6787 -0.0626 -0.1673
 1636SOL    HW216545   1.991   1.242   6.371  0.4565  1.3698  1.6790
 1637SOL     OW16546   1.528   3.262   7.897 -0.0334 -0.2952  0.2114
 1637SOL    HW116547   1.512   3.179   7.940  0.0839 -0.3752  0.0984
 1637SOL    HW216548   1.571   3.242   7.814 -0.1855  1.2857 -0.2615
 1638SOL     OW16549   2.086   2.581   8.089  0.0151  0.2590  0.2857
 1638SOL    HW116550   2.175   2.548   8.105  0.1463  0.2449 -0.4998
 1638SOL    HW216551   2.077   2.639   8.165 -1.1556  1.1377 -0.5184
 1639SOL     OW16552   0.997   2.348  15.090  0.1493  0.1222  0.4993
 1639SOL    HW116553   1.046   2.275  15.128  0.6427 -1.0783 -2.3888
 1639SOL    HW216554   1.019   2.414  15.155  2.3992 -1.1027  0.9938
 1640SOL     OW16555   4.422   3.299  11.447  0.0946  0.7854  0.0396
 1640SOL    HW116556   4.443   3.332  11.535 -2.1586  1.3081  0.3690
 1640SOL    HW216557   4.372   3.227  11.484  1.4908 -0.0763  0.2398
 1641SOL     OW16558   3.346   2.578   6.441 -0.5756  0.9463  0.1890
 1641SOL    HW116559   3.335   2.565   6.535 -1.0145  0.7460  0.1084
 1641SOL    HW216560   3.316   2.493   6.410 -0.3266  0.1927  2.0135
 1642SOL     OW16561   2.102   4.573   1.979  0.2563 -0.4608 -0.4274
 1642SOL    HW116562   2.133   4.663   1.988 -0.5819 -0.0017 -1.9542
 1642SOL    HW216563   2.033   4.570   2.046  2.1525  1.8168  1.6152
 1643SOL     OW16564   0.250   1.895   8.116 -0.0756  0.2565  0.3767
 1643SOL    HW116565   0.281   1.806   8.132 -0.9876 -0.3412 -1.0971
 1643SOL    HW216566   0.329   1.947   8.102 -1.0757  1.1740 -1.8519
 1644SOL     OW16567   0.913   0.219  12.839 -0.2559 -0.0448  0.5260
 1644SOL    HW116568   0.996   0.265  12.848  0.3320 -0.6667 -1.5505
 1644SOL    HW216569   0.875   0.248  12.921  2.2423  1.4481  1.1729
 1645SOL     OW16570   2.647   3.353   2.643  0.4216  0.4163  0.3824
 1645SOL    HW116571   2.693   3.382   2.564 -0.2172  1.1058  0.2622
 1645SOL    HW216572   2.558   3.367   2.611  0.9412  3.1860  0.1563
 1646SOL     OW16573   3.210   3.663  15.362  0.0194  0.6903  0.2849
 1646SOL    HW116574   3.240   3.642  15.273  3.6723 -0.3071  1.7500
 1646SOL    HW216575   3.262   3.602  15.414 -1.3573 -1.5057 -0.8861
 1647SOL     OW16576   2.040   4.665   5.415  1.0680  0.0290  0.2588
 1647SOL    HW116577   2.008   0.013   5.447  0.5398 -0.2478  0.4616
 1647SOL    HW216578   1.956   4.626   5.393  0.4367  3.0792 -2.8778
 1648SOL     OW16579   3.871   4.074   4.461  0.1057  0.1319 -0.0064
 1648SOL    HW116580   3.871   4.170   4.456 -0.8698  0.0830 -0.9645
 1648SOL    HW216581   3.787   4.058   4.505  0.8481 -3.4138  0.0681
 1649SOL     OW16582   4.619   0.179   5.213 -0.4357 -0.4233 -0.2419
 1649SOL    HW116583   4.550   0.195   5.150 -0.1912 -0.3056 -0.4781
 1649SOL    HW216584   4.695   0.228   5.183 -0.1304  0.5100  2.0129
 1650SOL     OW16585   1.771   3.278  12.290 -0.4251 -0.4476  0.4101
 1650SOL    HW116586   1.725   3.234  12.362  0.7140  1.5970  2.3998
 1650SOL    HW216587   1.699   3.298  12.230 -0.2436  0.0436  0.3528
 1651SOL     OW16588   3.854   3.249   1.396  0.2812 -0.2083 -0.4772
 1651SOL    HW116589   3.925   3.312   1.382  1.9284 -1.8786  0.3590
 1651SOL    HW216590   3.864   3.227   1.489 -3.4906 -1.4942 -0.3874
 1652SOL     OW16591   1.493   4.176   9.163  0.6696 -0.4785  0.2812
 1652SOL    HW116592   1.401   4.198   9.147 -0.4129 -5.7713 -0.9094
 1652SOL    HW216593   1.523   4.155   9.075 -0.9161 -0.5056 -0.2482
 1653SOL     OW16594   4.153   0.649   7.934 -1.0230  0.1078  0.7683
 1653SOL    HW116595   4.210   0.678   7.862 -2.5328 -1.0380 -0.8805
 1653SOL    HW216596   4.211   0.579   7.965  0.5899  1.8805  1.7893
 1654SOL     OW16597   4.644   0.162   9.635 -0.0401  0.2215 -0.2888
 1654SOL    HW116598   4.569   0.116   9.596 -0.4280  0.0220  0.6778
 1654SOL    HW216599   4.653   0.121   9.721 -0.2711 -0.0827 -0.4100
 1655SOL     OW16600   3.061   3.773  16.908 -0.3954 -0.8858 -0.0282
 1655SOL    HW116601   3.044   3.844  16.970 -1.5943 -0.0940 -1.2787
 1655SOL    HW216602   2.977   3.771  16.864  0.0176  0.8884 -0.8959
 1656SOL     OW16603   1.535   3.860   5.003  0.1278  0.1727 -0.2836
 1656SOL    HW116604   1.599   3.922   4.966  0.4222  1.0289  1.6626
 1656SOL    HW216605   1.449   3.887   4.972 -0.5764 -3.6307 -1.5801
 1657SOL     OW16606   1.824   1.298   6.340 -0.6247 -0.6983 -0.3879
 1657SOL    HW116607   1.775   1.302   6.258 -0.9048  1.2657 -0.1107
 1657SOL    HW216608   1.785   1.226   6.389 -0.0428  0.3943  1.6762
 1658SOL     OW16609   2.977   2.795   0.699  0.0847  0.4294 -0.2629
 1658SOL    HW116610   2.967   2.728   0.632 -4.1995 -0.0331  0.8296
 1658SOL    HW216611   3.072   2.788   0.708 -0.0659 -0.3997  0.6897
 1659SOL     OW16612   3.394   0.444   1.024  0.2590  0.0933 -0.0907
 1659SOL    HW116613   3.310   0.465   1.065 -0.1691 -2.0664  0.1178
 1659SOL    HW216614   3.432   0.403   1.102 -0.3723  1.0357  0.7055
 1660SOL     OW16615   2.896   2.177   8.697 -0.3709 -0.0128  0.2943
 1660SOL    HW116616   2.940   2.092   8.688 -0.6065 -0.3273  2.1448
 1660SOL    HW216617   2.805   2.147   8.691 -0.1124 -1.3789  2.9195
 1661SOL     OW16618   0.179   3.287  11.048  0.4198  0.6336 -0.1386
 1661SOL    HW116619   0.091   3.324  11.050  0.2850  0.3603 -0.9119
 1661SOL    HW216620   0.166   3.208  10.996 -0.5665 -0.2881  1.5012
 1662SOL     OW16621   0.274   0.846   9.761  0.0963  0.0923 -0.4193
 1662SOL    HW116622   0.287   0.937   9.731  1.2416 -0.2479 -0.9549
 1662SOL    HW216623   0.363   0.813   9.753 -0.4817 -1.7406  0.8574
 1663SOL     OW16624   0.329   3.162  16.421  0.4271  0.0188 -0.5497
 1663SOL    HW116625   0.302   3.217  16.348 -0.9525  0.5066  0.3147
 1663SOL    HW216626   0.341   3.218  16.498 -0.1108  1.0268 -1.1910
 1664SOL     OW16627   3.589   0.381   2.661 -0.6197 -0.0272 -0.4743
 1664SOL    HW116628   3.664   0.438   2.647 -1.1865  0.5019 -1.3469
 1664SOL    HW216629   3.613   0.301   2.614 -1.1960 -0.7979  0.5301
 1665SOL     OW16630   0.449   2.734   2.978  0.3351 -0.3218  0.0289
 1665SOL    HW116631   0.436   2.643   2.951  0.9965 -1.2735  2.9154
 1665SOL    HW216632   0.408   2.777   2.903 -0.8266 -0.5738  0.5224
 1666SOL     OW16633   2.656   3.852   7.150  0.4683 -0.1923  0.1999
 1666SOL    HW116634   2.700   3.926   7.192  3.9194 -0.8123 -2.2603
 1666SOL    HW216635   2.565   3.873   7.169  0.9665  1.2145  1.0670
 1667SOL     OW16636   4.685   0.779   9.078  0.7153 -0.5664  0.0405
 1667SOL    HW116637   4.625   0.831   9.026  2.2089  1.0613 -0.0398
 1667SOL    HW216638   4.628   0.752   9.150  0.9839  2.2470  1.3143
 1668SOL     OW16639   1.241   2.076   4.808 -0.2741 -0.1356 -0.8831
 1668SOL    HW116640   1.298   2.113   4.741  1.5286 -1.7722 -0.2449
 1668SOL    HW216641   1.175   2.144   4.822 -0.9272 -0.8065 -0.7065
 1669SOL     OW16642   4.713   1.106   7.398  0.0076  0.1353  0.2440
 1669SOL    HW116643   4.672   1.126   7.482  1.2255  0.1590  0.8423
 1669SOL    HW216644   4.674   1.020   7.381  1.1410 -0.3034 -0.1467
 1670SOL     OW16645   0.370   3.519   4.066  0.5036  0.1718  0.0873
 1670SOL    HW116646   0.454   3.511   4.113 -0.2924 -1.4212  1.2121
 1670SOL    HW216647   0.385   3.569   3.986  0.6475 -1.2826 -0.7786
 1671SOL     OW16648   0.928   1.110   8.591 -0.0780  0.3735 -0.2756
 1671SOL    HW116649   0.939   1.200   8.561  1.3151 -0.2133 -1.5607
 1671SOL    HW216650   0.972   1.116   8.676 -1.8876 -0.9525  0.7619
 1672SOL     OW16651   2.523   3.107   9.585 -0.5720  0.5742 -0.4286
 1672SOL    HW116652   2.579   3.037   9.553  1.3933  0.5054  3.1999
 1672SOL    HW216653   2.459   3.055   9.634 -0.7300  0.8979 -0.2920
 1673SOL     OW16654   1.457   0.158  10.585  0.2463  0.0171 -0.1350
 1673SOL    HW116655   1.436   0.161  10.492 -0.9930  0.8858  0.1663
 1673SOL    HW216656   1.493   0.070  10.576 -0.1410 -0.3869  2.2559
 1674SOL     OW16657   4.524   3.287   5.046 -0.0741 -0.3500  0.3319
 1674SOL    HW116658   4.503   3.308   5.137  2.6792 -0.4190  0.9821
 1674SOL    HW216659   4.614   3.261   5.066  0.2621 -1.2116 -2.2315
 1675SOL     OW16660   1.293   3.801  16.976  0.0667  0.0426 -0.2545
 1675SOL    HW116661   1.365   3.864  16.983 -0.4885  0.8800 -2.0697
 1675SOL    HW216662   1.338   3.717  16.978  2.8548  1.5589  1.0658
 1676SOL     OW16663   0.279   0.411   8.072  0.1134 -0.0379  0.3058
 1676SOL    HW116664   0.190   0.445   8.067  1.0160  2.0598 -1.6074
 1676SOL    HW216665   0.271   0.364   8.155  1.7768 -2.9078 -1.1356
 1677SOL     OW16666   4.217   3.323   4.002  0.5805 -0.3092  0.1000
 1677SOL    HW116667   4.254   3.299   3.918 -0.3505  0.8324 -0.6326
 1677SOL    HW216668   4.285   3.373   4.046  0.3252 -0.3441  0.5394
 1678SOL     OW16669   0.596   0.808   7.674 -0.5212  0.1091 -0.1544
 1678SOL    HW116670   0.513   0.773   7.707 -0.1853  0.4334  1.0272
 1678SOL    HW216671   0.651   0.824   7.751  1.1616  2.1262 -1.8029
 1679SOL     OW16672   2.960   3.096   3.827 -0.1259 -0.0175 -0.7402
 1679SOL    HW116673   2.929   3.006   3.816 -3.7696  1.3502 -1.4980
 1679SOL    HW216674   3.032   3.084   3.765  0.7469  0.0806  0.2353
 1680SOL     OW16675   1.506   1.752  13.077 -0.4205  0.6278 -0.5830
 1680SOL    HW116676   1.592   1.710  13.076  0.2936  2.0516  1.6780
 1680SOL    HW216677   1.478   1.745  13.168 -2.4700 -0.6427 -1.3160
 1681SOL     OW16678   2.089   0.679   6.225  0.3290 -0.1680  0.2373
 1681SOL    HW116679   2.165   0.732   6.204  0.0187  1.1736  2.4749
 1681SOL    HW216680   2.125   0.607   6.278  1.8582  0.9624  0.7285
 1682SOL     OW16681   2.389   2.095   5.917 -0.1265  0.2546  0.5401
 1682SOL    HW116682   2.453   2.165   5.905 -0.4030  0.4326  0.0856
 1682SOL    HW216683   2.435   2.041   5.982 -1.8992 -2.8653 -0.7758
 1683SOL     OW16684   2.898   3.832   8.255 -0.0848  0.0073 -0.1023
 1683SOL    HW116685   2.985   3.822   8.293 -0.0008 -0.0467 -0.3107
 1683SOL    HW216686   2.854   3.880   8.326  0.6098  1.9934 -1.0040
 1684SOL     OW16687   2.517   2.460   0.449  0.9745 -0.3099 -0.0507
 1684SOL    HW116688   2.479   2.510   0.522  0.2959 -1.0057  0.0753
 1684SOL    HW216689   2.609   2.485   0.458  0.6447  1.5444 -1.6806
 1685SOL     OW16690   1.080   1.654  12.384  0.1097 -0.2129 -0.6094
 1685SOL    HW116691   1.158   1.628  12.432 -1.3493 -0.1279  1.7884
 1685SOL    HW216692   1.050   1.725  12.440 -0.1702 -1.0753  0.3385
 1686SOL     OW16693   1.956   0.843  12.183  0.5320  0.7675 -0.2086
 1686SOL    HW116694   2.000   0.825  12.266  1.3011  2.2301 -0.2852
 1686SOL    HW216695   1.916   0.929  12.199 -0.0743  0.4206  0.1130
 1687SOL     OW16696   3.119   0.957   6.257  0.1683  0.4140  0.3191
 1687SOL    HW116697   3.108   0.907   6.338 -0.4256 -0.8574 -0.5399
 1687SOL    HW216698   3.095   1.041   6.295  0.3849  0.7131 -0.2099
 1688SOL     OW16699   1.089   3.571   2.788 -0.1587 -0.1110  0.3012
 1688SOL    HW116700   0.998   3.581   2.815 -0.0741  0.0283  0.5349
 1688SOL    HW216701   1.096   3.636   2.718 -1.3083  1.8325  1.9805
 1689SOL     OW16702   1.678   0.862   3.115  0.0312 -0.0002 -0.1304
 1689SOL    HW116703   1.652   0.932   3.175 -0.8208  0.4941 -1.0833
 1689SOL    HW216704   1.597   0.847   3.067 -0.8313  0.8509  1.0545
 1690SOL     OW16705   0.822   0.620   3.697  0.2090  0.5020 -0.2945
 1690SOL    HW116706   0.742   0.591   3.741  0.2018 -1.6947 -1.7741
 1690SOL    HW216707   0.835   0.711   3.724  2.4846 -0.1192  0.7295
 1691SOL     OW16708   0.330   4.427  14.991 -0.0352  0.0893 -0.4854
 1691SOL    HW116709   0.374   4.371  15.055 -1.9260 -2.6715 -1.6242
 1691SOL    HW216710   0.262   4.463  15.048 -1.4706  0.7715 -2.6346
 1692SOL     OW16711   0.652   2.962   5.530 -0.0799 -0.3744  0.0908
 1692SOL    HW116712   0.695   2.941   5.612  1.4440  1.7535 -0.1461
 1692SOL    HW216713   0.575   2.905   5.525 -0.6398  0.3929 -0.0271
 1693SOL     OW16714   1.915   2.572   5.721  0.0271  0.1277 -0.4159
 1693SOL    HW116715   1.874   2.591   5.805  1.1921  1.2324 -0.0997
 1693SOL    HW216716   1.852   2.503   5.699  2.1576 -1.5729 -1.2112
 1694SOL     OW16717   2.133   1.406   0.891  0.3608 -0.0285 -0.1815
 1694SOL    HW116718   2.072   1.332   0.893 -0.1453  0.4061  0.4092
 1694SOL    HW216719   2.103   1.457   0.966  2.5109 -0.4062  0.9538
 1695SOL     OW16720   4.097   3.885  15.029  0.1257 -0.3733  0.5436
 1695SOL    HW116721   4.120   3.821  14.963 -0.6416  1.2146 -1.2638
 1695SOL    HW216722   4.005   3.864  15.017  0.8886 -1.6408 -2.8434
 1696SOL     OW16723   4.619   3.904   9.738 -0.2577 -0.0649 -0.0431
 1696SOL    HW116724   4.598   3.937   9.825 -0.3241 -1.8318  0.6083
 1696SOL    HW216725   4.668   3.977   9.700 -0.5872  0.5744  0.7537
 1697SOL     OW16726   2.610   3.928  13.390 -0.2763  0.0303 -0.9341
 1697SOL    HW116727   2.564   3.959  13.312 -0.9643  0.4144 -0.3741
 1697SOL    HW216728   2.701   3.948  13.369 -0.0761 -1.1747 -1.2600
 1698SOL     OW16729   2.715   4.416   2.341  0.0661  0.8769  0.0739
 1698SOL    HW116730   2.733   4.489   2.401 -1.3880 -0.1954  1.7936
 1698SOL    HW216731   2.620   4.408   2.345  0.2202 -0.3965  1.1179
 1699SOL     OW16732   1.830   3.383   3.938  0.0357 -0.0359 -0.0140
 1699SOL    HW116733   1.752   3.429   3.968  0.6816  2.0388 -1.4284
 1699SOL    HW216734   1.845   3.317   4.005  0.1699  0.2057  0.1924
 1700SOL     OW16735   3.769   1.388  15.030 -0.4584 -0.7854  0.5971
 1700SOL    HW116736   3.841   1.414  15.087  0.1428  0.4423 -0.7207
 1700SOL    HW216737   3.777   1.455  14.962 -1.6788 -2.1753 -0.9410
 1701SOL     OW16738   1.545   3.484   2.840 -0.3746 -0.2907  0.6870
 1701SOL    HW116739   1.599   3.475   2.761 -0.4567 -2.2875  0.8364
 1701SOL    HW216740   1.494   3.563   2.821 -1.8618 -1.0155  1.6132
 1702SOL     OW16741   2.227   3.901   9.084 -0.1122  0.2897  0.6666
 1702SOL    HW116742   2.159   3.946   9.034  0.4601  1.0607  0.5834
 1702SOL    HW216743   2.176   3.856   9.151  0.5596 -0.9097  0.3888
 1703SOL     OW16744   3.489   2.410   8.505  0.1860 -0.2663  0.3432
 1703SOL    HW116745   3.567   2.417   8.560  2.0308  0.0872 -2.3037
 1703SOL    HW216746   3.429   2.355   8.555 -1.4453  0.3604 -0.9049
 1704SOL     OW16747   4.732   1.872   7.304 -0.0604  0.4910 -0.7127
 1704SOL    HW116748   0.005   1.917   7.387 -2.3628 -0.2488 -0.0190
 1704SOL    HW216749   0.039   1.787   7.315  0.8333  0.7302 -2.3998
 1705SOL     OW16750   0.300   2.199   0.216 -0.2911 -0.4812  0.5508
 1705SOL    HW116751   0.335   2.276   0.260  0.1328 -0.1052 -0.4370
 1705SOL    HW216752   0.304   2.135   0.287  1.9192 -0.0711  0.7766
 1706SOL     OW16753   3.722   0.924   3.992 -0.1846 -0.0565 -0.2898
 1706SOL    HW116754   3.761   0.849   3.946 -0.5792  1.5315 -3.1750
 1706SOL    HW216755   3.706   0.978   3.915  0.1502 -0.5388 -0.7000
 1707SOL     OW16756   4.682   1.280   2.904 -0.1185 -0.2057  0.3728
 1707SOL    HW116757   0.015   1.345   2.901  0.1304 -0.5418 -0.8759
 1707SOL    HW216758   4.736   1.202   2.890  1.0914  0.8516 -0.8335
 1708SOL     OW16759   2.280   1.832   8.465  0.1566  0.2214 -0.1099
 1708SOL    HW116760   2.251   1.745   8.440  0.6803 -0.3510  1.2745
 1708SOL    HW216761   2.361   1.808   8.511  0.5892 -1.7160 -1.8779
 1709SOL     OW16762   1.024   4.536   6.154  0.1910 -0.3850  0.1708
 1709SOL    HW116763   0.945   4.577   6.119  1.0172  1.0561 -0.0106
 1709SOL    HW216764   0.997   4.506   6.241  0.2197  0.1613  0.3668
 1710SOL     OW16765   1.084   3.862  12.838 -0.1065 -0.2642 -0.0912
 1710SOL    HW116766   1.168   3.879  12.796  0.1261  0.1716  0.5552
 1710SOL    HW216767   1.030   3.892  12.765 -0.6482  1.9376  1.2204
 1711SOL     OW16768   1.484   3.580   6.842 -0.1205  0.2394  0.3253
 1711SOL    HW116769   1.562   3.630   6.818 -0.3125  0.3058 -0.1491
 1711SOL    HW216770   1.526   3.499   6.870  1.4551  1.5231  1.6448
 1712SOL     OW16771   1.395   2.247  16.111 -0.6232  0.2014 -0.1248
 1712SOL    HW116772   1.382   2.335  16.144  4.4505  0.9527 -0.1957
 1712SOL    HW216773   1.487   2.222  16.116 -0.8234 -0.6383 -0.4887
 1713SOL     OW16774   1.445   2.965   8.784 -0.3882  0.4878  0.1956
 1713SOL    HW116775   1.421   2.962   8.691 -1.0762  0.5689  0.3680
 1713SOL    HW216776   1.486   2.880   8.794 -1.7054  0.0124  1.5287
 1714SOL     OW16777   3.447   0.549   5.677  0.4462  0.3793 -0.5439
 1714SOL    HW116778   3.463   0.467   5.630  0.7019 -0.4539  0.9752
 1714SOL    HW216779   3.506   0.535   5.751 -2.3527  1.1152  1.8434
 1715SOL     OW16780   2.782   4.613  17.233  0.2885  0.3960  0.1546
 1715SOL    HW116781   2.720   4.680  17.205 -0.0425  0.7248  1.6602
 1715SOL    HW216782   2.744   4.579  17.314  0.3225  0.6574  0.2797
 1716SOL     OW16783   2.957   1.421   8.254 -0.1236  0.1265  0.0648
 1716SOL    HW116784   2.929   1.434   8.344  2.9438 -0.2610  1.0675
 1716SOL    HW216785   3.052   1.434   8.262 -0.2374  0.9759  0.0448
 1717SOL     OW16786   0.566   3.567   2.884  0.4303  0.7963 -0.4355
 1717SOL    HW116787   0.594   3.477   2.868 -1.3017  0.3641 -1.0611
 1717SOL    HW216788   0.653   3.600   2.905  0.6319 -1.5737  2.5340
 1718SOL     OW16789   2.890   3.810  14.384 -0.3419  0.3064  0.3393
 1718SOL    HW116790   2.831   3.885  14.381 -0.1839  0.5277  3.0651
 1718SOL    HW216791   2.887   3.788  14.291 -1.0964  1.7052  0.0315
 1719SOL     OW16792   4.217   2.073   3.854 -0.6721 -0.2337 -0.1915
 1719SOL    HW116793   4.245   2.146   3.799 -1.5927 -0.2413 -0.6636
 1719SOL    HW216794   4.131   2.101   3.887  0.5284  1.0214  1.8752
 1720SOL     OW16795   3.880   3.027   3.068  0.3639 -0.0489 -0.3571
 1720SOL    HW116796   3.956   3.032   3.126 -1.3704  1.6997  1.7755
 1720SOL    HW216797   3.813   3.055   3.131  0.5250  0.1338 -0.2658
 1721SOL     OW16798   4.464   0.084   1.721 -0.4381  0.2424  0.0258
 1721SOL    HW116799   4.447   0.167   1.677  0.2057 -0.1959 -1.0367
 1721SOL    HW216800   4.411   0.092   1.800 -2.1335 -0.1780 -1.0632
 1722SOL     OW16801   2.103   0.547   5.991  0.1285 -0.3904 -0.1733
 1722SOL    HW116802   2.097   0.616   5.925  0.7149 -0.2539 -0.0820
 1722SOL    HW216803   2.099   0.597   6.072  0.0602  1.0992 -1.0943
 1723SOL     OW16804   4.589   1.944   8.142 -0.7491 -0.1161 -0.2203
 1723SOL    HW116805   4.589   2.032   8.105 -0.7752  1.0308  2.4806
 1723SOL    HW216806   4.683   1.928   8.144 -0.3022  2.6462  1.1958
 1724SOL     OW16807   3.206   2.739  15.326  0.0849  0.0734  0.2553
 1724SOL    HW116808   3.151   2.752  15.404  0.0867  0.3123  0.2174
 1724SOL    HW216809   3.169   2.811  15.274 -0.7759  1.1690  2.3340
 1725SOL     OW16810   3.000   1.980   2.248 -0.1131  0.5186 -0.4125
 1725SOL    HW116811   2.946   2.049   2.210 -0.7976  0.9579  1.3604
 1725SOL    HW216812   3.065   2.024   2.304  0.3370  1.4445 -1.6650
 1726SOL     OW16813   4.150   4.210  11.511 -0.0931 -0.4006 -0.5932
 1726SOL    HW116814   4.226   4.267  11.524 -0.3694 -0.4615  1.2282
 1726SOL    HW216815   4.116   4.204  11.600 -2.1919  1.4040 -1.2869
 1727SOL     OW16816   0.800   1.124   9.869  0.6135  0.2871  0.5605
 1727SOL    HW116817   0.757   1.076   9.940  0.4908 -1.6594 -0.8266
 1727SOL    HW216818   0.730   1.133   9.804  1.5824 -1.8150 -0.7893
 1728SOL     OW16819   0.753   1.877   0.257 -0.0273  0.3724 -0.6097
 1728SOL    HW116820   0.682   1.940   0.242  0.1465  1.0084  1.2663
 1728SOL    HW216821   0.801   1.872   0.174  0.4863  0.6448 -0.3297
 1729SOL     OW16822   2.948   1.078   0.446 -0.0625 -0.0398 -0.0459
 1729SOL    HW116823   2.937   1.168   0.476 -0.2433  0.4482 -1.5642
 1729SOL    HW216824   2.944   1.105   0.354  1.4429 -1.3712 -0.5011
 1730SOL     OW16825   4.107   4.126   5.805 -0.4859 -0.2371 -0.2487
 1730SOL    HW116826   4.185   4.113   5.860 -1.0217  2.5698  1.2070
 1730SOL    HW216827   4.041   4.168   5.861 -0.4424  1.1774 -1.2455
 1731SOL     OW16828   3.811   1.405   1.049  0.1407  0.2642 -0.2192
 1731SOL    HW116829   3.820   1.333   0.987  0.8222  1.2646 -1.2900
 1731SOL    HW216830   3.844   1.474   0.991  2.6653  1.4842  2.6253
 1732SOL     OW16831   3.073   1.894   7.048  0.4842  0.3531  0.0362
 1732SOL    HW116832   3.142   1.948   7.087 -0.9178  0.8809  1.7652
 1732SOL    HW216833   3.054   1.829   7.115 -0.6914 -0.3504 -0.9770
 1733SOL     OW16834   4.383   3.287  16.764 -0.0116 -0.0145 -0.2293
 1733SOL    HW116835   4.402   3.203  16.724 -0.0506  0.3341 -0.9707
 1733SOL    HW216836   4.325   3.260  16.835 -0.1428  0.4064 -0.1739
 1734SOL     OW16837   0.066   1.706   6.869  0.6123 -0.0499  0.2444
 1734SOL    HW116838   0.012   1.765   6.922  1.3247 -1.6463  2.7493
 1734SOL    HW216839   0.031   1.625   6.906  1.4461 -0.4904  0.0524
 1735SOL     OW16840   3.761   2.526   4.193 -0.7144 -0.2407 -0.0093
 1735SOL    HW116841   3.754   2.621   4.194  0.0049 -0.1974  0.8245
 1735SOL    HW216842   3.716   2.506   4.111 -0.6338 -2.3442  0.4540
 1736SOL     OW16843   4.286   2.978  10.782  0.3066  0.2551  0.2694
 1736SOL    HW116844   4.343   2.965  10.857  1.6226  2.2575 -0.3683
 1736SOL    HW216845   4.311   2.907  10.723  0.4244 -0.8290  1.6291
 1737SOL     OW16846   3.764   2.554   1.863  0.1318  0.5494  0.4252
 1737SOL    HW116847   3.794   2.644   1.873 -0.2781  0.7681 -0.2874
 1737SOL    HW216848   3.670   2.566   1.851  0.2016  1.1535  0.4897
 1738SOL     OW16849   4.446   2.842   0.735 -0.3757  0.2696  0.2074
 1738SOL    HW116850   4.399   2.890   0.666 -0.7586  3.1031  2.4672
 1738SOL    HW216851   4.414   2.754   0.715  0.4924 -0.0410  0.1631
 1739SOL     OW16852   2.248   2.541  16.624 -0.3448  0.0980  0.6479
 1739SOL    HW116853   2.191   2.478  16.580  0.6383  0.5217 -1.2393
 1739SOL    HW216854   2.217   2.516  16.711 -0.7336 -0.6592  0.2917
 1740SOL     OW16855   1.695   1.464   3.364  0.8857  0.2830 -0.1696
 1740SOL    HW116856   1.623   1.527   3.367 -0.7331 -1.4850 -2.1937
 1740SOL    HW216857   1.736   1.479   3.449 -1.2250 -0.0347  0.9274
 1741SOL     OW16858   1.461   2.640   7.777 -0.2166 -0.6949  0.1005
 1741SOL    HW116859   1.500   2.686   7.703  0.6742 -1.2562  0.2331
 1741SOL    HW216860   1.368   2.652   7.756 -0.4021 -2.3480 -0.0385
 1742SOL     OW16861   4.251   4.696  10.643  0.1949 -0.0293  0.3300
 1742SOL    HW116862   4.193   4.694  10.568  0.0826 -2.9119  0.4948
 1742SOL    HW216863   4.263   0.052  10.662  0.1397  0.2510 -1.0386
 1743SOL     OW16864   0.409   3.630   0.353 -0.1741 -0.5096  0.7495
 1743SOL    HW116865   0.448   3.718   0.355 -0.7846 -0.2280  0.2621
 1743SOL    HW216866   0.371   3.621   0.266 -0.1544 -0.8705  0.7790
 1744SOL     OW16867   4.147   2.153   9.013  0.0760  0.0943 -0.8627
 1744SOL    HW116868   4.206   2.190   9.079 -2.1511 -1.1176  1.7854
 1744SOL    HW216869   4.071   2.120   9.060  1.5618  0.1733  1.5951
 1745SOL     OW16870   3.738   3.035   0.818 -0.0589 -0.3008  0.3969
 1745SOL    HW116871   3.723   2.942   0.801 -1.3242  0.4475 -2.7041
 1745SOL    HW216872   3.652   3.078   0.821 -0.6110 -1.2765 -1.0126
 1746SOL     OW16873   4.251   2.872   8.625 -0.2784 -0.2425 -0.0736
 1746SOL    HW116874   4.250   2.779   8.602 -0.5568 -0.9109  2.6259
 1746SOL    HW216875   4.345   2.878   8.613 -0.3889  1.0043 -0.2994
 1747SOL     OW16876   0.414   2.652   8.797  0.4295 -0.9666 -0.1730
 1747SOL    HW116877   0.413   2.743   8.827  1.2870 -1.1242  0.3189
 1747SOL    HW216878   0.321   2.627   8.794 -0.0063  0.5979  0.6106
 1748SOL     OW16879   2.964   2.043  16.054 -0.4692  0.2610  0.3585
 1748SOL    HW116880   2.881   2.050  16.008  0.5483  1.0407 -1.3740
 1748SOL    HW216881   2.942   2.080  16.140 -0.2911  0.4879  0.3055
 1749SOL     OW16882   2.009   3.847   2.771  0.6907  0.2117  0.0447
 1749SOL    HW116883   2.059   3.852   2.690  1.0517  1.0701  0.3203
 1749SOL    HW216884   1.976   3.936   2.777  0.0444 -0.1931  2.5662
 1750SOL     OW16885   0.400   1.489   6.251  0.3891  0.0399 -0.0293
 1750SOL    HW116886   0.438   1.562   6.203 -0.0797 -1.6759 -2.9769
 1750SOL    HW216887   0.313   1.527   6.258  0.8020  1.6398 -3.6430
 1751SOL     OW16888   0.962   1.746   2.380  0.0176 -0.0870  0.0410
 1751SOL    HW116889   0.925   1.683   2.319  1.2448 -1.4411  0.7023
 1751SOL    HW216890   0.882   1.789   2.411  1.7042  2.5953  0.7405
 1752SOL     OW16891   1.934   3.082   9.234 -0.6605  0.5339  0.1503
 1752SOL    HW116892   1.965   3.133   9.308  0.9391 -1.1607  0.6679
 1752SOL    HW216893   1.842   3.105   9.223 -0.0352  2.2413 -1.4367
 1753SOL     OW16894   4.228   4.226   6.538  0.5188 -0.2636  0.2372
 1753SOL    HW116895   4.317   4.211   6.571 -0.2269 -3.0599  0.9783
 1753SOL    HW216896   4.235   4.278   6.458  0.0628 -0.6224 -0.0321
 1754SOL     OW16897   2.045   1.248  16.721 -0.0568  0.3409 -0.4665
 1754SOL    HW116898   2.100   1.307  16.772  1.4411 -3.5393  2.4126
 1754SOL    HW216899   2.018   1.306  16.649 -0.3652 -0.0018 -0.6324
 1755SOL     OW16900   0.782   1.571   5.557  0.1261 -0.3088 -0.5212
 1755SOL    HW116901   0.699   1.584   5.602 -0.5577 -0.6013 -1.7087
 1755SOL    HW216902   0.762   1.506   5.490 -0.8302  0.4280 -0.9568
 1756SOL     OW16903   1.522   1.848   5.566  0.6482  0.0655  0.0889
 1756SOL    HW116904   1.497   1.772   5.514  0.3791  0.2989 -0.1172
 1756SOL    HW216905   1.593   1.891   5.518  0.5471 -1.4727 -1.4347
 1757SOL     OW16906   0.713   0.035  10.952 -0.1272 -0.2840  0.3074
 1757SOL    HW116907   0.700   0.016  11.045 -3.2145  1.6197  0.2687
 1757SOL    HW216908   0.630   0.007  10.915  0.0492 -1.9998  1.2237
 1758SOL     OW16909   2.508   0.465  13.172 -0.3923  0.3256  0.6295
 1758SOL    HW116910   2.459   0.547  13.164 -2.8663 -1.3747 -1.8070
 1758SOL    HW216911   2.443   0.400  13.144  0.7932 -0.6666  0.1704
 1759SOL     OW16912   0.708   4.559   6.992  0.5001  0.0690  0.0352
 1759SOL    HW116913   0.788   4.576   6.943  0.2115 -0.7041 -0.6977
 1759SOL    HW216914   0.639   4.588   6.933 -0.8023 -0.4320  1.2952
 1760SOL     OW16915   2.734   1.224   5.869 -0.4642 -0.4200 -0.3604
 1760SOL    HW116916   2.694   1.239   5.954  1.1674 -0.4431  0.4093
 1760SOL    HW216917   2.821   1.186   5.880 -0.1579  0.2059 -0.5619
 1761SOL     OW16918   1.557   4.190   0.502 -0.3021  0.0974  0.0500
 1761SOL    HW116919   1.491   4.155   0.442 -0.5445 -1.3424  1.1583
 1761SOL    HW216920   1.600   4.245   0.436 -0.7906 -1.7025 -1.7811
 1762SOL     OW16921   4.685   0.340   1.612  0.4654  0.3411  0.0276
 1762SOL    HW116922   4.651   0.400   1.546  3.3348  1.0276 -0.8265
 1762SOL    HW216923   4.596   0.339   1.648  0.7165  1.6919  0.7014
 1763SOL     OW16924   4.575   3.682   5.822 -0.4453 -0.0485 -0.0973
 1763SOL    HW116925   4.532   3.657   5.904  1.2958 -2.5903  0.0123
 1763SOL    HW216926   4.591   3.596   5.784 -0.4701  0.1813 -0.6344
 1764SOL     OW16927   1.590   4.501  11.174  0.0883 -0.1966  0.2376
 1764SOL    HW116928   1.676   4.489  11.214 -0.4074  0.4114  1.4774
 1764SOL    HW216929   1.602   4.479  11.081  1.4678 -0.4183  0.4632
 1765SOL     OW16930   1.894   4.094  12.381  0.2262 -0.3046 -0.3031
 1765SOL    HW116931   1.974   4.147  12.382  1.4586 -2.1693  0.2630
 1765SOL    HW216932   1.877   4.089  12.287 -0.5434  1.1849 -0.2449
 1766SOL     OW16933   0.295   1.176   8.052 -0.3790  0.1231 -0.0918
 1766SOL    HW116934   0.276   1.101   7.995  0.0528  0.4003 -0.5938
 1766SOL    HW216935   0.245   1.147   8.129  1.2455 -1.9115  0.2105
 1767SOL     OW16936   3.984   3.252   2.630 -0.0132 -0.3857 -0.7531
 1767SOL    HW116937   3.979   3.165   2.589  2.5169 -0.5139 -0.8277
 1767SOL    HW216938   3.961   3.242   2.722 -1.6874  1.1490 -1.0244
 1768SOL     OW16939   2.479   2.974   8.170  0.0121 -0.4214 -0.6416
 1768SOL    HW116940   2.471   2.959   8.076  0.5940 -1.9409 -0.4586
 1768SOL    HW216941   2.567   2.937   8.182 -0.6099 -1.4543  0.7623
 1769SOL     OW16942   4.660   2.691  10.230 -0.1336 -0.4333  0.9894
 1769SOL    HW116943   0.006   2.709  10.186  0.0247  1.0027  1.8729
 1769SOL    HW216944   4.688   2.700  10.321 -1.8061 -0.4332  1.5060
 1770SOL     OW16945   2.836   4.339   4.702 -1.0373 -0.2579  0.1877
 1770SOL    HW116946   2.815   4.403   4.770  0.4510  0.7267 -0.2747
 1770SOL    HW216947   2.859   4.395   4.628  0.2859 -3.4876 -1.8205
 1771SOL     OW16948   4.191   1.401  11.205 -0.4217 -0.4633  0.3616
 1771SOL    HW116949   4.165   1.371  11.292 -0.2817 -3.1379 -0.5079
 1771SOL    HW216950   4.279   1.437  11.212 -0.2183 -0.8264 -0.3836
 1772SOL     OW16951   0.211   2.207  11.637 -0.5599  0.1852 -0.4151
 1772SOL    HW116952   0.117   2.208  11.653 -0.5200 -1.3932 -0.0322
 1772SOL    HW216953   0.216   2.189  11.543  3.1138 -0.8284 -0.0369
 1773SOL     OW16954   2.980   3.519   5.864  0.1167  0.6879  0.1494
 1773SOL    HW116955   3.004   3.540   5.774  2.4389  0.9471  0.8240
 1773SOL    HW216956   2.980   3.424   5.850  1.3220  0.7748 -0.4787
 1774SOL     OW16957   3.413   3.190   8.202 -0.5269 -0.3223 -0.3293
 1774SOL    HW116958   3.414   3.282   8.174 -4.1390 -0.0904  0.3330
 1774SOL    HW216959   3.319   3.174   8.209 -0.1613 -1.7802  1.4450
 1775SOL     OW16960   1.155   3.916   9.573  0.3847 -0.4323 -0.6713
 1775SOL    HW116961   1.087   3.935   9.509  0.4349 -0.6990 -0.8037
 1775SOL    HW216962   1.158   3.999   9.620  1.2925 -0.2714 -1.0122
 1776SOL     OW16963   3.581   2.590   0.405 -0.1734 -0.1225  0.4114
 1776SOL    HW116964   3.590   2.503   0.446 -0.3455 -0.3193  0.0339
 1776SOL    HW216965   3.490   2.620   0.396 -0.3879 -0.0471  2.7701
 1777SOL     OW16966   1.920   2.173   7.823  0.1938  0.0543  0.4712
 1777SOL    HW116967   2.010   2.163   7.793  0.4642 -0.0985  1.3365
 1777SOL    HW216968   1.919   2.130   7.909 -0.6006  1.7949  1.3416
 1778SOL     OW16969   1.805   0.827   7.554 -0.5317  0.0307 -0.1006
 1778SOL    HW116970   1.810   0.918   7.524 -0.8106  0.6808  1.8301
 1778SOL    HW216971   1.897   0.804   7.553 -0.6863 -0.5346 -1.7739
 1779SOL     OW16972   0.197   0.050   9.541 -0.3920 -0.1043  0.3914
 1779SOL    HW116973   0.187   0.140   9.573  0.1336  0.5830 -1.3901
 1779SOL    HW216974   0.119   0.051   9.485  0.9329  1.5551 -1.4028
 1780SOL     OW16975   3.393   0.870   3.420  0.0404  0.0253  0.1059
 1780SOL    HW116976   3.414   0.794   3.366  0.8907 -0.5047  1.1877
 1780SOL    HW216977   3.337   0.830   3.486  2.0856 -3.7583 -0.4963
 1781SOL     OW16978   1.446   3.751   9.121 -0.0658  0.1579 -0.0057
 1781SOL    HW116979   1.394   3.832   9.115  0.7033  0.3452 -4.3576
 1781SOL    HW216980   1.537   3.779   9.113 -0.1078  0.4221  0.4336
 1782SOL     OW16981   1.936   3.566   3.703  0.6005 -0.5812 -0.0638
 1782SOL    HW116982   1.865   3.566   3.767 -0.0428  1.0306 -0.7784
 1782SOL    HW216983   1.886   3.600   3.629  1.2109 -0.6332 -0.5039
 1783SOL     OW16984   0.886   2.300   7.041  0.1063  0.2825  0.2929
 1783SOL    HW116985   0.912   2.383   7.080 -1.0950  0.8549 -0.1204
 1783SOL    HW216986   0.965   2.247   7.049 -0.8400 -1.1976 -0.1051
 1784SOL     OW16987   3.052   4.223   4.225  0.1890  0.3016  0.2689
 1784SOL    HW116988   2.971   4.216   4.275 -0.7241 -1.5958 -1.4782
 1784SOL    HW216989   3.112   4.190   4.292  1.2194 -0.4527 -1.0116
 1785SOL     OW16990   1.505   3.341   2.515 -0.8406 -0.2795  0.2861
 1785SOL    HW116991   1.515   3.350   2.420 -0.3258 -1.8810  0.1944
 1785SOL    HW216992   1.539   3.420   2.556 -1.2958  1.0617 -1.9231
 1786SOL     OW16993   0.571   1.355  15.423 -0.2856  0.1367 -0.3216
 1786SOL    HW116994   0.484   1.368  15.387  0.5286  1.9921 -1.5784
 1786SOL    HW216995   0.547   1.272  15.466 -2.0053 -0.0273 -1.6285
 1787SOL     OW16996   4.064   0.253   7.212  0.0752  0.3081  0.1378
 1787SOL    HW116997   4.116   0.232   7.135 -0.0189 -2.5673  0.8587
 1787SOL    HW216998   4.120   0.205   7.273 -0.0955  0.6398  0.5525
 1788SOL     OW16999   3.964   3.214   1.963 -0.2498 -0.6248  0.0710
 1788SOL    HW117000   4.011   3.141   2.003  1.6709 -0.2231 -1.4067
 1788SOL    HW217001   3.886   3.206   2.017  0.1241 -0.6344  0.6121
 1789SOL     OW17002   3.857   1.775   5.842 -0.2448 -0.4210  0.0021
 1789SOL    HW117003   3.885   1.779   5.934 -3.0365 -1.3155  0.8963
 1789SOL    HW217004   3.925   1.828   5.799 -2.1420  1.3461 -0.8182
 1790SOL     OW17005   2.284   3.181   2.068 -0.3020  0.3395 -0.2695
 1790SOL    HW117006   2.235   3.219   2.142 -0.8798 -1.0650  0.0869
 1790SOL    HW217007   2.231   3.102   2.053  1.9975 -1.1933 -0.3106
 1791SOL     OW17008   3.811   0.229   6.134 -0.2235 -0.2496  0.0037
 1791SOL    HW117009   3.868   0.276   6.073  0.5625  0.0006  0.9257
 1791SOL    HW217010   3.722   0.252   6.110  0.6859  3.5497  0.2331
 1792SOL     OW17011   1.409   4.285   4.659 -0.2130 -0.3755  0.4988
 1792SOL    HW117012   1.503   4.291   4.646 -0.5349  1.1977 -1.1089
 1792SOL    HW217013   1.380   4.368   4.620 -0.9931 -1.0731 -0.4083
 1793SOL     OW17014   4.700   1.148   4.881 -0.3046  0.0460  0.1450
 1793SOL    HW117015   0.013   1.229   4.892 -0.8444  0.3429  0.4108
 1793SOL    HW217016   4.724   1.117   4.794  2.6025  2.4842  0.0711
 1794SOL     OW17017   1.535   2.944   6.597  0.1127  0.4957 -0.3902
 1794SOL    HW117018   1.545   3.040   6.599  1.2687  0.3548  0.5959
 1794SOL    HW217019   1.582   2.918   6.518 -0.6120 -0.6362 -0.4496
 1795SOL     OW17020   1.945   2.342   7.366  0.6122 -0.0512 -0.2133
 1795SOL    HW117021   2.020   2.370   7.418 -0.5380 -0.6672  1.7727
 1795SOL    HW217022   1.868   2.351   7.422 -0.0933 -0.8401 -1.0392
 1796SOL     OW17023   4.014   3.722  12.441 -0.5506 -0.3382 -0.5819
 1796SOL    HW117024   3.981   3.807  12.413  0.7116  0.8256  1.4644
 1796SOL    HW217025   4.088   3.708  12.382  0.7755  3.2510  0.2336
 1797SOL     OW17026   2.751   4.511   6.296 -0.1705 -0.0244 -0.4910
 1797SOL    HW117027   2.721   4.475   6.379  0.4259 -1.6768 -0.9863
 1797SOL    HW217028   2.744   4.604   6.319  1.4837  0.7553 -3.1412
 1798SOL     OW17029   4.283   1.100  17.121  0.0072 -0.4150  0.3262
 1798SOL    HW117030   4.329   1.182  17.104 -0.7342 -0.3267 -1.3103
 1798SOL    HW217031   4.355   1.042  17.145  0.3223 -0.2970 -0.3198
 1799SOL     OW17032   0.733   3.888  10.519  0.5374 -0.3957  0.2071
 1799SOL    HW117033   0.806   3.855  10.466 -0.1446  1.0511 -1.6062
 1799SOL    HW217034   0.658   3.833  10.495  0.1923  0.6765 -1.1894
 1800SOL     OW17035   0.535   2.179   5.863  0.0729 -0.1525 -0.0382
 1800SOL    HW117036   0.473   2.151   5.929 -0.3067  2.0478  0.5523
 1800SOL    HW217037   0.476   2.242   5.821  0.8533  2.2658  2.4544
 1801SOL     OW17038   2.987   3.997   5.243  0.1752 -0.4210 -0.2363
 1801SOL    HW117039   2.986   4.020   5.150  0.4144  0.0536 -0.1245
 1801SOL    HW217040   2.939   3.915   5.238  0.5846 -0.6679 -0.1104
 1802SOL     OW17041   1.554   0.779   7.030 -0.4796 -0.4187 -0.2320
 1802SOL    HW117042   1.497   0.795   7.106 -2.3019  0.1620 -1.7355
 1802SOL    HW217043   1.604   0.858   7.049 -1.6314 -0.0696  1.3108
 1803SOL     OW17044   3.258   3.383   2.914 -0.4653  0.2085 -0.4621
 1803SOL    HW117045   3.168   3.369   2.886 -0.2213  2.6699 -2.4117
 1803SOL    HW217046   3.252   3.411   3.006 -0.5224  1.7923 -0.9397
 1804SOL     OW17047   1.024   3.380   3.093 -0.0022 -0.3546  0.2856
 1804SOL    HW117048   1.059   3.355   3.007  0.3388  0.4320  0.1988
 1804SOL    HW217049   1.064   3.465   3.111 -1.6926  0.1493  1.6254
 1805SOL     OW17050   1.775   2.846  16.717  0.3513 -0.2573  0.0006
 1805SOL    HW117051   1.704   2.903  16.746 -0.4080 -1.2844  0.1419
 1805SOL    HW217052   1.853   2.881  16.761 -1.5164  1.6604  1.7550
 1806SOL     OW17053   3.113   4.646   7.015 -0.1675  0.0385 -0.2796
 1806SOL    HW117054   3.187   4.701   7.042 -0.2200 -0.8320  1.6591
 1806SOL    HW217055   3.157   4.583   6.958 -1.1189 -1.5394  0.7416
 1807SOL     OW17056   4.258   0.166  14.332 -0.4830  1.0441  0.6735
 1807SOL    HW117057   4.215   0.222  14.397 -2.8290  0.2699 -0.2359
 1807SOL    HW217058   4.185   0.130  14.281  2.2078 -3.2051 -0.1901
 1808SOL     OW17059   3.445   4.454   6.469  0.0939 -0.2795  0.0745
 1808SOL    HW117060   3.507   4.522   6.497  0.1800 -0.4842  0.3866
 1808SOL    HW217061   3.407   4.489   6.388  0.1159 -0.1692  0.1115
 1809SOL     OW17062   0.878   2.767   0.956  0.6978  0.1538 -0.6545
 1809SOL    HW117063   0.799   2.718   0.979  1.8372 -0.3938  2.0195
 1809SOL    HW217064   0.936   2.692   0.940 -0.4310 -0.5593 -1.4352
 1810SOL     OW17065   2.664   0.502  15.348  0.2010  0.1842  0.1952
 1810SOL    HW117066   2.574   0.531  15.335 -0.3063 -1.3195  0.2958
 1810SOL    HW217067   2.654   0.429  15.410  1.1009  0.3176  0.4955
 1811SOL     OW17068   0.753   0.862   7.924 -0.2201 -0.3625  0.2132
 1811SOL    HW117069   0.846   0.840   7.916 -0.2557  0.1332 -1.6257
 1811SOL    HW217070   0.720   0.777   7.954 -1.4965  0.7785  1.9760
 1812SOL     OW17071   2.531   3.711   4.803  0.0091  0.2694 -0.5799
 1812SOL    HW117072   2.611   3.763   4.816 -1.3462  2.0786  0.5563
 1812SOL    HW217073   2.571   3.625   4.810  2.2437  1.1014 -2.9372
 1813SOL     OW17074   3.630   4.135   1.376 -0.1606 -0.0623 -0.7252
 1813SOL    HW117075   3.558   4.111   1.318 -0.2008 -0.8117 -0.3649
 1813SOL    HW217076   3.704   4.112   1.320  2.9346  1.1544  2.8543
 1814SOL     OW17077   1.155   1.243  14.054  0.4937 -0.2135  0.1512
 1814SOL    HW117078   1.138   1.316  14.114 -2.1815 -3.4303  3.3921
 1814SOL    HW217079   1.220   1.185  14.094  1.5815  1.5363  0.8778
 1815SOL     OW17080   3.748   3.779   7.826 -0.0000  0.4328 -0.2918
 1815SOL    HW117081   3.753   3.693   7.868  1.2146  2.0774  2.9046
 1815SOL    HW217082   3.828   3.817   7.863 -0.7566 -0.3020  2.1482
 1816SOL     OW17083   1.213   2.594   2.947 -0.1966  0.1129  0.1475
 1816SOL    HW117084   1.208   2.670   3.005  0.5601  0.0385  0.3131
 1816SOL    HW217085   1.242   2.526   3.008 -0.1744  1.3646  1.5468
 1817SOL     OW17086   3.261   2.845   9.321 -1.2069  0.3091 -0.2701
 1817SOL    HW117087   3.353   2.829   9.298 -1.1530  0.9665 -0.5258
 1817SOL    HW217088   3.278   2.934   9.352  0.8810  0.5707 -2.1454
 1818SOL     OW17089   3.217   4.253  13.905  0.2512 -0.0768 -0.3232
 1818SOL    HW117090   3.127   4.279  13.883  0.5984 -0.7229 -2.4457
 1818SOL    HW217091   3.211   4.254  14.001  1.7027  0.0234 -0.2428
 1819SOL     OW17092   0.985   2.946   4.231 -0.2788 -0.0411 -0.2813
 1819SOL    HW117093   0.909   2.982   4.276  1.3745  2.7217  0.2848
 1819SOL    HW217094   1.039   2.939   4.310 -0.8785  0.3441  0.1660
 1820SOL     OW17095   3.694   3.697   3.874 -0.0407 -0.5125 -0.3053
 1820SOL    HW117096   3.609   3.722   3.911  0.6248 -1.0398  1.5796
 1820SOL    HW217097   3.708   3.610   3.910 -0.2582  0.4438  2.1354
 1821SOL     OW17098   2.417   3.685   3.628  0.2161 -0.4316  0.1315
 1821SOL    HW117099   2.468   3.694   3.709  1.4947 -0.0048 -0.7165
 1821SOL    HW217100   2.333   3.669   3.671 -1.6125  0.3419 -3.1381
 1822SOL     OW17101   3.715   3.650   5.451  0.5105  0.8017 -0.1583
 1822SOL    HW117102   3.792   3.678   5.501  1.7402 -1.4688 -0.7728
 1822SOL    HW217103   3.657   3.613   5.517 -0.8965  0.5843 -1.5210
 1823SOL     OW17104   1.391   1.458   4.424  0.3441  0.3358  0.1140
 1823SOL    HW117105   1.348   1.373   4.434 -0.1581  0.6688  0.7805
 1823SOL    HW217106   1.470   1.437   4.374 -1.5344 -2.1592 -1.8082
 1824SOL     OW17107   1.984   0.047  16.362  0.0812  0.0246  0.0331
 1824SOL    HW117108   1.979   0.063  16.268  0.7481 -0.8771 -0.1693
 1824SOL    HW217109   1.916   0.091  16.412 -0.2000  0.3367 -0.6214
 1825SOL     OW17110   3.998   3.155  11.730 -0.7921  0.4061 -0.4736
 1825SOL    HW117111   3.992   3.097  11.806  0.7146  1.8290  0.7514
 1825SOL    HW217112   3.913   3.134  11.692 -0.3545 -0.2929 -1.0471
 1826SOL     OW17113   3.496   0.926   5.648 -0.0183 -0.1663  0.3887
 1826SOL    HW117114   3.447   0.853   5.610  0.4797  0.2234 -1.0243
 1826SOL    HW217115   3.552   0.950   5.574 -0.0422  0.3343  0.5330
 1827SOL     OW17116   0.302   0.908   6.838 -0.3322  0.0395 -0.4336
 1827SOL    HW117117   0.328   0.989   6.794  0.4048 -0.4811 -0.9629
 1827SOL    HW217118   0.223   0.896   6.786 -1.0481 -3.1933  1.3859
 1828SOL     OW17119   3.278   1.024   6.057 -0.0885 -0.1111 -0.1377
 1828SOL    HW117120   3.358   1.042   6.105 -1.4338 -1.9991  2.8411
 1828SOL    HW217121   3.216   1.000   6.127 -0.7121 -0.5190 -0.8257
 1829SOL     OW17122   1.942   0.764   7.250 -0.1392 -0.3505 -0.1716
 1829SOL    HW117123   1.936   0.705   7.175  0.0496 -1.6391  0.8344
 1829SOL    HW217124   2.036   0.770   7.263 -0.2646 -1.6898  1.2344
 1830SOL     OW17125   0.879   1.363  10.120  0.0262  0.0360 -0.3779
 1830SOL    HW117126   0.858   1.272  10.141  1.5718 -0.4314 -0.8871
 1830SOL    HW217127   0.915   1.405  10.198  0.9656 -1.4838  0.0028
 1831SOL     OW17128   0.959   0.266   4.998 -0.3040  0.1420 -0.2310
 1831SOL    HW117129   1.026   0.226   5.054  1.6108  0.4123 -2.3486
 1831SOL    HW217130   0.908   0.319   5.059  0.5127 -0.5056  1.0244
 1832SOL     OW17131   4.034   3.516   2.528 -0.1598  0.0601 -0.6658
 1832SOL    HW117132   4.049   3.432   2.572  0.9324  0.3535 -0.4665
 1832SOL    HW217133   4.126   3.539   2.514  0.4393 -0.6977  1.9913
 1833SOL     OW17134   4.493   0.743  14.335  0.3060 -0.4103 -0.0057
 1833SOL    HW117135   4.442   0.726  14.414  1.0071 -0.9907  0.3195
 1833SOL    HW217136   4.575   0.780  14.368 -1.0777  2.4805  0.1497
 1834SOL     OW17137   3.574   3.657   6.520  0.4729 -0.2480 -0.0572
 1834SOL    HW117138   3.615   3.572   6.531  0.7230 -0.1094  0.0938
 1834SOL    HW217139   3.639   3.697   6.461 -1.9256  1.7198 -1.3663
 1835SOL     OW17140   1.274   2.945   6.460  0.0330 -0.0213  0.5673
 1835SOL    HW117141   1.228   3.013   6.508  1.5761  1.3129  0.1267
 1835SOL    HW217142   1.362   2.929   6.493  0.7370  0.2266 -1.2310
 1836SOL     OW17143   1.380   2.739  13.011 -0.2992  0.0776 -0.0914
 1836SOL    HW117144   1.460   2.687  13.008 -1.2027 -1.4129  2.1575
 1836SOL    HW217145   1.414   2.818  12.968  0.4773 -0.2769 -0.1186
 1837SOL     OW17146   0.371   4.426   8.593  0.3651 -0.1073 -0.0215
 1837SOL    HW117147   0.407   4.459   8.510  0.1068 -0.2905 -0.2090
 1837SOL    HW217148   0.292   4.382   8.562 -0.6913  1.6528  0.1783
 1838SOL     OW17149   3.686   3.055   8.636  0.2388 -0.3396  0.6358
 1838SOL    HW117150   3.673   3.132   8.691  2.3248 -0.3483  1.1456
 1838SOL    HW217151   3.620   3.053   8.567  1.3614 -1.7133 -0.4061
 1839SOL     OW17152   1.582   0.179  17.157  0.2093  0.0420  0.1271
 1839SOL    HW117153   1.501   0.227  17.179 -0.3654 -1.8892  2.1985
 1839SOL    HW217154   1.630   0.219  17.230 -2.3020  0.9698  1.2823
 1840SOL     OW17155   3.547   3.744   4.126  0.0624 -0.6505 -0.0420
 1840SOL    HW117156   3.622   3.685   4.122  0.1664 -0.5950  1.1479
 1840SOL    HW217157   3.578   3.817   4.179 -1.2967  1.3970 -2.0611
 1841SOL     OW17158   2.663   0.744   8.541 -0.0908  0.4738  0.3299
 1841SOL    HW117159   2.667   0.753   8.446  0.8421 -0.3607  0.2910
 1841SOL    HW217160   2.574   0.712   8.559 -0.2634  1.4003  1.1258
 1842SOL     OW17161   3.458   2.818   2.348 -0.4617 -0.0915 -0.1517
 1842SOL    HW117162   3.444   2.881   2.418  4.5357  1.9049 -0.9325
 1842SOL    HW217163   3.434   2.873   2.274  1.1430  2.2975  1.1168
 1843SOL     OW17164   1.788   4.692  10.048  0.2361 -0.7800  0.2321
 1843SOL    HW117165   1.750   0.040  10.069 -0.0488 -1.2571  1.6189
 1843SOL    HW217166   1.841   4.665  10.123 -2.0829 -2.1912  1.3653
 1844SOL     OW17167   1.877   1.044   6.006 -0.8389  0.2306 -0.3020
 1844SOL    HW117168   1.811   0.995   6.054  1.0669 -0.5341  1.5045
 1844SOL    HW217169   1.916   0.967   5.965  2.6831  0.6737  2.2350
 1845SOL     OW17170   3.479   4.091   8.535  0.2921  0.3931 -0.4416
 1845SOL    HW117171   3.427   4.163   8.570 -0.0158 -0.9099  1.7542
 1845SOL    HW217172   3.521   4.139   8.463  0.4533  0.1875 -0.4856
 1846SOL     OW17173   0.751   2.169   6.838 -0.3054 -0.8208  0.3568
 1846SOL    HW117174   0.804   2.208   6.768 -1.6560 -0.6091 -0.5429
 1846SOL    HW217175   0.796   2.185   6.921  2.0270 -0.0829 -1.0421
 1847SOL     OW17176   1.799   2.407  10.501 -0.1876  0.5032 -0.4865
 1847SOL    HW117177   1.829   2.465  10.571  0.6667  3.9472 -3.7292
 1847SOL    HW217178   1.762   2.330  10.544 -0.2297  1.4852  1.2721
 1848SOL     OW17179   1.897   3.038  10.904 -0.0494  0.2944 -0.0856
 1848SOL    HW117180   1.819   3.069  10.950 -1.3557 -3.8350  0.5329
 1848SOL    HW217181   1.964   3.043  10.972  0.9287 -1.9645 -0.8523
 1849SOL     OW17182   0.726   1.479   8.537 -0.0930  0.2901 -0.1846
 1849SOL    HW117183   0.815   1.506   8.560 -0.0348  0.1372 -0.2269
 1849SOL    HW217184   0.679   1.539   8.594 -1.4770 -1.5536  0.6083
 1850SOL     OW17185   0.824   1.112  10.201  0.0808  0.0493  0.0673
 1850SOL    HW117186   0.880   1.036  10.218 -0.9649 -0.5688  0.7850
 1850SOL    HW217187   0.757   1.069  10.147 -0.7074 -0.2347  1.2816
 1851SOL     OW17188   0.493   0.897  15.743  0.6950  0.0089  0.2025
 1851SOL    HW117189   0.434   0.971  15.759  1.0365  0.8369 -2.2957
 1851SOL    HW217190   0.574   0.945  15.724  0.7019 -0.8231 -1.8336
 1852SOL     OW17191   1.917   0.200   7.170 -0.3153 -0.2743 -0.6449
 1852SOL    HW117192   1.846   0.183   7.232 -1.7207  0.6209 -2.0050
 1852SOL    HW217193   1.980   0.248   7.224  0.3192  1.0893 -2.6039
 1853SOL     OW17194   3.474   2.084   5.546 -0.4116  0.0881 -0.5032
 1853SOL    HW117195   3.385   2.054   5.564  0.1494 -1.0929  0.3090
 1853SOL    HW217196   3.520   2.048   5.622 -0.6776 -0.3709 -0.5633
 1854SOL     OW17197   3.080   0.859   5.595 -0.2440 -0.2767  0.2533
 1854SOL    HW117198   3.043   0.771   5.601 -1.5361  0.0539 -2.7368
 1854SOL    HW217199   3.173   0.842   5.605 -0.1613  2.2166  3.6548
 1855SOL     OW17200   2.976   4.040   6.103 -0.0709  0.4392  0.2984
 1855SOL    HW117201   2.884   4.013   6.095 -0.0743  0.5621 -0.0834
 1855SOL    HW217202   2.966   4.111   6.166  0.9086  2.4885 -1.8609
 1856SOL     OW17203   4.223   0.634  16.381 -0.4881 -0.5679 -0.1316
 1856SOL    HW117204   4.200   0.706  16.440  3.3966  0.9141 -0.3769
 1856SOL    HW217205   4.213   0.557  16.436  1.2611  0.6284  1.8815
 1857SOL     OW17206   2.802   4.500   7.826  0.5055 -0.0685 -0.6719
 1857SOL    HW117207   2.844   4.415   7.837  0.8203 -0.1939 -2.9884
 1857SOL    HW217208   2.875   4.561   7.834  0.4622  0.0887 -1.5023
 1858SOL     OW17209   0.569   3.469   4.278  0.0062 -0.5792 -0.2941
 1858SOL    HW117210   0.629   3.402   4.310  0.7213 -0.4075 -1.2709
 1858SOL    HW217211   0.609   3.553   4.300  1.2956 -0.9748 -1.1551
 1859SOL     OW17212   2.523   2.209   5.533 -0.4534  1.1682  0.0583
 1859SOL    HW117213   2.475   2.134   5.567  0.0265  1.1739  0.7442
 1859SOL    HW217214   2.569   2.157   5.468 -3.4693 -0.0063 -1.1288
 1860SOL     OW17215   0.475   3.308   6.547  0.5368  0.1769  0.3611
 1860SOL    HW117216   0.479   3.369   6.474 -0.0260 -0.5480 -0.2732
 1860SOL    HW217217   0.563   3.270   6.537  0.4284 -0.1001  0.4611
 1861SOL     OW17218   0.259   1.282   7.776  0.4057  0.3459  0.0326
 1861SOL    HW117219   0.248   1.372   7.806  0.7845  0.4380 -0.0994
 1861SOL    HW217220   0.286   1.248   7.862 -2.0462 -1.6777 -0.0170
 1862SOL     OW17221   3.266   4.064   3.093 -0.5337 -0.0417 -0.2000
 1862SOL    HW117222   3.221   4.080   3.176  0.3284 -1.9885  0.6543
 1862SOL    HW217223   3.343   4.119   3.104 -1.1116  0.7348 -0.0765
 1863SOL     OW17224   1.145   1.176   2.806  0.6233  0.1346 -0.5054
 1863SOL    HW117225   1.072   1.160   2.747  1.6921 -0.7529 -1.5844
 1863SOL    HW217226   1.173   1.257   2.763  3.1803 -1.0978 -1.1677
 1864SOL     OW17227   1.076   0.234   5.614  0.7742  0.1360  0.0654
 1864SOL    HW117228   1.114   0.307   5.661 -0.3460  0.6640  0.1577
 1864SOL    HW217229   0.983   0.250   5.629  0.4801 -1.2005 -0.2498
 1865SOL     OW17230   4.459   2.533   1.194  0.1109  0.1755  0.1004
 1865SOL    HW117231   4.498   2.519   1.108 -0.6197 -0.5538 -0.1146
 1865SOL    HW217232   4.389   2.596   1.178  0.0213  0.7933  2.9015
 1866SOL     OW17233   3.426   0.045  11.342  0.8179  0.3983 -0.2960
 1866SOL    HW117234   3.497   0.047  11.407  0.7934  2.0636 -0.3061
 1866SOL    HW217235   3.419   0.138  11.318  0.1309  0.4318  0.0578
 1867SOL     OW17236   4.485   1.518   3.359 -0.1578 -0.1023 -0.1119
 1867SOL    HW117237   4.508   1.476   3.276  0.8234 -2.4351  1.3325
 1867SOL    HW217238   4.567   1.533   3.407  1.5946 -2.7690 -2.2772
 1868SOL     OW17239   0.554   1.583   5.311  0.3715  0.1607 -0.3646
 1868SOL    HW117240   0.612   1.575   5.235 -0.8593 -0.4091 -1.2619
 1868SOL    HW217241   0.545   1.492   5.339  3.0414  0.5135  1.5736
 1869SOL     OW17242   2.076   4.213   7.549  0.1046 -0.4272 -0.4369
 1869SOL    HW117243   2.067   4.296   7.502  1.3899 -0.2534 -0.3794
 1869SOL    HW217244   2.105   4.156   7.477  1.8107 -0.2399  0.1096
 1870SOL     OW17245   4.071   1.654  11.764 -0.3736  0.3388 -0.4965
 1870SOL    HW117246   4.029   1.717  11.822  0.7401 -0.8851  1.6736
 1870SOL    HW217247   4.023   1.577  11.792 -0.0449  0.4633  0.4041
 1871SOL     OW17248   0.392   4.467   9.956  0.0153 -0.2995  0.6697
 1871SOL    HW117249   0.466   4.446   9.900 -0.9134  0.7936 -0.9916
 1871SOL    HW217250   0.443   4.501  10.030 -0.9205  2.1275  0.2293
 1872SOL     OW17251   1.224   3.850   6.599  0.1069  0.0822 -0.0424
 1872SOL    HW117252   1.253   3.766   6.563 -0.3131  0.3202 -0.9340
 1872SOL    HW217253   1.229   3.822   6.690  0.7779 -0.8484 -0.3632
 1873SOL     OW17254   0.881   0.126   5.339 -0.2891  0.2284  0.1351
 1873SOL    HW117255   0.966   0.131   5.294 -0.4562  0.3971 -0.1627
 1873SOL    HW217256   0.831   0.088   5.267 -0.0023 -0.0349  0.0758
 1874SOL     OW17257   1.922   4.052  13.990  0.1036  0.3431 -0.1712
 1874SOL    HW117258   1.893   4.111  13.920  1.7001  0.9905 -0.3030
 1874SOL    HW217259   1.836   4.030  14.025 -1.0245  0.4907 -2.7808
 1875SOL     OW17260   1.605   2.021   2.965 -0.1149  0.7516 -0.0138
 1875SOL    HW117261   1.591   1.944   3.021  1.3157  0.6101  0.1512
 1875SOL    HW217262   1.606   1.987   2.875 -2.3324  0.3963  0.0817
 1876SOL     OW17263   4.528   3.285  15.598 -0.3597 -0.3111 -0.2002
 1876SOL    HW117264   4.436   3.275  15.622 -0.5844  2.0891 -0.0557
 1876SOL    HW217265   4.524   3.381  15.591 -0.6774 -0.4159 -1.3180
 1877SOL     OW17266   0.364   2.000   0.407  0.4987  0.4484  0.4515
 1877SOL    HW117267   0.441   2.042   0.444  2.0984 -0.6007 -1.7098
 1877SOL    HW217268   0.410   1.969   0.329  2.7801  2.1938  1.1103
 1878SOL     OW17269   2.499   1.656   7.511 -0.0171  0.0052  0.5613
 1878SOL    HW117270   2.581   1.609   7.523 -0.8510 -1.5244  0.2527
 1878SOL    HW217271   2.511   1.716   7.585 -1.6399 -0.6221  1.3409
 1879SOL     OW17272   1.141   0.833   6.272 -0.3837 -0.6338  0.3034
 1879SOL    HW117273   1.149   0.887   6.350  1.2497 -1.4790  0.7406
 1879SOL    HW217274   1.051   0.803   6.280 -0.6777  0.4935  1.1236
 1880SOL     OW17275   2.163   3.896  11.869 -0.5517 -0.0356 -0.1418
 1880SOL    HW117276   2.171   3.892  11.965  0.9813  1.1121 -0.2228
 1880SOL    HW217277   2.238   3.950  11.846 -1.1447  1.6629  1.8928
 1881SOL     OW17278   2.889   3.892   9.174 -0.7253  0.3843  0.1807
 1881SOL    HW117279   2.798   3.907   9.199 -0.9312 -1.5121  0.5407
 1881SOL    HW217280   2.876   3.808   9.132  2.3389  0.6635 -1.3163
 1882SOL     OW17281   1.567   2.665   8.968 -0.0748 -0.2096  0.3194
 1882SOL    HW117282   1.615   2.718   8.905  0.0526  1.3208  1.7018
 1882SOL    HW217283   1.592   2.702   9.053  0.3873 -1.1488  0.5864
 1883SOL     OW17284   2.440   2.566  12.744  0.0903  0.0128 -0.1374
 1883SOL    HW117285   2.495   2.562  12.822 -2.6100  0.7489  1.7850
 1883SOL    HW217286   2.435   2.662  12.741 -0.4575 -0.0354 -0.7083
 1884SOL     OW17287   3.721   1.716   8.318  0.3788 -0.5095 -0.2121
 1884SOL    HW117288   3.800   1.697   8.268  2.1384 -3.4204  3.6917
 1884SOL    HW217289   3.693   1.628   8.340 -0.0705  0.2204  2.1180
 1885SOL     OW17290   4.006   1.289   4.383  0.4616 -0.0977  0.3853
 1885SOL    HW117291   4.091   1.327   4.361  0.9460 -1.3501  0.0775
 1885SOL    HW217292   3.978   1.300   4.292  0.0705  2.2806  0.8016
 1886SOL     OW17293   1.650   4.130  11.989 -0.5722 -0.0397 -0.3097
 1886SOL    HW117294   1.569   4.168  11.953  1.3826  2.7436 -1.7765
 1886SOL    HW217295   1.623   4.049  12.032 -2.2304  1.4766  1.5505
 1887SOL     OW17296   3.333   4.207  15.859  0.2512 -0.1119  0.2277
 1887SOL    HW117297   3.287   4.241  15.935  2.1296 -0.5153  1.5506
 1887SOL    HW217298   3.268   4.230  15.793  0.1650 -0.4480  0.1924
 1888SOL     OW17299   2.509   1.868   4.203  0.1749 -0.1453  0.8843
 1888SOL    HW117300   2.449   1.834   4.135  1.8574  2.8056 -2.0729
 1888SOL    HW217301   2.479   1.956   4.224 -1.9601 -1.0930  1.7539
 1889SOL     OW17302   3.601   2.291   5.194 -0.0609  0.2732  0.9535
 1889SOL    HW117303   3.684   2.304   5.149 -0.3237 -0.6116  0.2199
 1889SOL    HW217304   3.638   2.294   5.282  2.7614  3.5672 -0.3529
 1890SOL     OW17305   2.926   4.322   8.937  0.4291  0.7292 -0.1121
 1890SOL    HW117306   2.990   4.266   8.982 -0.1263 -0.8614 -1.3111
 1890SOL    HW217307   2.955   4.406   8.974  4.1361 -0.6418  0.0879
 1891SOL     OW17308   2.818   1.333   4.347 -0.0316  0.3495  0.2544
 1891SOL    HW117309   2.726   1.319   4.368 -0.6724 -1.0789 -3.6667
 1891SOL    HW217310   2.861   1.257   4.386  0.2528  0.1849 -0.3775
 1892SOL     OW17311   0.682   4.701  15.897  0.2199 -0.0781  0.0674
 1892SOL    HW117312   0.601   4.736  15.934  0.0891 -1.2332  0.8955
 1892SOL    HW217313   0.665   4.609  15.918 -2.4717  0.0184 -1.7123
 1893SOL     OW17314   3.030   4.673   4.945  0.2898 -0.0120 -0.7922
 1893SOL    HW117315   3.000   0.013   4.898  1.0920  0.8118  0.0669
 1893SOL    HW217316   3.071   4.714   5.021  1.1227 -0.0844 -1.2017
 1894SOL     OW17317   4.641   4.673  11.801 -0.2549  0.0317  0.1085
 1894SOL    HW117318   4.645   4.637  11.712  0.5798 -1.6497  0.8274
 1894SOL    HW217319   4.700   4.607  11.838 -2.8401 -2.1244  0.3728
 1895SOL     OW17320   2.118   0.984   9.398  1.0297 -0.4710 -0.1619
 1895SOL    HW117321   2.158   1.023   9.476 -0.7270  1.8407 -0.3818
 1895SOL    HW217322   2.045   0.934   9.435  1.5441 -0.8551  0.3360
 1896SOL     OW17323   0.299   2.138   8.618  0.0864  0.4351  0.6340
 1896SOL    HW117324   0.308   2.092   8.534 -2.3111  0.9106  0.1129
 1896SOL    HW217325   0.268   2.223   8.587 -0.1603 -0.4231 -1.4648
 1897SOL     OW17326   0.330   3.820  16.300  0.3599  0.1025 -0.2971
 1897SOL    HW117327   0.415   3.802  16.339 -0.3816  3.5107  2.8795
 1897SOL    HW217328   0.263   3.804  16.366 -0.1064 -0.5423 -0.9284
 1898SOL     OW17329   1.262   0.348   9.589  0.4188  0.2646  0.1772
 1898SOL    HW117330   1.287   0.339   9.497  0.8077  1.1304  0.1913
 1898SOL    HW217331   1.177   0.386   9.568  2.0003  3.4805 -0.3732
 1899SOL     OW17332   3.943   3.266   2.234  0.4332 -0.1534  0.0305
 1899SOL    HW117333   4.036   3.272   2.213  0.1284 -1.1277 -1.6964
 1899SOL    HW217334   3.937   3.170   2.237 -0.9670 -0.0499  0.2316
 1900SOL     OW17335   3.327   0.472   5.985 -0.0746  0.3060 -0.1816
 1900SOL    HW117336   3.263   0.402   5.996 -0.0532  0.3385  0.1574
 1900SOL    HW217337   3.354   0.455   6.075  1.5009  0.9501 -0.5321
 1901SOL     OW17338   1.866   2.843   1.807 -0.0333 -0.1364  0.4083
 1901SOL    HW117339   1.845   2.936   1.801  2.4121  0.4698  1.3025
 1901SOL    HW217340   1.784   2.814   1.848 -1.0028 -0.8669 -2.0399
 1902SOL     OW17341   4.340   3.766  11.332 -0.8521 -0.1466 -0.0422
 1902SOL    HW117342   4.319   3.851  11.371  1.0947  1.6441 -2.9254
 1902SOL    HW217343   4.304   3.704  11.395  0.0905 -1.2883 -0.6384
 1903SOL     OW17344   3.749   0.063  14.419 -0.3533 -0.1038 -0.3166
 1903SOL    HW117345   3.766   0.131  14.484 -0.4424 -0.2251 -0.1665
 1903SOL    HW217346   3.740   0.124  14.345 -3.9424  0.3704  0.5429
 1904SOL     OW17347   0.011   0.763  11.065  0.3066 -0.5615 -0.5629
 1904SOL    HW117348   0.086   0.796  11.114 -0.2613  0.6738 -0.5173
 1904SOL    HW217349   0.050   0.693  11.011 -3.4936 -2.2927 -1.0587
 1905SOL     OW17350   3.917   3.871  17.249 -0.3075  0.6325 -0.6975
 1905SOL    HW117351   3.944   3.905  17.164  1.7915  2.1999  0.5960
 1905SOL    HW217352   3.968   3.790  17.247 -2.1693 -0.5182 -1.3657
 1906SOL     OW17353   0.988   3.978   7.809  0.5626 -0.2149 -0.0072
 1906SOL    HW117354   0.990   4.051   7.747 -1.4597 -1.9330 -2.1091
 1906SOL    HW217355   1.017   4.034   7.881  2.6178 -1.6518  0.2876
 1907SOL     OW17356   3.739   0.921   4.451 -0.4386 -0.1595 -0.1295
 1907SOL    HW117357   3.751   0.829   4.427  0.0522 -0.6213  1.8471
 1907SOL    HW217358   3.760   0.953   4.363  1.7149  2.4251  1.3102
 1908SOL     OW17359   2.020   1.133   0.550  0.1849  0.2632 -0.4038
 1908SOL    HW117360   2.004   1.090   0.634 -0.0131 -2.5500 -1.8986
 1908SOL    HW217361   2.090   1.194   0.573 -0.6438  0.3617  1.8994
 1909SOL     OW17362   4.552   3.749   7.815  0.1947 -0.2885 -0.3759
 1909SOL    HW117363   4.587   3.671   7.772 -0.4440 -1.1072  0.5803
 1909SOL    HW217364   4.458   3.728   7.816  0.2568 -0.5444 -0.1089
 1910SOL     OW17365   3.791   3.530   7.968 -1.0638 -0.0754 -0.8447
 1910SOL    HW117366   3.724   3.532   8.036 -0.2147 -0.1458 -0.0079
 1910SOL    HW217367   3.868   3.512   8.021 -1.6180  0.3155  0.0802
 1911SOL     OW17368   3.555   4.352   1.540  0.3859 -0.1584  0.3175
 1911SOL    HW117369   3.641   4.379   1.574  0.7160 -0.8023 -0.0098
 1911SOL    HW217370   3.578   4.274   1.491 -1.2988  0.3577 -1.2835
 1912SOL     OW17371   4.695   0.186   8.840  0.1131  0.1416 -0.2856
 1912SOL    HW117372   0.019   0.193   8.913 -0.9566  1.4044  0.4802
 1912SOL    HW217373   4.628   0.238   8.884  0.0107 -0.3254  0.1035
 1913SOL     OW17374   2.565   1.165  11.342  0.0920 -0.3036 -0.1360
 1913SOL    HW117375   2.475   1.196  11.352  0.0610  0.2284 -1.9336
 1913SOL    HW217376   2.580   1.195  11.252 -1.9744 -0.4688 -0.5462
 1914SOL     OW17377   2.100   0.965   7.498 -0.0739  0.1258  0.1647
 1914SOL    HW117378   2.109   1.000   7.409 -0.5024 -1.0890 -0.3611
 1914SOL    HW217379   2.115   1.043   7.551  0.1863  2.1423 -2.8509
 1915SOL     OW17380   2.902   3.291  12.434 -0.2825  0.4347  0.1522
 1915SOL    HW117381   2.852   3.340  12.500 -1.9523 -2.3884  0.9905
 1915SOL    HW217382   2.947   3.367  12.398  0.3077  0.1521  0.2979
 1916SOL     OW17383   2.884   3.329   6.224  0.2589 -0.4106  0.4031
 1916SOL    HW117384   2.826   3.314   6.150  0.9758  1.9213 -0.6354
 1916SOL    HW217385   2.971   3.330   6.185 -0.4446  1.0661 -1.1033
 1917SOL     OW17386   3.375   0.333   9.606  0.3328 -0.0964 -0.2368
 1917SOL    HW117387   3.283   0.356   9.604  0.3789 -0.1339 -2.3135
 1917SOL    HW217388   3.422   0.388   9.543 -2.3083 -0.2645 -2.3274
 1918SOL     OW17389   2.592   0.295   7.626 -0.1674 -0.5920  0.4383
 1918SOL    HW117390   2.596   0.351   7.703  0.2631 -0.5701  0.3982
 1918SOL    HW217391   2.532   0.229   7.661 -0.0058  0.2897  2.3693
 1919SOL     OW17392   1.967   0.283  11.979 -0.0103  0.3667  0.0658
 1919SOL    HW117393   2.017   0.365  11.977  0.0165  0.2307 -4.5334
 1919SOL    HW217394   2.034   0.232  12.024 -1.0622  0.1072  1.3312
 1920SOL     OW17395   4.238   0.214  10.738  0.3819  0.7042  0.1971
 1920SOL    HW117396   4.306   0.278  10.718  1.2339 -0.3220 -0.1580
 1920SOL    HW217397   4.160   0.268  10.751 -0.8822 -1.1741  0.4202
 1921SOL     OW17398   3.486   3.137  17.017 -0.1342  0.4274 -0.1652
 1921SOL    HW117399   3.425   3.071  17.050  1.0348 -0.9394 -0.7301
 1921SOL    HW217400   3.516   3.082  16.944 -1.1663 -0.1242 -0.1840
 1922SOL     OW17401   4.212   2.123  17.547 -0.7259 -0.5361  0.0005
 1922SOL    HW117402   4.201   2.165  17.462  0.8320  1.0083  0.5515
 1922SOL    HW217403   4.235   2.032  17.526 -1.2596 -0.9648  1.2461
 1923SOL     OW17404   3.385   2.877   5.282  0.1204 -0.4200  0.4387
 1923SOL    HW117405   3.391   2.783   5.268 -2.1630 -0.5179  0.0109
 1923SOL    HW217406   3.314   2.886   5.346 -1.0266 -0.8055 -0.7750
 1924SOL     OW17407   4.428   4.305   7.081  0.6114 -0.3138  0.4494
 1924SOL    HW117408   4.454   4.294   7.172  1.1772 -1.0981  0.1997
 1924SOL    HW217409   4.504   4.355   7.050 -0.4541  1.5452  0.8762
 1925SOL     OW17410   3.964   0.295   1.590  0.2511  0.1107  0.1352
 1925SOL    HW117411   3.874   0.289   1.556 -0.6323  1.1406  2.2628
 1925SOL    HW217412   3.958   0.366   1.654  1.4910  0.9391 -0.6769
 1926SOL     OW17413   2.246   2.215   0.619 -0.3211 -0.2060  0.0976
 1926SOL    HW117414   2.152   2.226   0.607 -0.3343  1.8138  2.1315
 1926SOL    HW217415   2.255   2.165   0.700  2.2758 -0.9946 -0.6776
 1927SOL     OW17416   0.449   2.350  12.300 -0.0292  0.6776 -0.4669
 1927SOL    HW117417   0.436   2.442  12.276  1.3600  0.4802 -1.9964
 1927SOL    HW217418   0.364   2.325  12.338  0.6419 -2.8394 -1.2249
 1928SOL     OW17419   0.984   1.220   5.977  0.1715  0.6352  0.6486
 1928SOL    HW117420   0.977   1.153   6.045  0.8843 -1.9577 -1.8441
 1928SOL    HW217421   0.908   1.276   5.994  0.0592  1.2528 -1.9576
 1929SOL     OW17422   3.421   3.096   3.385  0.4636  0.2582  0.0422
 1929SOL    HW117423   3.465   3.175   3.416  2.3754 -0.3894 -1.0487
 1929SOL    HW217424   3.417   3.044   3.465 -0.3975  0.1013 -0.1021
 1930SOL     OW17425   2.788   1.782   5.478 -0.1175  0.2115  0.5819
 1930SOL    HW117426   2.805   1.840   5.404 -2.6823  0.2992  0.0590
 1930SOL    HW217427   2.828   1.702   5.445 -1.0057 -0.6979  1.6988
 1931SOL     OW17428   0.620   4.114   2.499  0.3606  0.0936  0.6062
 1931SOL    HW117429   0.577   4.171   2.562  0.7853 -0.2830  1.2384
 1931SOL    HW217430   0.711   4.142   2.487  0.2079  1.1827  2.0710
 1932SOL     OW17431   3.545   3.945   9.298  0.6157 -0.4046 -0.4537
 1932SOL    HW117432   3.458   3.929   9.335  1.0427 -1.6195  0.0231
 1932SOL    HW217433   3.604   3.937   9.373 -0.6363 -0.2166  0.5436
 1933SOL     OW17434   3.849   1.121   0.215  0.6210  0.3013  0.8544
 1933SOL    HW117435   3.881   1.078   0.135  1.9339 -0.0985  1.6027
 1933SOL    HW217436   3.798   1.189   0.171  1.8257  0.6668  0.0099
 1934SOL     OW17437   4.399   2.216  15.362  0.7716  0.1402 -0.6801
 1934SOL    HW117438   4.361   2.144  15.412 -1.7603  1.2283 -1.0851
 1934SOL    HW217439   4.404   2.167  15.280 -1.2082 -2.4189  0.7115
 1935SOL     OW17440   4.094   0.797   4.901  0.0520 -0.1678 -0.0081
 1935SOL    HW117441   4.144   0.876   4.881 -1.8169  0.6356 -1.5413
 1935SOL    HW217442   4.071   0.820   4.991  1.3103  3.2163 -0.5666
 1936SOL     OW17443   4.493   3.629  14.025 -0.0563  0.1647  0.6811
 1936SOL    HW117444   4.450   3.545  14.037  1.0835 -0.6228 -0.7277
 1936SOL    HW217445   4.486   3.675  14.109  0.1164 -0.0085  0.7901
 1937SOL     OW17446   4.441   1.562   2.423 -0.8636 -0.0784 -0.1621
 1937SOL    HW117447   4.392   1.503   2.480 -1.8406  1.8717  1.0267
 1937SOL    HW217448   4.466   1.507   2.349  3.0659 -0.3325  1.3542
 1938SOL     OW17449   1.754   3.532   4.933 -0.2722 -0.6306  0.0949
 1938SOL    HW117450   1.716   3.618   4.915 -2.0682 -1.5164 -0.3271
 1938SOL    HW217451   1.738   3.530   5.028 -2.4763 -1.4301 -0.2952
 1939SOL     OW17452   1.734   0.150  13.974 -0.4760  0.3412  0.4144
 1939SOL    HW117453   1.692   0.151  13.888 -0.7910 -0.0542  0.5603
 1939SOL    HW217454   1.674   0.200  14.029 -2.3362 -0.0263 -1.2541
 1940SOL     OW17455   4.302   0.706   8.616 -0.6026 -0.3656 -0.4478
 1940SOL    HW117456   4.295   0.795   8.650  1.6358 -1.2781  2.3756
 1940SOL    HW217457   4.394   0.686   8.634 -0.3548 -0.3508 -1.7209
 1941SOL     OW17458   3.363   1.128  17.287 -0.0200 -0.2553  0.2641
 1941SOL    HW117459   3.414   1.083  17.355 -0.8202 -2.0978 -0.3540
 1941SOL    HW217460   3.274   1.110  17.318  0.2905 -2.7040 -0.2560
 1942SOL     OW17461   3.637   2.433   1.315 -0.0917  0.6056  0.1034
 1942SOL    HW117462   3.700   2.432   1.387  1.5537 -0.6335 -1.3596
 1942SOL    HW217463   3.610   2.525   1.313  2.2546  1.3256  1.9697
 1943SOL     OW17464   4.396   0.735  10.067 -0.3389 -0.6706  1.0892
 1943SOL    HW117465   4.432   0.672  10.131  1.4423 -0.6650  0.1044
 1943SOL    HW217466   4.380   0.804  10.131  0.7291 -0.1108  0.7617
 1944SOL     OW17467   2.878   1.738   6.480 -0.6319  0.0379 -0.1398
 1944SOL    HW117468   2.910   1.785   6.403  1.9275  0.0604  0.9173
 1944SOL    HW217469   2.794   1.704   6.450 -1.0116  0.0409  0.9252
 1945SOL     OW17470   4.493   2.096  12.449 -0.0410  0.7822  0.1829
 1945SOL    HW117471   4.545   2.158  12.398 -1.4037  1.4412 -0.4014
 1945SOL    HW217472   4.456   2.154  12.514 -0.0984  2.0660 -1.0001
 1946SOL     OW17473   3.326   4.581  16.784  0.0168 -0.6254  0.2368
 1946SOL    HW117474   3.339   4.489  16.807 -0.9262 -0.4182  1.6180
 1946SOL    HW217475   3.262   4.608  16.849 -0.7919  0.7981 -1.1483
 1947SOL     OW17476   2.702   3.280  10.807  0.7051 -1.0286  0.9378
 1947SOL    HW117477   2.716   3.188  10.830  1.4908 -1.1048  0.1544
 1947SOL    HW217478   2.767   3.312  10.744 -1.0875 -0.7818 -0.7816
 1948SOL     OW17479   4.360   4.299  13.375 -0.2253 -0.1632 -0.6624
 1948SOL    HW117480   4.410   4.301  13.293  1.1186 -0.5599  0.1617
 1948SOL    HW217481   4.304   4.221  13.365 -0.4364 -0.3842  2.3138
 1949SOL     OW17482   3.123   1.241  16.079 -0.2594 -0.2621  0.6229
 1949SOL    HW117483   3.194   1.288  16.035  0.6181 -1.8789  0.2785
 1949SOL    HW217484   3.068   1.319  16.087 -1.5087 -1.1634  0.8410
 1950SOL     OW17485   4.364   4.165  13.130 -0.4799 -0.0530 -0.7838
 1950SOL    HW117486   4.284   4.207  13.100 -1.6787 -0.8302  1.3784
 1950SOL    HW217487   4.405   4.141  13.047 -0.3547 -1.5833 -0.2917
 1951SOL     OW17488   0.221   2.235  17.694  0.5227  0.3389  0.0699
 1951SOL    HW117489   0.252   2.223   0.036  1.0640  3.5122  0.3192
 1951SOL    HW217490   0.258   2.322  17.675  1.1143  0.6549  2.7032
 1952SOL     OW17491   4.344   4.422  13.618  0.1079 -0.5109  0.3756
 1952SOL    HW117492   4.418   4.479  13.638  0.2544  0.7607 -3.7391
 1952SOL    HW217493   4.358   4.397  13.527 -2.7458  0.1274 -0.2467
 1953SOL     OW17494   2.422   2.117  16.946 -0.2561 -0.0219 -0.6594
 1953SOL    HW117495   2.475   2.141  17.023 -1.7776  1.7158 -0.1716
 1953SOL    HW217496   2.472   2.125  16.865 -0.2753 -2.1651 -0.8876
 1954SOL     OW17497   1.048   0.141   7.115  0.5441 -0.0396  0.2906
 1954SOL    HW117498   1.104   0.168   7.189  2.8681  2.2394 -2.2943
 1954SOL    HW217499   1.067   0.203   7.045  1.4683  0.6045  1.0883
 1955SOL     OW17500   0.913   3.726   8.495  0.1511 -0.0914  0.0779
 1955SOL    HW117501   0.933   3.797   8.557 -1.7755  0.8992 -0.4479
 1955SOL    HW217502   0.818   3.736   8.484  0.4953  0.6280 -2.1583
 1956SOL     OW17503   4.054   3.632  17.214 -0.0620 -0.1159 -0.4880
 1956SOL    HW117504   4.041   3.577  17.291  0.9697 -0.1446 -0.3323
 1956SOL    HW217505   4.134   3.602  17.170  1.2226  3.2868 -0.5177
 1957SOL     OW17506   2.024   1.340   9.110 -0.1854 -0.8316 -0.1381
 1957SOL    HW117507   1.931   1.323   9.121 -0.1026 -0.6801  0.7862
 1957SOL    HW217508   2.042   1.255   9.068  0.2056 -1.3348  1.0490
 1958SOL     OW17509   3.721   4.552   2.565  0.0473  0.0633 -0.3487
 1958SOL    HW117510   3.750   4.462   2.584 -2.6918 -0.7586 -0.1543
 1958SOL    HW217511   3.636   4.526   2.531  1.1565 -3.3828 -0.5368
 1959SOL     OW17512   1.744   4.052   4.330  0.4333 -0.1426  0.3883
 1959SOL    HW117513   1.729   4.134   4.283 -1.7952 -1.0943 -0.5452
 1959SOL    HW217514   1.820   4.069   4.385  0.5259 -0.1278  0.2561
 1960SOL     OW17515   0.497   0.546   1.164  0.6956  0.6537  0.0613
 1960SOL    HW117516   0.568   0.537   1.101 -1.4292  1.3257 -2.4049
 1960SOL    HW217517   0.551   0.597   1.225  1.1768 -0.5832  0.6614
 1961SOL     OW17518   1.907   2.138   3.154 -0.0747  0.5747 -0.0520
 1961SOL    HW117519   1.923   2.229   3.179  0.8416  0.0460  1.2665
 1961SOL    HW217520   1.812   2.138   3.160  0.0456  1.2026  1.9750
 1962SOL     OW17521   2.194   0.236  13.389 -0.0873 -0.4985 -0.6770
 1962SOL    HW117522   2.206   0.289  13.468 -2.4640  0.7928 -1.1561
 1962SOL    HW217523   2.111   0.274  13.360 -1.5401 -2.2475  1.1506
 1963SOL     OW17524   1.334   2.627   2.711  0.6293 -0.0997 -0.1533
 1963SOL    HW117525   1.265   2.609   2.776  1.9049  0.3187  1.3092
 1963SOL    HW217526   1.311   2.716   2.685 -0.8617 -0.4871 -0.1795
 1964SOL     OW17527   1.203   0.163   6.052 -0.5576  0.1931 -0.0884
 1964SOL    HW117528   1.255   0.207   5.985 -1.3770  3.0796  1.1948
 1964SOL    HW217529   1.145   0.225   6.096  1.3303  2.6709 -1.0992
 1965SOL     OW17530   1.834   2.363   9.383  0.6303 -0.4283 -0.0113
 1965SOL    HW117531   1.814   2.455   9.403 -0.7704 -0.8288  0.3693
 1965SOL    HW217532   1.879   2.382   9.301  2.8558  0.0703  1.3148
 1966SOL     OW17533   3.893   0.336  11.677 -0.7423 -0.0378  0.2780
 1966SOL    HW117534   3.896   0.336  11.581 -2.0771 -0.7396  0.2309
 1966SOL    HW217535   3.921   0.425  11.701  1.2835 -0.5356 -0.2381
 1967SOL     OW17536   1.959   0.183  16.665  0.2422  0.3880 -0.2252
 1967SOL    HW117537   1.981   0.204  16.574 -0.1927 -1.2805 -0.7244
 1967SOL    HW217538   1.865   0.188  16.652  0.2906 -2.4201 -1.7123
 1968SOL     OW17539   2.593   2.094   4.993 -0.2895  0.1510 -0.4341
 1968SOL    HW117540   2.581   2.031   4.923  1.2768  0.8806 -1.3555
 1968SOL    HW217541   2.688   2.089   4.995 -0.2205  1.0645 -2.2035
 1969SOL     OW17542   4.174   2.314   2.922  0.3059 -0.0105  0.1983
 1969SOL    HW117543   4.226   2.238   2.895  0.0550 -0.5266  1.1718
 1969SOL    HW217544   4.239   2.384   2.922  1.0863 -0.7369  1.5503
 1970SOL     OW17545   3.797   3.777   2.745 -0.5436  0.1796 -0.3293
 1970SOL    HW117546   3.833   3.812   2.827  0.1151 -3.5669  0.9432
 1970SOL    HW217547   3.837   3.691   2.759  2.0735  1.3811 -0.2902
 1971SOL     OW17548   0.220   4.377   6.812  0.4287 -0.9386  0.0905
 1971SOL    HW117549   0.194   4.357   6.722 -1.2666  0.2460  0.3187
 1971SOL    HW217550   0.225   4.473   6.813  3.7564 -1.0899 -0.4965
 1972SOL     OW17551   1.975   2.924   5.815 -0.3664  0.3987 -0.7347
 1972SOL    HW117552   2.020   2.849   5.852 -0.4609  0.6606 -0.0934
 1972SOL    HW217553   2.030   2.951   5.741 -1.4935  1.1607 -1.2990
 1973SOL     OW17554   2.362   2.771   2.455  0.0808  0.2910 -0.1175
 1973SOL    HW117555   2.375   2.703   2.390 -3.4762 -0.3006 -0.1976
 1973SOL    HW217556   2.383   2.847   2.401 -0.1632  1.5500  1.5402
 1974SOL     OW17557   2.047   0.373  16.476  0.3604  0.5875 -0.2245
 1974SOL    HW117558   2.104   0.382  16.552  0.9111  1.7777 -0.7807
 1974SOL    HW217559   2.108   0.377  16.403 -0.6427  1.2200 -1.0278
 1975SOL     OW17560   4.568   1.188   9.049 -0.1101  0.0106  0.2758
 1975SOL    HW117561   4.597   1.275   9.023 -0.9119 -0.9657 -3.8555
 1975SOL    HW217562   4.653   1.145   9.064  1.4910  2.9841 -0.2713
 1976SOL     OW17563   1.951   2.549  10.684  0.4783  0.0921  0.2488
 1976SOL    HW117564   1.945   2.642  10.703 -0.1187  0.1518 -0.2227
 1976SOL    HW217565   1.939   2.513  10.772  0.8732  3.2629  1.5872
 1977SOL     OW17566   2.203   0.984  12.140  0.4157 -0.0706 -0.2640
 1977SOL    HW117567   2.214   1.035  12.060 -1.8529 -1.0524 -1.1903
 1977SOL    HW217568   2.208   0.901  12.092  1.9411  0.5585 -1.1923
 1978SOL     OW17569   2.043   2.508   2.769 -0.4450 -0.1569  0.1968
 1978SOL    HW117570   2.060   2.532   2.860  1.5322  0.9099 -0.4514
 1978SOL    HW217571   2.001   2.583   2.726  0.0150  0.5782  1.0411
 1979SOL     OW17572   2.154   3.277   0.619  0.4461 -0.3344 -0.4811
 1979SOL    HW117573   2.237   3.246   0.657  0.5348 -0.1957 -0.5580
 1979SOL    HW217574   2.119   3.200   0.576 -0.9206 -0.2222  0.4537
 1980SOL     OW17575   4.011   1.528   0.906  0.6696  0.5261  0.1238
 1980SOL    HW117576   4.019   1.623   0.915 -2.3926  0.7605  0.4511
 1980SOL    HW217577   4.086   1.488   0.951 -0.5418  0.0035  1.7057
 1981SOL     OW17578   1.901   3.932   3.501  0.3225  0.3908 -0.4112
 1981SOL    HW117579   1.924   3.843   3.526  1.2951  1.2929  1.8843
 1981SOL    HW217580   1.982   3.980   3.521  0.5096  0.7347 -1.9881
 1982SOL     OW17581   3.069   0.234   2.613 -0.3366  0.1772 -0.0459
 1982SOL    HW117582   3.025   0.249   2.696 -2.2221  0.8942 -1.1866
 1982SOL    HW217583   3.050   0.322   2.580  0.1099 -0.5184 -2.1644
 1983SOL     OW17584   1.199   3.590   3.049  0.3764  0.6686  0.0089
 1983SOL    HW117585   1.181   3.682   3.065 -1.0573  0.5462 -0.8300
 1983SOL    HW217586   1.178   3.577   2.956  0.9300 -0.7380  0.0840
 1984SOL     OW17587   4.430   4.454   9.337 -0.1669 -0.0620 -0.5095
 1984SOL    HW117588   4.420   4.546   9.314 -3.4219  0.0839  1.4738
 1984SOL    HW217589   4.491   4.425   9.270  0.0784 -1.5155  0.3461
 1985SOL     OW17590   0.032   1.296   5.511 -0.1389  0.0201  0.6122
 1985SOL    HW117591   4.716   1.259   5.581  1.5484 -1.7038  0.9658
 1985SOL    HW217592   0.103   1.233   5.512  0.8564  1.1063 -1.0582
 1986SOL     OW17593   2.047   3.304   3.721  0.5921 -0.1312 -0.1017
 1986SOL    HW117594   2.006   3.390   3.719  1.1171  0.1315  0.8214
 1986SOL    HW217595   1.986   3.253   3.773 -1.1106  0.3556 -1.6261
 1987SOL     OW17596   3.621   1.399   5.224  0.7161 -0.3224  0.1083
 1987SOL    HW117597   3.615   1.402   5.128  1.4509 -1.4571  0.0296
 1987SOL    HW217598   3.694   1.459   5.242  0.1103  1.4674 -3.4013
 1988SOL     OW17599   4.665   1.495   6.939 -0.4435 -0.3963 -0.5922
 1988SOL    HW117600   4.651   1.426   6.874 -2.1632 -0.5385 -0.0556
 1988SOL    HW217601   4.577   1.530   6.951  0.2789  0.1761  2.8570
 1989SOL     OW17602   0.913   4.283   3.092  0.4935 -0.2460 -0.2639
 1989SOL    HW117603   0.952   4.251   3.173  0.6668 -1.7469 -0.9277
 1989SOL    HW217604   0.907   4.377   3.105  1.1689 -0.1611 -0.5834
 1990SOL     OW17605   0.062   3.220   5.857  0.6782  0.1052 -0.1477
 1990SOL    HW117606   4.726   3.204   5.917  0.1927  1.7468 -0.3090
 1990SOL    HW217607   0.137   3.229   5.916  0.5406 -0.5961  0.1361
 1991SOL     OW17608   1.080   4.727  11.965 -0.1413  0.2676  0.1942
 1991SOL    HW117609   1.089   0.038  12.047  0.7994  0.8382 -0.2403
 1991SOL    HW217610   1.154   0.023  11.915 -0.0894 -3.0974 -1.9748
 1992SOL     OW17611   4.605   1.910   1.827 -0.2959 -0.6227 -0.5645
 1992SOL    HW117612   4.623   1.821   1.799  2.6686  0.0559 -0.8011
 1992SOL    HW217613   4.695   1.931   1.853 -0.1743 -0.2869 -1.2689
 1993SOL     OW17614   3.193   1.553   2.518  0.0054  0.0561 -0.2871
 1993SOL    HW117615   3.108   1.592   2.499 -1.3972 -3.1055 -0.6255
 1993SOL    HW217616   3.221   1.523   2.431 -1.0015  0.0639 -0.6129
 1994SOL     OW17617   2.300   3.849   3.254  0.6845 -0.3657  0.0485
 1994SOL    HW117618   2.259   3.793   3.187 -2.5187 -0.2951  1.9594
 1994SOL    HW217619   2.324   3.786   3.321  1.8246  0.8115  0.7414
 1995SOL     OW17620   1.856   3.117   5.068 -0.3783  0.0639 -0.2677
 1995SOL    HW117621   1.899   3.185   5.015 -1.5904  0.5583 -0.6054
 1995SOL    HW217622   1.824   3.183   5.129 -0.1490 -0.0687 -0.0035
 1996SOL     OW17623   3.306   3.500   3.161  0.4080 -0.3891  0.0284
 1996SOL    HW117624   3.344   3.510   3.248  1.5798  0.0795 -0.5381
 1996SOL    HW217625   3.321   3.592   3.136 -1.4759 -0.2793 -0.7171
 1997SOL     OW17626   1.045   0.136   8.303 -0.4523 -0.7638 -0.2372
 1997SOL    HW117627   0.986   0.206   8.276 -0.0016  0.2952  1.5329
 1997SOL    HW217628   1.084   0.099   8.223 -1.4587 -4.2975  0.8827
 1998SOL     OW17629   1.883   1.330   8.639 -0.1659  0.5308  0.4214
 1998SOL    HW117630   1.794   1.348   8.670  0.2149  2.2460  0.4953
 1998SOL    HW217631   1.904   1.247   8.683  0.2146 -0.0434 -0.8233
 1999SOL     OW17632   4.088   0.729  12.809 -0.4404 -0.6341  0.4325
 1999SOL    HW117633   4.049   0.811  12.779  1.8991  1.4688  3.1267
 1999SOL    HW217634   4.134   0.703  12.729 -4.1983 -3.3767 -0.8249
 2000SOL     OW17635   4.345   0.553   6.364 -0.0847 -0.9050 -0.1256
 2000SOL    HW117636   4.403   0.622   6.333 -0.0175  0.3381  2.7125
 2000SOL    HW217637   4.292   0.532   6.287 -0.1365  0.0777 -0.3497
 2001SOL     OW17638   1.591   1.481  10.580  0.1838 -0.4975 -0.4845
 2001SOL    HW117639   1.587   1.420  10.654  0.7219 -2.2325 -1.8780
 2001SOL    HW217640   1.497   1.478  10.563  0.1031  0.8560 -0.2946
 2002SOL     OW17641   0.353   0.201   7.116  0.4999  0.0959  0.5993
 2002SOL    HW117642   0.416   0.271   7.131  0.7886 -0.7046  3.0316
 2002SOL    HW217643   0.377   0.149   7.193  0.8206  1.8058  1.6552
 2003SOL     OW17644   3.181   1.564   8.395  0.6721 -0.0609  0.0837
 2003SOL    HW117645   3.188   1.615   8.315 -0.9322  0.4298  0.2467
 2003SOL    HW217646   3.273   1.559   8.422  0.8445 -4.9027 -1.3297
 2004SOL     OW17647   2.207   4.559   2.730  0.5009  0.3260  0.0336
 2004SOL    HW117648   2.171   4.564   2.819 -2.5041  3.2214 -1.3375
 2004SOL    HW217649   2.136   4.599   2.679  1.4915  1.5379 -0.4131
 2005SOL     OW17650   0.750   1.395   9.720 -0.4487 -0.1318 -0.1102
 2005SOL    HW117651   0.704   1.427   9.797  2.6726  0.8446  1.3471
 2005SOL    HW217652   0.789   1.314   9.755  0.7210  0.1873 -0.6662
 2006SOL     OW17653   2.881   3.701   2.136 -0.8416 -0.3965 -0.6251
 2006SOL    HW117654   2.830   3.705   2.217 -0.2275  0.7138 -0.2842
 2006SOL    HW217655   2.837   3.767   2.083  0.2748  1.6361  0.9468
 2007SOL     OW17656   1.576   4.071  15.403  0.5699  0.1433 -0.2343
 2007SOL    HW117657   1.551   4.148  15.455  3.2472  0.2955  0.8240
 2007SOL    HW217658   1.528   4.096  15.325  0.1227 -0.2639 -0.0870
 2008SOL     OW17659   0.576   1.626   8.703 -0.4020  0.1783  0.0351
 2008SOL    HW117660   0.552   1.705   8.655  1.2089  1.5579  1.4712
 2008SOL    HW217661   0.559   1.655   8.793  0.7423  2.6079 -0.5449
 2009SOL     OW17662   0.300   3.483  16.621 -0.0749 -0.2555  0.2457
 2009SOL    HW117663   0.279   3.571  16.589 -3.0179 -0.1660  2.3667
 2009SOL    HW217664   0.385   3.460  16.585  0.0808  0.5057  0.1168
 2010SOL     OW17665   1.055   4.295   3.316  0.5558  0.3613  0.0898
 2010SOL    HW117666   1.127   4.314   3.376  0.0318  3.0899 -0.1261
 2010SOL    HW217667   0.975   4.294   3.368  0.7130  2.3054  0.3747
 2011SOL     OW17668   0.193   2.543   5.868 -0.5760  0.4014 -0.1804
 2011SOL    HW117669   0.116   2.598   5.859 -1.8154 -1.5464 -1.5232
 2011SOL    HW217670   0.210   2.553   5.962  3.5148 -1.1880 -0.7838
 2012SOL     OW17671   0.630   2.629   6.402  0.1837  0.6648 -0.4306
 2012SOL    HW117672   0.553   2.658   6.353 -0.9610 -0.4381  0.7249
 2012SOL    HW217673   0.650   2.707   6.455  0.4273 -1.2508  2.3074
 2013SOL     OW17674   0.798   1.181   7.051  0.4041  0.2506  0.0500
 2013SOL    HW117675   0.712   1.144   7.031  0.8752 -1.4071  1.1030
 2013SOL    HW217676   0.775   1.274   7.045  1.8614  0.6314  0.4293
 2014SOL     OW17677   1.408   0.141   5.041 -0.3118 -0.0831 -0.5623
 2014SOL    HW117678   1.482   0.155   5.100  0.9474 -2.7579 -1.5241
 2014SOL    HW217679   1.358   0.070   5.082  1.3740 -1.4125 -0.8235
 2015SOL     OW17680   2.226   4.615  17.521 -0.5065  0.6858 -0.9052
 2015SOL    HW117681   2.285   4.569  17.462  0.8626  3.0888 -1.4005
 2015SOL    HW217682   2.149   4.617  17.464  0.7292 -1.5338 -2.6611
 2016SOL     OW17683   0.418   2.055   8.392 -0.0161  0.6353  0.4829
 2016SOL    HW117684   0.466   2.128   8.353  1.0417  0.8766  2.2344
 2016SOL    HW217685   0.364   2.024   8.319 -3.4948  1.3478  2.7221
 2017SOL     OW17686   3.583   0.957   6.724  1.1543  0.5627  0.6278
 2017SOL    HW117687   3.640   1.002   6.661  0.0232 -0.3806 -1.0798
 2017SOL    HW217688   3.614   0.867   6.724  0.3811  0.3052  2.3037
 2018SOL     OW17689   4.161   0.811  16.574 -0.2138 -0.5248 -0.2542
 2018SOL    HW117690   4.150   0.868  16.498  0.5048  0.1236  0.1204
 2018SOL    HW217691   4.152   0.868  16.651 -0.9716 -0.3556 -0.4706
 2019SOL     OW17692   0.760   1.108   4.043 -0.2440 -0.8065  0.1683
 2019SOL    HW117693   0.666   1.127   4.049 -0.1960 -0.5171  0.0362
 2019SOL    HW217694   0.782   1.113   4.136 -0.2527  1.6081  0.0419
 2020SOL     OW17695   1.242   0.890   6.038 -0.1584  0.2355  0.7876
 2020SOL    HW117696   1.199   0.863   6.119 -0.1486 -0.6695  0.4891
 2020SOL    HW217697   1.331   0.898   6.074  0.6729 -1.0546 -0.9906
 2021SOL     OW17698   1.522   3.245   0.494  0.4048 -0.3028 -0.0840
 2021SOL    HW117699   1.452   3.307   0.479 -1.2891 -2.1873  0.0399
 2021SOL    HW217700   1.470   3.167   0.513 -1.4624  0.9021 -0.3303
 2022SOL     OW17701   0.390   4.553   7.511  0.3738 -0.1036 -0.7957
 2022SOL    HW117702   0.456   4.604   7.558  0.1096 -1.2809  0.8377
 2022SOL    HW217703   0.447   4.490   7.467  0.5509 -0.6464  0.2009
 2023SOL     OW17704   3.635   1.375  12.298  0.4520 -0.1597 -0.1192
 2023SOL    HW117705   3.578   1.351  12.371  1.8491  0.5060  1.2026
 2023SOL    HW217706   3.580   1.345  12.225  1.4126  2.7536 -2.0394
 2024SOL     OW17707   1.241   3.113   1.869 -0.2074 -0.2442 -0.1232
 2024SOL    HW117708   1.235   3.115   1.773 -0.9565  1.7708 -0.0321
 2024SOL    HW217709   1.271   3.201   1.892 -0.2193 -0.3859  0.4234
 2025SOL     OW17710   2.223   0.503   6.406 -0.0576  0.5825  0.3481
 2025SOL    HW117711   2.293   0.555   6.445 -0.0694  0.6124  0.3293
 2025SOL    HW217712   2.160   0.488   6.476 -1.4218 -2.6628 -1.5691
 2026SOL     OW17713   3.002   2.307   2.973 -0.1085 -0.5460  0.1273
 2026SOL    HW117714   2.982   2.228   3.022 -0.9046 -0.8137 -0.6384
 2026SOL    HW217715   3.052   2.274   2.899  0.4840  0.0711  0.2562
 2027SOL     OW17716   3.127   0.103   7.412  0.2401  0.3639  0.4693
 2027SOL    HW117717   3.216   0.131   7.430 -0.1601  0.1858  2.7321
 2027SOL    HW217718   3.143   0.009   7.421  2.6353  0.9173  1.8316
 2028SOL     OW17719   4.703   3.432  10.982  0.0441  0.1850  0.5187
 2028SOL    HW117720   4.658   3.476  10.910  0.2091 -1.1434 -0.3836
 2028SOL    HW217721   4.640   3.441  11.053  1.0689 -1.4430  1.6344
 2029SOL     OW17722   2.703   3.641   4.510  0.3620  0.3844 -0.8493
 2029SOL    HW117723   2.647   3.570   4.541  0.8705  0.8074  1.0195
 2029SOL    HW217724   2.789   3.619   4.547  0.1622  0.8968 -0.0828
 2030SOL     OW17725   2.805   3.850  11.820  0.4800  0.4173 -0.4750
 2030SOL    HW117726   2.882   3.846  11.763  0.5636  1.0030 -0.3933
 2030SOL    HW217727   2.769   3.764  11.795 -1.9297  0.9292  1.2266
 2031SOL     OW17728   1.232   2.271   8.707 -1.0499  0.0596  0.1674
 2031SOL    HW117729   1.295   2.226   8.651 -2.0624  0.8134 -1.6029
 2031SOL    HW217730   1.279   2.297   8.786 -0.1326  2.7857 -1.2392
 2032SOL     OW17731   3.692   0.515  15.348 -0.3618 -0.8153  0.5418
 2032SOL    HW117732   3.686   0.597  15.397  2.9490 -0.4466  0.3354
 2032SOL    HW217733   3.721   0.463  15.423  0.6748 -1.5395 -0.3660
 2033SOL     OW17734   3.397   3.102   3.031 -0.0464  0.0350  0.0560
 2033SOL    HW117735   3.311   3.125   3.066 -1.0838  0.8546 -3.0116
 2033SOL    HW217736   3.461   3.122   3.100  0.3041  0.0129 -0.2619
 2034SOL     OW17737   0.836   3.609  11.452  0.2901 -0.1346 -0.3799
 2034SOL    HW117738   0.814   3.683  11.395  0.0080  0.6867  0.7991
 2034SOL    HW217739   0.758   3.597  11.506 -0.4975  0.5112 -1.3567
 2035SOL     OW17740   1.334   3.884  14.012  0.2445  0.1490  0.0529
 2035SOL    HW117741   1.367   3.963  13.968 -3.5422  0.9110 -1.3827
 2035SOL    HW217742   1.278   3.844  13.945  1.8282 -1.2894 -0.4263
 2036SOL     OW17743   3.463   2.221   0.790 -0.2512  0.1441  0.0099
 2036SOL    HW117744   3.393   2.171   0.832 -0.0840  0.6282  0.8637
 2036SOL    HW217745   3.547   2.178   0.802  0.0253  0.1296 -1.9729
 2037SOL     OW17746   2.558   3.955  10.973 -0.1363 -0.2223 -0.7445
 2037SOL    HW117747   2.640   3.908  10.987 -0.9943 -1.2577  0.8774
 2037SOL    HW217748   2.559   3.981  10.881 -3.0955 -0.3409 -0.8314
 2038SOL     OW17749   0.221   0.518  14.440 -0.3423 -0.0049 -0.1351
 2038SOL    HW117750   0.135   0.504  14.482  0.1724 -0.1736  0.8651
 2038SOL    HW217751   0.261   0.432  14.451 -0.0471  0.0141 -1.0868
 2039SOL     OW17752   1.063   4.574   6.503 -0.3819 -0.3398  0.2766
 2039SOL    HW117753   1.009   4.652   6.486 -1.2118 -0.7405  1.0930
 2039SOL    HW217754   1.112   4.609   6.577 -1.4124 -2.7601  2.1089
 2040SOL     OW17755   4.199   0.537   2.320  0.1046  0.4342  0.3549
 2040SOL    HW117756   4.290   0.531   2.348  0.3145  1.1050 -0.1706
 2040SOL    HW217757   4.149   0.512   2.398  3.1315  0.5465  2.2980
 2041SOL     OW17758   2.057   1.803   8.995  0.4740 -0.1585  0.3847
 2041SOL    HW117759   2.130   1.801   9.057  1.9792 -2.1984 -1.4720
 2041SOL    HW217760   2.034   1.713   8.973  1.7062 -0.3957  0.0787
 2042SOL     OW17761   4.402   3.632   2.132  0.3392  0.4770 -0.1116
 2042SOL    HW117762   4.393   3.649   2.038 -0.5536  0.6751  0.0081
 2042SOL    HW217763   4.495   3.610   2.130 -0.2183 -2.0628  1.4063
 2043SOL     OW17764   0.507   3.873   3.745  0.1661  0.2127 -0.1057
 2043SOL    HW117765   0.436   3.840   3.689  0.2202 -0.9856  0.5257
 2043SOL    HW217766   0.562   3.926   3.687  0.1488 -0.5564 -0.8378
 2044SOL     OW17767   3.586   4.684  16.085 -0.3270 -0.7081 -0.1069
 2044SOL    HW117768   3.551   4.695  16.173 -2.8275 -2.7810 -0.8456
 2044SOL    HW217769   3.606   0.037  16.060 -4.5589  0.0752 -0.5798
 2045SOL     OW17770   0.620   3.661   5.495 -0.4379  0.2142 -0.0285
 2045SOL    HW117771   0.550   3.725   5.486  1.9943  2.6699 -1.5738
 2045SOL    HW217772   0.673   3.701   5.426 -0.5361 -0.9988 -0.8077
 2046SOL     OW17773   1.245   1.679   9.426 -0.2680 -0.1244 -0.7040
 2046SOL    HW117774   1.165   1.700   9.475  0.8304  0.4602  0.8457
 2046SOL    HW217775   1.280   1.615   9.487  0.3063 -0.0828 -0.9975
 2047SOL     OW17776   1.427   0.988  11.008  0.1005  0.1800 -0.4378
 2047SOL    HW117777   1.389   1.066  10.968  0.7290  1.1019  0.8064
 2047SOL    HW217778   1.441   0.941  10.925  0.1144  0.1541 -0.4208
 2048SOL     OW17779   0.343   1.276   1.625  0.3825 -0.3550 -0.4259
 2048SOL    HW117780   0.276   1.305   1.686 -0.6502 -0.8809 -1.3162
 2048SOL    HW217781   0.364   1.358   1.580 -1.1563  0.1805 -0.1733
 2049SOL     OW17782   0.876   2.946   9.217  0.1142  0.4427 -0.1924
 2049SOL    HW117783   0.845   2.855   9.219 -3.7109  1.7325 -1.8849
 2049SOL    HW217784   0.884   2.950   9.122  0.0602  0.7837 -0.1833
 2050SOL     OW17785   4.560   3.022   8.453  0.4570 -0.6637 -0.5928
 2050SOL    HW117786   4.497   3.080   8.497  1.2468  1.0655 -1.7631
 2050SOL    HW217787   4.502   2.965   8.403  0.7303 -2.4180  1.0773
 2051SOL     OW17788   0.424   3.039   4.418  0.1279 -0.4758  0.3818
 2051SOL    HW117789   0.359   3.108   4.429  1.3883  0.5914  1.1309
 2051SOL    HW217790   0.419   3.022   4.324  0.0065  1.4974  0.0378
 2052SOL     OW17791   1.730   1.959   9.120  0.2026 -0.6551 -0.4479
 2052SOL    HW117792   1.646   1.995   9.148  0.2526 -1.0307  0.2065
 2052SOL    HW217793   1.794   2.010   9.170 -0.2401  0.6829 -1.2566
 2053SOL     OW17794   3.112   2.983   5.321 -0.0003 -0.2132 -0.5691
 2053SOL    HW117795   3.031   2.932   5.314 -0.0874 -0.2994  1.0975
 2053SOL    HW217796   3.147   2.979   5.232  0.3978 -0.4066 -0.4051
 2054SOL     OW17797   2.504   3.665  16.074 -0.1097 -0.0614 -0.5656
 2054SOL    HW117798   2.524   3.684  15.982 -0.5461  0.3598 -0.5737
 2054SOL    HW217799   2.547   3.581  16.094 -0.6640  0.0006  0.8761
 2055SOL     OW17800   3.081   1.810  15.831  0.2617  0.2853 -0.3690
 2055SOL    HW117801   3.105   1.885  15.775 -0.1167  1.1626  0.6376
 2055SOL    HW217802   3.063   1.859  15.911 -0.3684 -1.4471  0.5450
 2056SOL     OW17803   1.520   1.223   7.813 -0.2448 -0.0237 -0.0898
 2056SOL    HW117804   1.497   1.256   7.901 -1.3014  1.4125 -0.8973
 2056SOL    HW217805   1.496   1.131   7.826  0.1595 -0.1148 -0.0077
 2057SOL     OW17806   2.491   0.083   9.123 -0.3109  0.2375 -0.0772
 2057SOL    HW117807   2.516   0.064   9.033  3.1237 -1.7880  1.3084
 2057SOL    HW217808   2.463   0.175   9.115  0.5414  0.6004  1.0972
 2058SOL     OW17809   3.004   2.471   6.574 -0.2717 -0.1426  0.0610
 2058SOL    HW117810   2.959   2.389   6.597  1.5236 -0.2996  3.0309
 2058SOL    HW217811   3.067   2.474   6.646  0.6976 -1.1799 -0.7313
 2059SOL     OW17812   2.850   0.990   3.970 -0.2233  0.3213  0.1777
 2059SOL    HW117813   2.777   1.047   3.994  0.3626  1.5484 -0.9436
 2059SOL    HW217814   2.851   0.949   4.056 -0.7012 -1.4597 -0.6744
 2060SOL     OW17815   1.694   0.509  13.245 -0.1717  0.5526 -0.2284
 2060SOL    HW117816   1.728   0.458  13.171 -0.4392 -0.8403  0.6252
 2060SOL    HW217817   1.766   0.563  13.277  0.0472 -0.1741  0.4820
 2061SOL     OW17818   2.046   0.200   4.862 -0.2475 -0.0396 -0.4313
 2061SOL    HW117819   2.134   0.173   4.838 -0.4108 -2.9157  2.3097
 2061SOL    HW217820   2.031   0.269   4.797  0.2982 -0.4918 -1.0339
 2062SOL     OW17821   0.415   4.696   2.618 -0.7225 -0.5516 -0.8251
 2062SOL    HW117822   0.492   4.701   2.562 -0.4957  0.6747 -0.4016
 2062SOL    HW217823   0.348   4.737   2.563  1.5247  1.2936 -2.1917
 2063SOL     OW17824   0.026   1.782  15.942 -0.3365  0.2210  0.4677
 2063SOL    HW117825   0.062   1.723  16.008 -2.9732  0.4946  2.1710
 2063SOL    HW217826   4.667   1.784  15.942 -0.3464 -0.3928  3.9182
 2064SOL     OW17827   4.201   4.717   3.396 -0.2154  0.6212 -0.6999
 2064SOL    HW117828   4.181   4.627   3.370 -0.1729 -0.1484  1.9463
 2064SOL    HW217829   4.295   4.707   3.382 -0.0596 -0.3980  1.1336
 2065SOL     OW17830   2.286   4.283   4.142  0.2641  0.6916 -0.0427
 2065SOL    HW117831   2.302   4.261   4.050 -1.0654 -1.0796  0.1630
 2065SOL    HW217832   2.368   4.324   4.170  0.5976 -0.0893  0.1170
 2066SOL     OW17833   2.252   0.620   3.505 -0.2734 -0.5357  0.2244
 2066SOL    HW117834   2.224   0.705   3.471  3.0075  0.1556 -0.6752
 2066SOL    HW217835   2.288   0.572   3.431  0.3137  0.7450 -0.3174
 2067SOL     OW17836   2.462   1.251  13.660 -0.5976 -0.2278  0.2869
 2067SOL    HW117837   2.548   1.289  13.638 -2.0192  0.3345 -4.4534
 2067SOL    HW217838   2.491   1.182  13.719 -1.5133 -0.7860  0.0776
 2068SOL     OW17839   2.018   1.496  12.968  0.1856 -0.5870 -0.9205
 2068SOL    HW117840   1.955   1.431  13.001 -0.7546  1.3881  1.1682
 2068SOL    HW217841   2.101   1.449  12.958  0.2766 -1.3285  3.0184
 2069SOL     OW17842   1.893   4.187  12.114 -0.4278 -0.0980 -0.6050
 2069SOL    HW117843   1.969   4.148  12.072 -1.2956 -2.9202  0.4397
 2069SOL    HW217844   1.822   4.164  12.054  0.9080 -3.3434 -0.9641
 2070SOL     OW17845   2.856   0.881   4.205 -0.1345 -0.0871 -1.1160
 2070SOL    HW117846   2.941   0.922   4.216 -0.3971  0.2831 -0.4810
 2070SOL    HW217847   2.811   0.903   4.287 -0.4521  0.6972 -1.5076
 2071SOL     OW17848   0.702   2.039   3.364  0.4818 -0.3654 -0.2191
 2071SOL    HW117849   0.650   1.987   3.303  0.5082  0.1695 -0.7031
 2071SOL    HW217850   0.779   1.981   3.365  0.6774 -0.1067 -0.0056
 2072SOL     OW17851   2.630   2.812  16.773  0.1754 -0.3495 -0.5422
 2072SOL    HW117852   2.540   2.811  16.739 -0.4622 -0.6249  1.1757
 2072SOL    HW217853   2.630   2.898  16.815 -1.7563 -0.3438 -0.5709
 2073SOL     OW17854   3.976   3.770   5.491 -0.0341  0.3260 -0.4950
 2073SOL    HW117855   4.052   3.745   5.543 -0.3678 -0.4448 -0.3712
 2073SOL    HW217856   3.985   3.865   5.493 -1.1409  0.4286 -0.4989
 2074SOL     OW17857   2.206   2.154   4.595  0.4527  0.0539 -0.0672
 2074SOL    HW117858   2.216   2.126   4.686 -0.4470 -1.1225 -0.3264
 2074SOL    HW217859   2.147   2.228   4.612 -0.7289 -1.0286  0.5858
 2075SOL     OW17860   0.121   0.871   1.903 -0.3878  0.2948 -0.0549
 2075SOL    HW117861   0.118   0.850   1.809 -1.1816 -1.4551  0.3629
 2075SOL    HW217862   0.212   0.850   1.923 -0.0921  1.5324 -0.0598
 2076SOL     OW17863   4.569   1.185   3.565  0.0261 -0.9003 -0.4469
 2076SOL    HW117864   4.555   1.202   3.472  0.6719 -0.6973 -0.5072
 2076SOL    HW217865   4.480   1.179   3.599  0.5316  0.4846  1.1466
 2077SOL     OW17866   0.739   2.286   0.892  0.0649 -0.2627  0.3727
 2077SOL    HW117867   0.806   2.268   0.958  1.6831 -0.4621 -1.3172
 2077SOL    HW217868   0.674   2.344   0.931 -0.8985 -0.0864 -1.4883
 2078SOL     OW17869   1.358   4.383   7.064 -0.3588  0.0217 -0.4049
 2078SOL    HW117870   1.264   4.399   7.059 -0.6859 -1.6491  0.5541
 2078SOL    HW217871   1.368   4.339   7.149 -0.7543  0.6919 -0.0078
 2079SOL     OW17872   4.618   3.115  10.859 -0.1864 -0.5109 -0.1189
 2079SOL    HW117873   4.711   3.135  10.848 -0.1888 -0.1065  0.5373
 2079SOL    HW217874   4.611   3.027  10.894  1.7385 -0.2727  0.8409
 2080SOL     OW17875   2.912   2.209   6.550 -0.1219 -0.0182  0.4852
 2080SOL    HW117876   3.006   2.202   6.537  0.2276  2.4994  1.7072
 2080SOL    HW217877   2.898   2.117   6.574  0.2734 -0.2409 -0.1503
 2081SOL     OW17878   0.211   0.805   9.386 -0.2036 -0.3664 -0.1898
 2081SOL    HW117879   0.134   0.854   9.356 -0.5672  0.4290  2.0502
 2081SOL    HW217880   0.229   0.866   9.458 -0.5130  0.8577 -1.1384
 2082SOL     OW17881   4.222   2.726   7.822  0.4584 -0.2240  0.0764
 2082SOL    HW117882   4.251   2.659   7.883  2.3980  0.8122  0.2984
 2082SOL    HW217883   4.278   2.735   7.745  0.9296  0.8596  0.5404
 2083SOL     OW17884   2.884   3.793   7.589 -0.4236  0.2749  0.1396
 2083SOL    HW117885   2.824   3.726   7.558 -0.6146  0.7500 -0.5218
 2083SOL    HW217886   2.964   3.742   7.578 -1.0605 -0.4218 -1.3052
 2084SOL     OW17887   4.531   1.354   7.906  0.6180 -0.0204 -0.3170
 2084SOL    HW117888   4.466   1.359   7.835  1.7330  1.9176 -1.1984
 2084SOL    HW217889   4.571   1.440   7.891  0.6746  0.4756  2.7307
 2085SOL     OW17890   2.939   0.449   8.414  0.4438 -0.4927 -0.0659
 2085SOL    HW117891   3.023   0.494   8.423 -0.9390  1.7670  1.4617
 2085SOL    HW217892   2.963   0.365   8.376 -1.5151 -2.4826  3.1579
 2086SOL     OW17893   3.943   3.531   5.020  0.0136 -0.4088  0.5649
 2086SOL    HW117894   3.861   3.508   5.062 -0.9929 -0.3453 -1.3513
 2086SOL    HW217895   3.939   3.625   5.037  0.4796  0.0495 -1.7447
 2087SOL     OW17896   1.373   3.030   0.406  0.0999  0.0205 -0.1167
 2087SOL    HW117897   1.389   3.005   0.315  1.5791  1.2057 -0.1688
 2087SOL    HW217898   1.402   2.946   0.442 -0.0197  0.0270 -0.0029
 2088SOL     OW17899   2.616   3.609   8.720 -0.2921  0.2133 -0.2691
 2088SOL    HW117900   2.533   3.563   8.718 -0.6088  0.7408  0.5977
 2088SOL    HW217901   2.663   3.535   8.759  0.4047  0.9071  0.2150
 2089SOL     OW17902   2.466   4.690   3.138  0.0537  0.5952  0.1763
 2089SOL    HW117903   2.524   0.027   3.159 -0.0719 -0.0890  3.0256
 2089SOL    HW217904   2.523   4.614   3.122  0.1319  0.6581  0.1544
 2090SOL     OW17905   0.328   1.377   8.711  0.7259  0.1159 -0.5663
 2090SOL    HW117906   0.419   1.356   8.691  0.6811  0.2513 -0.9163
 2090SOL    HW217907   0.279   1.301   8.681 -1.3677  1.4278 -0.4664
 2091SOL     OW17908   1.809   1.196  10.979  0.2888 -0.0911 -0.6550
 2091SOL    HW117909   1.852   1.150  11.051  1.9793  0.2694 -1.4483
 2091SOL    HW217910   1.848   1.283  10.985  0.7335 -0.4657  1.9367
 2092SOL     OW17911   1.166   0.308   6.690  0.0199  0.1562  0.5486
 2092SOL    HW117912   1.156   0.372   6.619  0.5638 -0.2638  0.0946
 2092SOL    HW217913   1.208   0.239   6.639 -1.1218 -0.0995 -0.0577
 2093SOL     OW17914   2.971   2.762   4.457 -0.1316 -0.1284  0.3350
 2093SOL    HW117915   2.901   2.748   4.521  0.1058 -0.8522  0.4340
 2093SOL    HW217916   3.042   2.784   4.517 -1.8335  0.2321  2.2394
 2094SOL     OW17917   0.283   2.066   2.360 -0.2295  0.3144 -0.2867
 2094SOL    HW117918   0.303   1.994   2.300  2.4281  2.2735 -1.7673
 2094SOL    HW217919   0.188   2.072   2.346 -0.4062  2.1409  1.8218
 2095SOL     OW17920   0.263   1.368   3.599  0.4373 -0.0392 -0.0585
 2095SOL    HW117921   0.293   1.291   3.551  0.2786 -0.2508  0.1777
 2095SOL    HW217922   0.215   1.332   3.674 -1.1795  1.4451 -0.3759
 2096SOL     OW17923   0.467   1.796   4.381 -0.0246  0.0591 -0.6403
 2096SOL    HW117924   0.500   1.741   4.310 -0.1116 -0.2020 -0.4747
 2096SOL    HW217925   0.496   1.750   4.460  1.3520 -0.5163 -1.4883
 2097SOL     OW17926   0.382   3.424   8.578 -0.2472  0.8009 -0.6939
 2097SOL    HW117927   0.368   3.362   8.506  0.9094 -0.1071 -0.1368
 2097SOL    HW217928   0.337   3.502   8.546 -3.5013 -0.7956  0.0583
 2098SOL     OW17929   2.859   2.050   4.950 -0.4165 -0.3016  0.2059
 2098SOL    HW117930   2.941   2.083   4.989 -1.0155  0.5113  0.7897
 2098SOL    HW217931   2.892   2.002   4.874 -0.3616 -0.8666  0.5905
 2099SOL     OW17932   1.264   4.219   7.659  0.2873 -0.3967  0.2630
 2099SOL    HW117933   1.170   4.207   7.644  0.5944 -2.6716  0.1321
 2099SOL    HW217934   1.279   4.143   7.716  0.7767 -1.1508 -0.8635
 2100SOL     OW17935   0.166   1.519   5.418 -0.0908 -0.4909 -0.5919
 2100SOL    HW117936   0.116   1.465   5.479  0.3264 -0.4917 -0.2444
 2100SOL    HW217937   0.179   1.602   5.463 -1.3932  0.5470 -2.1754
 2101SOL     OW17938   2.451   2.136   8.827  0.4354  0.0070 -0.8305
 2101SOL    HW117939   2.394   2.213   8.827  1.8223  1.0222  0.9729
 2101SOL    HW217940   2.469   2.140   8.921 -4.4323 -0.6199  0.1590
 2102SOL     OW17941   1.551   0.390   9.618 -0.0531  0.0620  0.1366
 2102SOL    HW117942   1.582   0.309   9.579  2.0295  0.2566  1.3661
 2102SOL    HW217943   1.464   0.394   9.578  0.2848  1.6573 -0.4388
 2103SOL     OW17944   2.004   2.385   2.509  0.2130 -0.0920 -0.4243
 2103SOL    HW117945   1.920   2.338   2.509 -0.6511  1.4357  1.1951
 2103SOL    HW217946   1.998   2.445   2.583  0.8507  0.2535 -0.6589
 2104SOL     OW17947   4.653   2.125   2.146  0.1193 -0.4993 -0.0344
 2104SOL    HW117948   4.680   2.065   2.215  0.5846  0.7030  0.8171
 2104SOL    HW217949   4.633   2.204   2.197  0.4021 -0.6473  0.3028
 2105SOL     OW17950   2.647   2.155   2.610  0.1043  0.5855  0.0982
 2105SOL    HW117951   2.675   2.233   2.658 -1.6419  1.3085 -0.0407
 2105SOL    HW217952   2.611   2.183   2.525  1.4710  0.4533 -0.5124
 2106SOL     OW17953   3.852   4.040   7.256  0.2010 -0.0882  0.2837
 2106SOL    HW117954   3.869   3.974   7.188 -0.5918  1.8058 -1.7363
 2106SOL    HW217955   3.763   4.069   7.236 -0.6292 -1.2410  2.2832
 2107SOL     OW17956   3.573   4.522   5.180  0.6233  0.0114  0.3717
 2107SOL    HW117957   3.556   4.584   5.251  3.7172  0.6529  0.5656
 2107SOL    HW217958   3.659   4.485   5.201  1.5258  1.3726 -0.9387
 2108SOL     OW17959   0.123   3.653   3.026  0.5993  0.4080 -0.0595
 2108SOL    HW117960   0.168   3.574   3.057  0.2793 -0.9678 -3.1285
 2108SOL    HW217961   0.183   3.667   2.953 -0.7127  1.4247 -0.9512
 2109SOL     OW17962   3.526   2.387   7.053  0.0187 -0.4058  0.3587
 2109SOL    HW117963   3.579   2.308   7.059 -1.9308 -1.6863  0.7783
 2109SOL    HW217964   3.445   2.346   7.022  1.0766 -0.6622 -2.1199
 2110SOL     OW17965   3.858   2.245  14.921  0.5309 -0.0104 -0.9631
 2110SOL    HW117966   3.948   2.212  14.919  0.3111 -0.6260 -0.4019
 2110SOL    HW217967   3.808   2.177  14.965  0.2745  0.6124 -0.2808
 2111SOL     OW17968   2.452   2.969   1.526 -0.1857 -0.1490 -0.3987
 2111SOL    HW117969   2.467   2.902   1.592  0.5063  0.2656 -0.1330
 2111SOL    HW217970   2.545   2.991   1.518  0.0951 -0.3813  2.0989
 2112SOL     OW17971   3.390   3.557   5.765  0.2095  0.1706 -0.2570
 2112SOL    HW117972   3.477   3.519   5.758  1.6084  3.3319  0.0430
 2112SOL    HW217973   3.331   3.485   5.743 -0.4392  0.4522  0.5339
 2113SOL     OW17974   1.789   3.833   8.868  0.0202  0.1837 -0.4276
 2113SOL    HW117975   1.768   3.871   8.783 -2.4890  0.4404  0.3044
 2113SOL    HW217976   1.791   3.739   8.847 -0.0350 -0.2172  1.3409
 2114SOL     OW17977   2.897   3.102  17.507 -0.1073  0.1145  0.0067
 2114SOL    HW117978   2.839   3.171  17.539  1.6985  1.5321  0.2571
 2114SOL    HW217979   2.946   3.077  17.586  0.1261 -1.6035 -0.6716
 2115SOL     OW17980   1.913   2.953  11.192  0.9340  0.0300  0.3762
 2115SOL    HW117981   1.964   2.954  11.273  0.8510  0.2552  0.4262
 2115SOL    HW217982   1.842   3.008  11.226  1.3199  0.0718  1.1116
 2116SOL     OW17983   0.857   2.690  12.431 -0.3297 -0.0942  0.6239
 2116SOL    HW117984   0.835   2.765  12.487  1.4465  1.7986 -1.1828
 2116SOL    HW217985   0.795   2.620  12.451 -0.4201  0.2330  1.4597
 2117SOL     OW17986   3.663   4.702   1.549  0.0785  0.5091  0.0640
 2117SOL    HW117987   3.674   0.056   1.577 -0.8584  0.6653 -0.0701
 2117SOL    HW217988   3.750   4.665   1.564 -0.0419 -0.7118 -2.2684
 2118SOL     OW17989   1.443   0.310   3.639 -0.3380  0.0660 -0.6317
 2118SOL    HW117990   1.530   0.271   3.628  0.8673  1.7447  2.8060
 2118SOL    HW217991   1.438   0.344   3.728  0.1778  0.5030 -0.7663
 2119SOL     OW17992   2.646   2.331   9.746  0.3243  0.0658 -0.3086
 2119SOL    HW117993   2.581   2.392   9.782  0.9320 -1.2197  2.9832
 2119SOL    HW217994   2.681   2.388   9.678  0.1334  0.8733  0.2592
 2120SOL     OW17995   4.649   3.728  13.007 -0.0436  0.1940  0.0758
 2120SOL    HW117996   4.624   3.773  13.087  1.0728  1.5439 -0.3438
 2120SOL    HW217997   4.670   3.638  13.033 -0.5275 -0.3581 -1.4359
 2121SOL     OW17998   3.535   4.232   9.933  0.7921  0.2567 -0.4319
 2121SOL    HW117999   3.503   4.318   9.905  2.5226  1.0320 -0.0023
 2121SOL    HW218000   3.599   4.260   9.998 -0.1132  2.4902 -0.5090
 2122SOL     OW18001   0.320   3.435   7.685  0.4707 -0.8398 -0.1034
 2122SOL    HW118002   0.343   3.524   7.657  1.2757 -0.1022  2.9332
 2122SOL    HW218003   0.251   3.420   7.620  0.1837 -1.7455  0.4145
 2123SOL     OW18004   0.471   0.788   6.358  0.0838 -0.4521 -0.3448
 2123SOL    HW118005   0.481   0.718   6.293  1.8543 -1.6685  1.2182
 2123SOL    HW218006   0.376   0.796   6.354  0.1675  0.8790  0.4999
 2124SOL     OW18007   1.040   2.800   2.842  0.3833 -0.0165  0.2052
 2124SOL    HW118008   1.103   2.754   2.896 -0.8316 -1.8708  0.0502
 2124SOL    HW218009   1.071   2.889   2.858 -0.3071  0.5655 -1.6626
 2125SOL     OW18010   0.818   2.234  15.785 -0.2116 -0.0581  0.3436
 2125SOL    HW118011   0.746   2.265  15.729 -0.3440 -0.0168  0.5362
 2125SOL    HW218012   0.894   2.271  15.740 -0.6760  0.0578 -0.3497
 2126SOL     OW18013   3.187   1.116   9.294 -0.3221  0.2032  0.0361
 2126SOL    HW118014   3.093   1.115   9.313 -0.0820  0.0767  1.2310
 2126SOL    HW218015   3.227   1.118   9.381 -0.1198  0.5177 -0.0638
 2127SOL     OW18016   2.353   4.163   6.530  0.4823 -0.1297  0.2785
 2127SOL    HW118017   2.365   4.240   6.474  0.9705  0.2891  0.9514
 2127SOL    HW218018   2.431   4.112   6.507 -0.4565 -1.4729  0.1183
 2128SOL     OW18019   2.614   3.645   1.640  0.4574  0.3733 -0.4218
 2128SOL    HW118020   2.558   3.678   1.710  1.6376  0.2085  0.6043
 2128SOL    HW218021   2.693   3.696   1.659  0.7560  0.2132 -1.2427
 2129SOL     OW18022   3.398   3.714   2.400  0.5428  0.0232 -0.7660
 2129SOL    HW118023   3.442   3.686   2.481  0.0608  0.8078 -0.2301
 2129SOL    HW218024   3.306   3.691   2.416  1.2210 -1.8812  0.5176
 2130SOL     OW18025   3.835   0.226   7.382 -0.3424  0.2838 -0.0692
 2130SOL    HW118026   3.912   0.222   7.326 -1.2951 -4.4570 -1.0400
 2130SOL    HW218027   3.825   0.137   7.415  0.6854  1.0964  2.4878
 2131SOL     OW18028   0.335   4.311   4.151 -0.1840 -0.7106  0.6360
 2131SOL    HW118029   0.278   4.344   4.221 -2.3187 -1.0061 -0.9684
 2131SOL    HW218030   0.320   4.363   4.072 -0.4409  2.4701  2.7979
 2132SOL     OW18031   0.168   4.728   8.246 -0.5881  0.0136 -0.2075
 2132SOL    HW118032   0.144   4.636   8.238  1.1826 -0.5322  0.8130
 2132SOL    HW218033   0.126   0.032   8.171  2.6792  1.5474 -1.1746
 2133SOL     OW18034   0.310   4.270   3.772 -0.4075  0.1978 -0.3940
 2133SOL    HW118035   0.292   4.228   3.857  2.9633  0.1912  0.3273
 2133SOL    HW218036   0.294   4.360   3.801 -0.1047 -0.5944  2.2370
 2134SOL     OW18037   1.486   0.474  13.585  0.4075 -0.1832 -0.7967
 2134SOL    HW118038   1.411   0.414  13.591  0.3358  0.0034  0.2525
 2134SOL    HW218039   1.476   0.527  13.664  0.2030  0.0471 -0.9766
 2135SOL     OW18040   3.996   4.668   4.196 -0.8405  0.2157 -0.1988
 2135SOL    HW118041   3.976   0.021   4.220  3.8506  1.8029 -2.1075
 2135SOL    HW218042   4.079   4.669   4.148 -0.4562 -1.2754  0.4045
 2136SOL     OW18043   3.284   3.268   5.663 -0.8660 -0.4893  0.1234
 2136SOL    HW118044   3.237   3.292   5.743  0.4588  0.3318  0.6603
 2136SOL    HW218045   3.319   3.182   5.685  2.1895  0.9052  0.8807
 2137SOL     OW18046   1.491   4.546   4.961 -0.4483 -0.0764 -0.0150
 2137SOL    HW118047   1.519   4.623   5.010 -2.7807  1.0866 -0.5065
 2137SOL    HW218048   1.420   4.519   5.020  1.5105 -2.1782  1.3806
 2138SOL     OW18049   3.623   3.147   1.502  0.2192 -0.0162  0.1421
 2138SOL    HW118050   3.703   3.180   1.462  0.3672 -0.5350  0.0122
 2138SOL    HW218051   3.572   3.227   1.496  0.9310  0.5656  1.8572
 2139SOL     OW18052   1.386   2.261   6.822 -0.0035  0.3143 -0.4402
 2139SOL    HW118053   1.418   2.272   6.732 -0.9572  1.3275 -0.6493
 2139SOL    HW218054   1.293   2.239   6.815  0.1377 -0.5112  0.2597
 2140SOL     OW18055   2.400   1.796   2.724  0.1740  0.2120  0.0621
 2140SOL    HW118056   2.375   1.888   2.737 -0.1777 -0.0600  1.3320
 2140SOL    HW218057   2.321   1.743   2.711 -0.2222  0.1169  2.6691
 2141SOL     OW18058   1.283   3.058   3.778  0.1685 -0.1495  0.8094
 2141SOL    HW118059   1.361   3.096   3.737 -1.0150 -0.0583 -1.3580
 2141SOL    HW218060   1.230   3.132   3.808  0.6011  0.3508  0.3489
 2142SOL     OW18061   4.143   3.350   5.160 -0.4454 -0.0751  0.3344
 2142SOL    HW118062   4.171   3.258   5.160  0.9454  0.3453 -0.7674
 2142SOL    HW218063   4.062   3.350   5.211 -1.0150  0.5233 -0.5638
 2143SOL     OW18064   3.298   2.796  10.818  0.4178  0.3660 -0.1068
 2143SOL    HW118065   3.288   2.707  10.786 -1.6249  0.7449 -0.4630
 2143SOL    HW218066   3.286   2.781  10.912  0.9856 -1.8722 -0.3973
 2144SOL     OW18067   2.103   3.729   8.691 -0.5317  0.1432 -0.1875
 2144SOL    HW118068   2.043   3.659   8.715 -1.4635  1.5586  1.5955
 2144SOL    HW218069   2.067   3.780   8.618  0.2991 -0.4914 -1.0414
 2145SOL     OW18070   1.490   0.294   3.278 -0.1460 -0.7876 -0.0235
 2145SOL    HW118071   1.397   0.272   3.277 -0.6443  1.2275  0.5206
 2145SOL    HW218072   1.479   0.388   3.260  2.2050 -0.6928 -0.9486
 2146SOL     OW18073   1.414   2.341   3.526  0.5534 -0.5201 -0.1226
 2146SOL    HW118074   1.393   2.248   3.533  1.1439 -0.6500 -0.1188
 2146SOL    HW218075   1.329   2.377   3.500  2.2550  3.4874 -0.1363
 2147SOL     OW18076   3.419   2.374   8.060  0.7636 -0.2481 -0.2698
 2147SOL    HW118077   3.472   2.454   8.059 -2.3071  1.7805 -0.7194
 2147SOL    HW218078   3.353   2.405   7.998  0.3568  1.5415  1.0250
 2148SOL     OW18079   3.376   4.296   8.107  0.1274 -0.0931  0.4768
 2148SOL    HW118080   3.418   4.321   8.189  0.5108 -0.5727  0.4254
 2148SOL    HW218081   3.445   4.260   8.052  0.2209  0.6822  0.0862
 2149SOL     OW18082   4.071   0.205   0.838  0.0913  0.1542 -0.1765
 2149SOL    HW118083   4.137   0.215   0.770 -0.3014 -0.5187 -0.6643
 2149SOL    HW218084   4.056   0.296   0.865 -2.1527 -0.3428  0.2634
 2150SOL     OW18085   2.649   3.833   2.706 -0.1470 -0.3431  0.5881
 2150SOL    HW118086   2.588   3.907   2.709  0.6820  0.3646  0.1542
 2150SOL    HW218087   2.687   3.849   2.619 -1.8398  2.3281  0.3475
 2151SOL     OW18088   1.628   1.430   2.940  0.2177 -0.4153  0.6050
 2151SOL    HW118089   1.698   1.461   2.998  0.5772 -1.6106  0.8210
 2151SOL    HW218090   1.546   1.460   2.977  1.0183  0.7038  1.4799
 2152SOL     OW18091   1.422   4.669  10.185 -0.0060  0.3033 -0.3200
 2152SOL    HW118092   1.347   4.627  10.143  1.7401 -0.8175 -2.3503
 2152SOL    HW218093   1.455   4.718  10.110 -1.8869  2.2023  0.0984
 2153SOL     OW18094   2.336   4.248  16.156 -0.1537  0.0402  0.7144
 2153SOL    HW118095   2.273   4.298  16.104  0.1548  0.1389  0.4369
 2153SOL    HW218096   2.397   4.208  16.094  0.8451  0.7294  1.2371
 2154SOL     OW18097   1.996   1.964  15.231 -0.0023  0.2031 -0.3995
 2154SOL    HW118098   1.922   1.928  15.279  2.2694 -0.8793  2.2625
 2154SOL    HW218099   1.949   1.976  15.148 -0.4941  1.7442  0.1037
 2155SOL     OW18100   2.780   3.637   6.002 -0.1451 -0.8028 -0.5207
 2155SOL    HW118101   2.851   3.597   5.953 -1.2663 -1.7926 -1.3409
 2155SOL    HW218102   2.718   3.566   5.987 -0.7135 -0.6273  1.0602
 2156SOL     OW18103   4.303   2.583   2.937  0.3803 -0.3647  0.6213
 2156SOL    HW118104   4.392   2.614   2.956  0.4204 -0.2532  0.2477
 2156SOL    HW218105   4.275   2.654   2.880  1.0343 -0.0973  0.6271
 2157SOL     OW18106   0.788   4.010   5.185 -0.2148 -0.4918  0.4358
 2157SOL    HW118107   0.845   4.087   5.189  0.5935 -1.0346 -0.5054
 2157SOL    HW218108   0.784   4.001   5.090 -0.1725  3.5672  0.0281
 2158SOL     OW18109   2.256   1.838  16.421 -0.1876 -0.2013 -0.4700
 2158SOL    HW118110   2.198   1.854  16.346 -0.9281  2.8645  0.7805
 2158SOL    HW218111   2.187   1.821  16.484 -0.3575  0.4996 -0.4610
 2159SOL     OW18112   3.936   1.393   8.319 -0.0405  0.4932  0.2214
 2159SOL    HW118113   3.961   1.301   8.319 -0.0180  0.4954 -1.3651
 2159SOL    HW218114   4.009   1.425   8.267  0.4481  2.7640  2.3028
 2160SOL     OW18115   0.166   0.783   4.727 -0.1188 -0.4356  0.1845
 2160SOL    HW118116   0.117   0.729   4.665  1.6156 -1.0217 -0.6914
 2160SOL    HW218117   0.199   0.855   4.673 -1.2162  0.6690  0.9739
 2161SOL     OW18118   4.461   1.518   1.366 -0.1115  0.3418 -0.8031
 2161SOL    HW118119   4.424   1.501   1.452  1.6792  0.8937  0.0720
 2161SOL    HW218120   4.467   1.429   1.331  0.8027 -0.3503  1.1135
 2162SOL     OW18121   1.416   1.866   7.432 -0.0552 -0.0551  0.4957
 2162SOL    HW118122   1.382   1.854   7.343  1.4015  1.0196 -0.2067
 2162SOL    HW218123   1.459   1.781   7.435  1.1593  0.5764  1.2616
 2163SOL     OW18124   2.481   0.094   8.182  0.5424 -0.5721  0.0261
 2163SOL    HW118125   2.389   0.084   8.160  0.1302  2.0091  0.6202
 2163SOL    HW218126   2.502   0.001   8.187 -1.0837 -0.9453 -0.0981
 2164SOL     OW18127   2.821   1.716   8.471  0.7420  0.5853 -0.2904
 2164SOL    HW118128   2.754   1.671   8.419 -1.2080  2.7705  0.3317
 2164SOL    HW218129   2.867   1.639   8.503 -1.3810 -1.1123 -1.3034
 2165SOL     OW18130   2.733   2.368  16.971 -0.0453 -0.0639  0.1831
 2165SOL    HW118131   2.743   2.364  17.066  2.1640 -2.7388 -0.1458
 2165SOL    HW218132   2.759   2.457  16.947  0.2009 -0.4841 -1.1498
 2166SOL     OW18133   0.345   2.828   4.165  0.1589 -0.1350  0.2300
 2166SOL    HW118134   0.323   2.904   4.111  0.9616  0.3805  0.6167
 2166SOL    HW218135   0.267   2.835   4.220 -0.4346 -0.5739 -0.5645
 2167SOL     OW18136   1.704   0.586  12.950 -0.5128 -0.9212  0.5793
 2167SOL    HW118137   1.751   0.507  12.976  0.9649  0.8545  3.2908
 2167SOL    HW218138   1.741   0.655  13.005  0.3988  0.7553 -2.0725
 2168SOL     OW18139   3.271   2.271   3.108 -0.5197  0.0459 -0.6512
 2168SOL    HW118140   3.213   2.262   3.033 -0.1338  2.9503 -1.2864
 2168SOL    HW218141   3.318   2.351   3.086 -1.8022  1.3874  1.4841
 2169SOL     OW18142   3.040   2.182   7.982  0.2379 -0.1519 -0.0954
 2169SOL    HW118143   3.042   2.189   7.887  0.7851  1.1598  0.0035
 2169SOL    HW218144   3.003   2.266   8.010  1.9893  0.0782  1.5027
 2170SOL     OW18145   3.333   4.023   6.681 -0.2875 -0.4520  0.0391
 2170SOL    HW118146   3.336   4.055   6.771  0.6391  0.2930 -0.2541
 2170SOL    HW218147   3.245   3.987   6.673 -0.7296  0.9168 -1.1653
 2171SOL     OW18148   4.259   2.265   1.800  0.2254  0.6087  0.0376
 2171SOL    HW118149   4.340   2.221   1.827 -0.0163  1.0732  1.5683
 2171SOL    HW218150   4.299   2.323   1.735  1.6242 -1.0585 -0.5637
 2172SOL     OW18151   1.036   4.698   4.081 -0.3456  0.2773  0.2148
 2172SOL    HW118152   1.099   0.025   4.113  0.7641 -0.7182  0.0154
 2172SOL    HW218153   1.032   4.726   3.990 -1.9369  0.7223  0.4158
 2173SOL     OW18154   1.207   0.990   6.513  0.2336  0.8565  0.1492
 2173SOL    HW118155   1.243   1.066   6.466  3.7366 -0.1387  1.2354
 2173SOL    HW218156   1.260   0.994   6.593  0.6641  1.9928 -0.1955
 2174SOL     OW18157   0.476   3.413  12.569 -0.3291  0.1447 -0.3146
 2174SOL    HW118158   0.398   3.366  12.541 -0.4802  0.6560 -0.7593
 2174SOL    HW218159   0.542   3.371  12.513  0.6553 -0.0989  1.0216
 2175SOL     OW18160   4.469   2.801   5.901 -0.2106 -0.5509  0.2394
 2175SOL    HW118161   4.406   2.840   5.961  0.6309 -0.9247  1.3712
 2175SOL    HW218162   4.492   2.717   5.942 -0.0603 -1.3099 -1.3690
 2176SOL     OW18163   2.669   2.155   8.432 -0.4861  0.5441  0.3822
 2176SOL    HW118164   2.668   2.128   8.524  0.0426  0.4548  0.3596
 2176SOL    HW218165   2.732   2.089   8.402  0.8918  1.4088  1.3897
 2177SOL     OW18166   1.182   2.234   7.836 -0.0738 -0.0695  0.3214
 2177SOL    HW118167   1.213   2.306   7.891 -2.7410  1.3899 -0.1037
 2177SOL    HW218168   1.191   2.276   7.750  0.7801  2.1981  1.5088
 2178SOL     OW18169   1.756   4.681  10.466 -0.2532 -0.1933 -0.2819
 2178SOL    HW118170   1.780   4.707  10.556 -2.4676 -1.3209  0.6334
 2178SOL    HW218171   1.665   4.655  10.478  0.7774 -3.2444  1.1654
 2179SOL     OW18172   2.466   1.263   5.407 -0.4260 -0.1063 -0.0533
 2179SOL    HW118173   2.419   1.179   5.403 -1.2188  0.3652 -0.8711
 2179SOL    HW218174   2.533   1.238   5.343  0.4372  1.7306  0.1315
 2180SOL     OW18175   3.837   4.114   2.238 -0.3208  0.1985 -0.5065
 2180SOL    HW118176   3.922   4.122   2.193  0.3000 -3.6509 -0.0616
 2180SOL    HW218177   3.854   4.030   2.280  0.8845 -0.0619 -1.4915
 2181SOL     OW18178   2.568   2.613   0.973  0.1523 -0.4062 -0.2572
 2181SOL    HW118179   2.520   2.551   0.919 -1.9918 -0.7569  2.0328
 2181SOL    HW218180   2.661   2.606   0.953  0.2228 -0.0229 -0.0713
 2182SOL     OW18181   0.512   2.029  17.326  0.2298  0.1910  0.0017
 2182SOL    HW118182   0.514   2.071  17.412 -0.1574 -1.9513  1.0640
 2182SOL    HW218183   0.524   1.936  17.345 -0.3252 -0.0041 -0.6326
 2183SOL     OW18184   2.330   4.024   4.515  0.1942  0.1997 -0.3889
 2183SOL    HW118185   2.286   4.106   4.494  1.4546  0.3068 -2.6538
 2183SOL    HW218186   2.366   4.042   4.602  3.1153 -0.8536 -1.3761
 2184SOL     OW18187   3.029   4.208   2.593 -0.4214  0.5965 -0.5199
 2184SOL    HW118188   3.085   4.175   2.664 -0.6150  1.0801 -0.1482
 2184SOL    HW218189   2.984   4.273   2.647  0.0255 -1.2343  2.0837
 2185SOL     OW18190   0.943   2.846   5.510 -0.0236 -0.5003 -0.0196
 2185SOL    HW118191   0.848   2.841   5.520  0.1942  0.7381  2.8112
 2185SOL    HW218192   0.984   2.793   5.579  0.7123 -0.6632 -0.5827
 2186SOL     OW18193   4.107   1.553   6.157 -0.6412 -0.5561  0.2671
 2186SOL    HW118194   4.055   1.478   6.187 -1.0674  0.4474  2.0839
 2186SOL    HW218195   4.176   1.547   6.224  0.2453 -1.2818 -0.7234
 2187SOL     OW18196   2.173   2.463   7.529  0.2573  0.6389 -0.2543
 2187SOL    HW118197   2.259   2.422   7.530  1.1895  2.5305 -1.6964
 2187SOL    HW218198   2.140   2.435   7.614  3.3708 -1.1969  0.3308
 2188SOL     OW18199   0.768   4.386   5.219  0.3254 -0.0787  0.4294
 2188SOL    HW118200   0.722   4.350   5.295  0.9480  0.1890  0.9302
 2188SOL    HW218201   0.853   4.342   5.223 -0.4808 -1.7448 -0.7367
 2189SOL     OW18202   3.377   4.039   9.027 -0.1294  0.1891  0.6430
 2189SOL    HW118203   3.397   3.947   9.043 -1.1334 -0.2270 -0.5580
 2189SOL    HW218204   3.424   4.072   9.105  0.0783 -0.0102  0.6033
 2190SOL     OW18205   2.062   0.924   8.189 -0.3748  0.6873  0.1353
 2190SOL    HW118206   1.997   0.862   8.158 -0.1265  1.6890 -2.4155
 2190SOL    HW218207   2.059   0.905   8.283 -1.4482  0.0350 -0.0409
 2191SOL     OW18208   4.262   1.033   8.708 -0.1262  0.3550 -0.7344
 2191SOL    HW118209   4.241   1.076   8.791 -1.2368  1.1063 -1.4083
 2191SOL    HW218210   4.356   1.049   8.702 -0.0070 -0.5672 -1.3279
 2192SOL     OW18211   0.301   1.553   0.108 -0.1207  0.0829  0.1574
 2192SOL    HW118212   0.285   1.504   0.189 -0.8649  0.6558  0.3549
 2192SOL    HW218213   0.326   1.638   0.144  2.4866 -0.4540 -0.4222
 2193SOL     OW18214   2.625   0.426   4.811  0.2361 -0.3024  0.3109
 2193SOL    HW118215   2.673   0.345   4.827  0.8870  0.1130  0.4794
 2193SOL    HW218216   2.578   0.411   4.729  1.3916  1.6997 -0.7310
 2194SOL     OW18217   2.750   1.555  10.016  0.7263  0.2903  0.0141
 2194SOL    HW118218   2.797   1.479  10.050  0.3774  0.6141  1.2164
 2194SOL    HW218219   2.665   1.551  10.059  0.3485  1.8814 -0.5687
 2195SOL     OW18220   4.141   3.731   5.713 -0.8064 -0.1602 -0.1300
 2195SOL    HW118221   4.146   3.636   5.728 -1.3402 -0.2186 -0.3260
 2195SOL    HW218222   4.066   3.758   5.764 -0.6043  1.2951 -0.6202
 2196SOL     OW18223   4.444   1.496  11.162 -0.0518 -0.4221 -0.5558
 2196SOL    HW118224   4.507   1.496  11.234 -1.2065 -1.4849  0.4589
 2196SOL    HW218225   4.490   1.467  11.083 -0.1396 -0.3293 -0.6399
 2197SOL     OW18226   3.052   4.403   2.147  0.8739 -0.2842  0.0651
 2197SOL    HW118227   3.094   4.372   2.226  2.2545  1.9784  0.2304
 2197SOL    HW218228   3.116   4.381   2.080  1.4544  0.4159  0.3920
 2198SOL     OW18229   2.497   3.634   3.084 -0.0046  0.3418 -0.2412
 2198SOL    HW118230   2.554   3.699   3.042 -1.3940  1.4586 -0.4045
 2198SOL    HW218231   2.509   3.653   3.177 -1.3629  1.6062 -0.3278
 2199SOL     OW18232   3.110   3.652   7.608 -0.4718 -0.2908  0.1272
 2199SOL    HW118233   3.143   3.638   7.519 -2.7028 -0.8889 -0.6297
 2199SOL    HW218234   3.192   3.664   7.655 -1.0644  0.0407  1.0569
 2200SOL     OW18235   2.848   3.706   8.978 -0.1706 -0.0428 -0.3208
 2200SOL    HW118236   2.828   3.714   8.885  2.0387 -3.1387 -1.0747
 2200SOL    HW218237   2.941   3.691   8.964  1.3478  6.0145  3.5038
 2201SOL     OW18238   4.624   1.205  17.320 -0.0657 -0.5594 -0.2785
 2201SOL    HW118239   4.717   1.196  17.296 -0.0373  2.2588 -1.2361
 2201SOL    HW218240   4.625   1.204  17.415  0.4765 -0.4070 -0.2821
 2202SOL     OW18241   4.538   0.866   8.734  0.1109  0.2082 -0.1571
 2202SOL    HW118242   4.549   0.771   8.731 -0.9155  0.0716  0.5573
 2202SOL    HW218243   4.519   0.887   8.826  3.1147  0.2607  0.4342
 2203SOL     OW18244   1.328   1.717   3.662 -0.7664 -0.6816 -0.2418
 2203SOL    HW118245   1.372   1.710   3.747 -0.9437  1.4382  0.0276
 2203SOL    HW218246   1.270   1.790   3.684  0.2782 -0.3374  1.4086
 2204SOL     OW18247   0.095   2.245   7.171 -0.9732  0.3872 -0.0005
 2204SOL    HW118248   0.160   2.178   7.189 -1.4025  0.3855  1.5063
 2204SOL    HW218249   0.088   2.237   7.076 -0.8773 -0.7895  0.0949
 2205SOL     OW18250   2.374   2.342   2.160  0.5618  0.4795  0.3991
 2205SOL    HW118251   2.377   2.393   2.079  0.4011  0.0971  0.1517
 2205SOL    HW218252   2.290   2.373   2.194 -0.6877  0.1022 -2.3463
 2206SOL     OW18253   4.667   3.576   9.414  0.1436  0.0386  0.0593
 2206SOL    HW118254   4.584   3.538   9.388  0.8439 -1.7691  0.4660
 2206SOL    HW218255   4.645   3.621   9.496 -0.2753  1.7579 -0.9880
 2207SOL     OW18256   1.544   4.187   8.616 -0.0595  0.0065  0.0669
 2207SOL    HW118257   1.496   4.252   8.565  0.2212  0.3445  0.2351
 2207SOL    HW218258   1.511   4.196   8.706  1.0168 -2.0440  0.6649
 2208SOL     OW18259   1.406   0.923   5.035  0.0314 -0.2320  0.2375
 2208SOL    HW118260   1.492   0.886   5.059  1.2913  3.2348  0.9758
 2208SOL    HW218261   1.361   0.852   4.989  1.1738 -0.6478 -0.2634
 2209SOL     OW18262   2.038   0.578  11.621 -0.1175 -0.0050 -0.2819
 2209SOL    HW118263   2.018   0.567  11.714  1.7456  0.8546  0.2331
 2209SOL    HW218264   1.994   0.500  11.588  0.6273 -0.6188  0.1616
 2210SOL     OW18265   3.533   4.737   5.346  0.3967  0.2914 -0.3366
 2210SOL    HW118266   3.588   0.066   5.304  2.1075 -1.8377 -1.3946
 2210SOL    HW218267   3.529   0.027   5.437  0.2739  0.7341 -0.4744
 2211SOL     OW18268   3.100   1.850   8.669  0.4264  0.1621 -0.2299
 2211SOL    HW118269   3.093   1.757   8.647 -0.5635  0.0980  0.3799
 2211SOL    HW218270   3.193   1.870   8.672  0.8829 -2.0231  0.4141
 2212SOL     OW18271   0.803   4.384   4.803  0.5123  0.1715  0.4979
 2212SOL    HW118272   0.765   4.299   4.780  0.0211  0.7196 -0.6989
 2212SOL    HW218273   0.893   4.372   4.773  0.3979 -1.4622  0.8203
 2213SOL     OW18274   1.859   0.432  15.283 -0.0620 -0.1446  0.0285
 2213SOL    HW118275   1.780   0.380  15.300  0.4832 -0.6419  1.0074
 2213SOL    HW218276   1.827   0.501  15.225 -0.6396  1.3358  2.1422
 2214SOL     OW18277   4.534   1.146   0.809  0.2942 -0.1420 -0.6075
 2214SOL    HW118278   4.449   1.184   0.784 -0.2609 -1.9341 -1.4656
 2214SOL    HW218279   4.541   1.085   0.736  1.6691 -3.1897  2.0875
 2215SOL     OW18280   2.832   2.783   1.173 -0.3730 -0.2310  0.0287
 2215SOL    HW118281   2.770   2.854   1.189 -0.8318 -0.6135 -0.0558
 2215SOL    HW218282   2.862   2.761   1.262 -2.3121 -1.0102  0.4897
 2216SOL     OW18283   1.448   1.203   5.057  0.3041 -0.1080  0.3468
 2216SOL    HW118284   1.383   1.250   5.107 -1.7184 -0.1341 -2.2489
 2216SOL    HW218285   1.436   1.109   5.073  0.5267  0.0588  1.4595
 2217SOL     OW18286   2.528   2.409  16.654  0.7274  0.3865 -0.1462
 2217SOL    HW118287   2.544   2.392  16.561 -1.9110  1.0083 -0.7080
 2217SOL    HW218288   2.454   2.469  16.663  1.7767  1.7674 -0.6193
 2218SOL     OW18289   4.666   2.211   4.605 -0.0601  0.0793  0.1591
 2218SOL    HW118290   4.730   2.161   4.655  0.8928  0.3714 -0.7828
 2218SOL    HW218291   4.593   2.204   4.666 -0.4412  1.1017 -0.1750
 2219SOL     OW18292   4.006   4.610   0.807  0.1797 -0.1383  0.0676
 2219SOL    HW118293   4.070   4.591   0.877 -1.0224 -2.2499  0.5959
 2219SOL    HW218294   3.990   4.704   0.798 -0.5688 -0.3841 -1.1029
 2220SOL     OW18295   4.593   0.078  16.594  0.3318 -0.3491  0.4597
 2220SOL    HW118296   4.545   0.092  16.513  2.0023  3.2213  0.0677
 2220SOL    HW218297   4.684   0.095  16.568  0.5583  1.0508  2.1746
 2221SOL     OW18298   4.561   3.643  17.001 -0.1026  0.1012  0.2354
 2221SOL    HW118299   4.567   3.739  17.005  0.8757 -0.0846  3.2230
 2221SOL    HW218300   4.652   3.615  16.996 -0.3678 -0.7722  0.3832
 2222SOL     OW18301   3.667   4.273   5.591  0.0904  0.5748  0.5092
 2222SOL    HW118302   3.637   4.307   5.675  0.6847 -1.5242  1.5687
 2222SOL    HW218303   3.646   4.180   5.598 -1.0685  0.6170 -2.3639
 2223SOL     OW18304   2.143   4.401  16.840  0.6529  0.4733  0.2516
 2223SOL    HW118305   2.162   4.311  16.867  0.2080  0.4308  0.4243
 2223SOL    HW218306   2.204   4.446  16.899  1.1131  0.1165  0.0450
 2224SOL     OW18307   2.384   2.801   9.834 -0.3940 -0.3207 -0.4253
 2224SOL    HW118308   2.342   2.871   9.784  1.1238 -0.2346 -1.5855
 2224SOL    HW218309   2.401   2.839   9.920  2.1629  1.7187 -1.8145
 2225SOL     OW18310   3.076   2.734   6.489 -0.0482  0.2114 -0.0804
 2225SOL    HW118311   3.127   2.713   6.568  0.5869 -0.7421 -0.7391
 2225SOL    HW218312   3.007   2.667   6.487 -2.0992  2.3560 -0.7116
 2226SOL     OW18313   1.180   1.750  11.398  0.3911  0.0960 -0.4617
 2226SOL    HW118314   1.111   1.809  11.430  0.3851 -1.1000  1.7970
 2226SOL    HW218315   1.129   1.669  11.394  1.9916 -1.0094  1.6823
 2227SOL     OW18316   0.037   1.550   4.339 -0.3330  0.5610  0.8869
 2227SOL    HW118317   4.703   1.554   4.403 -0.8199  0.6137  0.3443
 2227SOL    HW218318   0.015   1.460   4.311 -2.9645  1.8320 -1.1496
 2228SOL     OW18319   1.711   0.612  16.787  0.1895  0.2869 -0.0126
 2228SOL    HW118320   1.791   0.585  16.741 -0.0061 -1.1351  0.5005
 2228SOL    HW218321   1.649   0.641  16.720  0.5699 -1.5236 -1.1542
 2229SOL     OW18322   2.330   4.607   9.201 -0.1065  0.3196  0.0188
 2229SOL    HW118323   2.395   4.677   9.194 -1.4215  1.5943  0.4319
 2229SOL    HW218324   2.344   4.558   9.120 -1.5825  2.7135 -1.7132
 2230SOL     OW18325   4.376   1.208   1.623 -0.1922  0.4271 -0.0774
 2230SOL    HW118326   4.446   1.145   1.607  0.7831  1.7679 -1.0991
 2230SOL    HW218327   4.377   1.211   1.719 -2.6687 -0.1634 -0.0308
 2231SOL     OW18328   3.552   2.881   1.186  0.4287 -0.0991 -0.3740
 2231SOL    HW118329   3.637   2.925   1.189 -0.4699  1.6309 -0.5880
 2231SOL    HW218330   3.496   2.955   1.208 -0.7561 -1.0904 -0.0527
 2232SOL     OW18331   0.136   1.308   3.287 -0.0276 -0.0037  0.3542
 2232SOL    HW118332   0.045   1.325   3.264  0.3330 -0.6605 -1.6030
 2232SOL    HW218333   0.133   1.222   3.329 -0.1663  1.4456  3.2517
 2233SOL     OW18334   2.111   0.990  12.964  0.4759 -0.0852  0.2318
 2233SOL    HW118335   2.039   1.009  13.025 -0.7646 -1.7189 -0.7642
 2233SOL    HW218336   2.077   0.931  12.898  0.7206 -1.4029  1.2839
 2234SOL     OW18337   0.123   1.890  17.049  0.4392 -0.7276  0.2637
 2234SOL    HW118338   0.182   1.887  17.124  0.8355  0.2208 -0.0112
 2234SOL    HW218339   0.041   1.886  17.098  0.5342 -1.3238  0.3789
 2235SOL     OW18340   3.768   2.445   7.489 -0.2490  0.2064  0.4384
 2235SOL    HW118341   3.783   2.464   7.397 -6.3392  1.9132 -0.2346
 2235SOL    HW218342   3.845   2.479   7.536 -0.0951  0.4586  0.0024
 2236SOL     OW18343   3.974   2.088  17.669  0.1602 -0.4734  0.7905
 2236SOL    HW118344   4.013   2.117   0.005 -0.9935 -0.1848  1.2280
 2236SOL    HW218345   4.049   2.111  17.614 -0.8488 -2.6129 -1.4426
 2237SOL     OW18346   1.401   4.626   6.931  0.1218  0.8206  0.1789
 2237SOL    HW118347   1.465   4.612   6.862 -0.1018 -3.8094  0.9404
 2237SOL    HW218348   1.413   4.548   6.984 -2.9572  0.1212 -0.1674
 2238SOL     OW18349   0.463   2.239  11.778 -0.2557  0.6326  0.0560
 2238SOL    HW118350   0.383   2.221  11.729 -0.2987  1.6231 -0.2530
 2238SOL    HW218351   0.463   2.334  11.793  0.9857  0.6981 -0.3610
 2239SOL     OW18352   4.019   4.718   3.039  0.1307 -0.0835 -0.1199
 2239SOL    HW118353   3.980   4.706   2.953 -3.0237 -0.5575  1.3851
 2239SOL    HW218354   4.035   4.625   3.055  0.1017 -0.2185 -0.8718
 2240SOL     OW18355   2.372   3.640   4.287 -0.1787 -0.0998  0.5324
 2240SOL    HW118356   2.307   3.674   4.348  1.6671  2.4638  1.0539
 2240SOL    HW218357   2.409   3.725   4.263 -1.2079  0.3399  0.5049
 2241SOL     OW18358   2.171   1.749   0.387 -0.0186  0.2822 -0.1485
 2241SOL    HW118359   2.075   1.745   0.391  0.1593 -1.4031  2.3876
 2241SOL    HW218360   2.186   1.838   0.354 -1.3109  0.3524 -0.5679
 2242SOL     OW18361   1.396   0.957  11.291  0.2021 -0.0681 -0.0126
 2242SOL    HW118362   1.410   0.953  11.196  0.0704  0.9841 -0.0718
 2242SOL    HW218363   1.484   0.985  11.316  0.5769 -1.5095  0.2763
 2243SOL     OW18364   1.719   4.030   4.897  0.5050  0.0717 -0.0091
 2243SOL    HW118365   1.684   4.113   4.929  2.4540  0.8593  0.0434
 2243SOL    HW218366   1.696   4.042   4.804  1.0643  1.9241  0.1019
 2244SOL     OW18367   2.323   3.780   0.791 -0.9708  0.3271  0.2193
 2244SOL    HW118368   2.306   3.871   0.767 -2.8236 -1.2855 -4.7072
 2244SOL    HW218369   2.271   3.735   0.724  2.0521 -1.0660 -1.1889
 2245SOL     OW18370   2.503   3.038   8.910  0.4140 -0.9553  0.2461
 2245SOL    HW118371   2.490   3.125   8.873  1.2655 -0.7281  0.4872
 2245SOL    HW218372   2.542   2.992   8.835  2.8244  1.3258  0.1106
 2246SOL     OW18373   4.481   4.348   5.967 -0.3857 -0.1317  0.2583
 2246SOL    HW118374   4.570   4.322   5.944  0.3526  1.5530  1.2844
 2246SOL    HW218375   4.431   4.267   5.980  2.2327 -2.4341 -3.7708
 2247SOL     OW18376   1.117   4.498   8.260 -0.6191 -0.1522  0.3634
 2247SOL    HW118377   1.203   4.520   8.295 -0.7914 -1.6872  1.7852
 2247SOL    HW218378   1.096   4.583   8.222 -2.7795 -0.8092  0.0345
 2248SOL     OW18379   0.055   3.852  13.689 -0.0585  0.4580 -0.0473
 2248SOL    HW118380   0.088   3.850  13.599 -1.3938  0.9389 -0.5447
 2248SOL    HW218381   0.004   3.771  13.686 -0.0363  0.4547 -0.2884
 2249SOL     OW18382   2.754   0.979   8.609 -0.2217 -0.2307  0.2602
 2249SOL    HW118383   2.740   0.886   8.593 -1.1098  0.2269 -1.5141
 2249SOL    HW218384   2.667   0.995   8.646 -0.1123  2.1830 -0.5135
 2250SOL     OW18385   3.311   1.873   4.824 -0.3012 -0.3237 -0.2554
 2250SOL    HW118386   3.321   1.968   4.816  0.5998 -0.5426 -1.8191
 2250SOL    HW218387   3.377   1.846   4.887  0.6378 -0.2942 -1.2314
 2251SOL     OW18388   3.241   2.449  16.616 -0.2362  0.0906  0.2963
 2251SOL    HW118389   3.268   2.525  16.565 -0.5648  1.3829  2.0380
 2251SOL    HW218390   3.145   2.455  16.615 -0.0002  3.4741 -0.7494
 2252SOL     OW18391   4.334   1.693   4.096 -0.0952 -0.5989 -0.3474
 2252SOL    HW118392   4.328   1.723   4.006  2.6128  0.0606 -0.3251
 2252SOL    HW218393   4.427   1.715   4.105 -0.2396 -0.7863  1.5874
 2253SOL     OW18394   2.365   1.976   3.052  0.4727 -0.0056  0.2275
 2253SOL    HW118395   2.327   2.014   2.972  0.7879  0.4281  0.2876
 2253SOL    HW218396   2.296   1.995   3.116  2.7470 -3.1476  3.5860
 2254SOL     OW18397   0.550   0.252  14.935 -0.0505 -0.7817  0.3325
 2254SOL    HW118398   0.618   0.308  14.897 -0.6114  0.5655  1.2867
 2254SOL    HW218399   0.487   0.316  14.967  0.4185  0.2651 -0.8453
 2255SOL     OW18400   0.540   3.954   4.415 -0.3259 -0.3741 -0.7233
 2255SOL    HW118401   0.517   3.977   4.325 -0.5256 -2.2938 -1.1469
 2255SOL    HW218402   0.550   4.041   4.455 -3.5604 -0.3800  0.1040
 2256SOL     OW18403   2.212   1.433   2.552  0.2163 -0.4491 -0.0321
 2256SOL    HW118404   2.215   1.514   2.603  0.1085  0.5100 -1.5490
 2256SOL    HW218405   2.117   1.423   2.558  0.2006 -0.0874  0.2976
 2257SOL     OW18406   1.238   1.427   0.061 -0.0955 -0.1155  0.4058
 2257SOL    HW118407   1.225   1.491  17.738 -2.3545  0.3665  1.2618
 2257SOL    HW218408   1.287   1.479   0.125 -0.6560 -0.5241  1.1639
 2258SOL     OW18409   0.552   2.338  14.007  0.1541  0.0188  0.4155
 2258SOL    HW118410   0.561   2.369  14.097  1.4110 -1.0996  0.6831
 2258SOL    HW218411   0.620   2.271  13.999 -1.7265 -1.8200 -0.0575
 2259SOL     OW18412   3.843   0.650   0.574  0.0409  0.1605 -0.1614
 2259SOL    HW118413   3.873   0.713   0.509 -0.0968  0.1246 -0.2600
 2259SOL    HW218414   3.863   0.566   0.533  1.6885  1.6670 -2.4044
 2260SOL     OW18415   3.793   3.915  10.185  0.3050  0.2136  0.2256
 2260SOL    HW118416   3.838   3.997  10.205  0.3260  0.4759 -0.8770
 2260SOL    HW218417   3.732   3.910  10.258 -0.0321  0.3442 -0.0497
 2261SOL     OW18418   0.597   4.384   0.135 -0.2774  0.0723  0.5271
 2261SOL    HW118419   0.675   4.366   0.082 -0.4984  0.5962  0.0260
 2261SOL    HW218420   0.550   4.428   0.065  1.1645  1.1534  0.2404
 2262SOL     OW18421   0.772   0.145  15.107 -0.4715 -0.3905  0.1905
 2262SOL    HW118422   0.733   0.210  15.047  0.2333 -0.3983 -0.2766
 2262SOL    HW218423   0.697   0.089  15.128  0.5690 -1.7539  0.1887
 2263SOL     OW18424   2.139   0.337   7.280  0.4246  0.6419  0.3283
 2263SOL    HW118425   2.216   0.299   7.322  1.4248  0.6455 -1.5345
 2263SOL    HW218426   2.091   0.381   7.352  0.2480 -0.5609  0.9469
 2264SOL     OW18427   4.551   1.837   3.355  0.0535 -0.1693  0.2668
 2264SOL    HW118428   4.460   1.859   3.375 -0.0460  1.4973 -1.9253
 2264SOL    HW218429   4.547   1.848   3.260  0.5882  1.0907  0.3737
 2265SOL     OW18430   4.194   2.606   5.259 -0.1496  0.3896 -0.0093
 2265SOL    HW118431   4.144   2.546   5.315  0.2198  0.8560  0.8241
 2265SOL    HW218432   4.246   2.539   5.216 -1.6454 -1.0197  0.3841
 2266SOL     OW18433   0.143   0.524   9.371 -0.4899  0.4834 -0.2501
 2266SOL    HW118434   0.072   0.507   9.309  0.8157  2.2988 -2.2314
 2266SOL    HW218435   0.171   0.614   9.355 -2.6362  0.5357 -3.7723
 2267SOL     OW18436   3.912   3.209   1.643 -0.2152  0.9237 -0.5484
 2267SOL    HW118437   3.899   3.243   1.731  1.8955 -1.4997  0.6878
 2267SOL    HW218438   3.968   3.133   1.659 -3.0657 -1.0947 -0.0659
 2268SOL     OW18439   1.873   3.337   6.567 -0.4888 -0.1534  0.0698
 2268SOL    HW118440   1.907   3.394   6.636  1.5071 -1.3671  0.0947
 2268SOL    HW218441   1.861   3.402   6.498 -0.2383  0.0334  0.1989
 2269SOL     OW18442   3.449   0.562  14.410 -0.0374  0.1260  0.4231
 2269SOL    HW118443   3.525   0.550  14.467  0.1472  1.5070  0.4551
 2269SOL    HW218444   3.462   0.653  14.383  1.4052 -0.1968  0.0318
 2270SOL     OW18445   1.772   2.108   4.829  0.4379  0.7497  0.5154
 2270SOL    HW118446   1.689   2.075   4.861  0.7392  0.6782  1.2234
 2270SOL    HW218447   1.839   2.078   4.890  0.7349 -1.3451 -0.8401
 2271SOL     OW18448   4.040   1.913   7.066  0.0509 -0.2609 -0.8811
 2271SOL    HW118449   4.062   1.861   7.143  0.3768 -3.3306 -3.0393
 2271SOL    HW218450   4.011   1.845   7.005 -0.3954 -0.6368 -0.2494
 2272SOL     OW18451   0.214   1.139   1.018 -0.8962 -0.0738  0.1062
 2272SOL    HW118452   0.234   1.073   0.952  0.9162  1.2211 -0.6178
 2272SOL    HW218453   0.160   1.199   0.965  0.7942  0.3088 -1.1671
 2273SOL     OW18454   0.120   1.450  11.028 -0.4733  0.0510 -0.3544
 2273SOL    HW118455   0.171   1.531  11.025 -1.4820  0.6043 -2.3460
 2273SOL    HW218456   0.191   1.400  10.987 -2.2609 -0.2593 -3.0377
 2274SOL     OW18457   1.411   0.165  15.321  0.4929 -1.0136  0.4518
 2274SOL    HW118458   1.330   0.139  15.364 -0.3290 -0.6647 -0.8792
 2274SOL    HW218459   1.417   0.109  15.244 -0.0920  1.0516 -1.1089
 2275SOL     OW18460   4.658   4.398   3.477 -0.3198  0.1935 -0.2481
 2275SOL    HW118461   4.638   4.358   3.392 -0.3891  0.0762 -0.1755
 2275SOL    HW218462   4.632   4.333   3.542 -0.0673  0.9245  0.5844
 2276SOL     OW18463   1.936   3.845  11.715 -0.4297 -0.6185 -0.3374
 2276SOL    HW118464   1.944   3.916  11.650  0.3580 -1.9302 -1.6847
 2276SOL    HW218465   2.015   3.845  11.769 -0.0126 -0.5598 -0.9430
 2277SOL     OW18466   2.124   0.488   1.821  0.7018  0.0500 -0.3554
 2277SOL    HW118467   2.197   0.543   1.850  2.7692 -1.2246 -3.1584
 2277SOL    HW218468   2.059   0.487   1.890  0.2666  1.5504 -0.7324
 2278SOL     OW18469   3.545   3.912  11.791  0.0222 -0.5161  0.5664
 2278SOL    HW118470   3.497   3.992  11.811  1.1951  0.4527 -0.5285
 2278SOL    HW218471   3.569   3.931  11.701 -1.2403  0.2434  0.3884
 2279SOL     OW18472   0.400   0.062   3.857 -0.6523 -0.0850  0.4937
 2279SOL    HW118473   0.473   0.113   3.891  0.2043 -1.3271  0.5424
 2279SOL    HW218474   0.335   0.085   3.923 -0.1076 -1.9955  1.7300
 2280SOL     OW18475   3.637   1.279   6.582  0.0452  0.2799  0.1212
 2280SOL    HW118476   3.560   1.248   6.534 -0.6340 -0.3016  1.5834
 2280SOL    HW218477   3.696   1.203   6.582 -0.0720  0.2031  1.5994
 2281SOL     OW18478   2.148   2.156   5.597  0.2325  0.3464  0.2708
 2281SOL    HW118479   2.116   2.215   5.665 -4.1286  0.1136 -1.5840
 2281SOL    HW218480   2.231   2.201   5.579  0.2500  0.9567  1.9215
 2282SOL     OW18481   2.753   2.386  13.169 -0.0610  0.0310 -0.0316
 2282SOL    HW118482   2.769   2.291  13.166 -0.0462 -0.0260  1.4403
 2282SOL    HW218483   2.810   2.418  13.100 -1.3509 -0.7086 -1.4532
 2283SOL     OW18484   2.216   3.500   9.397  0.8267 -0.1283  0.0073
 2283SOL    HW118485   2.153   3.561   9.434  1.7900  0.7861  0.1440
 2283SOL    HW218486   2.176   3.453   9.323 -1.5693  1.8624  0.0622
 2284SOL     OW18487   1.448   2.962  14.847  0.3492 -0.6235  0.3850
 2284SOL    HW118488   1.369   3.004  14.811  0.4579 -1.8794 -1.2780
 2284SOL    HW218489   1.419   2.872  14.861 -0.4778 -0.6500 -1.4854
 2285SOL     OW18490   2.940   1.087   9.017  0.2196 -0.8370  0.3618
 2285SOL    HW118491   2.923   1.154   8.951  2.2332  1.0266  1.7049
 2285SOL    HW218492   3.005   1.036   8.969 -0.8952 -1.9634  0.0630
 2286SOL     OW18493   2.689   0.937  14.638 -0.6164 -0.1347  0.2246
 2286SOL    HW118494   2.638   0.999  14.586 -0.2768  0.9268  1.1648
 2286SOL    HW218495   2.644   0.853  14.627  2.1998 -1.5355 -0.7104
 2287SOL     OW18496   4.651   3.763   1.174  0.9486  0.1313 -0.2782
 2287SOL    HW118497   4.569   3.757   1.125 -1.1095  1.2971  3.0083
 2287SOL    HW218498   4.649   3.833   1.239 -1.7982 -1.5697  1.4635
 2288SOL     OW18499   2.181   0.125  10.713  0.3812 -0.3618  0.3893
 2288SOL    HW118500   2.197   0.172  10.631 -1.0185 -0.1593  0.2320
 2288SOL    HW218501   2.129   0.051  10.682  0.9713  0.1439 -1.8140
 2289SOL     OW18502   4.017   2.516  13.356 -0.0508 -0.0447 -0.4804
 2289SOL    HW118503   3.968   2.517  13.274 -0.1366  0.9639 -0.4160
 2289SOL    HW218504   4.006   2.423  13.374  2.0150 -0.1420  0.2281
 2290SOL     OW18505   0.254   1.645  11.580  0.6138  0.2523 -0.1144
 2290SOL    HW118506   0.192   1.704  11.622 -1.2681  0.4190 -3.1130
 2290SOL    HW218507   0.255   1.698  11.500  1.1033 -0.7843 -0.7913
 2291SOL     OW18508   4.621   2.544   6.387  0.0141  0.1809 -0.2690
 2291SOL    HW118509   4.623   2.638   6.371  2.7174  0.0255 -0.8623
 2291SOL    HW218510   4.578   2.503   6.312  0.1085  2.5558 -1.5946
 2292SOL     OW18511   2.559   0.087  12.638 -0.0769 -0.1406 -0.3643
 2292SOL    HW118512   2.484   0.110  12.694  0.0825  1.0634 -0.6505
 2292SOL    HW218513   2.516   0.018  12.588  0.4620 -1.6599  1.2529
 2293SOL     OW18514   2.773   0.832  14.340  0.1628  0.1288  0.8553
 2293SOL    HW118515   2.680   0.810  14.347  0.9724 -2.9993  1.7866
 2293SOL    HW218516   2.804   0.742  14.333 -1.1982 -0.5182  3.4269
 2294SOL     OW18517   4.095   4.500  13.703  0.2681 -0.5017 -0.3739
 2294SOL    HW118518   4.176   4.460  13.672  1.2985 -0.2786  2.0521
 2294SOL    HW218519   4.043   4.422  13.685 -0.1990 -0.6991  1.9209
 2295SOL     OW18520   4.347   1.328   5.489 -0.3194 -0.1943  0.0780
 2295SOL    HW118521   4.357   1.423   5.497 -2.2647 -0.0934  1.2786
 2295SOL    HW218522   4.379   1.314   5.400  0.9086 -0.1802  0.5051
 2296SOL     OW18523   2.962   0.153   6.215 -0.4957  0.4858 -0.1454
 2296SOL    HW118524   2.998   0.165   6.303  0.7380 -1.4332 -0.3909
 2296SOL    HW218525   2.883   0.207   6.219 -0.3450  0.6447  0.8511
 2297SOL     OW18526   2.142   0.188   8.910 -0.1725 -0.1020  0.1287
 2297SOL    HW118527   2.228   0.184   8.869  0.5491  1.1023  1.5253
 2297SOL    HW218528   2.147   0.114   8.970  2.0625 -0.8065 -0.9399
 2298SOL     OW18529   2.933   1.225  16.727 -0.1613 -0.1076  0.1911
 2298SOL    HW118530   3.020   1.227  16.765  0.4729 -0.2317 -1.2681
 2298SOL    HW218531   2.941   1.284  16.652  1.0980 -0.0401  0.3862
 2299SOL     OW18532   4.375   4.309   2.736 -0.3023  0.0670  0.6558
 2299SOL    HW118533   4.430   4.384   2.758  0.1961 -0.1149  0.0481
 2299SOL    HW218534   4.434   4.235   2.753  0.8671  0.7289 -0.4815
 2300SOL     OW18535   4.289   3.003   0.448 -0.0771  0.3112  0.0332
 2300SOL    HW118536   4.209   2.995   0.499  0.6657 -0.0359  1.1555
 2300SOL    HW218537   4.303   2.914   0.416  1.1100  0.3033  0.5554
 2301SOL     OW18538   0.783   3.347   3.997  0.3451 -0.0241 -0.9939
 2301SOL    HW118539   0.728   3.348   3.919 -1.1181  0.3721  0.0549
 2301SOL    HW218540   0.820   3.259   3.996  0.1692 -0.0843 -1.9548
 2302SOL     OW18541   4.043   1.109  15.478 -0.1529 -0.1932 -0.2271
 2302SOL    HW118542   4.121   1.107  15.534 -0.5582  1.7913  0.4013
 2302SOL    HW218543   3.980   1.141  15.542 -1.0610  0.9005 -1.6629
 2303SOL     OW18544   4.095   0.507  14.993  0.2613 -0.0733  0.0252
 2303SOL    HW118545   4.169   0.494  15.052 -0.9149 -0.1135  1.4864
 2303SOL    HW218546   4.029   0.487  15.060  0.5104 -1.5255 -0.1629
 2304SOL     OW18547   4.522   1.394   3.868 -0.1932 -1.1140 -0.5633
 2304SOL    HW118548   4.595   1.334   3.850 -0.0859 -1.1215 -0.0882
 2304SOL    HW218549   4.522   1.383   3.963 -0.3743  0.9064 -0.3334
 2305SOL     OW18550   1.293   0.540   3.489  0.4693  0.4704  0.6448
 2305SOL    HW118551   1.336   0.543   3.403  0.9335 -0.0594  0.8637
 2305SOL    HW218552   1.206   0.502   3.475 -0.7598  2.9814  1.3877
 2306SOL     OW18553   0.138   1.163  17.239  0.1210 -0.6036  0.4165
 2306SOL    HW118554   0.182   1.218  17.174 -1.0805 -1.6466 -1.2676
 2306SOL    HW218555   0.206   1.156  17.306  1.1048  0.2944 -0.4846
 2307SOL     OW18556   2.082   0.140  17.417 -0.3240  0.2260 -0.8587
 2307SOL    HW118557   2.108   0.118  17.506 -0.6886 -2.2100 -1.3385
 2307SOL    HW218558   2.017   0.072  17.398 -0.5263 -0.0265  0.7731
 2308SOL     OW18559   0.152   2.022   3.140 -0.3047 -0.4762 -0.5319
 2308SOL    HW118560   0.149   2.033   3.235 -1.6018 -1.3486 -0.4701
 2308SOL    HW218561   0.061   2.001   3.122 -0.1229 -2.5524  0.9588
 2309SOL     OW18562   1.080   1.058   4.308  0.1713 -0.4044  0.0922
 2309SOL    HW118563   1.026   1.126   4.266 -2.0320 -2.4796 -0.4187
 2309SOL    HW218564   1.020   1.001   4.356  0.6470 -1.2210 -0.2870
 2310SOL     OW18565   1.786   3.246   2.150  0.0601 -0.0324  0.2229
 2310SOL    HW118566   1.857   3.306   2.127 -2.8181  2.5895 -1.6441
 2310SOL    HW218567   1.814   3.244   2.242 -2.2127  0.6219  0.9083
 2311SOL     OW18568   1.153   4.441   4.680  0.4604  0.4249  0.1550
 2311SOL    HW118569   1.142   4.450   4.585  2.8187 -0.9652 -0.2375
 2311SOL    HW218570   1.138   4.530   4.710  1.0537  1.3897 -2.4270
 2312SOL     OW18571   4.010   2.941   4.267  0.1197  0.3084 -0.4375
 2312SOL    HW118572   3.954   3.014   4.240  0.8686  0.5195 -1.3767
 2312SOL    HW218573   4.069   2.939   4.192  0.6116 -1.2344 -0.0185
 2313SOL     OW18574   2.102   3.323   6.200  0.5483 -0.8539  0.2363
 2313SOL    HW118575   2.163   3.250   6.187  0.9112 -0.8580  1.9262
 2313SOL    HW218576   2.062   3.341   6.115  1.8421  0.8910 -0.0173
 2314SOL     OW18577   3.240   2.110  10.169  0.6879  0.2727 -0.3808
 2314SOL    HW118578   3.304   2.130  10.236  0.3688  0.3794 -0.1099
 2314SOL    HW218579   3.296   2.067  10.103  0.5110  0.5134 -0.6874
 2315SOL     OW18580   2.804   4.237   8.693  0.3949  0.2467  0.4017
 2315SOL    HW118581   2.850   4.283   8.764 -0.8703  0.4003  1.1125
 2315SOL    HW218582   2.817   4.150   8.732  0.6384 -0.1849 -0.6380
 2316SOL     OW18583   4.046   4.070  16.217  0.0741  0.3256 -0.0563
 2316SOL    HW118584   4.008   4.011  16.152  1.6714  1.1287 -1.7384
 2316SOL    HW218585   3.985   4.142  16.201  0.1544  1.0076  2.8125
 2317SOL     OW18586   0.492   1.182   9.922  0.3910 -0.5054  0.0658
 2317SOL    HW118587   0.437   1.155   9.996  0.6167  0.4904  0.6016
 2317SOL    HW218588   0.531   1.262   9.959 -2.8426  2.2049 -2.5156
 2318SOL     OW18589   0.076   1.910  16.553 -0.0367  0.5800  0.1278
 2318SOL    HW118590   0.156   1.857  16.559 -0.3284  0.3158  1.5203
 2318SOL    HW218591   0.086   1.961  16.632  0.7839  0.3263  0.1904
 2319SOL     OW18592   1.391   1.294   3.336 -0.4203  0.1538  0.4265
 2319SOL    HW118593   1.468   1.322   3.287  0.0325  0.7761  1.4821
 2319SOL    HW218594   1.359   1.220   3.284  0.6856  1.0309 -1.4972
 2320SOL     OW18595   0.779   2.345  15.433 -0.0554  0.3692 -0.4745
 2320SOL    HW118596   0.866   2.375  15.406 -0.2350 -0.0563 -1.5382
 2320SOL    HW218597   0.764   2.420  15.490  1.1306 -0.4452  0.8853
 2321SOL     OW18598   2.464   4.054   2.739  0.4348 -0.2160 -0.1647
 2321SOL    HW118599   2.461   4.137   2.691 -1.1655 -1.3614 -2.0540
 2321SOL    HW218600   2.430   4.088   2.822  0.1826 -1.3834  0.2161
 2322SOL     OW18601   1.290   3.376   0.438 -0.1232 -0.2197  0.3444
 2322SOL    HW118602   1.302   3.451   0.379 -1.7849  0.2368  0.5900
 2322SOL    HW218603   1.226   3.411   0.499  1.3511  1.1277  1.1400
 2323SOL     OW18604   3.468   0.944   7.865  0.3694 -0.3805 -0.6061
 2323SOL    HW118605   3.414   1.021   7.883  0.2685 -0.3901 -0.8598
 2323SOL    HW218606   3.556   0.963   7.898 -0.5688  0.3649  1.4423
 2324SOL     OW18607   3.534   0.902  12.227 -0.1376 -0.2369 -0.1755
 2324SOL    HW118608   3.610   0.866  12.180  1.5917  2.3284  0.6381
 2324SOL    HW218609   3.518   0.840  12.298  0.4022 -0.3214 -0.1257
 2325SOL     OW18610   4.345   0.055  16.154  0.5223  0.1409 -0.7224
 2325SOL    HW118611   4.276   0.017  16.208  1.7502 -0.5480  0.3701
 2325SOL    HW218612   4.408   4.721  16.141  1.8635  1.8550 -3.6383
 2326SOL     OW18613   2.463   0.202   2.819 -0.3762 -0.5473 -0.2615
 2326SOL    HW118614   2.459   0.112   2.854  0.3132 -0.8955 -1.0816
 2326SOL    HW218615   2.553   0.227   2.839 -0.9139  0.3298  1.0411
 2327SOL     OW18616   1.258   2.120   0.378  0.5952 -0.2038 -0.2854
 2327SOL    HW118617   1.198   2.106   0.452  0.9479 -0.1996 -0.0031
 2327SOL    HW218618   1.203   2.153   0.307 -0.0391 -2.4099 -0.8282
 2328SOL     OW18619   0.712   1.555   7.514 -0.5635 -0.1149  0.0479
 2328SOL    HW118620   0.715   1.616   7.441  1.8259  0.8009  0.9313
 2328SOL    HW218621   0.624   1.568   7.550 -1.1003 -0.3563 -1.1873
 2329SOL     OW18622   0.897   0.421  11.527 -0.4219 -0.1064  0.2366
 2329SOL    HW118623   0.917   0.514  11.526 -0.4470 -0.1066 -0.2621
 2329SOL    HW218624   0.838   0.404  11.453 -2.2163  3.7847  0.7761
 2330SOL     OW18625   2.740   3.314  17.569 -0.1617 -0.0018  0.2567
 2330SOL    HW118626   2.662   3.319  17.625 -0.3813 -1.1265  0.0613
 2330SOL    HW218627   2.805   3.363  17.619 -0.3969  1.3571 -0.7918
 2331SOL     OW18628   2.149   4.140  12.980  0.2638 -0.1528  0.1644
 2331SOL    HW118629   2.085   4.069  12.981 -2.1929  2.0069 -2.8796
 2331SOL    HW218630   2.228   4.089  12.965 -0.5137 -0.8856 -1.4243
 2332SOL     OW18631   3.815   2.403   0.158 -0.0191  0.2368 -0.1573
 2332SOL    HW118632   3.831   2.391   0.064  1.2896 -1.0917  0.2411
 2332SOL    HW218633   3.720   2.408   0.149 -0.1773 -2.4925  0.1754
 2333SOL     OW18634   4.477   4.499   4.919 -0.1328  0.9897 -0.2532
 2333SOL    HW118635   4.552   4.552   4.892  0.0636  0.5412 -0.5827
 2333SOL    HW218636   4.523   4.430   4.966  0.7128  1.6694 -0.0850
 2334SOL     OW18637   3.787   3.661   7.493 -0.1193  0.1190  0.0331
 2334SOL    HW118638   3.714   3.693   7.439 -1.1347 -1.5413  0.4497
 2334SOL    HW218639   3.853   3.651   7.424 -1.2112 -1.8251 -0.7146
 2335SOL     OW18640   4.470   4.133   9.538  0.2833  0.6136  0.0332
 2335SOL    HW118641   4.510   4.131   9.451 -1.0717  2.4919 -0.6235
 2335SOL    HW218642   4.452   4.041   9.555 -1.2848  1.5279  3.3109
 2336SOL     OW18643   1.003   3.784   3.542  0.0853  0.1019  0.0040
 2336SOL    HW118644   0.954   3.839   3.481  1.5201 -0.2401 -1.4650
 2336SOL    HW218645   0.957   3.805   3.623  0.6073  0.3644  0.2345
 2337SOL     OW18646   1.250   3.051   1.581 -0.0930 -0.7396  0.0626
 2337SOL    HW118647   1.240   2.998   1.502 -0.8323  0.8988 -0.9615
 2337SOL    HW218648   1.321   3.000   1.620  0.5515  0.6951  0.7714
 2338SOL     OW18649   0.352   2.540  14.926 -0.1083 -0.2253  0.0428
 2338SOL    HW118650   0.429   2.554  14.981 -0.5664  0.9476  0.3903
 2338SOL    HW218651   0.282   2.573  14.984 -0.1288 -1.6727  0.8500
 2339SOL     OW18652   1.730   2.964   2.820  0.2775 -0.1868 -0.0242
 2339SOL    HW118653   1.776   3.048   2.830  0.2045 -0.1677  0.1541
 2339SOL    HW218654   1.664   2.989   2.755 -0.3805  1.0503  1.1165
 2340SOL     OW18655   1.740   3.692   6.813 -0.3866  0.1747 -0.0243
 2340SOL    HW118656   1.796   3.749   6.760  0.2887  0.4104  0.9481
 2340SOL    HW218657   1.797   3.618   6.834 -0.5036 -0.4603 -1.9458
 2341SOL     OW18658   3.580   2.842   3.209  0.1285  0.2371 -0.0254
 2341SOL    HW118659   3.541   2.886   3.285  0.4016 -1.3254  1.0265
 2341SOL    HW218660   3.534   2.760   3.222  0.5120 -0.2352 -1.6420
 2342SOL     OW18661   2.508   2.570   2.275 -0.5424 -0.1715 -0.0021
 2342SOL    HW118662   2.437   2.507   2.288 -2.1346  1.2415 -1.7432
 2342SOL    HW218663   2.580   2.520   2.312 -0.7171 -0.4971 -0.1006
 2343SOL     OW18664   1.418   3.685   1.673  0.1169  0.0098 -0.7125
 2343SOL    HW118665   1.396   3.672   1.766 -1.4760  0.4712 -1.0292
 2343SOL    HW218666   1.447   3.597   1.649  0.8532 -0.0298  0.3340
 2344SOL     OW18667   4.652   0.206   5.487  0.2010 -0.6813 -0.1389
 2344SOL    HW118668   4.643   0.201   5.392  0.1640  0.2713 -0.1874
 2344SOL    HW218669   4.688   0.295   5.483 -3.0629  0.6817  0.9455
 2345SOL     OW18670   3.758   3.194   6.301 -0.0456  0.0269 -0.2615
 2345SOL    HW118671   3.804   3.239   6.372  0.9099  0.5164 -1.1919
 2345SOL    HW218672   3.689   3.257   6.279 -0.7579 -1.0774 -1.1647
 2346SOL     OW18673   0.675   4.372  11.248 -0.3965  0.2535  0.1854
 2346SOL    HW118674   0.713   4.369  11.336 -3.2996  0.2211  1.4592
 2346SOL    HW218675   0.586   4.341  11.268 -0.6994  0.0745 -1.4848
 2347SOL     OW18676   4.389   0.508   7.924 -0.0075 -0.1663  0.2835
 2347SOL    HW118677   4.468   0.472   7.963 -0.3811 -1.2388  0.0578
 2347SOL    HW218678   4.407   0.516   7.830  1.1033 -0.1323  0.5022
 2348SOL     OW18679   2.735   3.706   6.485  0.2095  0.8073 -0.4193
 2348SOL    HW118680   2.707   3.615   6.474  0.5915  0.7827 -1.1978
 2348SOL    HW218681   2.758   3.745   6.401 -0.1155  1.4366 -0.2180
 2349SOL     OW18682   2.395   3.456   6.941 -0.0007  0.4184 -0.5655
 2349SOL    HW118683   2.465   3.519   6.956 -0.5731  0.7378  0.7757
 2349SOL    HW218684   2.425   3.406   6.865  0.1251 -1.2572  0.5896
 2350SOL     OW18685   1.338   0.348   8.280 -0.2181 -0.3987  0.2953
 2350SOL    HW118686   1.396   0.279   8.245  2.7141  1.6580  1.1166
 2350SOL    HW218687   1.285   0.354   8.200  2.1333 -1.6881 -1.3811
 2351SOL     OW18688   2.611   2.898   8.711 -0.1352  0.1316 -0.0157
 2351SOL    HW118689   2.683   2.862   8.763 -1.9477  1.4388  3.3506
 2351SOL    HW218690   2.652   2.916   8.626  0.0738  2.7784  0.6439
 2352SOL     OW18691   1.156   3.189   5.680 -0.0856  0.7642 -0.2498
 2352SOL    HW118692   1.151   3.283   5.696  2.2471  0.7525  0.6631
 2352SOL    HW218693   1.192   3.152   5.761  0.9548  0.1233 -0.9899
 2353SOL     OW18694   1.689   2.599   6.285  0.3677  0.2671  0.3772
 2353SOL    HW118695   1.719   2.690   6.281  1.1085 -0.0066 -0.2972
 2353SOL    HW218696   1.612   2.610   6.228  1.8533  0.4165 -1.6211
 2354SOL     OW18697   4.059   0.608   3.384  0.0388  0.3845  0.0678
 2354SOL    HW118698   4.012   0.570   3.458  0.8220 -1.6603 -0.4622
 2354SOL    HW218699   4.054   0.700   3.408  0.3808  0.5218 -0.3941
 2355SOL     OW18700   3.861   3.228   8.224  0.7998 -0.3005  0.3130
 2355SOL    HW118701   3.841   3.321   8.229  1.3506 -0.0758 -1.6237
 2355SOL    HW218702   3.875   3.204   8.315 -0.9526 -0.2679  0.5722
 2356SOL     OW18703   4.063   0.359   4.820 -0.2274 -0.0109  0.0007
 2356SOL    HW118704   4.047   0.367   4.914 -0.9433  1.0560 -0.2178
 2356SOL    HW218705   4.047   0.265   4.806  1.6093 -0.2588 -0.4166
 2357SOL     OW18706   4.543   1.517   5.965  0.0259 -0.2616 -0.1748
 2357SOL    HW118707   4.558   1.476   5.880 -0.5944 -0.9887  0.0719
 2357SOL    HW218708   4.448   1.518   5.978 -0.2521  1.1230 -2.2291
 2358SOL     OW18709   0.801   4.091   9.274 -0.7295  0.1935  0.2569
 2358SOL    HW118710   0.836   4.133   9.195 -2.3390 -2.5185 -1.9187
 2358SOL    HW218711   0.855   4.012   9.281  0.0446  0.6751 -0.2583
 2359SOL     OW18712   1.794   4.103   2.193 -0.5496  0.2024  0.5806
 2359SOL    HW118713   1.724   4.168   2.186 -0.5675  0.0134 -1.0124
 2359SOL    HW218714   1.787   4.063   2.107  1.7491 -0.0923  0.5254
 2360SOL     OW18715   3.033   2.402   3.754 -0.1380  0.5749 -0.2109
 2360SOL    HW118716   3.110   2.412   3.810  0.5468 -0.0830 -1.0290
 2360SOL    HW218717   3.082   2.414   3.673  1.6069  3.3787  1.2473
 2361SOL     OW18718   2.840   2.620   5.939 -0.0251  0.0335 -0.0506
 2361SOL    HW118719   2.745   2.609   5.931  0.3838 -3.5704 -0.1924
 2361SOL    HW218720   2.840   2.684   6.010 -2.8738  0.2588 -0.2301
 2362SOL     OW18721   2.178   4.016  16.235 -0.0915 -0.2582 -0.1842
 2362SOL    HW118722   2.221   3.933  16.214  0.6392 -0.1755  1.0036
 2362SOL    HW218723   2.247   4.082  16.229 -1.2561  0.8399 -1.3549
 2363SOL     OW18724   1.587   2.977   6.333 -0.1134  0.3637  0.9211
 2363SOL    HW118725   1.661   2.940   6.284 -0.3727  1.2717 -0.1616
 2363SOL    HW218726   1.564   3.049   6.274  1.6438 -0.1136 -0.3674
 2364SOL     OW18727   1.655   1.915   0.133  0.1203 -0.0438  0.1443
 2364SOL    HW118728   1.750   1.917   0.119 -0.0550  1.1213 -0.8825
 2364SOL    HW218729   1.646   1.825   0.164 -0.1030 -0.0020  0.1989
 2365SOL     OW18730   3.933   2.694   7.351 -0.0588  0.1626 -0.5043
 2365SOL    HW118731   3.987   2.617   7.328 -2.2526 -0.6123 -3.0390
 2365SOL    HW218732   3.944   2.702   7.446  0.6386  2.2033 -0.7620
 2366SOL     OW18733   2.400   0.693   5.112 -0.0846 -0.0107 -0.4479
 2366SOL    HW118734   2.451   0.634   5.057  2.4857  1.6224  0.2208
 2366SOL    HW218735   2.428   0.690   5.203  0.3896  2.1989 -0.5062
 2367SOL     OW18736   0.355   1.860   5.586  0.1738  0.7693 -0.1010
 2367SOL    HW118737   0.336   1.942   5.631  0.0789  0.8162 -0.2275
 2367SOL    HW218738   0.386   1.904   5.506 -1.0281 -0.9008 -1.5041
 2368SOL     OW18739   3.286   2.091   3.295 -0.5426 -0.1737 -0.4023
 2368SOL    HW118740   3.203   2.104   3.341 -0.6963 -0.2731 -0.6472
 2368SOL    HW218741   3.280   2.162   3.231  2.5009 -0.1970 -0.7087
 2369SOL     OW18742   4.090   2.305  16.066 -0.5415 -0.4637  0.8591
 2369SOL    HW118743   4.109   2.388  16.024  1.4143 -0.5706  1.5469
 2369SOL    HW218744   4.180   2.280  16.087  0.0108 -1.1782 -2.4147
 2370SOL     OW18745   3.862   4.542   3.640  0.2444 -0.2858 -0.5235
 2370SOL    HW118746   3.882   4.506   3.727 -0.1526  0.6779 -0.0228
 2370SOL    HW218747   3.832   4.461   3.599 -0.0297  0.0719 -1.0337
 2371SOL     OW18748   4.053   3.916   4.809 -0.1824 -0.5508 -0.0750
 2371SOL    HW118749   3.996   3.845   4.780  0.5319 -1.6582  1.2203
 2371SOL    HW218750   4.110   3.874   4.873  1.4048 -0.3156 -1.3084
 2372SOL     OW18751   3.053   4.172   6.463  0.5159 -0.0360 -0.2687
 2372SOL    HW118752   3.089   4.138   6.381  0.2215 -2.0295  0.4273
 2372SOL    HW218753   3.074   4.096   6.518  1.6925  1.2176  1.0087
 2373SOL     OW18754   0.647   3.480  17.160  0.1480 -0.4552 -0.2493
 2373SOL    HW118755   0.597   3.561  17.165  0.9194  0.0918 -1.4658
 2373SOL    HW218756   0.729   3.515  17.127 -0.1736  0.2827 -0.2539
 2374SOL     OW18757   0.273   3.489  13.373 -0.2088  0.2301  0.6716
 2374SOL    HW118758   0.184   3.514  13.349  0.2584 -0.5560 -1.8882
 2374SOL    HW218759   0.285   3.555  13.441 -2.8341 -0.3432  1.7148
 2375SOL     OW18760   0.343   1.984   7.737  0.2076  0.3191 -0.5612
 2375SOL    HW118761   0.390   1.914   7.691  0.2334 -0.3106  0.4123
 2375SOL    HW218762   0.391   1.991   7.819 -1.2669 -1.7316  0.4931
 2376SOL     OW18763   0.686   1.484   9.295  0.1491  0.2819  0.1749
 2376SOL    HW118764   0.672   1.552   9.230 -0.4554 -0.5208 -0.5397
 2376SOL    HW218765   0.759   1.522   9.344 -0.3380  0.5255  0.7090
 2377SOL     OW18766   0.546   0.024   8.531 -0.4488  0.3025 -0.0332
 2377SOL    HW118767   0.480   4.733   8.594  1.1712 -0.4719  1.2968
 2377SOL    HW218768   0.533   0.119   8.523 -2.7855 -0.0720 -0.6619
 2378SOL     OW18769   3.983   2.962   2.302 -0.1585 -0.5391 -0.1495
 2378SOL    HW118770   3.899   2.943   2.342  0.0629 -3.1875 -0.9307
 2378SOL    HW218771   4.032   2.990   2.379  0.5631 -2.1957 -0.0064
 2379SOL     OW18772   4.460   3.983   7.883 -0.5276 -0.3018  0.2189
 2379SOL    HW118773   4.515   3.911   7.852 -2.2728 -2.4653  2.1405
 2379SOL    HW218774   4.407   4.001   7.806 -0.3874  1.5458  0.5315
 2380SOL     OW18775   0.099   2.219   4.196 -0.6069 -0.5074 -0.4996
 2380SOL    HW118776   0.050   2.138   4.181 -0.9007 -0.1965 -1.2123
 2380SOL    HW218777   0.135   2.205   4.283 -1.1504  0.1835 -0.1633
 2381SOL     OW18778   0.969   0.897  10.262 -0.7723  0.1145  0.5153
 2381SOL    HW118779   0.956   0.830  10.195  0.8484 -0.0618  0.3834
 2381SOL    HW218780   0.976   0.836  10.335  3.3284  1.0384  0.9326
 2382SOL     OW18781   3.327   2.489   2.358  0.0436 -0.2272 -0.2979
 2382SOL    HW118782   3.390   2.538   2.305 -2.0153  2.1085 -0.6024
 2382SOL    HW218783   3.257   2.552   2.373  1.5509  0.9312  1.8830
 2383SOL     OW18784   0.975   0.323   3.163  0.5603 -0.2065  0.7280
 2383SOL    HW118785   0.910   0.331   3.233  1.7840  2.2797  1.6060
 2383SOL    HW218786   0.921   0.294   3.090 -0.5829  1.1509  1.0198
 2384SOL     OW18787   1.084   1.151  14.778 -0.1791 -0.7052  0.1153
 2384SOL    HW118788   1.080   1.177  14.870 -1.4022  1.4241 -0.5495
 2384SOL    HW218789   1.033   1.070  14.772 -0.6275 -0.4358  0.3642
 2385SOL     OW18790   0.030   2.995  17.326 -0.0357  0.8506 -0.1082
 2385SOL    HW118791   0.001   2.979  17.236 -2.3922  1.4275  0.5424
 2385SOL    HW218792   0.124   3.001  17.308  0.3281  1.4700  2.0050
 2386SOL     OW18793   3.146   0.824  16.505 -0.8555  0.5061 -0.0456
 2386SOL    HW118794   3.145   0.850  16.413  0.4787 -3.0396 -1.0551
 2386SOL    HW218795   3.076   0.874  16.547 -0.4960 -0.2495  1.4694
 2387SOL     OW18796   0.667   1.858   4.973 -0.4801  0.9204 -0.5760
 2387SOL    HW118797   0.735   1.912   4.933  0.2037  1.4760  1.3414
 2387SOL    HW218798   0.587   1.891   4.932  0.8714  1.7513 -2.5641
 2388SOL     OW18799   2.137   4.131   6.934  0.4935  0.1400 -0.5318
 2388SOL    HW118800   2.099   4.204   6.884 -1.2051  0.6703  1.5476
 2388SOL    HW218801   2.204   4.108   6.869 -0.9753 -2.1930 -1.2629
 2389SOL     OW18802   3.300   3.183   4.577  0.2748 -0.0948  0.2864
 2389SOL    HW118803   3.280   3.182   4.483  0.3105 -1.1535  0.2919
 2389SOL    HW218804   3.214   3.173   4.619  0.1395 -5.4219 -1.2520
 2390SOL     OW18805   3.601   4.008   5.645 -0.3061 -0.2966  0.0532
 2390SOL    HW118806   3.512   3.971   5.640 -0.4229  0.0805 -0.6100
 2390SOL    HW218807   3.630   3.958   5.722  1.1797  2.8145  1.5396
 2391SOL     OW18808   1.864   1.705   3.074  0.1299  0.0011  0.5741
 2391SOL    HW118809   1.772   1.726   3.082  0.1909  0.0525  1.1748
 2391SOL    HW218810   1.860   1.612   3.053  0.1027  0.5169 -1.7338
 2392SOL     OW18811   3.303   1.578   7.611  0.0340  0.2862  0.3756
 2392SOL    HW118812   3.270   1.576   7.701  0.9063 -0.8592  0.6825
 2392SOL    HW218813   3.228   1.531   7.573 -2.3008  4.2223  0.1722
 2393SOL     OW18814   3.373   0.607  11.998 -0.1920  0.3125 -0.4748
 2393SOL    HW118815   3.309   0.628  11.930  1.6679  3.1466 -1.3257
 2393SOL    HW218816   3.332   0.524  12.024  1.3793 -0.0122  0.9191
 2394SOL     OW18817   1.178   3.066  13.831 -0.5983  0.0559 -0.1608
 2394SOL    HW118818   1.182   3.121  13.909 -1.2329 -1.8373  1.1892
 2394SOL    HW218819   1.211   2.980  13.857  2.4111  0.7725 -1.5231
 2395SOL     OW18820   3.676   2.775   8.034 -0.0160  0.1545 -0.5896
 2395SOL    HW118821   3.655   2.771   8.127 -1.0577 -1.7132 -0.8957
 2395SOL    HW218822   3.689   2.867   8.013  1.3497  0.3877  1.3238
 2396SOL     OW18823   0.579   0.584   4.219 -0.7628 -0.0702  0.0908
 2396SOL    HW118824   0.657   0.639   4.231 -0.4337 -0.5077 -0.0562
 2396SOL    HW218825   0.632   0.508   4.243  1.6084  1.7880  0.7165
 2397SOL     OW18826   1.546   3.047   7.089  0.1593 -0.6380  0.0031
 2397SOL    HW118827   1.591   3.033   7.172  0.1703  1.2196  0.2917
 2397SOL    HW218828   1.580   2.991   7.019 -1.1729 -0.9077 -0.4452
 2398SOL     OW18829   1.460   4.389   8.027  0.6311  0.4090 -0.3403
 2398SOL    HW118830   1.415   4.427   7.952 -0.6365  0.8417  0.6379
 2398SOL    HW218831   1.467   4.299   7.996  2.5516 -0.2264  1.9200
 2399SOL     OW18832   3.390   1.254   4.130  0.1278  0.6712  0.2249
 2399SOL    HW118833   3.336   1.227   4.056 -0.4656 -1.7611  1.5321
 2399SOL    HW218834   3.472   1.284   4.091  1.6657 -1.1512  2.1021
 2400SOL     OW18835   2.635   1.081   2.049 -0.0953 -0.0570 -0.3222
 2400SOL    HW118836   2.710   1.050   1.998  1.9016  1.3935  1.7610
 2400SOL    HW218837   2.670   1.073   2.137 -0.0768  1.4875 -0.1852
 2401SOL     OW18838   2.273   0.382   2.871 -0.3217 -0.2430  0.1369
 2401SOL    HW118839   2.343   0.317   2.877  0.5225  0.7013  0.4330
 2401SOL    HW218840   2.320   0.457   2.907 -0.1731 -0.5814  0.6398
 2402SOL     OW18841   2.745   1.359   3.436  0.0460  0.0801  0.5923
 2402SOL    HW118842   2.781   1.422   3.498  2.5582  0.7913 -1.5934
 2402SOL    HW218843   2.673   1.330   3.492 -0.2335  1.6364  1.0511
 2403SOL     OW18844   2.820   4.618   3.595 -0.4082  0.9256 -0.1280
 2403SOL    HW118845   2.907   4.650   3.568  0.4961  1.0764  3.0312
 2403SOL    HW218846   2.818   4.649   3.685 -2.7654 -0.5501  0.3301
 2404SOL     OW18847   1.607   0.899   1.212  0.3312 -0.0586 -0.0103
 2404SOL    HW118848   1.635   0.971   1.268  0.7368 -0.2754  0.0588
 2404SOL    HW218849   1.550   0.842   1.265 -0.0829  0.5160  0.1666
 2405SOL     OW18850   3.221   1.328   8.155  0.5267 -0.3352  0.1544
 2405SOL    HW118851   3.267   1.276   8.220 -2.4442 -1.2603  1.5244
 2405SOL    HW218852   3.281   1.402   8.148 -0.5148  0.3867 -1.1884
 2406SOL     OW18853   0.800   2.917   3.092 -0.0459  0.0141 -0.1997
 2406SOL    HW118854   0.858   2.965   3.032 -3.1298  0.6455 -2.6913
 2406SOL    HW218855   0.866   2.886   3.154  1.0610  0.2852 -1.2416
 2407SOL     OW18856   3.436   0.150  14.553 -0.3099  0.7467  0.4390
 2407SOL    HW118857   3.387   0.207  14.613 -2.5188 -0.6162 -0.0758
 2407SOL    HW218858   3.494   0.093  14.602  0.4306  1.0738 -0.0641
 2408SOL     OW18859   2.810   4.167   5.413  0.4119  0.3372  0.2378
 2408SOL    HW118860   2.857   4.110   5.351  1.5229  0.4546  0.9723
 2408SOL    HW218861   2.890   4.214   5.436 -0.1712  1.1232  0.6341
 2409SOL     OW18862   1.782   4.426   0.756 -0.0327  0.4655  0.1485
 2409SOL    HW118863   1.840   4.490   0.798 -0.0415  0.4853  0.1310
 2409SOL    HW218864   1.792   4.448   0.663 -0.5936  0.8549  0.1775
 2410SOL     OW18865   1.870   3.495   7.105  0.3169  0.2855  0.3575
 2410SOL    HW118866   1.865   3.466   7.014 -0.3523 -1.6671  1.0229
 2410SOL    HW218867   1.964   3.512   7.114  0.1839  1.1447  0.2073
 2411SOL     OW18868   3.498   1.792   0.833  0.7168  0.1667 -0.5775
 2411SOL    HW118869   3.465   1.746   0.910  0.4237  1.4443  0.0544
 2411SOL    HW218870   3.583   1.749   0.824  0.6317 -0.7544  2.9056
 2412SOL     OW18871   1.969   0.294   7.633  0.1652  0.2260  0.2542
 2412SOL    HW118872   1.979   0.352   7.558 -1.2147  1.5053  1.0666
 2412SOL    HW218873   1.891   0.241   7.616  1.5034 -2.2555  1.7803
 2413SOL     OW18874   3.420   3.334   4.195  0.0528  0.1230  0.2167
 2413SOL    HW118875   3.347   3.395   4.191 -0.5952 -0.8792 -2.7767
 2413SOL    HW218876   3.375   3.257   4.230  0.1329 -0.6327 -1.3542
 2414SOL     OW18877   0.338   3.438   1.322 -0.1441  0.2266 -0.2347
 2414SOL    HW118878   0.403   3.459   1.389 -0.7878  0.6413  0.2526
 2414SOL    HW218879   0.258   3.425   1.372 -2.0375  0.4912 -3.1615
 2415SOL     OW18880   0.382   4.035   4.211 -0.1640  0.0034 -0.1460
 2415SOL    HW118881   0.326   4.111   4.197  0.3002  0.0464 -1.7964
 2415SOL    HW218882   0.364   3.996   4.126 -2.1749 -1.2256  0.8465
 2416SOL     OW18883   2.654   4.208   8.164 -0.1201  0.2508 -0.4944
 2416SOL    HW118884   2.598   4.154   8.221  0.6165  0.4754  0.4320
 2416SOL    HW218885   2.588   4.272   8.138  0.6849  0.9672 -0.7613
 2417SOL     OW18886   1.453   0.131   7.111 -0.0235 -0.0419  0.3511
 2417SOL    HW118887   1.450   0.040   7.082  0.3067 -1.4244  4.5867
 2417SOL    HW218888   1.376   0.164   7.066  0.3030 -0.6427 -0.6392
 2418SOL     OW18889   2.351   2.034  13.732 -0.0986  0.2222 -0.4188
 2418SOL    HW118890   2.433   2.004  13.770 -0.8602 -1.0712  0.2052
 2418SOL    HW218891   2.374   2.123  13.704 -0.4217  0.3662 -0.2295
 2419SOL     OW18892   4.583   0.839   2.029  0.5187 -0.0184  0.6556
 2419SOL    HW118893   4.678   0.828   2.026  0.2046 -2.6064  0.5261
 2419SOL    HW218894   4.557   0.749   2.043  1.6546 -0.2254  1.4231
 2420SOL     OW18895   4.161   0.395   2.055  0.1768 -0.1239 -0.1071
 2420SOL    HW118896   4.118   0.311   2.070 -0.7187  0.4124  0.2898
 2420SOL    HW218897   4.124   0.457   2.118  2.1681  1.3144 -0.3572
 2421SOL     OW18898   0.251   4.103   6.833 -0.8739  0.4723  0.6061
 2421SOL    HW118899   0.277   4.195   6.824  1.0645 -0.1227  0.0395
 2421SOL    HW218900   0.273   4.062   6.749  2.6959  0.7971  1.3651
 2422SOL     OW18901   2.029   3.588   4.341  0.1556 -0.2065  0.2263
 2422SOL    HW118902   2.067   3.500   4.335 -0.0901 -0.2484 -0.7529
 2422SOL    HW218903   2.076   3.623   4.416  1.2105  0.4075 -0.7275
 2423SOL     OW18904   3.022   2.215   7.716  0.0938  0.0064  0.0449
 2423SOL    HW118905   3.022   2.309   7.696  1.2116 -0.3545 -1.6339
 2423SOL    HW218906   2.937   2.178   7.692  1.0094 -1.9260 -0.2132
 2424SOL     OW18907   1.496   3.942  13.012 -0.2910 -0.7845 -0.4898
 2424SOL    HW118908   1.458   3.895  13.087 -3.0086  2.7318  0.3905
 2424SOL    HW218909   1.415   3.967  12.968 -0.6241  0.7010  0.9462
 2425SOL     OW18910   0.125   2.355  17.425  0.1380 -0.0325  0.3565
 2425SOL    HW118911   0.116   2.279  17.367  0.6427 -0.4874  0.8773
 2425SOL    HW218912   0.173   2.308  17.493  2.0640  1.3740 -0.0468
 2426SOL     OW18913   0.060   3.308   5.578 -0.1521 -0.5293  0.5379
 2426SOL    HW118914   4.719   3.363   5.586  1.8251  2.1348  1.6633
 2426SOL    HW218915   0.077   3.284   5.669  2.6711  2.0572  0.6815
 2427SOL     OW18916   2.951   4.025   2.125 -0.9829 -0.1327 -0.1546
 2427SOL    HW118917   2.985   3.949   2.173 -1.2443 -1.2156 -1.6895
 2427SOL    HW218918   2.939   4.089   2.195  0.2541 -0.2771  0.1826
 2428SOL     OW18919   0.462   0.661   4.593 -0.4320  0.3115 -0.1007
 2428SOL    HW118920   0.429   0.576   4.620  1.5735 -0.3536  0.2664
 2428SOL    HW218921   0.525   0.680   4.662 -1.6491 -1.4624  1.4814
 2429SOL     OW18922   2.741   0.391   8.866  0.9645 -0.2495 -0.2570
 2429SOL    HW118923   2.781   0.413   8.782 -1.9566 -0.0847 -1.6040
 2429SOL    HW218924   2.747   0.471   8.919 -2.5426 -0.1305 -0.0350
 2430SOL     OW18925   3.054   3.542   2.006  0.7562 -0.1536 -0.6038
 2430SOL    HW118926   3.135   3.593   2.005  0.2425  0.7151  1.9997
 2430SOL    HW218927   2.989   3.585   2.062 -1.6000 -1.7664 -2.0982
 2431SOL     OW18928   3.041   1.558   4.693  0.4223 -0.0792 -0.5130
 2431SOL    HW118929   3.008   1.473   4.723 -1.5236  1.1211  0.7370
 2431SOL    HW218930   3.002   1.569   4.607  1.3516  1.3113 -0.7589
 2432SOL     OW18931   1.663   1.433   4.315 -0.2719 -0.6122 -0.0518
 2432SOL    HW118932   1.725   1.495   4.277 -0.6104 -0.0302  0.3487
 2432SOL    HW218933   1.686   1.354   4.267  2.7297 -0.3074  0.8947
 2433SOL     OW18934   3.439   2.892   7.770 -0.2763  0.4438  0.1440
 2433SOL    HW118935   3.502   2.964   7.770  1.6556 -1.2726  0.0979
 2433SOL    HW218936   3.366   2.949   7.744  0.0086  0.2524 -1.0602
 2434SOL     OW18937   1.987   3.937   5.284  0.5277  0.3502  0.5107
 2434SOL    HW118938   1.922   3.875   5.250  0.8208  0.6606 -0.6214
 2434SOL    HW218939   2.057   3.881   5.316  0.2744 -0.3843 -0.2002
 2435SOL     OW18940   0.784   3.754   4.105  0.3132 -0.6193  0.3149
 2435SOL    HW118941   0.703   3.720   4.067  0.4142  1.3961 -1.7464
 2435SOL    HW218942   0.791   3.846   4.077  0.2367 -0.6375  0.2366
 2436SOL     OW18943   1.098   2.836   8.822 -0.2594  0.6652 -0.7424
 2436SOL    HW118944   1.193   2.842   8.817  0.0009 -1.2461  2.6074
 2436SOL    HW218945   1.084   2.784   8.743 -0.5630 -0.9255  0.3565
 2437SOL     OW18946   0.550   2.720   7.320  0.1635 -0.3665  0.6691
 2437SOL    HW118947   0.487   2.652   7.343  0.4136 -0.9114 -0.2794
 2437SOL    HW218948   0.572   2.746   7.410 -0.9991  1.6513  0.3623
 2438SOL     OW18949   2.786   1.424   6.166  0.1220 -0.0210 -0.4581
 2438SOL    HW118950   2.694   1.412   6.141  0.0483 -0.3337 -0.0424
 2438SOL    HW218951   2.786   1.516   6.195  0.3436 -0.3843  0.6984
 2439SOL     OW18952   3.168   0.494   1.175  0.3847  0.2533  0.3185
 2439SOL    HW118953   3.216   0.576   1.183  1.1627 -0.1644 -0.0635
 2439SOL    HW218954   3.188   0.465   1.265 -1.3320  1.1988  0.9867
 2440SOL     OW18955   2.790   1.377  16.319  0.8586  0.0795 -0.4850
 2440SOL    HW118956   2.787   1.444  16.387 -0.4702 -1.0419  0.5628
 2440SOL    HW218957   2.768   1.296  16.365 -1.8631  2.9350  3.1776
 2441SOL     OW18958   4.305   0.835   9.366 -0.0138  0.1559  0.3369
 2441SOL    HW118959   4.383   0.780   9.374  0.6031  0.8380 -0.9577
 2441SOL    HW218960   4.236   0.769   9.367  0.5402 -0.4364 -1.7251
 2442SOL     OW18961   2.767   3.357  13.600 -0.1119 -0.4444  0.1781
 2442SOL    HW118962   2.809   3.348  13.685  0.4348 -0.5964 -0.1090
 2442SOL    HW218963   2.686   3.404  13.621 -1.7562 -2.4515 -1.6775
 2443SOL     OW18964   4.317   1.577   0.994 -0.0297 -0.7369  0.2288
 2443SOL    HW118965   4.291   1.486   1.006 -2.7303 -0.0082  0.0009
 2443SOL    HW218966   4.339   1.569   0.901  0.0474 -1.3322  0.3006
 2444SOL     OW18967   2.777   1.310   7.207 -0.0391 -0.2054 -0.4183
 2444SOL    HW118968   2.824   1.393   7.200  1.2932 -1.0490 -1.4331
 2444SOL    HW218969   2.850   1.252   7.227 -1.4331 -1.8728 -0.1026
 2445SOL     OW18970   0.293   0.969   8.358  0.2222 -0.3293  0.0112
 2445SOL    HW118971   0.323   0.879   8.351 -0.1829 -0.5541  1.1034
 2445SOL    HW218972   0.223   0.961   8.293 -0.3690 -1.5791  0.8135
 2446SOL     OW18973   1.570   2.223   7.032 -0.2077 -0.1896  0.4028
 2446SOL    HW118974   1.633   2.251   6.965  1.8935 -1.8510  1.6765
 2446SOL    HW218975   1.494   2.251   6.983  0.9940  0.4402 -1.0960
 2447SOL     OW18976   3.109   3.234   6.916 -0.0632 -0.0236 -0.5229
 2447SOL    HW118977   3.059   3.308   6.949  0.4280 -0.3010  0.8343
 2447SOL    HW218978   3.130   3.194   7.000 -2.4442 -0.6418 -0.2200
 2448SOL     OW18979   4.621   4.083   3.628 -0.3325 -0.0474  0.4444
 2448SOL    HW118980   4.638   4.118   3.716  1.6857  1.1683 -0.4262
 2448SOL    HW218981   4.710   4.061   3.601 -0.7697 -1.5284  0.2247
 2449SOL     OW18982   3.463   0.643   3.273 -0.3727  0.2211  0.2408
 2449SOL    HW118983   3.468   0.551   3.299 -1.2656  0.1220  0.0637
 2449SOL    HW218984   3.407   0.634   3.196  0.0752 -0.2755 -0.0247
 2450SOL     OW18985   1.961   0.620   8.718  0.1824 -1.0579 -0.2697
 2450SOL    HW118986   2.019   0.567   8.664  1.0511  0.1430 -0.5171
 2450SOL    HW218987   1.980   0.588   8.806  0.2387  1.7592  0.7627
 2451SOL     OW18988   3.119   1.693   4.126  0.6356  0.3577 -0.5942
 2451SOL    HW118989   3.118   1.682   4.221  0.4370  3.9395 -0.1922
 2451SOL    HW218990   3.171   1.620   4.092  0.0969 -0.3170  0.0414
 2452SOL     OW18991   2.113   1.865   5.639 -0.4817  0.0179  0.4604
 2452SOL    HW118992   2.080   1.908   5.718 -0.5846 -2.8719  2.0055
 2452SOL    HW218993   2.141   1.944   5.594 -2.3276  2.1667  3.1034
 2453SOL     OW18994   4.715   0.518   3.544 -0.0633 -0.5554 -0.4699
 2453SOL    HW118995   4.655   0.506   3.470 -1.2720 -0.4439  0.4845
 2453SOL    HW218996   4.701   0.438   3.595 -0.4072 -0.5498 -0.5588
 2454SOL     OW18997   0.459   3.251  13.293  0.4440  0.3954 -0.1814
 2454SOL    HW118998   0.425   3.227  13.207  0.9154 -2.2912  0.3807
 2454SOL    HW218999   0.419   3.337  13.305 -2.7583 -1.0773 -0.3088
 2455SOL     OW19000   2.940   1.616   1.715  0.6850 -0.3591 -0.3425
 2455SOL    HW119001   2.928   1.627   1.620 -0.2895  1.0052 -0.0542
 2455SOL    HW219002   2.853   1.581   1.735  0.5824 -0.6302 -1.2535
 2456SOL     OW19003   0.724   1.091   8.851 -0.4454 -0.1467  0.5956
 2456SOL    HW119004   0.817   1.110   8.840 -0.6407 -0.5416 -1.7481
 2456SOL    HW219005   0.715   1.096   8.947  1.2600 -3.0190  0.9092
 2457SOL     OW19006   3.575   4.343   3.960 -0.3551  0.0465  0.1744
 2457SOL    HW119007   3.553   4.266   4.013  1.4918 -0.8635 -0.4086
 2457SOL    HW219008   3.530   4.417   4.002  0.5844  2.2642 -2.7612
 2458SOL     OW19009   0.309   3.479   6.670  0.1810  0.1455 -0.7819
 2458SOL    HW119010   0.298   3.523   6.585  1.1916  2.1391  0.1404
 2458SOL    HW219011   0.381   3.428   6.633 -0.2516  0.7106 -2.3994
 2459SOL     OW19012   4.272   3.292   1.791 -0.5234 -0.4939 -0.4454
 2459SOL    HW119013   4.344   3.236   1.818 -0.9603 -0.1478  1.4699
 2459SOL    HW219014   4.274   3.357   1.862  1.0596 -0.2304 -0.7338
 2460SOL     OW19015   0.533   3.465   6.177 -0.0130 -0.3409  0.0732
 2460SOL    HW119016   0.620   3.429   6.160  0.7577  1.3989  0.3883
 2460SOL    HW219017   0.493   3.470   6.090 -0.2444 -0.4439  0.1761
 2461SOL     OW19018   3.208   2.015   4.155 -0.4903 -0.0441 -0.6544
 2461SOL    HW119019   3.158   1.934   4.157  0.1854 -0.4538 -0.1944
 2461SOL    HW219020   3.146   2.071   4.108 -1.1628 -1.7421 -1.7635
 2462SOL     OW19021   2.995   4.491   3.150 -0.1259 -0.6456  0.1842
 2462SOL    HW119022   3.082   4.518   3.182 -0.4910 -1.4753  1.8975
 2462SOL    HW219023   2.983   4.419   3.213 -0.4837 -0.5580  0.2146
 2463SOL     OW19024   3.873   0.776   8.624  0.5109 -0.8012  0.1174
 2463SOL    HW119025   3.932   0.701   8.619  0.4807 -0.8171 -0.0246
 2463SOL    HW219026   3.826   0.774   8.540  2.8926 -0.0023 -1.2633
 2464SOL     OW19027   3.860   4.351   6.838 -0.0493  0.0203 -0.0382
 2464SOL    HW119028   3.863   4.446   6.847 -0.6546  0.0391  0.0070
 2464SOL    HW219029   3.940   4.336   6.789 -0.2791  0.6808 -0.6167
 2465SOL     OW19030   2.088   3.135   2.641 -0.4189 -0.1179 -0.0478
 2465SOL    HW119031   2.008   3.143   2.693  0.3986 -0.4764  1.2555
 2465SOL    HW219032   2.158   3.123   2.706 -1.5701 -2.1285  0.8244
 2466SOL     OW19033   3.235   1.884  14.054 -0.2707 -0.0362 -0.0338
 2466SOL    HW119034   3.237   1.795  14.090 -0.1526 -0.5645 -1.3385
 2466SOL    HW219035   3.152   1.916  14.091 -0.7461  0.6275 -1.6589
 2467SOL     OW19036   1.750   1.997   6.949 -0.1080 -0.0115 -0.0724
 2467SOL    HW119037   1.729   2.035   7.034 -0.4393  0.1675 -0.2363
 2467SOL    HW219038   1.759   1.906   6.980 -0.2966  0.5079  1.5381
 2468SOL     OW19039   4.585   3.462   4.818  0.2416  0.3702  0.3339
 2468SOL    HW119040   4.640   3.521   4.870 -0.4562 -1.0356  2.6877
 2468SOL    HW219041   4.570   3.396   4.886 -1.1734 -0.0153 -0.3608
 2469SOL     OW19042   3.894   3.444   7.677  0.4099 -0.0046 -0.7820
 2469SOL    HW119043   3.855   3.504   7.741 -0.4338 -0.8152 -0.5362
 2469SOL    HW219044   3.863   3.489   7.598 -5.0446 -2.1296  0.0875
 2470SOL     OW19045   0.024   3.007   5.685 -0.6379 -0.4135 -0.2873
 2470SOL    HW119046   0.069   2.937   5.733 -0.5056 -0.3209 -0.2772
 2470SOL    HW219047   0.045   3.087   5.732  1.9654 -1.2840  0.0439
 2471SOL     OW19048   0.568   3.714  17.575  0.4196 -0.0938  0.5979
 2471SOL    HW119049   0.479   3.748  17.584  0.1671 -0.4009 -0.7020
 2471SOL    HW219050   0.626   3.790  17.577  0.3780 -0.0584  0.4177
 2472SOL     OW19051   1.984   3.591  10.405  0.0435  0.5379 -0.1251
 2472SOL    HW119052   2.029   3.571  10.487  0.1304 -2.9828 -1.0348
 2472SOL    HW219053   2.055   3.600  10.341  1.0039  3.6637  1.3850
 2473SOL     OW19054   1.887   0.905   4.387 -0.1788  0.1697 -0.6006
 2473SOL    HW119055   1.794   0.913   4.366 -0.4866 -0.7540  0.4354
 2473SOL    HW219056   1.902   0.982   4.441 -1.9730 -0.4444  0.7696
 2474SOL     OW19057   3.219   0.502   2.813 -0.5144  0.2184  0.8888
 2474SOL    HW119058   3.144   0.443   2.810  0.6803 -1.2295 -0.7258
 2474SOL    HW219059   3.233   0.527   2.722 -1.2619  1.4428  1.1098
 2475SOL     OW19060   3.142   4.224  14.165  0.0192 -0.0433  0.4156
 2475SOL    HW119061   3.084   4.154  14.139  1.0915 -1.4671  1.8639
 2475SOL    HW219062   3.115   4.216  14.256 -0.6740  0.5131  0.2536
 2476SOL     OW19063   3.993   0.463   7.567  0.1023  0.2526  0.0138
 2476SOL    HW119064   4.046   0.384   7.561 -0.4235 -0.0424 -0.6981
 2476SOL    HW219065   4.056   0.522   7.525  0.2092 -0.2821 -0.5633
 2477SOL     OW19066   1.478   1.333  15.285  0.0360  0.2390  0.6760
 2477SOL    HW119067   1.414   1.346  15.215  0.8363  0.1678 -0.0715
 2477SOL    HW219068   1.466   1.240  15.303  0.1594 -0.1266 -1.1341
 2478SOL     OW19069   0.015   3.294   7.135  0.0876  0.4174  0.2500
 2478SOL    HW119070   4.694   3.338   7.197  2.8327  0.4693  2.8076
 2478SOL    HW219071   0.041   3.367   7.078  1.4880 -0.1170  0.2133
 2479SOL     OW19072   3.812   4.599  15.799  0.1921  0.5557 -0.0267
 2479SOL    HW119073   3.731   4.619  15.752  0.0412 -0.0749 -0.0340
 2479SOL    HW219074   3.778   4.580  15.887 -0.3831 -0.7625 -0.5295
 2480SOL     OW19075   4.241   3.787   4.978  0.2706  0.7261  0.6291
 2480SOL    HW119076   4.260   3.773   5.071  2.1105  1.0531  0.3067
 2480SOL    HW219077   4.326   3.801   4.938 -0.5521  0.7922 -1.0833
 2481SOL     OW19078   0.157   1.415   5.172 -0.2299 -0.0871  0.2965
 2481SOL    HW119079   0.253   1.424   5.176 -0.5833  3.0079  2.1154
 2481SOL    HW219080   0.134   1.459   5.254  0.4115 -0.9335  0.9333
 2482SOL     OW19081   1.123   3.404   2.434 -0.3644  0.2178  0.0970
 2482SOL    HW119082   1.118   3.356   2.352  0.4152 -0.7609  0.6308
 2482SOL    HW219083   1.060   3.473   2.411 -0.2404 -0.5498 -2.5389
 2483SOL     OW19084   4.354   2.203   2.565  0.7653  0.0623 -0.4548
 2483SOL    HW119085   4.274   2.161   2.596 -0.8202  3.4181 -0.0284
 2483SOL    HW219086   4.389   2.139   2.503  0.4483  0.2799 -0.8616
 2484SOL     OW19087   1.510   1.692   6.345 -0.5883  0.6627  0.1062
 2484SOL    HW119088   1.589   1.658   6.386 -0.4347  0.6856 -0.1744
 2484SOL    HW219089   1.545   1.724   6.262  1.6229  0.4839  0.9682
 2485SOL     OW19090   4.203   2.283   3.670 -0.2744  0.1430 -0.2087
 2485SOL    HW119091   4.172   2.372   3.655  0.1211  0.0985 -1.2963
 2485SOL    HW219092   4.297   2.304   3.676 -0.3485  0.6135 -0.6390
 2486SOL     OW19093   1.400   0.572   3.225 -0.2233 -0.1341  0.0414
 2486SOL    HW119094   1.444   0.594   3.143  0.6759 -0.2332  0.4997
 2486SOL    HW219095   1.310   0.604   3.212 -0.1092  0.2734  0.2710
 2487SOL     OW19096   4.198   2.393   5.842  0.5920 -0.2279  0.4420
 2487SOL    HW119097   4.137   2.464   5.863 -0.7446 -1.1118 -0.4834
 2487SOL    HW219098   4.135   2.326   5.817  1.0993 -1.5502  2.6943
 2488SOL     OW19099   3.776   2.378   6.051 -0.0380  0.1104  0.0203
 2488SOL    HW119100   3.780   2.468   6.083  1.4675 -0.0132  0.1580
 2488SOL    HW219101   3.777   2.398   5.957  1.9678 -0.2800 -0.0450
 2489SOL     OW19102   4.685   1.041  17.044 -0.3379  0.4293 -0.1317
 2489SOL    HW119103   4.615   1.004  17.098  0.9639 -1.1337  0.4683
 2489SOL    HW219104   4.731   1.102  17.102  0.4837 -0.9501  0.6460
 2490SOL     OW19105   3.168   2.091   2.411  0.1153  0.2817 -0.2010
 2490SOL    HW119106   3.251   2.138   2.421 -0.0942  0.8342 -1.0635
 2490SOL    HW219107   3.136   2.091   2.501  0.7789  0.9381  0.0347
 2491SOL     OW19108   0.701   3.595  14.685 -0.0913 -0.0627 -0.4064
 2491SOL    HW119109   0.704   3.509  14.644  3.0734 -0.0383 -0.2303
 2491SOL    HW219110   0.658   3.646  14.616  1.0628  0.6899 -0.5734
 2492SOL     OW19111   1.163   1.972  16.954 -0.4331 -0.4638  0.3004
 2492SOL    HW119112   1.195   1.882  16.955 -0.0669 -0.3239  3.4126
 2492SOL    HW219113   1.217   2.010  16.885 -0.6243  1.5781  1.2722
 2493SOL     OW19114   2.349   1.938   0.010 -0.2393 -0.4644  0.4088
 2493SOL    HW119115   2.359   1.959  17.664 -1.0519  1.0486  0.6698
 2493SOL    HW219116   2.422   1.879   0.028 -0.7578 -1.3975 -0.5444
 2494SOL     OW19117   3.444   2.984   2.545  0.0840 -0.6844 -0.4642
 2494SOL    HW119118   3.460   2.973   2.639  0.1812 -0.6825 -0.4808
 2494SOL    HW219119   3.364   3.037   2.541 -0.2756 -1.1698  0.3873
 2495SOL     OW19120   1.016   0.154   9.789  0.4398 -0.2646 -0.0842
 2495SOL    HW119121   1.083   0.087   9.803  0.2023 -0.3737  0.5345
 2495SOL    HW219122   1.073   0.231   9.791 -1.1505  0.9373 -0.8418
 2496SOL     OW19123   1.445   1.484   6.536 -0.2251 -0.4226  0.1553
 2496SOL    HW119124   1.529   1.496   6.492 -1.5270 -0.5683 -2.4225
 2496SOL    HW219125   1.377   1.482   6.468  0.2345  1.6217 -0.3788
 2497SOL     OW19126   1.622   0.336   5.697 -0.0995  0.5258 -0.0306
 2497SOL    HW119127   1.603   0.419   5.653  1.1286  0.8933  0.1352
 2497SOL    HW219128   1.686   0.360   5.763 -0.2816 -2.5714  1.2812
 2498SOL     OW19129   4.262   2.653   9.412 -0.5733  0.0730  0.1674
 2498SOL    HW119130   4.325   2.618   9.475  0.7860  1.6768 -0.3063
 2498SOL    HW219131   4.220   2.712   9.475 -3.8067 -1.3221 -0.6589
 2499SOL     OW19132   0.497   4.683   5.919 -0.1422  0.1081  0.6848
 2499SOL    HW119133   0.455   0.010   5.861  0.0644 -0.3163  0.0687
 2499SOL    HW219134   0.418   4.649   5.961 -0.5321  0.6039  0.3520
 2500SOL     OW19135   3.080   2.637   8.126 -0.6376 -0.3805  0.1739
 2500SOL    HW119136   3.167   2.662   8.094 -0.2464 -0.0933  1.4877
 2500SOL    HW219137   3.041   2.632   8.038  0.8009  1.0860 -0.5485
 2501SOL     OW19138   1.335   2.349   9.687 -0.0417  0.3461  0.1136
 2501SOL    HW119139   1.425   2.376   9.671 -0.1195 -0.9098 -2.4538
 2501SOL    HW219140   1.310   2.327   9.597  0.5192 -1.5001  0.4152
 2502SOL     OW19141   3.027   3.738   3.957  1.1387 -0.2330 -0.3310
 2502SOL    HW119142   3.118   3.739   3.988  1.0870 -0.0019 -0.1836
 2502SOL    HW219143   2.997   3.810   4.014  0.2333  0.2167 -1.3859
 2503SOL     OW19144   3.525   1.176   0.694 -0.1023 -0.6548  0.4369
 2503SOL    HW119145   3.466   1.227   0.749  1.8856  0.7387  1.2372
 2503SOL    HW219146   3.513   1.088   0.731 -2.0223 -0.6450 -0.1290
 2504SOL     OW19147   1.959   0.339  13.333  0.3850 -0.3842  0.4774
 2504SOL    HW119148   1.878   0.326  13.284 -0.4766  1.0135  1.5180
 2504SOL    HW219149   1.926   0.411  13.387 -3.5318 -0.9819 -1.1154
 2505SOL     OW19150   3.810   2.335   8.085 -0.2043 -0.0832  0.1986
 2505SOL    HW119151   3.905   2.346   8.083 -0.0027 -1.6019  1.5959
 2505SOL    HW219152   3.780   2.407   8.029 -0.3346 -0.7581 -0.5937
 2506SOL     OW19153   1.115   0.674  10.990 -0.2504  0.5935  0.2336
 2506SOL    HW119154   1.131   0.644  10.900 -0.0299 -2.0915  1.1767
 2506SOL    HW219155   1.191   0.634  11.031  0.3303  0.6185 -0.8209
 2507SOL     OW19156   4.486   4.119   5.654 -0.2216  0.0156 -1.0456
 2507SOL    HW119157   4.522   4.087   5.737 -1.0612 -1.3929 -1.2195
 2507SOL    HW219158   4.405   4.068   5.652 -1.4369  2.0254 -2.6586
 2508SOL     OW19159   2.702   1.610   4.119  0.2419 -0.5335 -0.5718
 2508SOL    HW119160   2.662   1.536   4.072 -1.0376  0.9796 -1.8750
 2508SOL    HW219161   2.632   1.624   4.182  0.0799  0.0595 -0.8889
 2509SOL     OW19162   0.294   0.462   8.575 -0.8621 -0.4651  0.1764
 2509SOL    HW119163   0.312   0.389   8.635 -2.4358 -0.0660  1.1225
 2509SOL    HW219164   0.382   0.466   8.536 -0.1886  3.1493  2.0752
 2510SOL     OW19165   3.063   2.654  12.709  0.0183 -0.3717 -0.2587
 2510SOL    HW119166   3.078   2.620  12.798 -1.6387  0.1300  0.2037
 2510SOL    HW219167   3.138   2.621  12.659 -0.1359 -0.0482 -0.6964
 2511SOL     OW19168   0.509   2.283   7.432  0.0371  0.2026  0.1810
 2511SOL    HW119169   0.455   2.205   7.440  0.0730  0.3939  2.2722
 2511SOL    HW219170   0.589   2.255   7.387  0.9921  2.8951  0.1690
 2512SOL     OW19171   2.755   3.789  13.833  0.0455  0.0381 -0.0289
 2512SOL    HW119172   2.844   3.762  13.855 -0.4891 -0.9279  0.9491
 2512SOL    HW219173   2.701   3.738  13.894 -0.3282  1.8184  1.1303
 2513SOL     OW19174   3.101   0.564   0.858  0.6422 -0.1693 -0.3243
 2513SOL    HW119175   3.097   0.497   0.926 -1.8517  0.6137  0.2955
 2513SOL    HW219176   3.192   0.587   0.877 -0.2439  1.5199  1.7985
 2514SOL     OW19177   0.611   4.161  15.776  0.0042 -0.3905  0.2586
 2514SOL    HW119178   0.642   4.087  15.723  1.5434  0.1809  0.3529
 2514SOL    HW219179   0.528   4.132  15.812 -0.4680  0.5855 -0.0448
 2515SOL     OW19180   1.983   4.266   8.123  0.3571  0.0962  0.4388
 2515SOL    HW119181   2.042   4.339   8.111 -1.6531  1.6202 -0.2055
 2515SOL    HW219182   1.936   4.279   8.206 -3.2684 -2.7687 -1.1282
 2516SOL     OW19183   2.426   2.251  14.179 -0.3693 -0.1722  0.1527
 2516SOL    HW119184   2.385   2.249  14.092 -1.7126 -0.4829  0.7814
 2516SOL    HW219185   2.485   2.324  14.160 -1.0539  0.6474  1.1800
 2517SOL     OW19186   2.308   3.615   2.892  0.1719  0.7811  0.0087
 2517SOL    HW119187   2.248   3.681   2.927 -1.6958 -0.8369 -0.1700
 2517SOL    HW219188   2.372   3.606   2.963 -1.7484  0.1231  1.6639
 2518SOL     OW19189   3.833   2.695   8.783  0.2212  0.4665  0.0151
 2518SOL    HW119190   3.915   2.646   8.775  0.4803  0.9600 -0.3573
 2518SOL    HW219191   3.832   2.692   8.879 -1.8395  1.8694  0.0425
 2519SOL     OW19192   3.398   0.421   4.982  0.2620 -0.4443 -0.1253
 2519SOL    HW119193   3.380   0.515   4.981  1.3037 -0.2275  1.1901
 2519SOL    HW219194   3.475   0.419   5.039  0.3660  3.2594 -0.1518
 2520SOL     OW19195   3.009   1.827   9.413 -0.1275  0.4422  0.1778
 2520SOL    HW119196   3.023   1.892   9.344  0.2721 -1.2097 -1.2809
 2520SOL    HW219197   2.915   1.810   9.412  0.1213 -0.7209 -2.1334
 2521SOL     OW19198   1.888   2.416  17.423  0.3796 -0.2518 -0.6837
 2521SOL    HW119199   1.899   2.445  17.513  0.3433  3.3622 -1.8298
 2521SOL    HW219200   1.810   2.465  17.397  0.7917  1.0847  0.5940
 2522SOL     OW19201   0.143   4.502   9.394  0.0110  0.0086  0.0584
 2522SOL    HW119202   0.053   4.496   9.425 -0.3127 -2.8242 -1.3889
 2522SOL    HW219203   0.158   4.592   9.422 -1.9075 -0.1429  1.6300
 2523SOL     OW19204   4.269   0.624   6.919 -0.2113 -0.3992  0.1706
 2523SOL    HW119205   4.250   0.574   6.840 -1.0046  2.2822 -1.3120
 2523SOL    HW219206   4.193   0.605   6.975 -0.3946  3.1974  1.1281
 2524SOL     OW19207   0.722   0.981   3.452  0.4306 -0.1867 -0.1197
 2524SOL    HW119208   0.702   0.892   3.479  1.1689 -0.3100  0.0047
 2524SOL    HW219209   0.647   0.995   3.393  0.7964  2.3413 -0.0045
 2525SOL     OW19210   2.389   2.689   2.042  0.2893 -0.8280 -0.0436
 2525SOL    HW119211   2.410   2.623   2.108  0.4278  1.4893  2.2470
 2525SOL    HW219212   2.395   2.761   2.105  0.2462 -0.8174 -0.0520
 2526SOL     OW19213   3.618   3.612   6.179  0.2928  0.5334  0.0883
 2526SOL    HW119214   3.555   3.671   6.139  0.2114 -0.1951 -0.8669
 2526SOL    HW219215   3.704   3.645   6.153 -0.4608  2.4976  0.1387
 2527SOL     OW19216   1.661   1.990   4.033  1.3818 -0.0277  0.1775
 2527SOL    HW119217   1.696   1.996   3.944  0.9766  0.5376  0.0582
 2527SOL    HW219218   1.599   2.062   4.035  1.2339 -0.2083  2.7386
 2528SOL     OW19219   0.547   3.993   5.758  0.2286 -0.2375  0.4899
 2528SOL    HW119220   0.634   3.999   5.720 -0.5383  0.6633 -1.1341
 2528SOL    HW219221   0.492   3.959   5.688 -0.2332 -0.1740  0.8161
 2529SOL     OW19222   2.627   2.802   5.773 -0.4923  0.0876 -0.1978
 2529SOL    HW119223   2.602   2.710   5.767  1.4727 -0.4592 -0.0879
 2529SOL    HW219224   2.705   2.800   5.718 -1.0762  1.8124 -1.0968
 2530SOL     OW19225   1.224   4.014   6.375  0.2820 -0.3544 -0.8337
 2530SOL    HW119226   1.208   3.971   6.459 -1.5496  0.9018 -0.5280
 2530SOL    HW219227   1.289   4.070   6.418  1.1401 -0.0831 -2.5128
 2531SOL     OW19228   2.116   2.869   5.294  0.2419 -0.3867 -0.1549
 2531SOL    HW119229   2.127   2.794   5.236 -1.3225 -1.9683  1.5809
 2531SOL    HW219230   2.203   2.886   5.330 -0.9509  2.1767  1.5143
 2532SOL     OW19231   0.915   0.058   6.453 -0.4210  0.1203 -0.0695
 2532SOL    HW119232   0.836   0.032   6.501 -0.0215 -1.0323 -0.0360
 2532SOL    HW219233   0.890   0.140   6.410 -0.7409  1.2630  2.2607
 2533SOL     OW19234   4.407   4.321   4.515 -0.5677  0.1331  0.3111
 2533SOL    HW119235   4.468   4.264   4.562  0.2611  1.6051  1.0439
 2533SOL    HW219236   4.423   4.408   4.554  1.7679  0.3838 -1.2082
 2534SOL     OW19237   1.642   3.326   6.909  0.1428  0.3994  0.5811
 2534SOL    HW119238   1.642   3.319   6.814  1.0213  2.2515  0.4420
 2534SOL    HW219239   1.691   3.246   6.928 -0.2151  0.4434  1.7174
 2535SOL     OW19240   0.460   1.282   3.148  0.4132 -0.4688 -0.2176
 2535SOL    HW119241   0.450   1.296   3.053  0.6635 -1.7528 -0.4248
 2535SOL    HW219242   0.535   1.339   3.163 -0.0098  0.3443 -1.1699
 2536SOL     OW19243   2.682   0.842   5.169  0.3857  0.0051  0.1635
 2536SOL    HW119244   2.691   0.751   5.140  0.5172 -0.1262  0.6113
 2536SOL    HW219245   2.754   0.867   5.227  1.1899 -2.8050  0.3769
 2537SOL     OW19246   0.884   1.891  14.394  0.3613 -0.2255 -0.4481
 2537SOL    HW119247   0.862   1.868  14.304 -2.2206  0.5785 -0.0172
 2537SOL    HW219248   0.924   1.807  14.420  1.4509 -0.9613 -4.4704
 2538SOL     OW19249   4.085   3.023   9.887  0.4815  0.3998 -0.3501
 2538SOL    HW119250   3.995   3.026   9.917  0.7121 -0.8331  0.4320
 2538SOL    HW219251   4.087   3.036   9.792  0.5189 -2.8366 -0.7897
 2539SOL     OW19252   2.825   3.222  14.689 -0.2931 -0.9033  0.4702
 2539SOL    HW119253   2.872   3.289  14.640 -2.6154  1.3647  1.3301
 2539SOL    HW219254   2.789   3.180  14.611 -1.3621  0.7171  0.0961
 2540SOL     OW19255   3.903   1.148  15.720 -0.4104 -0.2304 -0.1121
 2540SOL    HW119256   3.908   1.240  15.694 -1.9803 -0.0064  0.3734
 2540SOL    HW219257   3.827   1.146  15.779 -1.2593  0.6962 -1.1463
 2541SOL     OW19258   4.241   2.762  14.257  0.6943 -0.3194 -0.3096
 2541SOL    HW119259   4.190   2.822  14.311 -2.0173 -1.8603 -1.1731
 2541SOL    HW219260   4.242   2.814  14.177 -2.1055  0.2590  0.0347
 2542SOL     OW19261   1.087   0.346  16.310 -0.3624  0.7997 -0.3964
 2542SOL    HW119262   1.016   0.352  16.246 -0.0570  0.1354 -0.7955
 2542SOL    HW219263   1.041   0.356  16.394 -0.1620 -2.3233  0.0908
 2543SOL     OW19264   2.145   0.997   6.448  0.2381 -0.6880 -0.0260
 2543SOL    HW119265   2.138   1.084   6.408 -0.0828 -0.8915 -0.4206
 2543SOL    HW219266   2.190   0.944   6.382 -0.5262  0.0102 -1.1302
 2544SOL     OW19267   1.264   4.106  15.004 -0.0125 -0.3244  0.0682
 2544SOL    HW119268   1.198   4.037  14.999 -0.9474  0.6347 -0.6950
 2544SOL    HW219269   1.266   4.141  14.915  1.2084  2.3602  1.1487
 2545SOL     OW19270   1.217   1.517   9.804  0.0183  0.1031 -0.3679
 2545SOL    HW119271   1.244   1.470   9.883  1.4303 -0.2551 -1.0590
 2545SOL    HW219272   1.140   1.555   9.845 -1.0644 -2.2279 -0.2559
 2546SOL     OW19273   0.609   3.361  12.945 -0.0836 -0.1205 -0.3190
 2546SOL    HW119274   0.680   3.297  12.937  0.5261  0.3780  1.0680
 2546SOL    HW219275   0.650   3.420  13.008 -0.0016  0.2767 -0.7460
 2547SOL     OW19276   4.004   0.978   3.018  0.4736 -0.3373  0.0916
 2547SOL    HW119277   3.982   0.885   3.006  1.0551 -0.5445  0.6369
 2547SOL    HW219278   4.099   0.969   3.004  0.0869 -1.5284 -1.8407
 2548SOL     OW19279   2.834   1.642   5.963  0.0971  0.4367 -0.0852
 2548SOL    HW119280   2.817   1.725   5.917  0.0900 -0.3351 -1.4839
 2548SOL    HW219281   2.791   1.578   5.906  3.1292 -0.8509 -0.9162
 2549SOL     OW19282   3.100   4.682  10.878  0.2641 -0.3384 -0.2583
 2549SOL    HW119283   3.094   0.038  10.899 -0.7627 -0.6136  0.6278
 2549SOL    HW219284   3.140   4.688  10.791  4.8693  1.9933  1.9821
 2550SOL     OW19285   2.445   1.582  15.081 -0.6039 -0.2452  0.9104
 2550SOL    HW119286   2.480   1.581  15.170  1.1545 -0.9057  0.2244
 2550SOL    HW219287   2.526   1.595  15.032 -2.3106  1.0117 -1.5926
 2551SOL     OW19288   3.704   2.808   7.193  0.6389 -0.0297 -0.5489
 2551SOL    HW119289   3.656   2.741   7.242 -2.1877  1.7909 -0.7710
 2551SOL    HW219290   3.795   2.789   7.214  0.4320  0.4714  0.7708
 2552SOL     OW19291   1.587   0.143   4.700 -0.4649 -0.0790 -0.1582
 2552SOL    HW119292   1.597   0.050   4.681 -2.1762 -0.9440  3.1139
 2552SOL    HW219293   1.674   0.174   4.724 -0.4076 -0.1249 -0.3091
 2553SOL     OW19294   4.451   0.781   6.801  0.0335  0.6585 -0.4216
 2553SOL    HW119295   4.401   0.719   6.855  0.1614  1.0775  0.1889
 2553SOL    HW219296   4.396   0.805   6.727 -1.9569  1.9263  1.4820
 2554SOL     OW19297   3.518   4.342   6.219  0.6522 -0.2982  0.1928
 2554SOL    HW119298   3.477   4.427   6.205  0.0094 -0.8836 -1.5178
 2554SOL    HW219299   3.516   4.340   6.315 -2.8194  0.9229  0.1667
 2555SOL     OW19300   2.169   3.646   5.673  0.1893 -0.0618  0.0073
 2555SOL    HW119301   2.242   3.679   5.622  1.1233 -0.4504  1.0896
 2555SOL    HW219302   2.166   3.701   5.752 -2.6019 -2.8518  1.8658
 2556SOL     OW19303   1.939   3.562   1.101  0.3211  0.5016  0.1562
 2556SOL    HW119304   2.030   3.533   1.103 -0.0987 -0.8866 -1.2397
 2556SOL    HW219305   1.938   3.632   1.036  1.9744  2.3937  2.1755
 2557SOL     OW19306   3.482   1.573   8.460  0.2729 -0.4536  0.4195
 2557SOL    HW119307   3.544   1.584   8.533  2.1650 -0.1879 -1.2478
 2557SOL    HW219308   3.528   1.516   8.398  0.8667 -2.8454  3.0282
 2558SOL     OW19309   1.597   2.764   3.484  0.2353  0.2845  0.4568
 2558SOL    HW119310   1.625   2.820   3.556  3.1214  1.2609 -1.4363
 2558SOL    HW219311   1.502   2.767   3.491  0.2711 -0.3749  1.2676
 2559SOL     OW19312   3.939   4.705   9.409 -0.0554 -0.7396  0.2614
 2559SOL    HW119313   3.975   4.626   9.448 -0.2283 -0.5267  0.8526
 2559SOL    HW219314   3.865   4.677   9.354 -0.9372 -1.3304  1.7646
 2560SOL     OW19315   2.470   4.019   2.345 -0.1936  0.0913  0.6972
 2560SOL    HW119316   2.403   3.958   2.374 -0.9030  0.1351 -0.8075
 2560SOL    HW219317   2.439   4.106   2.371 -1.9391 -0.6642  1.1632
 2561SOL     OW19318   0.547   4.397   7.130 -0.2685 -0.2283  0.1162
 2561SOL    HW119319   0.518   4.309   7.108 -0.5743  0.3128 -1.6224
 2561SOL    HW219320   0.592   4.422   7.050  1.9155 -0.6079  1.2023
 2562SOL     OW19321   2.304   4.427   4.580  0.4444  0.1136 -0.1818
 2562SOL    HW119322   2.316   4.403   4.671  1.0872 -0.3644 -0.3928
 2562SOL    HW219323   2.277   4.517   4.599 -1.3307 -0.4522 -0.0550
 2563SOL     OW19324   3.553   0.243  13.121  0.1535 -0.0901 -0.7203
 2563SOL    HW119325   3.599   0.175  13.071  1.6362  0.4761 -0.1364
 2563SOL    HW219326   3.600   0.321  13.091  3.3249 -0.9185  2.0493
 2564SOL     OW19327   4.699   0.540  14.510 -0.8872  0.3306 -0.1959
 2564SOL    HW119328   4.672   0.629  14.487 -2.9683 -0.1627  0.3260
 2564SOL    HW219329   4.614   0.497  14.510 -0.1945 -1.0409  1.1616
 2565SOL     OW19330   4.304   2.215   7.218 -0.1431 -0.2115 -0.7405
 2565SOL    HW119331   4.367   2.156   7.176  1.0899  1.2867 -0.9832
 2565SOL    HW219332   4.302   2.191   7.311  0.1794  0.3662 -0.5806
 2566SOL     OW19333   4.324   4.515  13.155 -0.3899  0.0314 -0.2074
 2566SOL    HW119334   4.305   4.476  13.070  1.6417  1.8236 -1.4902
 2566SOL    HW219335   4.418   4.496  13.153  0.1515  2.7064 -0.5301
 2567SOL     OW19336   1.176   2.026   2.359  0.2484 -0.3392 -0.1011
 2567SOL    HW119337   1.250   2.018   2.420  0.7302  1.6637 -0.4162
 2567SOL    HW219338   1.136   1.939   2.366 -1.3243  0.3287 -0.7049
 2568SOL     OW19339   3.009   1.192   6.354 -0.0143  0.0241 -0.1155
 2568SOL    HW119340   3.034   1.264   6.411  0.4936  1.5303 -2.2269
 2568SOL    HW219341   2.915   1.187   6.373  0.3951 -1.3562  1.5363
 2569SOL     OW19342   3.288   1.098   5.780  0.3644  0.4314 -0.3216
 2569SOL    HW119343   3.362   1.043   5.758 -0.5127 -1.0331  0.4240
 2569SOL    HW219344   3.283   1.097   5.876  1.3102  3.2624 -0.2412
 2570SOL     OW19345   4.123   3.437   3.667  0.0692 -0.2035  0.8575
 2570SOL    HW119346   4.105   3.511   3.725  1.8964  2.3709 -1.8394
 2570SOL    HW219347   4.144   3.369   3.731  1.4830  0.6144  1.2496
 2571SOL     OW19348   1.313   0.796   8.560  0.3740  0.3762 -0.3887
 2571SOL    HW119349   1.234   0.782   8.508 -0.5536 -0.5161  1.2702
 2571SOL    HW219350   1.277   0.863   8.618 -0.3462  0.9567 -1.5163
 2572SOL     OW19351   2.646   2.217   7.711 -0.2484  0.1456 -0.0079
 2572SOL    HW119352   2.653   2.214   7.807 -1.9994  2.0965  0.2066
 2572SOL    HW219353   2.676   2.135   7.672  1.6075  0.6498  0.3996
 2573SOL     OW19354   1.367   3.913  16.340 -0.2924  0.7659  0.2365
 2573SOL    HW119355   1.339   3.971  16.270  0.4846 -0.6561 -1.2635
 2573SOL    HW219356   1.458   3.900  16.314 -0.0928 -0.4971  1.5401
 2574SOL     OW19357   1.027   0.775  11.235 -0.1930 -0.1723  0.2053
 2574SOL    HW119358   1.043   0.731  11.151  0.1494  3.0620 -1.4227
 2574SOL    HW219359   1.070   0.858  11.212  0.5981 -0.7125 -0.2842
 2575SOL     OW19360   1.599   1.980   1.839  0.2605 -0.7333  0.1284
 2575SOL    HW119361   1.503   1.980   1.842  0.2523  2.2349 -0.2335
 2575SOL    HW219362   1.610   1.953   1.748 -0.6796  0.0825 -0.2287
 2576SOL     OW19363   3.395   3.733   2.679  0.0214 -0.3117  0.0129
 2576SOL    HW119364   3.451   3.804   2.709 -2.3943  0.3847  2.8021
 2576SOL    HW219365   3.312   3.773   2.703  1.2501  2.2787 -0.0722
 2577SOL     OW19366   2.512   3.106   4.956  0.0579  0.0690 -0.1049
 2577SOL    HW119367   2.560   3.024   4.970 -0.6893  0.0302  2.3042
 2577SOL    HW219368   2.441   3.076   4.899 -0.3021  0.2830  0.2240
 2578SOL     OW19369   2.223   0.127   6.150  0.1783 -0.7284  0.1667
 2578SOL    HW119370   2.265   0.043   6.169  1.3234 -0.1746  0.1025
 2578SOL    HW219371   2.158   0.120   6.219  2.4217  0.2670  2.3741
 2579SOL     OW19372   1.114   3.229   3.918  0.0840 -0.1221 -0.0942
 2579SOL    HW119373   1.035   3.199   3.963  0.4458 -2.2336 -0.8649
 2579SOL    HW219374   1.165   3.264   3.991  3.4583 -1.9585 -1.5720
 2580SOL     OW19375   2.609   2.840   9.613  0.1029  0.6253  0.1201
 2580SOL    HW119376   2.526   2.801   9.585  1.5335 -0.6437 -2.4002
 2580SOL    HW219377   2.673   2.772   9.593 -0.2700  0.2292  0.2634
 2581SOL     OW19378   3.801   2.547   3.165 -0.5673 -0.3638  0.2068
 2581SOL    HW119379   3.837   2.463   3.137 -2.3506 -1.2358  0.5157
 2581SOL    HW219380   3.801   2.594   3.081 -3.2104  2.5720  1.8356
 2582SOL     OW19381   0.532   2.243   4.921 -0.4457  0.1512  0.3241
 2582SOL    HW119382   0.493   2.237   4.833  0.7365 -1.1258 -0.1193
 2582SOL    HW219383   0.509   2.157   4.955 -1.8513  0.2197 -0.4614
 2583SOL     OW19384   3.564   2.265   4.395  0.3828 -0.0347 -0.3805
 2583SOL    HW119385   3.481   2.309   4.377  0.9705  0.8587 -0.8897
 2583SOL    HW219386   3.593   2.235   4.309 -0.5527 -2.5078  0.1586
 2584SOL     OW19387   0.868   1.956  12.345  0.6429  0.3257 -0.5441
 2584SOL    HW119388   0.920   1.952  12.264  1.6554 -3.4335  0.3040
 2584SOL    HW219389   0.820   2.033  12.313 -0.5162 -0.2893 -0.2611
 2585SOL     OW19390   0.604   0.675  11.036 -0.3692 -0.1294 -0.1273
 2585SOL    HW119391   0.624   0.738  11.106 -2.0494  0.5381 -0.2588
 2585SOL    HW219392   0.689   0.635  11.019 -0.5596 -1.6531  2.4925
 2586SOL     OW19393   2.413   2.671  10.592 -0.1522 -0.0097 -0.0739
 2586SOL    HW119394   2.348   2.600  10.593  0.6071 -0.7037 -0.1304
 2586SOL    HW219395   2.487   2.621  10.627  3.1317  2.2751 -3.7999
 2587SOL     OW19396   2.874   4.106   4.381  0.3666  0.0499 -0.4570
 2587SOL    HW119397   2.803   4.132   4.441  0.7972 -0.7938  0.4366
 2587SOL    HW219398   2.913   4.028   4.422  2.0581  2.0125  1.6763
 2588SOL     OW19399   0.499   2.610   5.052  0.2408 -0.4003 -0.3158
 2588SOL    HW119400   0.550   2.551   4.996 -1.5254 -1.4425 -0.8075
 2588SOL    HW219401   0.525   2.688   5.003  0.2005 -1.5216 -2.1518
 2589SOL     OW19402   3.917   0.206   8.240 -0.6674  0.3671  0.1971
 2589SOL    HW119403   3.840   0.159   8.273 -0.1250 -1.3017 -0.9635
 2589SOL    HW219404   3.873   0.282   8.203  0.9610  1.1139 -0.2041
 2590SOL     OW19405   1.349   1.729   4.318 -0.2167 -0.1655  0.1917
 2590SOL    HW119406   1.343   1.641   4.355  0.7473  0.3741  1.5975
 2590SOL    HW219407   1.443   1.744   4.324 -0.3413  1.4207 -1.8893
 2591SOL     OW19408   2.212   3.290  17.615  0.2945  0.4274 -0.4358
 2591SOL    HW119409   2.121   3.321  17.622  0.3348  0.1901  1.0682
 2591SOL    HW219410   2.194   3.200  17.640  0.7779  0.7531  1.1270
 2592SOL     OW19411   3.699   1.572   6.693  0.2095 -0.0408 -0.1584
 2592SOL    HW119412   3.623   1.573   6.636 -1.4215  1.2294  2.0740
 2592SOL    HW219413   3.767   1.548   6.630  0.6501  1.3106 -0.1888
 2593SOL     OW19414   0.506   3.672   0.762  0.2325  1.2355  0.0764
 2593SOL    HW119415   0.545   3.623   0.835 -0.6251  2.6906  1.5310
 2593SOL    HW219416   0.510   3.764   0.788  0.5930  1.0807  0.5768
 2594SOL     OW19417   1.411   0.875   0.205  0.0800 -0.3982  0.0555
 2594SOL    HW119418   1.388   0.911   0.291 -1.2240  0.5260 -0.6653
 2594SOL    HW219419   1.506   0.888   0.203 -0.0286  0.5432  0.8778
 2595SOL     OW19420   4.598   3.480   7.296 -0.3135 -0.2458 -0.4025
 2595SOL    HW119421   4.603   3.509   7.387  1.0099  1.0939 -0.8901
 2595SOL    HW219422   4.563   3.564   7.266 -0.3150  0.2266  0.9427
 2596SOL     OW19423   0.858   2.543   8.805 -0.5366  0.5172  0.6613
 2596SOL    HW119424   0.920   2.512   8.738  1.0348  0.5631  2.1027
 2596SOL    HW219425   0.857   2.465   8.861 -2.2790 -0.4349 -0.6784
 2597SOL     OW19426   3.968   3.775   4.401  0.4830 -0.4189 -0.3423
 2597SOL    HW119427   3.889   3.828   4.406  1.4882  0.7871  2.5360
 2597SOL    HW219428   4.024   3.826   4.459  1.9383 -2.1297 -0.2213
 2598SOL     OW19429   2.893   3.022   9.584  0.6065 -0.0338 -0.7641
 2598SOL    HW119430   2.912   3.030   9.678 -3.0247  0.8807 -0.1125
 2598SOL    HW219431   2.922   3.112   9.570  0.6278 -0.1234 -1.2870
 2599SOL     OW19432   3.655   0.508   5.892  0.1214  0.7382  0.1379
 2599SOL    HW119433   3.735   0.530   5.940  1.5189 -0.4262 -1.6805
 2599SOL    HW219434   3.595   0.564   5.942 -2.1945 -1.6903  0.0793
 2600SOL     OW19435   4.193   1.410   8.261 -0.3772  0.1605 -0.0479
 2600SOL    HW119436   4.223   1.346   8.197 -0.4599 -0.7373  0.8118
 2600SOL    HW219437   4.225   1.363   8.338 -0.3496  0.4854  0.1408
 2601SOL     OW19438   2.455   0.419   5.828 -0.2601 -0.5512 -0.6275
 2601SOL    HW119439   2.514   0.357   5.871  0.9375  1.7429  1.0069
 2601SOL    HW219440   2.380   0.361   5.812  0.2152 -0.9618 -1.3221
 2602SOL     OW19441   0.845   4.337   3.557  0.2564 -0.1204 -0.2279
 2602SOL    HW119442   0.791   4.352   3.479  1.3832 -1.7552 -1.3039
 2602SOL    HW219443   0.840   4.242   3.547 -1.9617  0.0833 -1.1638
 2603SOL     OW19444   4.243   2.072   8.643  0.4877 -0.5599 -0.1412
 2603SOL    HW119445   4.336   2.051   8.634  0.4975 -0.0325 -1.2028
 2603SOL    HW219446   4.190   2.016   8.587 -1.3167  1.8324 -0.8584
 2604SOL     OW19447   0.798   1.241  15.564 -0.0060 -0.4496  0.1841
 2604SOL    HW119448   0.850   1.274  15.637  0.8586  2.5309 -1.8046
 2604SOL    HW219449   0.725   1.302  15.569  1.6181  1.5325 -0.3522
 2605SOL     OW19450   4.113   4.161  16.652 -0.0381 -0.1460  0.4767
 2605SOL    HW119451   4.121   4.208  16.569 -1.1158  2.0972  1.6265
 2605SOL    HW219452   4.043   4.205  16.702 -1.1333  0.3938 -1.5305
 2606SOL     OW19453   3.562   3.378   9.813 -0.3605  0.0775 -0.5175
 2606SOL    HW119454   3.592   3.464   9.841  0.1441 -0.9427  2.0672
 2606SOL    HW219455   3.472   3.403   9.795  0.0519  0.9254 -1.3797
 2607SOL     OW19456   0.187   2.145   0.987  0.5621 -0.0622 -0.3498
 2607SOL    HW119457   0.258   2.139   1.051  0.8911 -0.5927 -0.7534
 2607SOL    HW219458   0.127   2.077   1.017  1.2037 -0.0283  1.0329
 2608SOL     OW19459   2.322   2.737   4.950  0.0694 -0.0091 -0.0546
 2608SOL    HW119460   2.364   2.656   4.921  0.4362  0.3172 -0.4322
 2608SOL    HW219461   2.366   2.804   4.897  0.7126 -0.1199  0.3425
 2609SOL     OW19462   2.624   1.589  12.460 -0.4907 -0.0815 -0.1620
 2609SOL    HW119463   2.533   1.582  12.488 -0.2759 -2.7180 -0.1960
 2609SOL    HW219464   2.657   1.631  12.540  1.2258  1.5210 -1.6774
 2610SOL     OW19465   0.067   1.926   6.306 -0.1611  0.0519 -0.4196
 2610SOL    HW119466   0.036   1.903   6.393 -0.4487 -1.0501 -0.8215
 2610SOL    HW219467   0.004   1.994   6.281  0.2762  0.0741 -1.4793
 2611SOL     OW19468   4.243   0.208   0.250  0.0478 -0.6236  0.1442
 2611SOL    HW119469   4.201   0.294   0.255  0.5555 -0.5109  2.2847
 2611SOL    HW219470   4.286   0.205   0.335  2.1015  2.4743 -0.7954
 2612SOL     OW19471   3.055   3.937   2.964 -0.0390 -0.4177 -0.2746
 2612SOL    HW119472   3.027   3.948   2.873 -1.4322 -0.3084  0.1666
 2612SOL    HW219473   3.117   4.006   2.987 -0.4536 -0.1368  0.0069
 2613SOL     OW19474   2.063   4.616   6.333  0.1366  0.8551  0.1995
 2613SOL    HW119475   2.041   4.568   6.254  0.4563  2.3882 -0.8237
 2613SOL    HW219476   2.003   4.690   6.343  1.8618  2.4879 -1.4178
 2614SOL     OW19477   3.471   0.437  13.329  0.1311  0.2070 -0.0603
 2614SOL    HW119478   3.485   0.349  13.294 -0.7088 -0.4202  1.1471
 2614SOL    HW219479   3.562   0.469  13.330  0.1870  0.0487  0.0451
 2615SOL     OW19480   1.356   3.912   4.690  0.0509  0.0246 -0.0208
 2615SOL    HW119481   1.446   3.940   4.671  0.9880 -1.6458  1.9518
 2615SOL    HW219482   1.336   3.846   4.623  2.3408  0.9688 -1.6647
 2616SOL     OW19483   0.800   0.849   5.482  0.7993 -0.4306 -0.1289
 2616SOL    HW119484   0.705   0.841   5.479  0.9953 -1.8350 -2.2184
 2616SOL    HW219485   0.811   0.855   5.577  0.6128 -1.8372 -0.0217
 2617SOL     OW19486   3.848   4.149   5.278  0.3299  0.2938  0.6886
 2617SOL    HW119487   3.781   4.089   5.311 -0.7065  0.8851 -0.3350
 2617SOL    HW219488   3.895   4.093   5.216 -0.2538 -1.4253  1.8073
 2618SOL     OW19489   4.312   2.577  13.170  0.3170 -0.9097  0.2077
 2618SOL    HW119490   4.234   2.535  13.207 -0.1942  0.9428  1.2398
 2618SOL    HW219491   4.385   2.542  13.222  1.9695 -0.2219 -1.6397
 2619SOL     OW19492   2.522   2.384   4.096  0.3266  0.1059  0.7779
 2619SOL    HW119493   2.478   2.464   4.125  0.1432 -0.7006  2.7031
 2619SOL    HW219494   2.547   2.408   4.007  0.1776 -0.2259  0.6473
 2620SOL     OW19495   0.677   2.412   9.055  0.3500 -0.7824 -0.4365
 2620SOL    HW119496   0.588   2.407   9.021 -0.1236  2.4730  0.2822
 2620SOL    HW219497   0.722   2.374   8.980  1.3753 -1.4195  0.4854
 2621SOL     OW19498   2.514   3.351   2.009 -0.1305 -0.0232 -0.5139
 2621SOL    HW119499   2.423   3.324   2.026 -0.4484  2.1937  1.3442
 2621SOL    HW219500   2.558   3.284   2.061  0.5060 -0.1949 -1.2866
 2622SOL     OW19501   1.068   0.558   0.443  0.2853 -0.2154 -0.1209
 2622SOL    HW119502   1.142   0.558   0.383 -1.1929 -1.5950 -1.9484
 2622SOL    HW219503   1.024   0.483   0.403 -0.4063  0.2825 -0.3015
 2623SOL     OW19504   4.346   2.199   5.377  0.4023  0.1664 -0.1435
 2623SOL    HW119505   4.402   2.121   5.371 -0.1426 -0.3050  1.0128
 2623SOL    HW219506   4.350   2.246   5.294  1.9027  0.0307 -0.1502
 2624SOL     OW19507   3.463   0.065   3.278  0.6148  0.4778 -0.2412
 2624SOL    HW119508   3.531   0.015   3.322  0.6468 -0.7554 -1.7141
 2624SOL    HW219509   3.409   0.091   3.353  1.8297 -0.7759  1.0670
 2625SOL     OW19510   3.980   1.478   8.940 -0.1629  0.3571  0.4731
 2625SOL    HW119511   4.070   1.508   8.929  0.1623 -0.6625  0.3804
 2625SOL    HW219512   3.934   1.559   8.963  0.6716  1.4158 -1.6724
 2626SOL     OW19513   2.769   2.640  12.713  0.4716 -0.3482 -0.6008
 2626SOL    HW119514   2.863   2.621  12.707  0.1610 -1.0301 -3.2164
 2626SOL    HW219515   2.743   2.626  12.622  1.7845  1.6389 -1.2660
 2627SOL     OW19516   2.201   0.862   1.100  0.4314  0.1070 -0.2384
 2627SOL    HW119517   2.173   0.791   1.158  0.0482 -1.1987 -2.0022
 2627SOL    HW219518   2.276   0.824   1.055  1.1109  0.4000  0.6494
 2628SOL     OW19519   3.780   0.703   7.332 -0.6886 -0.5805 -0.6557
 2628SOL    HW119520   3.721   0.723   7.405  0.0055  1.6326 -0.7243
 2628SOL    HW219521   3.767   0.608   7.325  0.8467 -1.0668  2.7474
 2629SOL     OW19522   3.574   4.598   8.917 -0.5566 -0.0205  0.3432
 2629SOL    HW119523   3.543   4.657   8.848  1.4554 -0.3016 -0.7874
 2629SOL    HW219524   3.666   4.612   8.896 -0.3677 -2.1054 -0.1963
 2630SOL     OW19525   1.338   0.229   5.312 -0.4187 -0.5533  0.8672
 2630SOL    HW119526   1.316   0.254   5.402  0.8357  1.9150  0.4749
 2630SOL    HW219527   1.330   0.310   5.262  1.5224 -0.2711  1.0152
 2631SOL     OW19528   1.874   0.635   5.572 -0.1180  0.0936 -0.4931
 2631SOL    HW119529   1.961   0.651   5.537  1.9321 -4.1314  2.6012
 2631SOL    HW219530   1.857   0.551   5.530  0.4398 -0.9204  1.2988
 2632SOL     OW19531   0.164   3.069   7.865 -0.0951 -0.6034  0.2215
 2632SOL    HW119532   0.078   3.107   7.884  0.9544  1.6513  0.4594
 2632SOL    HW219533   0.148   2.985   7.907  0.1687 -1.4545 -1.3950
 2633SOL     OW19534   2.774   0.033   0.928  0.1679  0.2744 -0.1977
 2633SOL    HW119535   2.843   4.720   0.885 -2.1700 -1.2961 -2.1125
 2633SOL    HW219536   2.724   4.694   0.956 -1.4371  1.5038  0.3027
 2634SOL     OW19537   0.941   3.639   2.418  0.1575  0.3399 -0.4330
 2634SOL    HW119538   0.883   3.671   2.486  1.5687  0.1765  0.8472
 2634SOL    HW219539   0.974   3.721   2.382  1.5735  0.1316  0.4103
 2635SOL     OW19540   3.081   3.145   9.220  0.3214  0.1483  0.1959
 2635SOL    HW119541   2.990   3.127   9.245  0.2389  1.2085  0.6559
 2635SOL    HW219542   3.127   3.109   9.296 -1.1100  0.3757  1.1708
 2636SOL     OW19543   3.828   3.830   5.083 -0.9761 -0.4219 -0.0858
 2636SOL    HW119544   3.901   3.891   5.096 -1.1334 -0.1867 -0.3026
 2636SOL    HW219545   3.751   3.887   5.095 -1.0008 -0.8761  1.8804
 2637SOL     OW19546   4.508   0.986  17.239  0.1852  0.0429  0.2089
 2637SOL    HW119547   4.518   1.073  17.277  2.7670 -1.2715  2.5238
 2637SOL    HW219548   4.534   0.938  17.318 -0.8244  0.7807  0.9859
 2638SOL     OW19549   1.214   0.470   5.236  0.1906 -0.0683  0.6039
 2638SOL    HW119550   1.150   0.456   5.167  0.9880 -1.8723  0.2185
 2638SOL    HW219551   1.237   0.561   5.220  1.8098 -0.7313 -0.8254
 2639SOL     OW19552   3.365   1.284  12.485  0.2054  0.6004  0.1972
 2639SOL    HW119553   3.296   1.300  12.549  0.4910  0.0192  0.6589
 2639SOL    HW219554   3.375   1.188  12.485 -1.1380  0.4562  1.6405
 2640SOL     OW19555   0.978   3.664   7.814 -0.4242  0.0383  0.3738
 2640SOL    HW119556   0.985   3.752   7.777  0.8639 -0.0365  0.4442
 2640SOL    HW219557   0.889   3.636   7.795  0.1240  0.2502 -2.4497
 2641SOL     OW19558   3.153   0.427   3.357  0.2739 -0.7015  0.2995
 2641SOL    HW119559   3.120   0.339   3.375 -0.9834 -0.3335 -0.2436
 2641SOL    HW219560   3.229   0.415   3.300  0.4880  1.3587  0.1631
 2642SOL     OW19561   2.385   2.169   5.184  0.4504  0.1471  0.0774
 2642SOL    HW119562   2.379   2.089   5.236  2.3152 -0.7958 -1.1655
 2642SOL    HW219563   2.458   2.151   5.124  0.2599 -0.0399 -0.1001
 2643SOL     OW19564   0.589   0.389   5.774 -0.0312  0.1437 -0.1564
 2643SOL    HW119565   0.662   0.331   5.795  1.2305  0.6679 -3.1026
 2643SOL    HW219566   0.591   0.370   5.680  2.7144  0.0472 -0.0785
 2644SOL     OW19567   3.297   0.362   8.526 -0.6246  0.1278 -0.0429
 2644SOL    HW119568   3.257   0.447   8.509  1.0955  1.5440  3.0682
 2644SOL    HW219569   3.380   0.391   8.565 -1.7243  2.8421  0.2666
 2645SOL     OW19570   2.854   2.580   0.983 -0.1386 -0.1688 -0.2175
 2645SOL    HW119571   2.840   2.636   1.059  4.0249  0.1133  0.3669
 2645SOL    HW219572   2.944   2.605   0.964 -0.1565  0.3358  0.3734
 2646SOL     OW19573   1.478   0.506  14.986  0.3981  0.2323 -0.4452
 2646SOL    HW119574   1.537   0.568  14.944  0.2883 -0.9451 -2.3248
 2646SOL    HW219575   1.535   0.429  14.984 -1.4157 -1.1085 -0.0605
 2647SOL     OW19576   0.656   4.413  15.844  0.7459  0.1027  0.0086
 2647SOL    HW119577   0.649   4.477  15.773  0.0489 -0.3552 -0.3294
 2647SOL    HW219578   0.636   4.331  15.800 -3.0855  0.7617  0.4933
 2648SOL     OW19579   3.608   4.168   7.169 -0.0547  0.2553  0.1801
 2648SOL    HW119580   3.607   4.217   7.087 -0.8316 -0.1130 -0.0356
 2648SOL    HW219581   3.549   4.093   7.160 -0.2960  0.6658 -1.5874
 2649SOL     OW19582   1.865   1.066   5.642  0.2080  0.3117  0.2175
 2649SOL    HW119583   1.926   1.011   5.691  0.1333 -0.8668 -1.0235
 2649SOL    HW219584   1.920   1.112   5.579  0.1237  0.6628  0.3997
 2650SOL     OW19585   2.942   4.427  11.941  0.3445  0.4069 -0.1045
 2650SOL    HW119586   2.917   4.470  12.022 -0.0233 -0.0198  0.0072
 2650SOL    HW219587   3.014   4.483  11.909 -0.3329  1.6896  0.6371
 2651SOL     OW19588   0.291   0.735  13.252  0.2790 -0.5116  0.4966
 2651SOL    HW119589   0.324   0.662  13.200  1.0070 -0.6393  1.1292
 2651SOL    HW219590   0.363   0.795  13.273 -0.3677 -0.0117  1.2854
 2652SOL     OW19591   3.049   0.510   3.618  0.1783 -0.6799  0.4221
 2652SOL    HW119592   3.113   0.492   3.687 -0.9163 -1.2150  1.2936
 2652SOL    HW219593   3.088   0.489   3.534 -1.7132  2.6104 -1.2686
 2653SOL     OW19594   4.360   3.236   0.303  0.1127  0.4978 -0.1104
 2653SOL    HW119595   4.345   3.158   0.358 -2.3725  0.3794 -0.9417
 2653SOL    HW219596   4.428   3.276   0.357 -0.1362  0.2760  0.3730
 2654SOL     OW19597   4.399   1.593   0.716 -0.1944  0.1869 -0.7248
 2654SOL    HW119598   4.393   1.517   0.657 -3.5545 -0.4284  0.3824
 2654SOL    HW219599   4.399   1.666   0.654  0.3902  1.6836  1.0444
 2655SOL     OW19600   0.251   3.278  17.085  0.5594 -0.4395 -0.5078
 2655SOL    HW119601   0.214   3.313  17.003 -0.7997 -2.0028 -0.5558
 2655SOL    HW219602   0.344   3.293  17.068  0.4445  0.5668 -0.2990
 2656SOL     OW19603   3.215   3.554  16.515  0.1230  0.5380 -0.1829
 2656SOL    HW119604   3.292   3.537  16.461  0.1544  0.9724 -0.2754
 2656SOL    HW219605   3.206   3.649  16.508 -1.6606  0.3429 -0.6987
 2657SOL     OW19606   3.594   1.019  17.166  0.1901 -0.2449 -0.5482
 2657SOL    HW119607   3.587   1.067  17.083 -0.0530 -0.0293 -0.4031
 2657SOL    HW219608   3.511   1.036  17.210  0.6938 -1.7092  0.9481
 2658SOL     OW19609   3.251   2.582  12.908 -0.1696  0.2378 -0.8652
 2658SOL    HW119610   3.319   2.650  12.915  0.8456 -0.7999 -0.7533
 2658SOL    HW219611   3.309   2.517  12.868  2.1808  1.7160  0.1137
 2659SOL     OW19612   3.943   2.831   3.925 -0.1181 -0.3470  0.0583
 2659SOL    HW119613   3.988   2.746   3.931 -0.6658 -0.4458  2.8536
 2659SOL    HW219614   3.987   2.880   3.856  0.7170 -2.7478 -1.1069
 2660SOL     OW19615   2.313   0.328  17.193 -0.6891 -0.0832  0.6393
 2660SOL    HW119616   2.366   0.377  17.129 -0.8902  0.3199  0.7823
 2660SOL    HW219617   2.369   0.257  17.223  1.0614  1.3878  0.9091
 2661SOL     OW19618   3.725   3.912  17.455  0.5365 -0.3548 -0.2090
 2661SOL    HW119619   3.703   3.828  17.413 -0.1866 -0.0763 -0.3940
 2661SOL    HW219620   3.793   3.944  17.396 -0.0864 -0.1912 -0.8460
 2662SOL     OW19621   2.351   3.122   4.324 -0.0830 -0.5122 -0.0740
 2662SOL    HW119622   2.302   3.111   4.243 -1.0223  0.4815  0.3543
 2662SOL    HW219623   2.402   3.042   4.312 -0.0784 -0.7380  1.4504
 2663SOL     OW19624   4.268   0.039  15.781  0.5772  0.2377  0.0726
 2663SOL    HW119625   4.310   0.046  15.696 -1.1185  2.1890 -0.6019
 2663SOL    HW219626   4.181   0.024  15.743  0.1834 -0.5536  1.2668
 2664SOL     OW19627   3.673   2.431   3.908 -0.5476  0.3994 -0.0112
 2664SOL    HW119628   3.680   2.369   3.835  3.2517 -0.9480  1.4810
 2664SOL    HW219629   3.700   2.505   3.854  0.9041  0.8347  1.2877
 2665SOL     OW19630   2.965   3.933  17.158 -0.3682 -0.3675  0.5054
 2665SOL    HW119631   2.908   4.001  17.193  0.6259  1.0064 -0.5226
 2665SOL    HW219632   3.053   3.970  17.162 -1.0934  1.3452  0.6569
 2666SOL     OW19633   4.711   1.147   8.512 -0.3422 -0.3577  0.1424
 2666SOL    HW119634   4.717   1.092   8.435  0.0018 -0.4843  0.2580
 2666SOL    HW219635   4.621   1.180   8.519 -0.4457 -0.7573  0.7676
 2667SOL     OW19636   1.018   0.995  17.660 -0.8059  0.5649  0.2636
 2667SOL    HW119637   1.112   0.989  17.677 -0.6787  1.4861 -0.1538
 2667SOL    HW219638   0.990   0.936  17.730  0.5140  1.0853  1.2119
 2668SOL     OW19639   0.474   0.044   6.895  0.3745 -0.0877  0.7396
 2668SOL    HW119640   0.416   0.097   6.949  1.0779  1.7873 -0.3293
 2668SOL    HW219641   0.551   0.100   6.889 -0.2831  0.5655 -1.6092
 2669SOL     OW19642   2.003   2.117   1.118  0.0139 -0.0087 -0.4307
 2669SOL    HW119643   2.053   2.043   1.083  1.3587  0.6890  0.0374
 2669SOL    HW219644   2.026   2.102   1.210  0.6280 -4.1291 -1.2292
 2670SOL     OW19645   3.662   4.021   3.826  0.3042 -0.5034  0.2815
 2670SOL    HW119646   3.703   4.040   3.911 -1.5421 -1.4823  1.3915
 2670SOL    HW219647   3.689   3.931   3.805 -1.2461 -1.1100  0.8840
 2671SOL     OW19648   3.475   1.332   9.150 -0.4632  0.4238 -0.0958
 2671SOL    HW119649   3.387   1.318   9.185  0.2431 -1.4223  0.9291
 2671SOL    HW219650   3.471   1.424   9.124 -0.0932  0.7375  0.9410
 2672SOL     OW19651   3.024   0.211   8.321 -0.1281 -0.3609 -0.3613
 2672SOL    HW119652   3.097   0.151   8.341 -0.8746 -1.1890 -0.1303
 2672SOL    HW219653   2.982   0.164   8.249  0.0868 -1.3649  0.1661
 2673SOL     OW19654   1.982   2.681  13.875  0.5216  0.3524  0.4309
 2673SOL    HW119655   1.991   2.773  13.850 -0.2699 -0.2346 -2.0138
 2673SOL    HW219656   1.887   2.672  13.881  0.3208 -0.3698 -3.6020
 2674SOL     OW19657   2.610   4.413  11.862 -0.1920 -0.0858 -0.0083
 2674SOL    HW119658   2.703   4.402  11.884 -0.2598 -0.9930 -0.1385
 2674SOL    HW219659   2.573   4.330  11.892  0.6190 -0.2701  0.4641
 2675SOL     OW19660   1.202   1.872   7.219  0.4555  0.3914 -0.0640
 2675SOL    HW119661   1.113   1.876   7.185  0.1990  3.2878  0.8996
 2675SOL    HW219662   1.196   1.822   7.301  1.3217  0.8619  0.2943
 2676SOL     OW19663   4.559   2.074  13.083 -0.2625  0.0155 -0.1965
 2676SOL    HW119664   4.634   2.085  13.025  1.3692  1.5678  2.2391
 2676SOL    HW219665   4.586   1.988  13.114  2.2967  1.2384  0.9657
 2677SOL     OW19666   1.180   2.378   7.610  0.3261  0.2232  0.5818
 2677SOL    HW119667   1.104   2.393   7.554 -1.3440 -2.6869  2.0807
 2677SOL    HW219668   1.246   2.372   7.541 -1.4473  1.4564 -1.2198
 2678SOL     OW19669   1.631   2.737   9.218  0.4904  0.4843 -0.1684
 2678SOL    HW119670   1.643   2.804   9.286  0.6901  0.9984 -0.7189
 2678SOL    HW219671   1.710   2.684   9.224  1.7989  2.4996  0.0487
 2679SOL     OW19672   2.583   3.735   3.851 -0.5552 -0.1715 -0.0529
 2679SOL    HW119673   2.661   3.783   3.824 -0.7598 -0.0618 -0.4500
 2679SOL    HW219674   2.580   3.748   3.946  1.0707 -0.9968  0.1079
 2680SOL     OW19675   0.558   0.369   9.097 -0.9068 -0.5114  0.4379
 2680SOL    HW119676   0.501   0.430   9.144  0.3397  0.2885  0.9168
 2680SOL    HW219677   0.587   0.429   9.028  1.2995 -2.3964 -0.2624
 2681SOL     OW19678   3.679   4.212   3.322  0.0364 -0.0207  0.7071
 2681SOL    HW119679   3.708   4.247   3.407 -0.5106  1.2249  0.3725
 2681SOL    HW219680   3.662   4.121   3.344  0.7836 -0.1150  0.9109
 2682SOL     OW19681   3.324   4.410   0.536 -0.1401 -0.4246  0.1420
 2682SOL    HW119682   3.377   4.344   0.491 -1.7030 -1.5608 -0.0045
 2682SOL    HW219683   3.243   4.364   0.555  0.3907  0.6386  4.8119
 2683SOL     OW19684   3.121   2.519   4.592 -0.5013  0.1030 -0.0766
 2683SOL    HW119685   3.133   2.614   4.593  0.2862  0.0024  0.1666
 2683SOL    HW219686   3.161   2.504   4.678 -2.0630 -2.3943  0.1901
 2684SOL     OW19687   3.126   3.672   2.366  0.7353  0.0192  0.1294
 2684SOL    HW119688   3.096   3.647   2.453  0.5124  1.1002  0.3603
 2684SOL    HW219689   3.074   3.622   2.302  1.2467  0.9285 -0.9986
 2685SOL     OW19690   1.583   3.205   8.773 -0.4829  0.0262 -0.0165
 2685SOL    HW119691   1.675   3.186   8.754 -1.0832  0.5658 -3.3528
 2685SOL    HW219692   1.541   3.119   8.776 -0.0230 -0.3035 -3.0030
 2686SOL     OW19693   2.029   2.400   8.370  0.2942  0.4359 -0.7192
 2686SOL    HW119694   2.053   2.436   8.455  0.9245 -2.3711  0.3113
 2686SOL    HW219695   1.997   2.473   8.317  0.0872  0.8206 -0.0683
 2687SOL     OW19696   3.782   0.453   8.178 -0.0320  0.1749  0.7401
 2687SOL    HW119697   3.835   0.493   8.247  1.1175  0.1844 -0.1363
 2687SOL    HW219698   3.834   0.468   8.099 -0.3765  2.0469  0.8532
 2688SOL     OW19699   1.243   1.071   3.198  0.7747  0.1195 -0.1572
 2688SOL    HW119700   1.213   1.042   3.284 -0.2211  0.5133 -0.3714
 2688SOL    HW219701   1.193   1.017   3.136  0.6257  2.0547 -1.7333
 2689SOL     OW19702   4.590   0.239  15.487 -0.3872  0.2578  0.0694
 2689SOL    HW119703   4.608   0.296  15.561 -0.3267  2.7481 -1.8875
 2689SOL    HW219704   4.495   0.227  15.487 -0.2396 -0.9711  0.2126
 2690SOL     OW19705   0.022   2.468   7.846 -0.3859  0.4767 -0.0225
 2690SOL    HW119706   0.093   2.405   7.832 -2.4263 -1.5475 -1.3242
 2690SOL    HW219707   4.682   2.426   7.809  0.2493 -0.2362 -0.5509
 2691SOL     OW19708   0.101   1.410  12.112 -0.1436 -0.2268  0.7274
 2691SOL    HW119709   0.181   1.373  12.076 -0.6366 -1.5773  1.0091
 2691SOL    HW219710   0.059   1.325  12.128  2.0412 -1.1147  1.6827
 2692SOL     OW19711   2.461   2.514   9.886  0.3897 -0.4571  0.4935
 2692SOL    HW119712   2.485   2.604   9.910  1.5397 -1.3749  2.8147
 2692SOL    HW219713   2.391   2.532   9.824  0.9016  1.6738  0.5058
 2693SOL     OW19714   3.527   1.824  17.221 -0.4079 -0.0656 -0.2882
 2693SOL    HW119715   3.589   1.762  17.259 -0.8754 -1.0672 -1.1471
 2693SOL    HW219716   3.475   1.847  17.298  1.0871  2.1799  0.0512
 2694SOL     OW19717   2.507   2.038   7.291  0.0568 -0.2186  0.2862
 2694SOL    HW119718   2.573   2.093   7.332  0.0479  0.1149 -0.1575
 2694SOL    HW219719   2.478   2.102   7.226 -0.6258 -0.9999 -0.1793
 2695SOL     OW19720   0.323   3.641   0.080 -0.1073  0.2499 -0.1489
 2695SOL    HW119721   0.375   3.569   0.046  0.6191  0.9936 -0.6193
 2695SOL    HW219722   0.316   3.686  17.742  2.5740 -3.9287 -2.5780
 2696SOL     OW19723   0.697   2.819   8.308  0.3540  0.0537  0.0753
 2696SOL    HW119724   0.654   2.903   8.325 -2.9097 -1.5136 -0.3739
 2696SOL    HW219725   0.646   2.753   8.356  2.2046 -0.4020  1.3911
 2697SOL     OW19726   3.161   2.979   5.625 -0.2402 -0.4820 -0.0024
 2697SOL    HW119727   3.069   2.988   5.647 -0.5848  0.0422 -1.6412
 2697SOL    HW219728   3.175   3.071   5.601  1.8484 -1.2531 -1.8299
 2698SOL     OW19729   2.274   2.800   8.221 -0.0943  0.6185  0.0546
 2698SOL    HW119730   2.316   2.719   8.251  0.0341  0.9170  0.6848
 2698SOL    HW219731   2.347   2.856   8.196 -0.1703  0.1746 -1.1231
 2699SOL     OW19732   4.416   0.314  12.163  0.0448 -0.2231  0.0712
 2699SOL    HW119733   4.437   0.226  12.132 -0.0797 -0.4097  0.5080
 2699SOL    HW219734   4.504   0.346  12.183  0.0824 -0.7235  0.6815
 2700SOL     OW19735   3.037   4.698   9.381  0.1457  0.7647 -0.3364
 2700SOL    HW119736   3.067   0.049   9.401  0.7236  0.1983  1.2833
 2700SOL    HW219737   2.944   4.713   9.362 -0.1781 -1.6272 -0.7189
 2701SOL     OW19738   1.701   0.341  14.956  0.2979 -0.1839 -0.2799
 2701SOL    HW119739   1.660   0.295  15.029  2.1037  0.3101  1.0490
 2701SOL    HW219740   1.744   0.267  14.913  1.6494  1.3328 -1.5731
 2702SOL     OW19741   2.185   1.837   1.641  0.5932  0.0322 -0.2797
 2702SOL    HW119742   2.097   1.805   1.664  0.3537  1.3443  0.7031
 2702SOL    HW219743   2.211   1.866   1.729  1.1311 -0.2858 -0.3409
 2703SOL     OW19744   4.462   2.176   7.478  0.6809 -0.8063 -0.2222
 2703SOL    HW119745   4.457   2.271   7.486 -1.3563 -1.0727  1.6556
 2703SOL    HW219746   4.519   2.175   7.401  0.8628  0.8984 -0.1155
 2704SOL     OW19747   3.749   3.169   3.254  0.1257  0.5526 -0.7741
 2704SOL    HW119748   3.697   3.202   3.327  0.3294 -0.9568  0.0643
 2704SOL    HW219749   3.783   3.247   3.210 -0.5518  1.5263  0.4391
 2705SOL     OW19750   1.584   0.957   5.868  0.0742  0.4690  0.3924
 2705SOL    HW119751   1.587   1.021   5.797 -1.6152 -0.9428 -0.9528
 2705SOL    HW219752   1.549   0.881   5.821  0.2064 -0.0912  1.1955
 2706SOL     OW19753   0.395   2.946   5.772  0.8724 -0.0999  0.2107
 2706SOL    HW119754   0.388   2.900   5.688  0.3354  0.8550 -0.2753
 2706SOL    HW219755   0.436   3.029   5.749 -0.1216  0.5484  0.7825
 2707SOL     OW19756   0.593   0.338   7.243  0.2773 -0.0701 -0.1573
 2707SOL    HW119757   0.635   0.263   7.200 -0.1365  0.2095 -1.0388
 2707SOL    HW219758   0.643   0.410   7.207 -0.8948  0.2700 -1.0772
 2708SOL     OW19759   4.501   3.078   7.374 -0.0177  0.7855  0.2989
 2708SOL    HW119760   4.449   3.101   7.451  0.8435  0.5007  0.9660
 2708SOL    HW219761   4.578   3.040   7.416 -0.8988 -1.2118  0.1262
 2709SOL     OW19762   2.124   2.467   6.885  0.4922  0.3307  0.3889
 2709SOL    HW119763   2.105   2.558   6.906 -0.3896  0.5893 -1.4767
 2709SOL    HW219764   2.184   2.442   6.955 -1.4517 -0.2522  1.8510
 2710SOL     OW19765   4.562   3.020   6.590  0.7160  0.4075  0.6487
 2710SOL    HW119766   4.560   3.033   6.685  1.5734 -0.2664  0.7529
 2710SOL    HW219767   4.657   3.020   6.578  0.4107 -0.0906 -1.8758
 2711SOL     OW19768   2.278   1.067  10.911  0.0680 -0.4223 -0.4404
 2711SOL    HW119769   2.268   1.161  10.928  1.6568 -0.3017 -0.1831
 2711SOL    HW219770   2.311   1.034  10.995 -3.5222 -0.8253  0.8484
 2712SOL     OW19771   4.110   0.879  17.182 -0.0110  0.1472 -0.5693
 2712SOL    HW119772   4.159   0.961  17.174 -0.2406  0.3462  0.0338
 2712SOL    HW219773   4.022   0.902  17.211  0.2374 -2.0750  1.9796
 2713SOL     OW19774   1.885   0.584   9.821 -0.0720  0.3757 -0.1365
 2713SOL    HW119775   1.869   0.628   9.738  3.4591  0.1810 -0.9375
 2713SOL    HW219776   1.794   0.568   9.846  0.3554  0.0031  1.1850
 2714SOL     OW19777   2.221   1.083   7.211  0.4686 -0.0593 -0.5881
 2714SOL    HW119778   2.295   1.055   7.156  1.0816  0.4614 -0.0397
 2714SOL    HW219779   2.154   1.042   7.156  0.7758  1.7136 -2.2763
 2715SOL     OW19780   1.221   3.651   4.566 -0.9155  0.6731  0.0737
 2715SOL    HW119781   1.153   3.586   4.548 -0.6374 -0.3386  2.6845
 2715SOL    HW219782   1.188   3.679   4.652 -1.2238 -2.7355  1.0933
 2716SOL     OW19783   3.705   1.769   2.842 -0.0714  0.2516 -0.1165
 2716SOL    HW119784   3.670   1.852   2.810  2.5174  0.5601 -2.0860
 2716SOL    HW219785   3.709   1.783   2.937 -0.1924  0.0685 -0.0828
 2717SOL     OW19786   2.894   2.802   5.278 -0.1707 -0.0436  0.6722
 2717SOL    HW119787   2.894   2.754   5.195  0.0795  1.5052 -0.2277
 2717SOL    HW219788   2.808   2.844   5.272 -1.1813 -2.0088  1.5571
 2718SOL     OW19789   0.724   1.058   4.304 -0.6200  0.2763 -0.2716
 2718SOL    HW119790   0.671   1.045   4.383 -1.9776  2.0544 -0.8904
 2718SOL    HW219791   0.731   0.967   4.273 -1.5240  0.7638 -1.9390
 2719SOL     OW19792   0.968   2.166   4.612 -0.4476 -0.1582  0.3519
 2719SOL    HW119793   0.915   2.091   4.586 -2.2141  2.4027 -3.5557
 2719SOL    HW219794   0.984   2.209   4.527 -2.5545 -0.4209 -0.1832
 2720SOL     OW19795   0.263   1.595   2.266  0.2571  0.2474  0.2246
 2720SOL    HW119796   0.211   1.531   2.314 -1.0031  0.0595 -1.3708
 2720SOL    HW219797   0.262   1.548   2.182  0.7756  2.6113 -1.1227
 2721SOL     OW19798   2.842   0.059   5.243  0.2836  0.3447  0.1170
 2721SOL    HW119799   2.934   0.052   5.220  1.2317  1.9035  3.3458
 2721SOL    HW219800   2.820   4.710   5.279 -1.9452  0.7233 -0.3270
 2722SOL     OW19801   3.247   0.980   8.353  0.3361  0.2695 -0.8087
 2722SOL    HW119802   3.296   1.008   8.430  0.5556 -0.3680 -0.7221
 2722SOL    HW219803   3.284   0.895   8.330  0.4370  0.6098 -1.9309
 2723SOL     OW19804   2.669   2.560   3.568  0.3068  0.3326 -0.4113
 2723SOL    HW119805   2.712   2.476   3.551  0.1989  0.3685 -0.8821
 2723SOL    HW219806   2.599   2.561   3.502  0.5283  1.0555 -0.6348
 2724SOL     OW19807   0.693   2.547   7.160 -0.2324 -0.0646  0.0579
 2724SOL    HW119808   0.640   2.607   7.213  0.0115 -0.8153  1.1541
 2724SOL    HW219809   0.783   2.564   7.188  0.0328  0.1011 -0.8784
 2725SOL     OW19810   1.789   1.106  15.380  0.3168 -0.4994 -0.2596
 2725SOL    HW119811   1.774   1.196  15.407  0.0719 -1.0270  1.3817
 2725SOL    HW219812   1.699   1.092  15.350  0.4772  0.7118 -1.2528
 2726SOL     OW19813   3.816   4.088   4.070  0.1959 -0.2050 -0.1600
 2726SOL    HW119814   3.748   4.133   4.118 -0.1651 -2.5828  1.5620
 2726SOL    HW219815   3.889   4.147   4.090 -0.9491  0.9748  0.4814
 2727SOL     OW19816   2.203   2.201  14.321 -0.0810  0.1062  0.0591
 2727SOL    HW119817   2.249   2.198  14.405  0.9836  0.0629 -0.5212
 2727SOL    HW219818   2.274   2.240  14.271  0.4061  0.4469  1.0237
 2728SOL     OW19819   1.149   1.646  10.249  0.3035 -0.2346  0.4281
 2728SOL    HW119820   1.204   1.679  10.320  0.3730 -0.7453  0.6134
 2728SOL    HW219821   1.094   1.587  10.301  1.6398 -1.2030  0.7407
 2729SOL     OW19822   0.472   1.851  17.688  0.4870 -0.0151  0.3535
 2729SOL    HW119823   0.538   1.783  17.676 -0.3172 -0.5415 -1.0989
 2729SOL    HW219824   0.518   1.925  17.649  1.4750 -1.4645 -1.1834
 2730SOL     OW19825   3.173   3.663   8.667 -0.2241 -0.0233 -0.1674
 2730SOL    HW119826   3.241   3.646   8.601 -0.9959  0.0758 -0.9816
 2730SOL    HW219827   3.125   3.727   8.615 -2.0733 -0.5647  0.8808
 2731SOL     OW19828   0.316   1.404   5.757  0.0953 -0.1861 -0.2203
 2731SOL    HW119829   0.224   1.423   5.775  0.0166 -1.7266  0.9883
 2731SOL    HW219830   0.341   1.480   5.704  0.7873  0.7928  1.5274
 2732SOL     OW19831   4.117   4.015   6.435  0.9538 -0.0907  0.1080
 2732SOL    HW119832   4.073   3.976   6.511 -0.4111 -0.5664 -0.9010
 2732SOL    HW219833   4.154   4.093   6.474 -2.9118  0.9397  1.7197
 2733SOL     OW19834   0.947   2.362   6.447  0.2498 -0.5257 -0.1883
 2733SOL    HW119835   0.955   2.438   6.389 -0.0565 -1.8557 -2.0126
 2733SOL    HW219836   0.994   2.294   6.398 -0.1808 -0.6762 -0.3956
 2734SOL     OW19837   0.715   0.649   1.316  0.5474  0.6047 -0.2115
 2734SOL    HW119838   0.680   0.734   1.343 -0.9636  0.6820 -2.3508
 2734SOL    HW219839   0.779   0.684   1.254  0.4618  0.9514 -0.1029
 2735SOL     OW19840   0.755   0.212   9.738  0.4613  0.2670  0.1704
 2735SOL    HW119841   0.849   0.193   9.745  0.7579  0.8377 -2.4005
 2735SOL    HW219842   0.722   0.183   9.823  3.2429 -0.1315  1.1171
 2736SOL     OW19843   4.082   0.418  14.734 -0.3615 -0.3736  0.2000
 2736SOL    HW119844   3.988   0.420  14.753 -0.3229  0.9777  0.2485
 2736SOL    HW219845   4.116   0.471  14.806 -1.1187  1.1738 -0.5746
 2737SOL     OW19846   3.310   0.487   6.363 -0.2483 -0.3026  0.2008
 2737SOL    HW119847   3.251   0.544   6.313 -1.2502 -2.1435 -0.7405
 2737SOL    HW219848   3.392   0.536   6.357 -1.6986  2.1085  0.1062
 2738SOL     OW19849   1.599   3.436   7.155 -0.1237 -0.0988 -0.0995
 2738SOL    HW119850   1.690   3.465   7.152 -0.3155  0.7371  2.6171
 2738SOL    HW219851   1.585   3.381   7.078  1.1871 -1.2011  0.4524
 2739SOL     OW19852   0.583   4.567   2.834  0.4740  0.6299  0.0450
 2739SOL    HW119853   0.671   4.598   2.813 -0.5227  1.8368 -2.2632
 2739SOL    HW219854   0.525   4.626   2.787  0.3543  1.7583  1.5939
 2740SOL     OW19855   1.738   0.012   2.391  0.0394 -0.1140 -0.9541
 2740SOL    HW119856   1.673   0.067   2.434 -1.0789 -2.9313  0.9006
 2740SOL    HW219857   1.770   0.087   2.340  1.2189  0.3410  0.4674
 2741SOL     OW19858   2.178   3.806   9.476 -0.1627 -0.4845  0.2959
 2741SOL    HW119859   2.176   3.790   9.382  0.9417  0.0068  0.1869
 2741SOL    HW219860   2.114   3.743   9.510 -0.1482 -0.4517  0.3868
 2742SOL     OW19861   0.193   1.563   8.879  0.1781 -0.2839  0.0422
 2742SOL    HW119862   0.244   1.512   8.817 -0.8227  0.1849 -1.1676
 2742SOL    HW219863   0.239   1.647   8.879 -1.2301  0.4882 -0.6355
 2743SOL     OW19864   1.238   1.409   6.734  0.4944 -0.0653 -0.0199
 2743SOL    HW119865   1.286   1.491   6.750 -0.4962  0.5081  0.0585
 2743SOL    HW219866   1.304   1.347   6.764 -0.1797 -1.2206 -0.9203
 2744SOL     OW19867   2.409   2.447   8.886 -0.4224 -0.2622  0.0180
 2744SOL    HW119868   2.399   2.527   8.937  2.9398  0.1577  0.0121
 2744SOL    HW219869   2.451   2.476   8.805 -1.4491  0.8396 -0.1268
 2745SOL     OW19870   4.131   4.605   2.584  0.3032 -0.3700 -0.4165
 2745SOL    HW119871   4.114   4.620   2.491 -2.4698  1.3635  0.3703
 2745SOL    HW219872   4.170   4.685   2.619 -1.9594  0.9371 -0.8740
 2746SOL     OW19873   3.104   4.082  17.612 -0.0427  0.2749  0.1145
 2746SOL    HW119874   3.090   3.990  17.587 -0.5600  0.8669 -1.7881
 2746SOL    HW219875   3.151   4.071  17.694  3.3646  0.7144 -1.8140
 2747SOL     OW19876   4.193   3.393  13.552 -0.5146 -0.4789  0.3159
 2747SOL    HW119877   4.174   3.299  13.562 -0.2538 -0.4371  1.1911
 2747SOL    HW219878   4.202   3.418  13.643 -1.8689 -3.1689  1.1882
 2748SOL     OW19879   2.817   1.353  11.785 -0.0550 -0.2810  0.2128
 2748SOL    HW119880   2.891   1.293  11.788  0.9181  0.8956 -0.3395
 2748SOL    HW219881   2.843   1.425  11.842  1.0205 -1.0527  0.7075
 2749SOL     OW19882   0.089   1.822   5.396 -0.0443  0.3152 -0.1630
 2749SOL    HW119883   0.055   1.839   5.484 -1.6791  2.1110 -1.1550
 2749SOL    HW219884   0.132   1.904   5.371  1.4191  0.2144  2.0036
 2750SOL     OW19885   4.176   3.350   6.980 -0.3766 -0.5814 -0.2555
 2750SOL    HW119886   4.269   3.334   6.965 -0.2776 -0.2987  0.0581
 2750SOL    HW219887   4.161   3.272   7.033 -0.4201 -1.2614 -1.2596
 2751SOL     OW19888   3.376   3.806   3.002  0.2154 -0.4582  0.1898
 2751SOL    HW119889   3.421   3.846   2.928 -1.1960  1.2551  0.2708
 2751SOL    HW219890   3.337   3.884   3.041  0.1769 -0.6481  0.5326
 2752SOL     OW19891   2.801   4.476   8.244 -0.1253 -0.4710 -0.7194
 2752SOL    HW119892   2.740   4.439   8.308 -0.6315  0.5321 -0.6259
 2752SOL    HW219893   2.732   4.505   8.185 -1.0058  1.8146  1.4205
 2753SOL     OW19894   1.972   2.801  10.747  0.1925 -0.9189 -0.4676
 2753SOL    HW119895   1.944   2.875  10.800 -1.2889 -0.1594 -2.3205
 2753SOL    HW219896   2.065   2.820  10.732 -0.5088  2.3093 -0.7277
 2754SOL     OW19897   2.539   0.778   3.331 -0.3840  0.0874  0.3145
 2754SOL    HW119898   2.488   0.796   3.409 -0.9403 -0.4604  0.0789
 2754SOL    HW219899   2.474   0.742   3.270  0.6558  1.3310 -1.5345
 2755SOL     OW19900   3.120   1.531  14.522 -0.0607  0.7210 -0.1239
 2755SOL    HW119901   3.028   1.508  14.535  0.0113  0.4564 -0.0771
 2755SOL    HW219902   3.149   1.486  14.442 -2.0863 -1.4311  0.3612
 2756SOL     OW19903   3.126   3.462   6.688 -0.4736 -0.2951  0.0492
 2756SOL    HW119904   3.080   3.488   6.608 -0.8153 -2.0533 -0.3188
 2756SOL    HW219905   3.152   3.543   6.731  0.4650  0.4729 -1.9582
 2757SOL     OW19906   3.277   4.301  14.788  0.4203 -0.0872  0.0029
 2757SOL    HW119907   3.342   4.231  14.784  2.3796  1.8357 -1.6171
 2757SOL    HW219908   3.309   4.345  14.867  0.2027 -1.9461  1.1180
 2758SOL     OW19909   3.422   2.847   1.713 -0.1949 -0.1616  0.1307
 2758SOL    HW119910   3.403   2.940   1.722 -1.5821 -0.3328 -0.9125
 2758SOL    HW219911   3.516   2.863   1.706 -0.5627  1.3861 -1.2040
 2759SOL     OW19912   2.935   1.265   2.876  0.2012  0.4184  0.2871
 2759SOL    HW119913   2.890   1.344   2.846 -0.9482 -1.1386 -2.0015
 2759SOL    HW219914   2.935   1.222   2.791 -4.2882  2.0300 -0.5642
 2760SOL     OW19915   2.339   2.121  14.561 -0.0704 -0.1045 -0.4810
 2760SOL    HW119916   2.355   2.028  14.543  0.0533  0.1732 -1.8570
 2760SOL    HW219917   2.326   2.112  14.655  1.4384 -1.1100 -0.3714
 2761SOL     OW19918   0.442   2.152   1.561  0.7803  0.1891  0.0540
 2761SOL    HW119919   0.363   2.149   1.507  0.4649 -0.2794  0.5449
 2761SOL    HW219920   0.423   2.225   1.620  1.3843  0.3474  0.0495
 2762SOL     OW19921   3.629   4.255   6.932 -0.1294 -0.1355 -0.1563
 2762SOL    HW119922   3.577   4.333   6.912  0.1907 -0.3089 -1.6232
 2762SOL    HW219923   3.715   4.295   6.923 -0.0017 -0.1714  0.8527
 2763SOL     OW19924   0.384   0.685   3.835 -0.1158 -0.5950 -0.0266
 2763SOL    HW119925   0.298   0.688   3.879 -0.2587 -0.4965 -0.3131
 2763SOL    HW219926   0.401   0.779   3.844 -1.8350 -0.3710  0.9197
 2764SOL     OW19927   4.424   1.684   7.650  0.3794  0.4650  0.3427
 2764SOL    HW119928   4.417   1.779   7.654  2.1714  0.7234 -2.3663
 2764SOL    HW219929   4.347   1.663   7.596  0.8545  0.4879 -0.3520
 2765SOL     OW19930   4.053   2.267   6.545 -0.2206 -0.6626  0.0782
 2765SOL    HW119931   4.072   2.187   6.496 -0.5144 -1.1737  0.7993
 2765SOL    HW219932   4.114   2.255   6.618 -0.6313  0.0617  0.5411
 2766SOL     OW19933   4.735   3.279   9.017  0.0757  0.4298  0.4616
 2766SOL    HW119934   4.690   3.270   9.101 -1.0997  1.1063 -0.0938
 2766SOL    HW219935   4.667   3.287   8.950  0.7423 -2.2281 -0.5095
 2767SOL     OW19936   2.867   2.389   4.585  0.0103  0.5336  0.5892
 2767SOL    HW119937   2.919   2.335   4.525  0.5007  1.8749 -0.1858
 2767SOL    HW219938   2.910   2.474   4.586  3.0387 -0.9450 -0.2012
 2768SOL     OW19939   0.756   3.724   2.641 -0.0771  0.4294  0.5069
 2768SOL    HW119940   0.665   3.753   2.655 -0.0992  0.8533 -0.4621
 2768SOL    HW219941   0.802   3.807   2.652  1.3691 -0.5578  1.8644
 2769SOL     OW19942   3.077   3.021   8.978 -0.1299 -0.4183 -0.3700
 2769SOL    HW119943   3.164   2.980   8.985  0.7814  1.8141  1.1382
 2769SOL    HW219944   3.087   3.084   9.048  0.9583  0.5795 -1.4154
 2770SOL     OW19945   2.723   0.161   4.841 -0.2818  0.3612 -0.4879
 2770SOL    HW119946   2.814   0.162   4.810  0.1000 -0.2148  0.6383
 2770SOL    HW219947   2.693   0.078   4.805 -1.7960  0.0376  1.5872
 2771SOL     OW19948   2.405   4.489  13.386 -0.0849  0.1007 -0.0143
 2771SOL    HW119949   2.336   4.536  13.434  1.1323  1.1268  0.7455
 2771SOL    HW219950   2.446   4.437  13.455  3.2727  0.5463 -1.6910
 2772SOL     OW19951   2.739   1.801   9.278  0.4728  0.1415 -0.1073
 2772SOL    HW119952   2.737   1.896   9.267 -0.0105  0.2212  0.7143
 2772SOL    HW219953   2.692   1.789   9.195 -1.8009  0.3854  1.1727
 2773SOL     OW19954   2.359   2.962   5.868  0.1978  0.0906 -0.0519
 2773SOL    HW119955   2.423   2.899   5.835 -0.5611 -0.5635 -0.2719
 2773SOL    HW219956   2.278   2.915   5.887 -1.3378  2.6355 -0.2262
 2774SOL     OW19957   2.275   4.296  16.427 -0.3588 -0.1036 -0.3240
 2774SOL    HW119958   2.288   4.254  16.342  0.4582 -2.3285  0.9088
 2774SOL    HW219959   2.235   4.380  16.405 -1.2884 -0.3030  0.5433
 2775SOL     OW19960   2.023   0.467   7.832 -0.1462  0.4778  0.4718
 2775SOL    HW119961   1.943   0.482   7.882 -0.3757  1.2724 -0.1349
 2775SOL    HW219962   1.993   0.412   7.759  1.6646  1.1975 -0.8280
 2776SOL     OW19963   4.416   4.413   1.987  0.9064  0.4714  0.2040
 2776SOL    HW119964   4.494   4.363   1.963 -0.1149 -0.1708 -1.8289
 2776SOL    HW219965   4.421   4.405   2.082  1.7411  1.5842  0.2638
 2777SOL     OW19966   4.388   1.587   6.959  0.6810  0.4408  0.2841
 2777SOL    HW119967   4.382   1.576   7.053  0.4638  1.2612  0.3728
 2777SOL    HW219968   4.411   1.680   6.949 -0.3747  0.8118  1.2866
 2778SOL     OW19969   0.927   1.318   7.915 -0.3479  0.0724 -0.1364
 2778SOL    HW119970   0.842   1.326   7.872 -0.3856  2.7360  0.4403
 2778SOL    HW219971   0.979   1.305   7.836 -0.1063 -0.6237  0.1306
 2779SOL     OW19972   4.715   4.354   4.074  0.0996 -0.0518  0.1377
 2779SOL    HW119973   4.677   4.437   4.048  0.7394  0.1083 -0.2952
 2779SOL    HW219974   4.698   4.355   4.168  0.4272 -1.0144  0.2060
 2780SOL     OW19975   1.852   0.764   6.369  0.9506 -0.3193 -0.0901
 2780SOL    HW119976   1.849   0.859   6.376  3.6760 -0.1244 -1.8165
 2780SOL    HW219977   1.933   0.761   6.318  0.8336  2.2020 -0.4028
 2781SOL     OW19978   1.751   3.682  13.604 -0.1992 -0.0129  0.8191
 2781SOL    HW119979   1.824   3.621  13.614  0.2389  0.4496  0.4552
 2781SOL    HW219980   1.755   3.682  13.509 -0.4545  0.8507  0.8068
 2782SOL     OW19981   1.428   1.468   4.053 -0.3504 -0.0274 -0.4447
 2782SOL    HW119982   1.497   1.407   4.078  0.5641  1.3166  0.3499
 2782SOL    HW219983   1.389   1.428   3.976 -0.8647  0.8198 -0.6207
 2783SOL     OW19984   1.467   2.261   3.031 -0.1216  0.5874  0.3702
 2783SOL    HW119985   1.493   2.173   3.004 -0.0094  1.3081 -1.8814
 2783SOL    HW219986   1.536   2.310   2.986 -0.1502 -0.2300 -0.5582
 2784SOL     OW19987   1.834   4.660  16.784 -0.2883 -0.0140 -0.4841
 2784SOL    HW119988   1.769   4.724  16.755 -0.9239 -0.0406  0.8939
 2784SOL    HW219989   1.854   4.696  16.870 -1.8208  1.4179 -0.7357
 2785SOL     OW19990   0.077   1.460   8.482  0.4142  1.1203  0.0032
 2785SOL    HW119991   0.038   1.393   8.426  1.7870 -0.4655  0.9200
 2785SOL    HW219992   0.150   1.411   8.521 -1.6202 -0.5130  1.7234
 2786SOL     OW19993   3.659   0.065   9.220 -1.1823 -0.0621 -0.2380
 2786SOL    HW119994   3.660   4.707   9.209 -2.3950 -0.1970  0.7930
 2786SOL    HW219995   3.568   0.089   9.206 -1.1360  0.5700  0.5194
 2787SOL     OW19996   4.450   4.569   6.160 -0.5265 -0.0698  0.1239
 2787SOL    HW119997   4.468   4.516   6.237  2.0286  0.5235 -0.0757
 2787SOL    HW219998   4.454   4.507   6.088  1.3737 -0.3844  0.5039
 2788SOL     OW19999   0.712   0.880   7.429  0.3960  0.0196 -0.0764
 2788SOL    HW120000   0.646   0.877   7.498  0.9527 -1.5466  0.3988
 2788SOL    HW220001   0.687   0.956   7.376 -0.0383  0.7377  1.1651
 2789SOL     OW20002   3.035   0.552   4.642  0.1141 -0.4478  0.6037
 2789SOL    HW120003   3.059   0.588   4.557 -1.5295 -1.9364 -0.4849
 2789SOL    HW220004   3.100   0.583   4.705  0.9955 -1.0114 -0.0345
 2790SOL     OW20005   2.189   3.438   8.543  0.5671  0.0273 -0.2728
 2790SOL    HW120006   2.216   3.454   8.634  0.4770  1.8902 -0.5717
 2790SOL    HW220007   2.267   3.405   8.499  0.5160 -0.5007  0.0379
 2791SOL     OW20008   1.019   3.569   7.167 -0.4275 -0.2099 -0.3467
 2791SOL    HW120009   0.983   3.523   7.091 -1.3038  1.2541 -0.8376
 2791SOL    HW220010   1.102   3.523   7.179  1.4555  3.9247  2.8578
 2792SOL     OW20011   2.498   0.092   5.586  0.3989 -0.1261  0.2343
 2792SOL    HW120012   2.569   0.034   5.617 -0.0950 -1.2478 -0.7309
 2792SOL    HW220013   2.432   0.072   5.652 -1.0944  0.0136 -1.2336
 2793SOL     OW20014   2.562   1.935   6.064  0.1049 -0.8701 -0.2158
 2793SOL    HW120015   2.619   1.935   6.141 -1.0469 -2.3841  0.6463
 2793SOL    HW220016   2.509   1.857   6.081  1.3864 -1.6875 -0.0339
 2794SOL     OW20017   3.725   0.881   1.070  0.8209 -0.0882  0.2088
 2794SOL    HW120018   3.710   0.790   1.096 -0.2533  0.1384  0.4103
 2794SOL    HW220019   3.685   0.901   0.985 -4.4676 -1.2959  2.4155
 2795SOL     OW20020   1.543   1.040   8.473 -0.2403  0.0363 -0.1261
 2795SOL    HW120021   1.454   1.068   8.453 -0.6668 -0.7987  0.5465
 2795SOL    HW220022   1.595   1.115   8.444 -2.4435  1.8730  0.6788
 2796SOL     OW20023   3.155   0.808  17.675 -0.1599 -0.0676  0.2209
 2796SOL    HW120024   3.161   0.718  17.709  0.9125  0.4923  1.5174
 2796SOL    HW220025   3.176   0.857   0.008 -0.3812  1.5263 -0.7141
 2797SOL     OW20026   0.245   3.931   6.202  0.3660  0.0181  0.4267
 2797SOL    HW120027   0.272   4.019   6.231  0.2884 -0.1522  1.0220
 2797SOL    HW220028   0.310   3.901   6.138  2.6087  2.5992  1.4580
 2798SOL     OW20029   3.162   2.488   8.760 -0.1505  0.3653  0.3483
 2798SOL    HW120030   3.074   2.462   8.733  0.9395 -1.5516 -1.3336
 2798SOL    HW220031   3.145   2.569   8.808  1.6818  1.8379 -1.4915
 2799SOL     OW20032   3.940   2.305   3.059 -0.4670 -0.2565 -0.0098
 2799SOL    HW120033   4.000   2.272   3.127  0.2000 -0.0282 -0.4857
 2799SOL    HW220034   4.008   2.330   2.996  1.7702 -1.8674  1.7597
 2800SOL     OW20035   0.344   3.727   5.080  0.1993  0.5259 -0.1800
 2800SOL    HW120036   0.290   3.806   5.076  0.7167  0.9167  0.6837
 2800SOL    HW220037   0.430   3.767   5.078  0.1029  0.7386 -0.0563
 2801SOL     OW20038   3.469   0.748   2.418 -0.2654 -0.0690  0.3625
 2801SOL    HW120039   3.501   0.664   2.385 -0.9643 -0.8925  1.7289
 2801SOL    HW220040   3.553   0.777   2.453  0.4440 -1.6716 -0.0402
 2802SOL     OW20041   2.800   1.415   4.877 -0.1312 -0.0091  0.0781
 2802SOL    HW120042   2.775   1.402   4.969  1.4918 -0.6631  0.4371
 2802SOL    HW220043   2.786   1.510   4.872 -1.5644 -0.2000  0.5010
 2803SOL     OW20044   1.245   3.776   9.345  0.0696 -0.4703  0.6333
 2803SOL    HW120045   1.245   3.777   9.441 -2.6111  0.1612  0.6449
 2803SOL    HW220046   1.305   3.849   9.332 -2.5314  1.7886  1.1509
 2804SOL     OW20047   3.551   1.132   5.182  0.9802  1.0494 -0.3344
 2804SOL    HW120048   3.489   1.156   5.113  0.4313  0.1013 -0.1687
 2804SOL    HW220049   3.577   1.214   5.225 -1.1429  1.1267  0.8207
 2805SOL     OW20050   1.918   4.504   7.382  0.2498  1.0489 -0.6341
 2805SOL    HW120051   1.938   4.441   7.314 -0.5961  0.9512 -0.7894
 2805SOL    HW220052   1.994   4.559   7.362  1.4082 -0.6220 -0.7936
 2806SOL     OW20053   4.565   1.832  12.485  0.4021 -0.9026  0.0602
 2806SOL    HW120054   4.633   1.824  12.551  0.6875 -0.8813 -0.2331
 2806SOL    HW220055   4.558   1.927  12.493  3.1569 -0.5604 -1.9397
 2807SOL     OW20056   1.364   4.670   1.647 -0.1038 -0.2118 -0.3056
 2807SOL    HW120057   1.390   0.004   1.706  2.6750 -0.9101 -0.6751
 2807SOL    HW220058   1.439   4.671   1.589 -0.1499 -0.7759 -0.3704
 2808SOL     OW20059   3.068   3.435   3.595 -0.2145  0.1166  0.6783
 2808SOL    HW120060   3.023   3.451   3.512 -1.1458 -0.5959  1.0462
 2808SOL    HW220061   3.000   3.439   3.662 -0.1067  0.1648  0.7844
 2809SOL     OW20062   2.686   2.143   3.278 -0.1805 -0.5487  0.2464
 2809SOL    HW120063   2.678   2.076   3.210 -1.3297 -1.0130  0.8430
 2809SOL    HW220064   2.781   2.134   3.290 -0.0902 -2.4372 -1.8093
 2810SOL     OW20065   0.768   0.465   5.100 -0.3061 -0.6031  0.4574
 2810SOL    HW120066   0.677   0.494   5.094  0.0837  0.4675 -0.4459
 2810SOL    HW220067   0.802   0.504   5.019  1.9937 -1.0643  1.1947
 2811SOL     OW20068   2.418   0.585   2.959 -0.0248  0.1629  0.3010
 2811SOL    HW120069   2.415   0.679   2.939  2.0638 -0.0398 -0.9306
 2811SOL    HW220070   2.512   0.571   2.966 -0.2219 -1.2646  0.1250
 2812SOL     OW20071   4.334   2.592   0.704  0.0687  0.3591  0.2857
 2812SOL    HW120072   4.240   2.604   0.719  0.0332 -0.4742  0.7716
 2812SOL    HW220073   4.344   2.498   0.688  1.7286  0.4601  0.7577
 2813SOL     OW20074   2.210   1.183   8.656 -0.3159  0.2126 -0.5149
 2813SOL    HW120075   2.199   1.248   8.587 -1.6123 -0.3998 -0.8660
 2813SOL    HW220076   2.119   1.170   8.683 -0.5332  0.4223 -1.1613
 2814SOL     OW20077   4.644   1.373   2.008  0.3158  0.0961 -0.1186
 2814SOL    HW120078   4.701   1.298   1.988  0.9255  0.4457  0.2949
 2814SOL    HW220079   4.570   1.361   1.949  0.7022 -0.5753 -0.4754
 2815SOL     OW20080   0.716   1.608   5.109  0.1284 -0.7052 -0.3788
 2815SOL    HW120081   0.810   1.626   5.105  0.6465 -3.3739 -0.3632
 2815SOL    HW220082   0.682   1.696   5.091  2.2405  0.3159  0.6060
 2816SOL     OW20083   4.280   2.782   2.759 -0.2458  0.4228 -0.1826
 2816SOL    HW120084   4.250   2.865   2.721 -0.4661  0.2299 -0.4334
 2816SOL    HW220085   4.343   2.827   2.815 -0.3297  1.1733 -0.6910
 2817SOL     OW20086   1.481   4.728  14.353  0.7063  0.2134  0.4103
 2817SOL    HW120087   1.569   0.008  14.384  1.4127 -1.1252 -0.8674
 2817SOL    HW220088   1.444   0.079  14.347 -1.7471 -0.7811  1.0559
 2818SOL     OW20089   0.051   2.477   1.276 -0.9008 -0.1604  0.7054
 2818SOL    HW120090   0.027   2.500   1.366 -0.5896 -0.8626  0.9728
 2818SOL    HW220091   4.706   2.449   1.238 -0.3056 -0.4829 -0.3463
 2819SOL     OW20092   3.378   1.753   6.379 -0.0319  0.3469  0.0604
 2819SOL    HW120093   3.323   1.825   6.348 -1.4593 -0.7104  0.1341
 2819SOL    HW220094   3.418   1.733   6.295  0.3797  1.1542  0.0728
 2820SOL     OW20095   4.092   4.569   5.815 -0.3600  0.1595 -0.2973
 2820SOL    HW120096   4.121   4.660   5.808  2.9499 -1.2069 -4.2324
 2820SOL    HW220097   4.058   4.559   5.726  0.2046 -0.8608 -0.4035
 2821SOL     OW20098   2.501   0.904   6.341  0.6788  0.0369 -0.4123
 2821SOL    HW120099   2.591   0.928   6.321  0.8063  0.0455  0.1700
 2821SOL    HW220100   2.483   0.954   6.421  0.1122 -0.0541 -0.4867
 2822SOL     OW20101   3.536   1.409   7.622  0.3250 -0.1935  0.1483
 2822SOL    HW120102   3.584   1.467   7.681 -1.4015  2.8528 -1.4808
 2822SOL    HW220103   3.465   1.463   7.589 -0.5681 -1.3977  0.0735
 2823SOL     OW20104   0.236   3.641   8.459 -0.5154 -0.8683 -0.4364
 2823SOL    HW120105   0.149   3.678   8.470 -0.3734 -1.8860  3.7865
 2823SOL    HW220106   0.247   3.656   8.365 -0.3735 -0.9158 -0.4269
 2824SOL     OW20107   1.750   1.970   3.753  0.3080 -0.3180  0.6581
 2824SOL    HW120108   1.703   2.050   3.729 -1.8020 -1.3175  1.4418
 2824SOL    HW220109   1.753   1.913   3.676 -1.1440  0.1146  0.2883
 2825SOL     OW20110   4.689   2.032   4.405  0.8673 -0.8681 -0.2215
 2825SOL    HW120111   4.653   2.071   4.485 -2.5390 -0.2493 -2.0477
 2825SOL    HW220112   0.005   1.961   4.441 -0.2160 -2.0129 -0.8973
 2826SOL     OW20113   4.529   4.693  10.195 -0.0843 -0.0161  0.5689
 2826SOL    HW120114   4.444   4.693  10.152  0.7363  1.0770 -1.0662
 2826SOL    HW220115   4.512   4.721  10.285  3.3119  1.1152  0.8468
 2827SOL     OW20116   3.784   3.598   1.509  0.3461  0.2089 -0.8003
 2827SOL    HW120117   3.769   3.666   1.444 -0.0791  0.2194 -0.6923
 2827SOL    HW220118   3.855   3.541   1.481 -0.2898 -0.2071 -1.5661
 2828SOL     OW20119   1.897   0.804   2.585 -0.4979 -0.4741  0.6829
 2828SOL    HW120120   1.860   0.845   2.663  0.5634  0.4692  0.6966
 2828SOL    HW220121   1.911   0.870   2.516  2.3988  0.2538  1.9734
 2829SOL     OW20122   1.605   1.733   3.009 -0.7224 -0.0154 -0.1804
 2829SOL    HW120123   1.526   1.679   3.017  0.0017 -0.5958  3.1541
 2829SOL    HW220124   1.617   1.740   2.914 -0.2538  1.0943 -0.0409
 2830SOL     OW20125   2.569   0.007   6.819 -0.1326 -0.9843 -0.1604
 2830SOL    HW120126   2.565   0.019   6.914  0.9060 -0.0875 -0.2278
 2830SOL    HW220127   2.651   0.051   6.795 -0.2476 -0.2331  0.8240
 2831SOL     OW20128   4.221   1.378   7.476  0.1127  0.3939  0.4952
 2831SOL    HW120129   4.210   1.361   7.569 -1.2300  1.2445  0.4973
 2831SOL    HW220130   4.240   1.286   7.458  1.9481  1.0119 -0.7616
 2832SOL     OW20131   0.403   1.698   3.276 -0.8280 -0.6459  0.2377
 2832SOL    HW120132   0.458   1.745   3.214 -2.6194  1.3556  0.1408
 2832SOL    HW220133   0.403   1.759   3.350 -0.8101 -0.3941  0.0312
 2833SOL     OW20134   2.396   4.648   7.966  0.3514  0.8072 -0.6249
 2833SOL    HW120135   2.349   4.577   7.922  0.0354  1.9310 -2.0973
 2833SOL    HW220136   2.322   4.687   8.013 -0.7247  1.0281 -2.4670
 2834SOL     OW20137   2.741   2.298   4.238  0.1581  0.7195  0.2471
 2834SOL    HW120138   2.667   2.335   4.190  0.6641  3.6529  1.6685
 2834SOL    HW220139   2.699   2.213   4.228  1.1756  0.0299  1.8503
 2835SOL     OW20140   4.060   1.103   5.723 -0.1379  0.1665  0.1363
 2835SOL    HW120141   4.069   1.149   5.640  0.8668 -1.1201 -0.4638
 2835SOL    HW220142   4.026   1.170   5.782  1.1004  0.2640  0.7360
 2836SOL     OW20143   0.860   2.695   4.931 -0.1046  0.4134  0.6946
 2836SOL    HW120144   0.808   2.617   4.912 -1.1065  0.9586  1.1970
 2836SOL    HW220145   0.954   2.674   4.929 -0.5341 -1.3242 -1.5770
 2837SOL     OW20146   2.719   0.404   4.210  0.2046  0.0749 -0.2101
 2837SOL    HW120147   2.718   0.483   4.264 -0.4804 -1.3115  1.8210
 2837SOL    HW220148   2.700   0.437   4.122 -1.5071  0.8826  0.4665
 2838SOL     OW20149   3.871   2.911  15.765  0.5771  0.3092 -0.3474
 2838SOL    HW120150   3.876   2.944  15.675  0.6134  0.2247 -0.3767
 2838SOL    HW220151   3.837   2.823  15.750  1.2070  0.1236 -0.7182
 2839SOL     OW20152   1.567   2.124   1.122 -0.0638  0.4860  0.0336
 2839SOL    HW120153   1.608   2.070   1.188  0.6605  0.1613 -0.6885
 2839SOL    HW220154   1.550   2.200   1.179  0.7432  1.0660 -0.4973
 2840SOL     OW20155   2.440   1.629   4.849 -0.5768  0.2110  0.5095
 2840SOL    HW120156   2.524   1.670   4.868  0.5384 -0.9325 -2.0794
 2840SOL    HW220157   2.404   1.632   4.938  1.4498 -3.9593  1.4736
 2841SOL     OW20158   3.398   2.048   3.950  0.7977  0.0112  0.0142
 2841SOL    HW120159   3.331   2.000   3.999 -1.1043  2.7451  0.0719
 2841SOL    HW220160   3.464   2.064   4.018 -0.1935 -0.4807  1.0803
 2842SOL     OW20161   1.988   0.049   0.394 -0.7935  0.0882 -0.4846
 2842SOL    HW120162   1.939   0.120   0.436  0.9259  0.8700  0.2099
 2842SOL    HW220163   2.049   0.105   0.346  0.3303  0.0216  0.8526
 2843SOL     OW20164   0.930   3.383  13.506  0.3613 -0.2749  0.2245
 2843SOL    HW120165   0.854   3.421  13.463 -0.7246 -2.2166  0.4348
 2843SOL    HW220166   0.946   3.306  13.452  0.0901 -0.6853  0.7263
 2844SOL     OW20167   2.347   1.081   4.852 -0.4209 -0.4115  0.3330
 2844SOL    HW120168   2.255   1.080   4.826 -0.4879 -0.2777  0.5613
 2844SOL    HW220169   2.348   1.166   4.896 -1.1901 -0.5839  0.6945
 2845SOL     OW20170   2.915   0.086   8.108  0.3343 -0.6188  0.0108
 2845SOL    HW120171   2.832   0.119   8.072 -0.4710 -0.3568  2.0916
 2845SOL    HW220172   2.970   0.133   8.046 -1.3633  0.3692 -0.7707
 2846SOL     OW20173   4.717   1.224   8.083  0.0801  0.3202 -0.3825
 2846SOL    HW120174   0.055   1.283   8.077  0.5300 -0.3579 -1.4076
 2846SOL    HW220175   4.662   1.259   8.014 -1.3687 -3.1455 -0.9569
 2847SOL     OW20176   4.051   0.069   6.863 -0.3035  0.6138  0.1436
 2847SOL    HW120177   3.973   0.117   6.892  1.2476  3.7556 -0.9822
 2847SOL    HW220178   4.069   0.115   6.782 -0.5506 -0.3388 -0.4577
 2848SOL     OW20179   3.916   2.411  13.102 -0.2419 -0.5688  0.0049
 2848SOL    HW120180   3.866   2.330  13.091 -1.5549  0.2273  0.1197
 2848SOL    HW220181   3.999   2.379  13.136 -0.4072  0.1766  1.1028
 2849SOL     OW20182   0.132   2.217   5.973 -0.0002  0.3136 -0.7790
 2849SOL    HW120183   0.221   2.198   6.002 -0.2797  2.5636  1.5255
 2849SOL    HW220184   0.115   2.298   6.020 -0.6247 -0.2235 -0.0814
 2850SOL     OW20185   0.919   3.513   4.917  0.3775  0.1097  0.3422
 2850SOL    HW120186   0.983   3.482   4.981 -1.1074  1.5710  2.5498
 2850SOL    HW220187   0.890   3.436   4.867 -1.1979  0.7432  0.2873
 2851SOL     OW20188   3.505   0.166   1.832 -0.6765 -0.1982 -0.3177
 2851SOL    HW120189   3.511   0.226   1.907 -0.5886 -0.2557 -0.2789
 2851SOL    HW220190   3.479   0.082   1.871  2.4167  0.1910  2.6111
 2852SOL     OW20191   0.312   1.274   1.309 -0.5308  1.0194  0.2603
 2852SOL    HW120192   0.283   1.195   1.355  2.0211  0.5379  1.0649
 2852SOL    HW220193   0.300   1.237   1.221  3.1968 -2.1370  1.0166
 2853SOL     OW20194   4.431   0.819   5.233 -0.7416 -0.0184 -0.2468
 2853SOL    HW120195   4.427   0.723   5.240 -0.3004 -0.0256 -0.1173
 2853SOL    HW220196   4.343   0.848   5.258  0.2446  2.6701  0.0431
 2854SOL     OW20197   1.935   1.990   5.004 -0.3505 -0.0861 -0.0111
 2854SOL    HW120198   1.973   1.941   4.932 -0.3291  1.6320 -1.1876
 2854SOL    HW220199   2.003   1.978   5.070 -2.1126  1.1238  2.0284
 2855SOL     OW20200   3.334   3.529   6.949  0.0469  0.0286 -0.2063
 2855SOL    HW120201   3.393   3.459   6.978 -0.8116  0.4471  2.5275
 2855SOL    HW220202   3.399   3.573   6.894 -0.4728 -0.2583 -1.0532
 2856SOL     OW20203   2.838   1.765  16.130  0.0065  0.2203  0.5836
 2856SOL    HW120204   2.745   1.751  16.148 -0.2984  0.3730 -0.9257
 2856SOL    HW220205   2.864   1.847  16.171  0.8854 -0.2642  1.0036
 2857SOL     OW20206   0.036   3.025   8.246  0.3216 -0.3389  0.0863
 2857SOL    HW120207   4.732   3.064   8.324  0.4502  0.1109 -0.0710
 2857SOL    HW220208   0.106   2.975   8.286  1.6989  0.2981 -1.5615
 2858SOL     OW20209   0.329   3.054   8.088  0.5545 -0.2219 -0.5419
 2858SOL    HW120210   0.310   3.099   8.005 -1.4741 -0.4165 -0.1786
 2858SOL    HW220211   0.424   3.051   8.087  0.5585 -0.2338  0.0335
 2859SOL     OW20212   1.637   1.692   1.730  0.1567  0.1510  0.6381
 2859SOL    HW120213   1.550   1.696   1.769 -0.9087 -2.0123 -1.4716
 2859SOL    HW220214   1.693   1.659   1.800 -0.6041 -0.9322  0.7487
 2860SOL     OW20215   3.677   1.648  10.079 -0.3725 -0.3591  0.5156
 2860SOL    HW120216   3.726   1.719  10.037  0.1197 -0.2030  1.3548
 2860SOL    HW220217   3.702   1.666  10.170 -0.4792 -3.2737  1.1036
 2861SOL     OW20218   3.193   0.015   1.355 -0.3193 -0.5104  0.3353
 2861SOL    HW120219   3.168   0.087   1.413 -0.3463 -0.5596  0.3840
 2861SOL    HW220220   3.286   0.007   1.376 -0.1712  0.4247  0.0739
 2862SOL     OW20221   1.371   2.307   2.213  0.0675 -0.7030 -0.6885
 2862SOL    HW120222   1.348   2.299   2.306 -0.8382  0.5105 -0.8021
 2862SOL    HW220223   1.466   2.314   2.220  0.1579 -1.8996 -0.7002
 2863SOL     OW20224   1.758   4.513   7.984 -0.3291 -0.3347  0.3030
 2863SOL    HW120225   1.717   4.442   8.033  0.5663 -0.9853  0.1180
 2863SOL    HW220226   1.756   4.486   7.892  1.4063  2.0346 -0.4529
 2864SOL     OW20227   4.709   2.642   8.376  0.6684 -0.6175 -0.2403
 2864SOL    HW120228   4.693   2.700   8.450 -1.5531 -0.9958 -0.4290
 2864SOL    HW220229   0.026   2.694   8.316 -0.2127 -0.7835 -1.1871
 2865SOL     OW20230   1.313   1.682   0.819 -0.0473  0.0931 -0.4962
 2865SOL    HW120231   1.346   1.767   0.850 -1.3248 -0.0185  1.1453
 2865SOL    HW220232   1.346   1.682   0.729  0.0120  3.8451 -0.4820
 2866SOL     OW20233   0.937   2.693   3.843 -0.4612 -0.0083  0.1384
 2866SOL    HW120234   0.991   2.752   3.792  0.4357 -0.6740  0.3125
 2866SOL    HW220235   0.969   2.709   3.932 -0.5494  0.1549  0.1407
 2867SOL     OW20236   3.979   0.621  15.379  0.1663  0.1607  0.6663
 2867SOL    HW120237   4.063   0.667  15.371  1.4744 -2.9270 -3.5068
 2867SOL    HW220238   3.990   0.548  15.439 -3.2823  0.1906  1.3318
 2868SOL     OW20239   2.305   1.031   5.778 -0.4379 -0.2250 -0.4715
 2868SOL    HW120240   2.384   1.023   5.724 -0.2398  0.0602 -0.2230
 2868SOL    HW220241   2.287   0.938   5.793 -0.9940  0.1482  1.1267
 2869SOL     OW20242   2.255   0.655   6.726  0.1853 -0.6134 -0.0027
 2869SOL    HW120243   2.245   0.724   6.791 -2.3535 -2.0781  1.1739
 2869SOL    HW220244   2.165   0.649   6.696  1.1707 -0.4247 -2.9569
 2870SOL     OW20245   1.770   2.612  16.953 -0.1854  0.4427  0.4787
 2870SOL    HW120246   1.814   2.608  16.868  1.7841  1.0487  1.4869
 2870SOL    HW220247   1.697   2.555  16.929 -0.5135  0.6149  1.0557
 2871SOL     OW20248   0.042   3.534  13.274 -0.5158 -0.0837  0.7699
 2871SOL    HW120249   0.088   3.510  13.194 -2.2012 -2.0383  0.4150
 2871SOL    HW220250   4.692   3.501  13.254 -0.1705 -0.2294 -0.4855
 2872SOL     OW20251   3.673   4.552   4.362  0.6369 -0.6135 -0.0651
 2872SOL    HW120252   3.678   4.537   4.456 -0.2133  0.3784  0.1294
 2872SOL    HW220253   3.657   4.645   4.350  0.6677 -0.3718  1.7844
 2873SOL     OW20254   0.226   0.089  15.007  0.7231 -0.1811 -0.5939
 2873SOL    HW120255   0.319   0.069  15.017  0.8590  0.4819 -0.5846
 2873SOL    HW220256   0.184   0.035  15.074  1.5908  0.4994  0.4823
 2874SOL     OW20257   0.140   1.749  15.321  0.2765 -0.4117 -0.1979
 2874SOL    HW120258   0.172   1.685  15.385 -0.5828  0.7105  1.3359
 2874SOL    HW220259   0.064   1.790  15.362  0.6059  0.1441 -0.1471
 2875SOL     OW20260   2.511   0.794   5.375 -0.0814 -0.0971 -0.2317
 2875SOL    HW120261   2.435   0.848   5.354 -0.0690 -1.1227 -2.9324
 2875SOL    HW220262   2.568   0.830   5.307  1.7630 -0.4053  1.1361
 2876SOL     OW20263   4.165   2.771  10.220  0.1443 -0.6817 -0.2772
 2876SOL    HW120264   4.149   2.703  10.286  2.7963 -1.5811 -0.5416
 2876SOL    HW220265   4.117   2.836  10.271  0.2401  0.3166 -1.4551
 2877SOL     OW20266   2.319   4.179   9.399  0.4039 -0.0519 -0.1276
 2877SOL    HW120267   2.288   4.264   9.366 -1.3594 -0.4764  0.4125
 2877SOL    HW220268   2.242   4.163   9.455  1.2735 -0.1034  1.0416
 2878SOL     OW20269   1.750   0.165   7.544 -0.0066 -0.0880 -0.0225
 2878SOL    HW120270   1.732   0.076   7.512  4.7448 -0.9367 -0.4346
 2878SOL    HW220271   1.702   0.212   7.475  0.5325  1.4272  0.6384
 2879SOL     OW20272   3.454   2.056   8.092 -0.0346  0.2723  0.2714
 2879SOL    HW120273   3.454   2.138   8.142  2.2791  0.0622  0.6066
 2879SOL    HW220274   3.529   2.070   8.034 -1.4028  0.1285 -1.5359
 2880SOL     OW20275   3.632   4.430  16.017 -0.0401 -0.0722  0.2340
 2880SOL    HW120276   3.661   4.393  16.100 -1.3303 -1.1779  0.1931
 2880SOL    HW220277   3.614   4.520  16.045  0.9010  0.4710 -0.9109
 2881SOL     OW20278   3.726   2.946   2.377 -0.1396  0.0126  0.1432
 2881SOL    HW120279   3.646   2.922   2.330  0.0713 -0.3070 -0.0542
 2881SOL    HW220280   3.707   2.928   2.469 -0.4639 -0.1411  0.0454
 2882SOL     OW20281   4.413   1.811   7.977 -0.4395  0.1173 -0.2311
 2882SOL    HW120282   4.474   1.767   7.918  1.4594  1.6008  0.6633
 2882SOL    HW220283   4.473   1.844   8.043 -0.1179 -1.1319  0.1137
 2883SOL     OW20284   2.505   1.399   6.581  0.0350 -0.0173 -0.0848
 2883SOL    HW120285   2.515   1.305   6.596 -0.3462 -0.0795 -0.2476
 2883SOL    HW220286   2.495   1.410   6.487  1.2101 -3.0742 -0.5681
 2884SOL     OW20287   3.441   2.408   5.677  0.1810  0.5940  0.0429
 2884SOL    HW120288   3.395   2.366   5.749 -0.3516  2.2413  0.6671
 2884SOL    HW220289   3.385   2.386   5.602 -0.0953 -0.6165  0.6178
 2885SOL     OW20290   1.481   1.855   8.516 -0.9886 -0.5379  0.1862
 2885SOL    HW120291   1.547   1.924   8.507 -1.4493 -0.2188 -0.7052
 2885SOL    HW220292   1.461   1.847   8.423  0.0110 -1.7528  0.0651
 2886SOL     OW20293   1.238   3.862   3.855 -0.4189 -0.8852  0.2476
 2886SOL    HW120294   1.218   3.857   3.948 -0.1267 -1.1228  0.2994
 2886SOL    HW220295   1.279   3.775   3.855  1.6907  0.1184  0.0813
 2887SOL     OW20296   0.062   3.586   4.973 -0.2115 -0.1456  0.4682
 2887SOL    HW120297   0.103   3.646   5.035  0.0484  1.5203 -1.2918
 2887SOL    HW220298   0.107   3.604   4.890 -0.3066 -0.8430  0.2643
 2888SOL     OW20299   2.123   3.159   5.415 -0.2346  0.1602 -0.4307
 2888SOL    HW120300   2.158   3.070   5.420  1.9118  1.1183  1.4441
 2888SOL    HW220301   2.029   3.144   5.430 -0.1132 -0.8210 -0.6447
 2889SOL     OW20302   3.828   0.585   6.933  0.4466 -0.1564 -0.3186
 2889SOL    HW120303   3.880   0.654   6.974 -1.7479  1.5009 -0.3002
 2889SOL    HW220304   3.812   0.525   7.006 -2.6794  0.3126 -0.6217
 2890SOL     OW20305   0.381   3.468   4.652  0.1427 -0.6178  0.2850
 2890SOL    HW120306   0.442   3.530   4.611 -0.7858 -0.5665 -1.0352
 2890SOL    HW220307   0.417   3.457   4.740  0.7738  1.6003  0.3139
 2891SOL     OW20308   3.142   2.674   2.413 -0.0852 -0.5080 -0.3898
 2891SOL    HW120309   3.049   2.660   2.433 -0.0638 -0.1138 -0.0274
 2891SOL    HW220310   3.139   2.768   2.396 -0.0961 -0.4623 -0.1436
 2892SOL     OW20311   0.338   0.305   9.361 -0.4165  0.1076 -0.5705
 2892SOL    HW120312   0.277   0.376   9.339 -1.0526 -0.0276  0.7124
 2892SOL    HW220313   0.314   0.278   9.450  0.5709 -0.0427 -0.3584
 2893SOL     OW20314   4.143   0.098   5.055 -0.2073  0.1819  0.2805
 2893SOL    HW120315   4.177   0.036   4.990 -0.6127 -0.1604  0.3961
 2893SOL    HW220316   4.085   0.038   5.102 -1.2222 -0.4804 -1.8208
 2894SOL     OW20317   3.026   4.365   6.000  0.0979 -0.9324 -0.2543
 2894SOL    HW120318   3.020   4.460   5.994  0.6816 -0.8794  0.0109
 2894SOL    HW220319   3.000   4.346   6.090  2.1643 -2.3556  0.0607
 2895SOL     OW20320   4.447   2.835  10.121  0.1113 -0.2238  0.6935
 2895SOL    HW120321   4.535   2.805  10.144 -0.9861 -1.1181  3.6546
 2895SOL    HW220322   4.404   2.797  10.197  0.5450  1.1433  1.6111
 2896SOL     OW20323   1.411   1.193  13.040 -0.2969  0.2032  0.0135
 2896SOL    HW120324   1.353   1.268  13.029 -2.0182 -1.1676 -0.2842
 2896SOL    HW220325   1.375   1.119  12.991  1.3009 -0.5585 -0.0216
 2897SOL     OW20326   0.787   4.730  11.879  0.7204  0.5554  0.0479
 2897SOL    HW120327   0.750   4.732  11.967 -1.4126 -0.7291 -0.8229
 2897SOL    HW220328   0.882   0.007  11.885  0.4095  1.9113  1.4988
 2898SOL     OW20329   1.010   2.767   6.472  0.4270 -0.5471 -0.0210
 2898SOL    HW120330   0.972   2.735   6.554 -0.0825  0.3994  0.1102
 2898SOL    HW220331   1.102   2.755   6.499  0.3578 -1.1306 -0.0398
 2899SOL     OW20332   3.991   4.391   7.836  0.3401 -0.2430 -0.3832
 2899SOL    HW120333   4.047   4.410   7.762  2.7460 -1.0500  1.2410
 2899SOL    HW220334   3.902   4.402   7.803 -0.7102 -4.2228  1.0230
 2900SOL     OW20335   0.104   0.417   7.695 -0.3773 -0.0190 -0.2403
 2900SOL    HW120336   0.184   0.424   7.643 -1.6542  0.5008 -2.1251
 2900SOL    HW220337   0.117   0.335   7.743 -0.4849  1.2580  2.0140
 2901SOL     OW20338   2.271   2.759  16.950 -0.5343  0.5270 -0.0560
 2901SOL    HW120339   2.327   2.685  16.926 -0.1561  1.1234 -0.9976
 2901SOL    HW220340   2.326   2.784  17.025  0.5839 -3.9863  0.6560
 2902SOL     OW20341   0.417   4.187  15.121  0.5071 -0.0097 -0.2261
 2902SOL    HW120342   0.481   4.158  15.056  3.5696  1.7297  1.9901
 2902SOL    HW220343   0.452   4.151  15.203 -0.2792 -1.4387 -0.5264
 2903SOL     OW20344   2.335   1.057   3.108 -0.6660 -0.1436 -0.1111
 2903SOL    HW120345   2.352   1.092   3.196  0.9268  0.8223 -0.8116
 2903SOL    HW220346   2.416   1.084   3.067  0.0018  0.6911  1.7375
 2904SOL     OW20347   0.874   3.164  14.978 -0.0613 -0.2380 -0.4922
 2904SOL    HW120348   0.858   3.197  15.067  3.0805 -0.3505  0.1127
 2904SOL    HW220349   0.789   3.184  14.938  0.9569  1.1024 -1.9531
 2905SOL     OW20350   2.073   2.253   2.297  0.1176 -0.7065 -0.2606
 2905SOL    HW120351   2.042   2.328   2.245  0.5796 -0.4537 -0.1737
 2905SOL    HW220352   2.060   2.301   2.379 -2.3792 -1.3366 -0.3037
 2906SOL     OW20353   2.327   2.945   5.415 -0.0268 -0.2148  0.4296
 2906SOL    HW120354   2.387   2.960   5.342  0.6298  1.0843  1.2297
 2906SOL    HW220355   2.363   2.998   5.486 -1.4731  1.8315 -0.3571
 2907SOL     OW20356   2.154   2.255   6.338  0.2687  0.1190 -0.1499
 2907SOL    HW120357   2.087   2.203   6.381 -0.9200  1.7384 -0.0149
 2907SOL    HW220358   2.238   2.221   6.369 -1.0296 -0.5613  2.5750
 2908SOL     OW20359   4.698   4.142   3.891 -0.3836  0.7930  0.2414
 2908SOL    HW120360   4.676   4.201   3.963 -0.5132  0.9039  0.1106
 2908SOL    HW220361   0.053   4.165   3.876  0.0249 -0.2214  1.2265
 2909SOL     OW20362   1.407   2.210   5.402  0.5214  0.1691 -0.0494
 2909SOL    HW120363   1.377   2.301   5.401  2.6978  0.8827 -0.7017
 2909SOL    HW220364   1.499   2.228   5.383  0.3576  1.1929  0.1379
 2910SOL     OW20365   1.521   0.817   5.429 -0.1642 -0.3119  0.1634
 2910SOL    HW120366   1.497   0.889   5.487 -1.6993 -1.4914  1.0168
 2910SOL    HW220367   1.451   0.834   5.366 -1.1326 -0.7625  1.0989
 2911SOL     OW20368   1.997   0.441   2.933 -0.1896 -0.2633  0.7597
 2911SOL    HW120369   2.027   0.530   2.917 -2.3738  0.2561 -0.3861
 2911SOL    HW220370   2.071   0.400   2.888 -2.0380 -1.3936 -1.2496
 2912SOL     OW20371   3.390   0.296   6.194  0.3132  0.2047 -0.1944
 2912SOL    HW120372   3.392   0.221   6.253  1.6708  1.7045  1.6816
 2912SOL    HW220373   3.363   0.364   6.255  0.9616 -0.1235  0.4510
 2913SOL     OW20374   2.238   2.786   1.849  0.7770  0.3310  0.1194
 2913SOL    HW120375   2.269   2.874   1.826 -0.3677  0.9632  0.9739
 2913SOL    HW220376   2.314   2.751   1.894 -1.9369 -1.7551  3.1020
 2914SOL     OW20377   2.251   1.853   1.931  0.4138 -0.8285  0.5437
 2914SOL    HW120378   2.323   1.830   1.990  2.7561 -1.4169 -2.5381
 2914SOL    HW220379   2.176   1.842   1.990  1.5389  0.7090  2.2538
 2915SOL     OW20380   3.619   1.316   4.012 -0.3724  0.1565  0.1331
 2915SOL    HW120381   3.612   1.264   3.931 -0.9028  1.0893 -0.4183
 2915SOL    HW220382   3.685   1.383   3.994 -1.2902  0.6155 -1.5207
 2916SOL     OW20383   0.534   4.484   3.080 -0.5519 -0.0429 -0.0211
 2916SOL    HW120384   0.496   4.399   3.056  1.8756 -0.6223 -1.8599
 2916SOL    HW220385   0.562   4.508   2.992  1.0249 -1.9729 -0.0584
 2917SOL     OW20386   1.660   4.662   9.156 -0.5897  0.4874  0.0870
 2917SOL    HW120387   1.638   4.570   9.171  0.0035  0.9241  3.6489
 2917SOL    HW220388   1.574   4.705   9.159 -0.7869  0.3255 -2.9018
 2918SOL     OW20389   1.750   1.613  11.929  0.3311 -0.0575 -0.0607
 2918SOL    HW120390   1.678   1.554  11.909 -1.0803  2.1941 -1.6483
 2918SOL    HW220391   1.739   1.679  11.860  1.4300 -1.1865 -1.3250
 2919SOL     OW20392   1.867   2.024   4.218 -0.0403 -0.6328 -0.0784
 2919SOL    HW120393   1.809   2.020   4.141  0.9102  0.6783 -0.8656
 2919SOL    HW220394   1.949   2.037   4.171 -0.5544 -0.3939 -0.9269
 2920SOL     OW20395   4.516   1.784   2.264 -0.4394  0.2406 -0.0617
 2920SOL    HW120396   4.581   1.729   2.220 -1.3592  0.3287 -1.5079
 2920SOL    HW220397   4.495   1.729   2.340  0.8139 -0.1276  0.0154
 2921SOL     OW20398   0.289   1.089   3.614 -0.1155 -0.8462 -0.6027
 2921SOL    HW120399   0.235   1.059   3.687  0.7658  0.6809  0.6810
 2921SOL    HW220400   0.371   1.043   3.630  0.4960 -0.1503 -1.7804
 2922SOL     OW20401   3.787   4.729   3.985  0.0083  0.1423  0.6074
 2922SOL    HW120402   3.750   0.006   3.898 -2.1615 -1.4044  1.2777
 2922SOL    HW220403   3.835   4.648   3.970  1.2883  0.7443  1.3937
 2923SOL     OW20404   1.836   0.375   8.407  0.4436 -0.5310 -0.0866
 2923SOL    HW120405   1.761   0.429   8.382  0.3760 -0.1671  0.8929
 2923SOL    HW220406   1.812   0.291   8.368 -0.1867 -1.2538  1.8257
 2924SOL     OW20407   3.552   3.126   8.987 -0.4269 -0.0905 -0.4173
 2924SOL    HW120408   3.636   3.087   8.964  0.2765  2.4211 -2.1720
 2924SOL    HW220409   3.570   3.143   9.079  1.2523  0.4825 -0.8488
 2925SOL     OW20410   3.186   2.734   5.509 -0.3183  0.5604 -0.5229
 2925SOL    HW120411   3.093   2.718   5.489 -0.2881  1.0660 -1.0779
 2925SOL    HW220412   3.193   2.817   5.556  0.1187 -0.0129  0.4159
 2926SOL     OW20413   3.156   2.700   3.612  0.0749 -0.1195 -0.5045
 2926SOL    HW120414   3.233   2.703   3.669 -0.8994 -2.3070  0.9218
 2926SOL    HW220415   3.161   2.608   3.588 -2.0333 -0.4197  0.2190
 2927SOL     OW20416   2.833   0.944   9.229  0.4275 -0.1771  0.8845
 2927SOL    HW120417   2.875   0.983   9.153 -1.1401 -0.7219 -0.2579
 2927SOL    HW220418   2.799   1.022   9.274  1.7402  0.3945  0.9086
 2928SOL     OW20419   2.147   0.419   9.719  0.3156 -0.2214  0.3253
 2928SOL    HW120420   2.101   0.375   9.790  0.5901  2.0759  1.9235
 2928SOL    HW220421   2.234   0.380   9.710  0.4885  0.1931  0.1938
 2929SOL     OW20422   4.402   2.593   7.971  0.8164 -0.0942  0.3206
 2929SOL    HW120423   4.363   2.583   8.057  2.3660  2.2749  1.3039
 2929SOL    HW220424   4.492   2.622   7.989  1.2208  1.1359 -3.5802
 2930SOL     OW20425   0.830   0.323   4.547  0.0323 -0.5284  0.3325
 2930SOL    HW120426   0.862   0.276   4.625  1.9567  0.3312  0.0731
 2930SOL    HW220427   0.900   0.388   4.546  0.8377 -1.3777  0.8453
 2931SOL     OW20428   3.334   3.106   1.712 -0.2768 -0.6567 -0.4823
 2931SOL    HW120429   3.323   3.132   1.804  1.1266 -0.2804 -0.4149
 2931SOL    HW220430   3.292   3.175   1.660 -0.8464 -1.0753 -0.5706
 2932SOL     OW20431   3.207   0.531   3.832  0.1628  0.1741  0.5064
 2932SOL    HW120432   3.266   0.465   3.869 -1.0687 -1.5592 -0.5818
 2932SOL    HW220433   3.127   0.515   3.882 -0.7125 -0.5902 -1.1398
 2933SOL     OW20434   3.862   1.542   3.862 -0.9473 -0.0324  0.1203
 2933SOL    HW120435   3.936   1.568   3.808  0.2887  3.3975  3.4382
 2933SOL    HW220436   3.799   1.587   3.805 -1.0749  0.6961  0.8280
 2934SOL     OW20437   2.476   3.338   0.703 -0.0097 -0.1133 -0.2742
 2934SOL    HW120438   2.457   3.254   0.745  0.2882  0.5620  1.1972
 2934SOL    HW220439   2.436   3.404   0.759 -1.5287  0.4285 -1.9828
 2935SOL     OW20440   1.984   1.539   2.328 -0.8399 -0.1193  0.3913
 2935SOL    HW120441   2.050   1.606   2.345  0.3394 -0.4796 -2.7980
 2935SOL    HW220442   1.913   1.554   2.391 -0.5472 -1.5061  1.0592
 2936SOL     OW20443   2.712   2.521   8.109 -0.0620  0.1658 -0.1737
 2936SOL    HW120444   2.682   2.589   8.170  0.2539 -1.2610  1.5535
 2936SOL    HW220445   2.666   2.543   8.028  0.1773 -1.7130 -0.8046
 2937SOL     OW20446   2.272   1.730   4.649 -0.6408  0.2923  0.1873
 2937SOL    HW120447   2.329   1.677   4.704 -0.9899  0.9697  1.1945
 2937SOL    HW220448   2.323   1.761   4.574 -0.6332  0.6912  0.3576
 2938SOL     OW20449   3.306   0.023   5.970 -0.1290 -0.8063  0.0689
 2938SOL    HW120450   3.254   0.034   5.890  0.6117 -4.1674 -0.8599
 2938SOL    HW220451   3.277   0.092   6.030  0.6930  0.3184 -0.8297
 2939SOL     OW20452   2.193   1.631   2.730 -0.5004  0.2291  0.1371
 2939SOL    HW120453   2.156   1.566   2.790 -0.4608  0.5498  0.5094
 2939SOL    HW220454   2.123   1.696   2.727 -0.0821  0.5068 -3.2396
 2940SOL     OW20455   0.089   1.508   8.080  0.0462 -0.2832  0.1548
 2940SOL    HW120456   0.140   1.553   8.147  0.3324 -0.2412 -0.0923
 2940SOL    HW220457   4.737   1.538   8.098 -0.2745 -1.4088  0.3966
 2941SOL     OW20458   4.434   0.592   7.645 -0.1813  0.2324 -0.7442
 2941SOL    HW120459   4.457   0.552   7.562  1.4735  1.2617 -0.7794
 2941SOL    HW220460   4.515   0.606   7.694 -0.8501 -2.4360  1.1296
 2942SOL     OW20461   4.096   0.596   7.158 -0.2834  0.3332 -0.0054
 2942SOL    HW120462   4.033   0.667   7.171  0.1324  0.9731 -1.5645
 2942SOL    HW220463   4.042   0.519   7.178 -0.4463  1.0448  2.3766
 2943SOL     OW20464   0.648   2.311   8.585 -0.0941  0.6882 -0.0563
 2943SOL    HW120465   0.613   2.355   8.663 -1.4769  2.0176 -1.4210
 2943SOL    HW220466   0.742   2.312   8.604 -0.4086 -1.8802  1.4911
 2944SOL     OW20467   0.505   4.146  10.522 -0.6669 -0.1442  0.1185
 2944SOL    HW120468   0.439   4.078  10.518 -1.0195  0.0801  2.0410
 2944SOL    HW220469   0.547   4.133  10.607  2.3184 -1.1118 -1.5178
 2945SOL     OW20470   3.916   4.689   1.598  0.1759 -0.5667  0.2171
 2945SOL    HW120471   3.948   4.688   1.688 -1.4282  0.3309  0.7906
 2945SOL    HW220472   3.946   0.035   1.561 -0.3554 -0.5949 -0.2748
 2946SOL     OW20473   3.102   3.108   1.510 -0.3387 -0.0951  0.6071
 2946SOL    HW120474   3.113   3.035   1.571 -0.3831 -0.1666  0.5285
 2946SOL    HW220475   3.084   3.078   1.421 -0.7909  1.7589  0.0794
 2947SOL     OW20476   2.178   1.977  13.999  0.3888 -0.5605 -0.0740
 2947SOL    HW120477   2.090   1.996  13.967 -0.0674 -2.0662  0.2772
 2947SOL    HW220478   2.218   2.063  13.988  0.2724 -0.7935 -2.3896
 2948SOL     OW20479   1.583   0.678   6.678  0.4885 -0.1821 -0.3099
 2948SOL    HW120480   1.626   0.680   6.764  0.6820 -0.4693 -0.3996
 2948SOL    HW220481   1.663   0.711   6.636  0.5646 -1.7345 -1.3776
 2949SOL     OW20482   1.937   1.391   1.674  0.6600 -0.3294  0.1177
 2949SOL    HW120483   1.866   1.445   1.638  2.3657  1.2977 -0.8134
 2949SOL    HW220484   1.978   1.439   1.746  1.1989 -0.6051 -0.0041
 2950SOL     OW20485   2.343   2.826   4.456  0.1451 -0.5141 -0.1609
 2950SOL    HW120486   2.420   2.847   4.404  0.5990 -2.1469 -0.1331
 2950SOL    HW220487   2.271   2.851   4.399  1.0502  2.9491  0.2014
 2951SOL     OW20488   2.606   2.838   5.231  0.2143 -0.1586 -0.0092
 2951SOL    HW120489   2.604   2.837   5.135 -2.2169 -2.1196  0.0631
 2951SOL    HW220490   2.542   2.771   5.254 -0.7020  0.5216 -0.5864
 2952SOL     OW20491   2.615   2.276   5.782  0.3533  0.5679  0.0132
 2952SOL    HW120492   2.578   2.272   5.694  1.2191  0.4796 -0.3429
 2952SOL    HW220493   2.620   2.369   5.804  1.0137  0.4249  0.4737
 2953SOL     OW20494   3.761   3.067   2.711  0.6442  0.6526 -0.6366
 2953SOL    HW120495   3.733   2.975   2.709  3.6906 -0.3075  0.7692
 2953SOL    HW220496   3.691   3.100   2.768  1.9757  0.0258  1.3676
 2954SOL     OW20497   1.654   4.609  14.985  0.1534  0.3712  0.1124
 2954SOL    HW120498   1.583   4.670  15.005  0.4997  0.4912  0.9849
 2954SOL    HW220499   1.705   4.590  15.064 -2.5130 -1.2410  1.4562
 2955SOL     OW20500   0.703   2.123   1.515 -0.7426 -0.2280  0.1497
 2955SOL    HW120501   0.745   2.085   1.592 -0.4844  4.0817  2.1496
 2955SOL    HW220502   0.612   2.113   1.540 -1.7393 -2.1686 -4.1445
 2956SOL     OW20503   0.445   2.637  11.148  0.1516  0.1492 -0.3810
 2956SOL    HW120504   0.403   2.603  11.227  1.0265 -0.8962 -0.3576
 2956SOL    HW220505   0.524   2.680  11.180  1.3922 -1.4826 -1.2486
 2957SOL     OW20506   0.936   1.887  14.076  0.1810 -0.9330 -0.0089
 2957SOL    HW120507   0.932   1.794  14.056  1.4711 -1.6123  2.8425
 2957SOL    HW220508   0.936   1.924  13.988  0.2167 -0.2857  0.2565
 2958SOL     OW20509   2.330   3.621   6.186 -0.0171  0.1382 -0.0100
 2958SOL    HW120510   2.328   3.541   6.238 -0.4027  0.4268  0.4190
 2958SOL    HW220511   2.326   3.591   6.096  0.8875  1.2291 -0.4204
 2959SOL     OW20512   1.463   2.407   0.421  0.0951  0.2305 -0.4344
 2959SOL    HW120513   1.455   2.363   0.506  1.6656 -0.4974 -0.6635
 2959SOL    HW220514   1.376   2.444   0.409 -0.0384 -0.5965 -2.0324
 2960SOL     OW20515   2.360   2.938   3.355 -0.1249  0.1281  0.0963
 2960SOL    HW120516   2.450   2.907   3.351  0.1801  0.6566  3.1474
 2960SOL    HW220517   2.317   2.856   3.382 -1.8343  0.4351 -1.6533
 2961SOL     OW20518   3.831   0.904   7.844  0.0395 -0.4030  0.2770
 2961SOL    HW120519   3.770   0.847   7.889 -0.4540 -0.5958 -0.6321
 2961SOL    HW220520   3.783   0.924   7.763  2.1285  1.1834 -0.5866
 2962SOL     OW20521   2.502   4.340   5.909 -0.1715 -0.5235  0.2707
 2962SOL    HW120522   2.578   4.383   5.947 -0.6235 -0.6377  1.2978
 2962SOL    HW220523   2.452   4.336   5.990 -2.0971  1.5780 -0.8203
 2963SOL     OW20524   2.829   2.643   5.032  0.2402  0.9109 -0.5641
 2963SOL    HW120525   2.902   2.584   5.049 -0.1849  0.2964 -0.8777
 2963SOL    HW220526   2.754   2.596   5.070  1.7824  0.8871  2.4398
 2964SOL     OW20527   2.819   4.186   5.863  0.5807 -0.1621 -0.4715
 2964SOL    HW120528   2.904   4.187   5.906 -0.2440  0.6073  1.1731
 2964SOL    HW220529   2.812   4.275   5.829 -2.1085 -1.1173 -2.4399
 2965SOL     OW20530   1.016   4.211  16.867 -0.0772 -0.1935 -0.0025
 2965SOL    HW120531   1.015   4.232  16.774 -3.3314 -0.9829 -0.1465
 2965SOL    HW220532   1.093   4.251  16.907 -0.2421 -1.3838  1.5085
 2966SOL     OW20533   3.189   1.649  14.188  0.1063  0.0955  0.3552
 2966SOL    HW120534   3.107   1.682  14.223 -0.0548  1.3763 -1.2116
 2966SOL    HW220535   3.167   1.557  14.178 -0.0193  0.3575 -1.6927
 2967SOL     OW20536   0.640   1.254  14.979  0.1089 -0.6024 -0.2208
 2967SOL    HW120537   0.548   1.252  14.951 -0.0462 -0.5389  0.2969
 2967SOL    HW220538   0.626   1.226  15.069 -0.6746  0.3787 -0.0429
 2968SOL     OW20539   0.062   4.412  15.102  0.5853 -0.3046 -0.4554
 2968SOL    HW120540   4.711   4.419  15.065  0.0599 -1.2979  0.6029
 2968SOL    HW220541   0.062   4.317  15.114  0.1727 -0.3535 -0.8447
 2969SOL     OW20542   4.246   3.176   8.284  0.2231 -0.2847  0.5486
 2969SOL    HW120543   4.329   3.191   8.238 -1.8874  1.5924 -2.5964
 2969SOL    HW220544   4.255   3.235   8.359 -1.0624  0.0532  0.4320
 2970SOL     OW20545   4.074   1.966   8.816 -0.1901  0.1192 -0.5435
 2970SOL    HW120546   4.143   1.992   8.756 -0.7574  2.3147 -0.2358
 2970SOL    HW220547   4.072   2.029   8.888 -2.0770 -0.0322 -0.4441
 2971SOL     OW20548   1.553   4.551   7.229  1.1244  0.1937 -0.4082
 2971SOL    HW120549   1.565   4.471   7.179  1.4071 -0.9640  1.4833
 2971SOL    HW220550   1.470   4.532   7.273  2.0264 -1.4967  0.5550
 2972SOL     OW20551   2.309   1.463   5.966  0.2367 -0.2237  0.1836
 2972SOL    HW120552   2.219   1.431   5.951  1.3556 -2.9742 -0.6509
 2972SOL    HW220553   2.300   1.547   5.921 -1.1057 -0.3738  0.1719
 2973SOL     OW20554   0.097   3.647   7.116 -0.0221  0.0956 -0.2437
 2973SOL    HW120555   0.086   3.736   7.150  1.0236  0.1003  0.1076
 2973SOL    HW220556   0.140   3.661   7.032  1.5844  2.5002  0.9725
 2974SOL     OW20557   2.232   1.311  12.902 -0.1995  0.3235  0.6279
 2974SOL    HW120558   2.244   1.332  12.995 -0.7839 -0.8682  0.9708
 2974SOL    HW220559   2.294   1.239  12.889  0.6940  1.6403 -2.4288
 2975SOL     OW20560   3.320   2.295   8.654 -0.3587 -0.5619  0.2347
 2975SOL    HW120561   3.245   2.283   8.596 -0.0979 -2.2127  0.2374
 2975SOL    HW220562   3.300   2.375   8.702  1.3159 -0.5975  0.9796
 2976SOL     OW20563   1.576   4.383  13.745 -0.1905  0.3234 -0.0696
 2976SOL    HW120564   1.593   4.466  13.789  0.9045  0.4295 -0.6927
 2976SOL    HW220565   1.559   4.402  13.653  1.2267  0.0465 -0.3826
 2977SOL     OW20566   3.299   2.822   9.623 -0.0541 -0.1230  0.1732
 2977SOL    HW120567   3.269   2.786   9.539  1.3125 -0.2483 -0.2586
 2977SOL    HW220568   3.224   2.824   9.682 -0.1175 -2.2402  0.1564
 2978SOL     OW20569   1.308   3.775   7.460  0.4100 -0.1487  0.6214
 2978SOL    HW120570   1.334   3.815   7.543  1.4516 -0.7891  0.6090
 2978SOL    HW220571   1.301   3.683   7.486 -0.6623  0.1253  1.2810
 2979SOL     OW20572   0.015   1.220  16.172 -0.8398  0.7337  0.4071
 2979SOL    HW120573   4.709   1.136  16.155 -0.5101  1.2095 -2.6657
 2979SOL    HW220574   4.736   1.241  16.264  1.0263 -1.2429  1.1771
 2980SOL     OW20575   4.691   3.854  10.225 -0.2558  0.1956 -0.1930
 2980SOL    HW120576   4.708   3.771  10.180 -0.8927 -0.7934  1.3816
 2980SOL    HW220577   4.672   3.912  10.151 -1.0067  0.5110  0.2550
 2981SOL     OW20578   2.018   3.042   4.617 -0.1422  0.1648  0.4207
 2981SOL    HW120579   1.929   3.078   4.624  0.0455  0.7307 -0.0887
 2981SOL    HW220580   2.021   3.071   4.525 -0.4943  0.4841  0.5100
 2982SOL     OW20581   4.070   3.231  15.003  0.9359  0.3628  0.2463
 2982SOL    HW120582   4.002   3.245  15.068  1.8810  1.0777  1.0793
 2982SOL    HW220583   4.064   3.141  14.972  2.0930  0.8606 -1.4738
 2983SOL     OW20584   3.188   3.161   7.193 -0.0103 -0.4984 -0.2349
 2983SOL    HW120585   3.101   3.171   7.232  0.5980  1.9173  0.4596
 2983SOL    HW220586   3.226   3.107   7.263 -1.6584 -0.3937  0.7503
 2984SOL     OW20587   2.242   2.505   6.353  0.2627  0.2981  0.3627
 2984SOL    HW120588   2.242   2.525   6.446  0.7622  1.7832  0.0519
 2984SOL    HW220589   2.223   2.412   6.355  0.4134  0.2421 -0.5654
 2985SOL     OW20590   2.898   3.135   3.397  0.5251  0.1491 -0.2115
 2985SOL    HW120591   2.958   3.103   3.330  0.2762  0.0707 -0.3989
 2985SOL    HW220592   2.816   3.105   3.356  0.6465  0.5318 -0.7246
 2986SOL     OW20593   0.497   0.228   6.156 -0.4427  0.0937  0.2988
 2986SOL    HW120594   0.434   0.274   6.212  0.5527 -0.0751  1.5723
 2986SOL    HW220595   0.468   0.249   6.067 -0.3530 -4.0628 -0.7232
 2987SOL     OW20596   4.655   3.832   3.963 -0.3323 -0.5886 -0.3318
 2987SOL    HW120597   4.685   3.923   3.972  3.4245 -1.9958  1.2367
 2987SOL    HW220598   4.565   3.842   3.994  0.3646  1.2645  1.1372
 2988SOL     OW20599   2.688   1.219   5.216 -0.2236  0.3093 -0.6831
 2988SOL    HW120600   2.777   1.244   5.191  0.5239 -1.6080  0.0430
 2988SOL    HW220601   2.649   1.232   5.129 -0.3705 -1.3192 -0.8621
 2989SOL     OW20602   2.884   4.563   5.402 -0.5694 -0.0080 -0.1927
 2989SOL    HW120603   2.822   4.529   5.337 -1.1452 -1.3213  1.0499
 2989SOL    HW220604   2.941   4.486   5.400  0.8160  1.0260 -0.2167
 2990SOL     OW20605   1.257   0.906   9.043 -0.5230 -0.1596  0.1787
 2990SOL    HW120606   1.192   0.845   9.078  1.1844 -2.7199 -1.1560
 2990SOL    HW220607   1.328   0.854   9.006  1.1446  0.7908  1.9976
 2991SOL     OW20608   4.113   0.517   3.654  0.3601  0.2360 -0.0191
 2991SOL    HW120609   4.090   0.509   3.746 -2.3836 -2.3539 -0.8957
 2991SOL    HW220610   4.041   0.464   3.618 -1.9933  1.9035  2.1852
 2992SOL     OW20611   2.446   0.074   4.284  0.2028  0.3662  0.1644
 2992SOL    HW120612   2.417   0.059   4.194  2.2768  0.3771 -0.5154
 2992SOL    HW220613   2.368   0.119   4.314 -0.0258  1.0261 -1.3958
 2993SOL     OW20614   2.952   1.010   0.706  0.0350 -0.1719  0.9202
 2993SOL    HW120615   2.856   1.010   0.707  0.0416 -1.9112  0.5560
 2993SOL    HW220616   2.971   1.050   0.621 -2.4029 -1.3396 -0.1756
 2994SOL     OW20617   4.643   1.817  17.212 -0.6092  0.1302  0.3871
 2994SOL    HW120618   4.577   1.801  17.144 -0.2492  0.5243 -0.0542
 2994SOL    HW220619   4.675   1.728  17.227 -0.5620 -0.0759 -0.9716
 2995SOL     OW20620   0.328   3.552   1.075 -0.2179 -0.3348  0.5139
 2995SOL    HW120621   0.333   3.504   1.157 -0.5365 -0.0503  0.6991
 2995SOL    HW220622   0.421   3.572   1.060  0.2632 -0.6703  3.1314
 2996SOL     OW20623   2.044   3.232   4.122  0.2205 -0.5416 -0.3698
 2996SOL    HW120624   2.006   3.211   4.036  0.5270 -2.4258 -0.0567
 2996SOL    HW220625   2.112   3.293   4.093  0.1380 -0.8572 -1.2420
 2997SOL     OW20626   1.386   1.654   1.897 -0.0909  0.2863  0.3087
 2997SOL    HW120627   1.363   1.746   1.887 -0.5574 -0.0447 -1.6330
 2997SOL    HW220628   1.436   1.655   1.979 -2.3594  0.5259  1.6887
 2998SOL     OW20629   3.075   3.595   5.183 -0.6843 -0.0457 -0.8100
 2998SOL    HW120630   3.074   3.516   5.129 -1.4972 -0.6435  0.0783
 2998SOL    HW220631   3.162   3.596   5.224 -0.2670 -0.2715 -1.6977
 2999SOL     OW20632   4.082   4.485   9.573  0.1846  0.6679 -0.1854
 2999SOL    HW120633   4.118   4.434   9.500 -0.7292 -0.2868  0.0398
 2999SOL    HW220634   4.064   4.425   9.645  1.0050 -0.1704 -0.6773
 3000SOL     OW20635   1.222   0.206   3.534 -0.6865  0.1314  0.3141
 3000SOL    HW120636   1.295   0.264   3.559 -0.6342  1.1698 -2.1933
 3000SOL    HW220637   1.222   0.210   3.439  0.5084  1.3179  0.3542
 3001SOL     OW20638   4.161   4.364   9.325  0.1922 -0.1355  0.7094
 3001SOL    HW120639   4.249   4.392   9.350  1.3891 -3.0213 -0.2397
 3001SOL    HW220640   4.177   4.270   9.312  4.0907  0.5210  0.7880
 3002SOL     OW20641   0.010   3.069   5.377 -0.0738  0.0907  0.1571
 3002SOL    HW120642   0.031   2.988   5.425  0.7304 -0.3125 -0.8836
 3002SOL    HW220643   0.007   3.124   5.455  0.2874  1.7202 -0.9826
 3003SOL     OW20644   0.190   1.423  14.309 -0.1762  0.1846  0.9426
 3003SOL    HW120645   0.207   1.511  14.341 -2.2094  0.2931  1.7384
 3003SOL    HW220646   0.103   1.413  14.348 -0.4834 -1.3145 -0.1006
 3004SOL     OW20647   4.498   0.497   4.400  0.3268 -0.3463  0.3329
 3004SOL    HW120648   4.545   0.442   4.462 -2.1967 -4.3070 -1.3098
 3004SOL    HW220649   4.409   0.472   4.425 -0.3061  1.0934 -0.4784
 3005SOL     OW20650   4.290   3.698   7.822  0.0107  0.3382 -0.7890
 3005SOL    HW120651   4.217   3.664   7.771  0.0032 -0.4310 -0.2640
 3005SOL    HW220652   4.247   3.715   7.905 -2.0018 -0.3621 -1.6938
 3006SOL     OW20653   4.323   3.196   3.195  0.1439 -0.2571 -0.1459
 3006SOL    HW120654   4.414   3.174   3.214  0.8386  1.4512 -1.4709
 3006SOL    HW220655   4.338   3.233   3.108  1.3033 -0.2325  0.0620
 3007SOL     OW20656   4.662   2.353   2.988 -0.2313  0.3019  0.1612
 3007SOL    HW120657   4.631   2.405   3.062  0.0646  1.5572 -0.5876
 3007SOL    HW220658   4.579   2.344   2.940 -0.8032 -2.7497  1.7277
 3008SOL     OW20659   1.984   3.785  12.403 -0.6884 -0.1866 -0.0328
 3008SOL    HW120660   1.994   3.854  12.468 -0.0083 -2.1521  1.9443
 3008SOL    HW220661   1.962   3.711  12.460  1.5958  1.1340  2.5710
 3009SOL     OW20662   3.203   3.247   8.610  0.6503 -0.1447 -0.1862
 3009SOL    HW120663   3.215   3.335   8.576  3.0274 -0.8270 -1.1033
 3009SOL    HW220664   3.234   3.264   8.699 -0.8297 -2.2048  0.7317
 3010SOL     OW20665   4.251   0.813  17.507  0.1025  0.3372 -0.1734
 3010SOL    HW120666   4.184   0.792  17.573 -1.1960 -1.4067 -2.0438
 3010SOL    HW220667   4.240   0.907  17.491  0.4055  0.4648  0.3515
 3011SOL     OW20668   2.445   3.240   3.332 -0.1909 -0.1609  0.1439
 3011SOL    HW120669   2.401   3.286   3.261  0.3833  1.3354  0.7577
 3011SOL    HW220670   2.405   3.153   3.329 -1.1633  0.2663  0.8130
 3012SOL     OW20671   1.904   2.539  14.214  0.0243  0.1745 -0.3788
 3012SOL    HW120672   1.949   2.493  14.144 -2.1379 -2.6568  0.0699
 3012SOL    HW220673   1.936   2.489  14.289 -0.6917 -1.0998 -0.9276
 3013SOL     OW20674   2.196   0.104   2.413  0.0056  0.6498  0.6327
 3013SOL    HW120675   2.261   0.039   2.439 -1.1000 -0.4110  0.7457
 3013SOL    HW220676   2.139   0.109   2.490 -0.0026 -1.3357  0.7431
 3014SOL     OW20677   3.413   2.191   0.441  0.6771 -0.0249  0.1286
 3014SOL    HW120678   3.469   2.259   0.478 -0.1396 -0.1480  1.6083
 3014SOL    HW220679   3.460   2.182   0.358  0.4143 -0.4047  0.0221
 3015SOL     OW20680   1.810   0.328  13.061  0.1446  0.0232  0.1879
 3015SOL    HW120681   1.841   0.303  12.975  1.0163 -1.3096  0.8934
 3015SOL    HW220682   1.803   0.239  13.095  3.6442 -0.1097  0.4795
 3016SOL     OW20683   1.440   2.024   6.022 -0.1629 -0.3115  0.4263
 3016SOL    HW120684   1.373   1.966   5.985  0.5599 -1.4697  0.9083
 3016SOL    HW220685   1.401   2.057   6.103  0.8761 -0.6081  1.0421
 3017SOL     OW20686   2.048   1.763   3.582  0.7020  0.3861 -0.3386
 3017SOL    HW120687   2.062   1.857   3.578 -0.4601  0.7355  3.7936
 3017SOL    HW220688   2.052   1.729   3.492  0.4639 -0.0215 -0.1958
 3018SOL     OW20689   2.179   2.872   1.487  0.0653  0.2879 -0.0762
 3018SOL    HW120690   2.263   2.917   1.481 -0.1926  0.8207  0.2808
 3018SOL    HW220691   2.214   2.799   1.538  0.0978 -0.1360 -0.7090
 3019SOL     OW20692   2.373   4.391   8.645  0.5708 -0.2073 -0.3995
 3019SOL    HW120693   2.290   4.343   8.647  0.1211  0.5084 -2.2009
 3019SOL    HW220694   2.430   4.317   8.625  1.5824  0.7447 -1.0344
 3020SOL     OW20695   1.909   1.145   7.766 -0.3301  0.0161  0.1881
 3020SOL    HW120696   1.831   1.161   7.713 -0.4606 -0.5047  0.2220
 3020SOL    HW220697   1.983   1.176   7.713 -1.4592 -0.5323 -1.7304
 3021SOL     OW20698   4.451   3.801  11.605  0.1510 -0.4778 -0.2137
 3021SOL    HW120699   4.530   3.825  11.557 -0.3457 -1.5925 -1.5733
 3021SOL    HW220700   4.390   3.850  11.551 -0.7637  0.1533  1.3866
 3022SOL     OW20701   2.813   3.289  13.342 -0.3742  0.2295 -0.0537
 3022SOL    HW120702   2.811   3.318  13.433  0.0300  2.0910 -0.6366
 3022SOL    HW220703   2.719   3.298  13.330 -0.3779  3.1549  2.2483
 3023SOL     OW20704   1.664   4.242  15.054 -0.1332 -0.0434  0.3506
 3023SOL    HW120705   1.582   4.261  15.100 -1.5356  0.9279 -2.5348
 3023SOL    HW220706   1.727   4.199  15.112 -1.6237  0.9446  2.7067
 3024SOL     OW20707   1.512   3.883   3.436 -0.3479 -0.5933 -0.2979
 3024SOL    HW120708   1.432   3.835   3.458  1.3190 -3.6745 -0.9994
 3024SOL    HW220709   1.540   3.828   3.363 -1.0284  1.8835 -2.4162
 3025SOL     OW20710   2.437   3.988   4.788 -0.4802  0.4740 -0.3980
 3025SOL    HW120711   2.532   4.000   4.789 -0.0894 -2.6799  0.0497
 3025SOL    HW220712   2.444   3.896   4.761  2.5135  0.5061  0.3637
 3026SOL     OW20713   1.891   3.811  10.598 -1.1277 -0.5329  0.2673
 3026SOL    HW120714   1.796   3.815  10.585 -0.8174  2.7272 -0.8526
 3026SOL    HW220715   1.904   3.732  10.545  0.1704 -0.5718  0.6516
 3027SOL     OW20716   0.771   3.390   3.228  0.2709 -0.0173 -0.1725
 3027SOL    HW120717   0.801   3.403   3.319 -0.8740  3.1939 -0.2836
 3027SOL    HW220718   0.851   3.379   3.177  1.7421  2.8183  1.5121
 3028SOL     OW20719   2.709   0.389   6.714  0.0166  0.1824  0.2569
 3028SOL    HW120720   2.624   0.414   6.750 -0.3737 -1.1364  0.2638
 3028SOL    HW220721   2.726   0.305   6.756 -1.5038  0.1907  0.8962
 3029SOL     OW20722   0.099   0.418   6.667  0.4097  0.9174  0.3232
 3029SOL    HW120723   0.054   0.415   6.752 -1.2271 -0.2051 -0.6063
 3029SOL    HW220724   0.033   0.450   6.606 -0.7212 -1.5673  0.2630
 3030SOL     OW20725   3.784   1.532   5.875 -0.1570  0.1350  0.0287
 3030SOL    HW120726   3.693   1.522   5.904 -0.5898  2.9379 -0.3631
 3030SOL    HW220727   3.806   1.624   5.867  2.0588 -0.6056 -2.5773
 3031SOL     OW20728   3.609   1.812  14.247  0.4465  0.0155  0.2308
 3031SOL    HW120729   3.585   1.731  14.202 -1.7994  0.4663  0.6106
 3031SOL    HW220730   3.704   1.810  14.238  0.4110 -1.5604  0.2366
 3032SOL     OW20731   4.559   3.461  13.138 -0.2808 -0.0084  0.2016
 3032SOL    HW120732   4.523   3.379  13.103  0.8460  0.5013 -2.1030
 3032SOL    HW220733   4.478   3.496  13.176  0.1970  0.1736  1.0698
 3033SOL     OW20734   0.998   1.899   5.890  0.2514 -0.1334 -0.0915
 3033SOL    HW120735   1.038   1.890   5.977  1.0146  1.4390 -0.2764
 3033SOL    HW220736   1.078   1.895   5.839  0.1814  0.4581 -0.2457
 3034SOL     OW20737   2.159   3.828  10.392  0.2893  0.7452  0.0108
 3034SOL    HW120738   2.094   3.854  10.327  2.0866 -0.2889 -2.2143
 3034SOL    HW220739   2.134   3.871  10.473  0.6134 -0.0920  0.5567
 3035SOL     OW20740   4.375   2.635  12.719  0.3244  0.1200 -0.4952
 3035SOL    HW120741   4.388   2.556  12.772 -1.2553 -0.0293 -0.3397
 3035SOL    HW220742   4.418   2.618  12.634 -0.9856 -1.9110 -0.7516
 3036SOL     OW20743   2.008   3.881   9.881 -0.3507  0.2100 -0.3844
 3036SOL    HW120744   1.914   3.898   9.872 -0.6421 -2.6188 -2.4651
 3036SOL    HW220745   2.034   3.892   9.790  0.2726  1.5613 -0.0468
 3037SOL     OW20746   2.009   2.355   5.316 -0.1143  0.1060  0.0403
 3037SOL    HW120747   1.995   2.267   5.350  2.0897 -0.8608 -1.5955
 3037SOL    HW220748   1.955   2.352   5.237 -1.8532 -0.4951  1.2686
 3038SOL     OW20749   2.365   1.558   1.732 -0.1391  0.7139 -0.4914
 3038SOL    HW120750   2.395   1.617   1.663  1.3487 -0.1550 -0.5814
 3038SOL    HW220751   2.452   1.544   1.769  0.8998 -0.4594 -3.4054
 3039SOL     OW20752   0.274   2.140  15.218  0.8679 -0.2184  0.0805
 3039SOL    HW120753   0.212   2.167  15.286 -1.4286  1.0244 -2.5015
 3039SOL    HW220754   0.353   2.186  15.247  1.7511 -1.2839 -0.5995
 3040SOL     OW20755   4.018   1.213  12.026  0.5956 -1.0216  0.3700
 3040SOL    HW120756   3.954   1.223  12.097  0.2514  0.6274 -0.1687
 3040SOL    HW220757   3.988   1.269  11.955 -2.1122 -1.1127  1.4296
 3041SOL     OW20758   3.773   0.559  14.184 -0.3868 -0.4416 -0.1273
 3041SOL    HW120759   3.804   0.647  14.166 -1.7522 -0.2140 -1.3808
 3041SOL    HW220760   3.720   0.544  14.106 -0.6553 -0.3739  0.0430
 3042SOL     OW20761   0.972   3.146   2.341  0.3430  0.0411 -0.2681
 3042SOL    HW120762   0.983   3.133   2.435 -0.2381 -1.0261 -0.3511
 3042SOL    HW220763   0.986   3.055   2.313  0.7255  0.2227 -0.6766
 3043SOL     OW20764   4.291   1.526  12.446 -0.4296  0.3610 -0.3950
 3043SOL    HW120765   4.264   1.608  12.486 -2.8290 -0.6488  0.0586
 3043SOL    HW220766   4.271   1.462  12.515  0.1732 -1.9207 -2.3330
 3044SOL     OW20767   0.268   3.455   0.523  0.1883 -0.5678 -0.3578
 3044SOL    HW120768   0.301   3.517   0.458 -0.2152  0.4620  0.4356
 3044SOL    HW220769   0.228   3.392   0.463 -0.4802  0.3466 -0.8625
 3045SOL     OW20770   3.106   2.306   4.433 -0.0382  0.0200  0.2551
 3045SOL    HW120771   3.163   2.325   4.358 -1.1024 -0.3836 -0.6587
 3045SOL    HW220772   3.139   2.367   4.499  1.7197 -0.2054 -0.4179
 3046SOL     OW20773   2.725   3.722  13.548  0.3911  0.1458  0.0446
 3046SOL    HW120774   2.731   3.730  13.643 -1.4906  1.0047  0.0784
 3046SOL    HW220775   2.673   3.796  13.516 -0.0615 -0.2619 -0.1522
 3047SOL     OW20776   0.700   1.711   0.450 -0.3444  0.1644  0.3596
 3047SOL    HW120777   0.699   1.762   0.369  1.1523  0.0460  0.2768
 3047SOL    HW220778   0.795   1.714   0.457 -0.3793  3.2880 -0.3243
 3048SOL     OW20779   1.128   2.063   9.379 -0.4851  0.1305  0.6340
 3048SOL    HW120780   1.154   2.156   9.378 -3.2595  0.8759 -3.1866
 3048SOL    HW220781   1.213   2.021   9.395 -0.8138 -0.7471  0.0693
 3049SOL     OW20782   3.231   0.949   5.119 -0.1729 -0.5479 -0.2640
 3049SOL    HW120783   3.257   1.025   5.171 -1.6283  0.3806 -0.9025
 3049SOL    HW220784   3.172   0.913   5.185 -1.0595  0.8180 -0.3289
 3050SOL     OW20785   3.601   1.110  16.888  0.0506 -0.0241 -0.0898
 3050SOL    HW120786   3.562   1.167  16.823  1.5913 -1.0162 -1.8701
 3050SOL    HW220787   3.687   1.144  16.865 -0.1020 -0.1606 -0.8680
 3051SOL     OW20788   2.100   2.469   2.105 -0.0626 -0.1205 -0.4599
 3051SOL    HW120789   2.130   2.559   2.098  1.7245 -0.5799  1.2094
 3051SOL    HW220790   2.026   2.457   2.045  1.1100 -2.1340 -1.5120
 3052SOL     OW20791   2.416   3.620   7.942 -0.1262  0.4462 -0.2063
 3052SOL    HW120792   2.500   3.575   7.946 -1.3304 -1.5694  2.3727
 3052SOL    HW220793   2.436   3.706   7.906  0.8880 -0.0749 -0.8719
 3053SOL     OW20794   1.599   3.374  10.206 -0.5090 -0.3645  0.0130
 3053SOL    HW120795   1.513   3.363  10.164 -1.3370 -1.8870  2.0543
 3053SOL    HW220796   1.657   3.334  10.141 -1.0792 -2.3417  0.6892
 3054SOL     OW20797   1.984   2.544  17.113  0.8146  0.1583 -0.5178
 3054SOL    HW120798   1.941   2.463  17.141 -0.5526  0.5067 -1.5963
 3054SOL    HW220799   1.906   2.589  17.080  2.3625  2.0139 -1.6166
 3055SOL     OW20800   4.544   1.376   4.179  0.3952  0.9650 -0.1484
 3055SOL    HW120801   4.455   1.368   4.215 -0.6610 -1.0778 -3.1643
 3055SOL    HW220802   4.591   1.323   4.244 -0.9823  1.4450  1.2245
 3056SOL     OW20803   0.904   2.106   5.308  0.0669 -0.0099  0.2468
 3056SOL    HW120804   0.819   2.066   5.290  0.4957 -0.8488  0.0954
 3056SOL    HW220805   0.914   2.106   5.403 -1.7358 -1.6475  0.4396
 3057SOL     OW20806   4.583   3.292   8.795 -0.3095 -0.0900  0.4326
 3057SOL    HW120807   4.498   3.325   8.765 -0.0190  0.4195  0.1672
 3057SOL    HW220808   4.564   3.198   8.805  2.1488 -0.5813  0.2884
 3058SOL     OW20809   2.676   2.511  15.839 -0.7386  0.0161  0.1700
 3058SOL    HW120810   2.590   2.468  15.845 -0.7431  0.0073  0.0249
 3058SOL    HW220811   2.718   2.497  15.924 -1.6413 -1.9364  0.2911
 3059SOL     OW20812   3.241   3.879   7.830  0.3182  0.2026 -0.0470
 3059SOL    HW120813   3.218   3.949   7.891  0.8406  0.4041 -0.0854
 3059SOL    HW220814   3.247   3.923   7.745  3.1725 -1.5856 -0.7709
 3060SOL     OW20815   4.370   3.489   9.791 -0.3730  0.2394 -0.3255
 3060SOL    HW120816   4.321   3.558   9.837 -0.4418  0.1331 -0.2387
 3060SOL    HW220817   4.457   3.483   9.830 -1.2679 -0.9325  1.5067
 3061SOL     OW20818   0.998   0.512   3.511 -0.4284  0.3489 -0.2027
 3061SOL    HW120819   0.925   0.502   3.451 -0.5642  0.2103 -0.0150
 3061SOL    HW220820   0.951   0.555   3.583 -1.3875 -0.1474 -0.5428
 3062SOL     OW20821   1.065   0.845   3.663  0.1141  0.0465 -0.5485
 3062SOL    HW120822   1.042   0.873   3.575  1.4890 -0.5242 -1.1017
 3062SOL    HW220823   0.992   0.873   3.719  1.5511 -0.0464  1.3820
 3063SOL     OW20824   1.399   2.092   5.632  0.1731 -0.4559  0.0672
 3063SOL    HW120825   1.389   2.140   5.549  1.0718  0.8760  0.7310
 3063SOL    HW220826   1.447   2.018   5.595  1.9783  0.3777  0.7427
 3064SOL     OW20827   2.983   2.813   8.304  0.4365  0.0379  0.4888
 3064SOL    HW120828   2.997   2.765   8.222  2.5752  1.5625 -0.0217
 3064SOL    HW220829   3.055   2.875   8.313 -1.1003  1.6308  1.6805
 3065SOL     OW20830   3.257   1.226   3.868  0.3311 -0.4492  0.0144
 3065SOL    HW120831   3.164   1.233   3.846  0.3316  1.0746  0.4766
 3065SOL    HW220832   3.289   1.165   3.802  1.0473 -1.2539  1.0964
 3066SOL     OW20833   3.265   4.465  16.400 -0.1568  0.0549 -0.0834
 3066SOL    HW120834   3.255   4.402  16.471  0.8938  1.2151  1.0911
 3066SOL    HW220835   3.185   4.518  16.403 -0.0844  0.2300 -1.5392
 3067SOL     OW20836   1.219   0.669   9.832  0.1159  0.1206 -0.1125
 3067SOL    HW120837   1.277   0.662   9.757  0.3944  0.1517  0.1015
 3067SOL    HW220838   1.151   0.608   9.803 -0.7737  1.7907 -1.5268
 3068SOL     OW20839   0.854   4.430   7.484  0.2811 -0.3340  0.6213
 3068SOL    HW120840   0.939   4.426   7.441  0.6331  1.0890  1.1625
 3068SOL    HW220841   0.854   4.519   7.520  0.1073 -0.4929  1.0080
 3069SOL     OW20842   1.876   0.884   0.730 -0.0397 -0.0497  0.4634
 3069SOL    HW120843   1.828   0.921   0.804 -0.7985 -1.7769  0.8492
 3069SOL    HW220844   1.965   0.900   0.762 -1.0867  1.5195  2.6145
 3070SOL     OW20845   3.493   2.304   6.577  0.1329  0.0276 -0.0821
 3070SOL    HW120846   3.443   2.345   6.649  2.3297  0.6157  1.1013
 3070SOL    HW220847   3.569   2.270   6.624 -0.5086 -1.8980 -0.4310
 3071SOL     OW20848   0.494   0.123   9.168  0.7748  0.0498  0.5570
 3071SOL    HW120849   0.437   0.161   9.235 -1.1348 -0.4523 -0.7946
 3071SOL    HW220850   0.514   0.207   9.125 -0.2665 -0.6081 -1.2067
 3072SOL     OW20851   1.401   1.451   9.575 -0.4502  0.2199  0.1157
 3072SOL    HW120852   1.486   1.419   9.605 -0.8090  1.6083  2.6119
 3072SOL    HW220853   1.350   1.470   9.654 -0.3276  0.4643  0.1371
 3073SOL     OW20854   0.650   2.452  16.968  0.3708  0.0273 -0.1412
 3073SOL    HW120855   0.696   2.529  16.936 -2.4062  1.3571 -0.9983
 3073SOL    HW220856   0.584   2.484  17.029 -0.0630 -0.6459 -0.2536
 3074SOL     OW20857   0.655   0.712  16.537  0.1548 -0.1149  0.5038
 3074SOL    HW120858   0.659   0.791  16.483 -0.1573  0.2245  0.9731
 3074SOL    HW220859   0.561   0.721  16.555 -0.2622 -1.9056 -0.8466
 3075SOL     OW20860   0.741   4.659   3.527  0.4330 -0.4679  0.0842
 3075SOL    HW120861   0.678   4.588   3.511 -1.6002  1.4037 -0.3314
 3075SOL    HW220862   0.807   4.616   3.581  1.6586 -1.5451 -2.2736
 3076SOL     OW20863   2.241   3.018   1.021 -0.3765 -0.3468 -0.0945
 3076SOL    HW120864   2.153   3.013   0.984  0.1904 -0.2963 -1.4268
 3076SOL    HW220865   2.250   2.927   1.052 -2.5802 -0.0935  1.3153
 3077SOL     OW20866   0.809   2.130   8.256  0.0086 -0.0112 -0.0321
 3077SOL    HW120867   0.864   2.068   8.304 -1.0105 -2.1377 -1.6691
 3077SOL    HW220868   0.866   2.164   8.187 -0.0384 -1.9851 -1.0419
 3078SOL     OW20869   3.496   2.664  13.150  0.9301  0.0264 -0.9071
 3078SOL    HW120870   3.451   2.688  13.068  1.9782  0.4110 -1.3688
 3078SOL    HW220871   3.581   2.644  13.110  0.6963 -0.8563 -0.9688
 3079SOL     OW20872   3.622   2.616  15.975 -0.7680  0.1392  0.0204
 3079SOL    HW120873   3.690   2.651  15.917 -0.4943  0.9337  0.8179
 3079SOL    HW220874   3.549   2.609  15.913 -1.5019  2.1793  0.6683
 3080SOL     OW20875   0.676   2.625   6.881 -0.6420 -0.0305 -0.0407
 3080SOL    HW120876   0.703   2.715   6.897 -0.7433  0.1975 -1.2016
 3080SOL    HW220877   0.688   2.592   6.970 -0.3730 -0.2230 -0.1484
 3081SOL     OW20878   1.610   0.288  15.196  0.3415  0.3254 -0.2060
 3081SOL    HW120879   1.529   0.249  15.230  1.1345 -0.0610  1.2279
 3081SOL    HW220880   1.665   0.211  15.211 -1.9564 -0.9618  1.6337
 3082SOL     OW20881   2.793   0.501   8.190  0.4143 -0.3935 -0.2739
 3082SOL    HW120882   2.844   0.500   8.271 -0.4726  2.3533  0.3059
 3082SOL    HW220883   2.723   0.440   8.211 -0.8090  0.8960 -0.6471
 3083SOL     OW20884   0.698   0.679   9.911  0.0720  0.0385 -0.2887
 3083SOL    HW120885   0.729   0.709   9.826  0.0377 -0.9237 -0.6391
 3083SOL    HW220886   0.607   0.670   9.885 -0.4575 -0.1782  1.6081
 3084SOL     OW20887   3.829   0.536   2.436  0.2146  0.2801 -0.0514
 3084SOL    HW120888   3.857   0.448   2.411 -1.4366  0.3040 -2.0093
 3084SOL    HW220889   3.888   0.549   2.510 -0.5808  2.1375  0.2526
 3085SOL     OW20890   1.222   4.040  16.760 -0.0954  0.2176 -0.6811
 3085SOL    HW120891   1.172   4.038  16.842  1.5437 -0.2070  0.2940
 3085SOL    HW220892   1.211   4.127  16.721  2.6899 -0.4400 -2.8435
 3086SOL     OW20893   1.051   1.225   7.667  0.3747  0.0077  0.3486
 3086SOL    HW120894   1.048   1.267   7.581  0.4161  1.1750  0.9148
 3086SOL    HW220895   1.032   1.133   7.649 -0.8886  0.7493 -2.1296
 3087SOL     OW20896   0.060   2.986   6.137  0.0003  0.1218  0.3157
 3087SOL    HW120897   0.154   3.006   6.146 -0.3213  1.3422  0.9600
 3087SOL    HW220898   0.022   3.072   6.116 -0.9973  0.0095  1.6870
 3088SOL     OW20899   3.562   3.896   3.287  0.2737 -0.6937 -0.8656
 3088SOL    HW120900   3.479   3.849   3.294 -1.4427  2.1944 -1.8072
 3088SOL    HW220901   3.622   3.826   3.308 -0.7830 -1.5346 -0.6558
 3089SOL     OW20902   3.397   4.192   6.046  0.2065  0.2530  0.8684
 3089SOL    HW120903   3.417   4.253   6.117 -1.9143  0.9939  0.8432
 3089SOL    HW220904   3.475   4.138   6.059  0.8271  0.8929 -0.2778
 3090SOL     OW20905   1.199   1.321   8.767 -0.0505 -0.2323  0.3574
 3090SOL    HW120906   1.191   1.388   8.836 -1.6707  1.4082 -1.4221
 3090SOL    HW220907   1.236   1.250   8.820  0.1962  0.8714  1.6845
 3091SOL     OW20908   3.314   1.818   5.330  0.3261  0.2243  0.0418
 3091SOL    HW120909   3.340   1.889   5.272 -0.1079  0.5877  0.2863
 3091SOL    HW220910   3.281   1.862   5.409 -1.4359 -0.9875 -0.0200
 3092SOL     OW20911   1.944   0.631   6.741  0.1045  0.0977  0.2439
 3092SOL    HW120912   1.884   0.591   6.804  0.8877  0.1184  0.9921
 3092SOL    HW220913   1.925   0.724   6.750 -1.2628 -0.0579 -0.9927
 3093SOL     OW20914   3.637   1.807   1.111  0.5649  0.1482  0.3290
 3093SOL    HW120915   3.664   1.758   1.189 -0.3234  0.6049  0.9258
 3093SOL    HW220916   3.568   1.752   1.074 -1.1514  0.4559  3.0458
 3094SOL     OW20917   0.656   4.641  14.880 -0.6433 -0.6756 -0.0526
 3094SOL    HW120918   0.710   4.573  14.841  0.9870  0.5047  0.1382
 3094SOL    HW220919   0.707   4.716  14.847 -1.4724 -0.1409 -0.1131
 3095SOL     OW20920   3.453   4.700   7.815  0.1269  0.7741  0.4662
 3095SOL    HW120921   3.482   4.702   7.907 -1.3656  0.3228  0.9479
 3095SOL    HW220922   3.415   0.050   7.805 -1.1102  0.1526 -0.2006
 3096SOL     OW20923   1.534   1.851  11.232 -0.4715 -0.2754 -0.2846
 3096SOL    HW120924   1.472   1.872  11.302  0.3842 -2.0212  0.9801
 3096SOL    HW220925   1.548   1.936  11.191  0.6062  0.0225  0.7040
 3097SOL     OW20926   1.810   0.414   5.891  0.0538 -0.1987  0.3181
 3097SOL    HW120927   1.898   0.387   5.915  0.0879 -0.8294 -0.5213
 3097SOL    HW220928   1.789   0.461   5.972  2.1691  1.0539  0.1400
 3098SOL     OW20929   0.875   3.066   2.744 -0.1475 -0.3501  0.2157
 3098SOL    HW120930   0.950   3.035   2.693 -1.0801 -1.9632 -0.1690
 3098SOL    HW220931   0.854   3.144   2.693 -1.2555 -0.3873  0.6292
 3099SOL     OW20932   2.342   4.682   5.744  0.1558  0.2818  0.0452
 3099SOL    HW120933   2.285   4.622   5.697 -0.7696 -1.8464  3.9002
 3099SOL    HW220934   2.367   4.643   5.828 -2.3538  0.0207  0.6667
 3100SOL     OW20935   0.073   4.291   9.165  0.0472  1.1229 -0.3337
 3100SOL    HW120936   0.084   4.346   9.242  1.4637 -0.1606  0.3783
 3100SOL    HW220937   0.138   4.333   9.109  0.7087 -0.6433 -0.8943
 3101SOL     OW20938   2.014   1.548   5.007  0.4795  0.3895  0.1982
 3101SOL    HW120939   1.933   1.579   4.967  1.1737  1.8374 -0.1063
 3101SOL    HW220940   2.038   1.474   4.952 -0.3942 -0.2168  0.6248
 3102SOL     OW20941   1.150   1.248   3.429 -0.0171 -0.2177 -0.0158
 3102SOL    HW120942   1.091   1.255   3.354  0.4437 -1.4501 -0.4927
 3102SOL    HW220943   1.231   1.274   3.385  2.1087 -1.3785  3.2242
 3103SOL     OW20944   1.842   0.019  17.060 -0.7170  0.1556 -0.2991
 3103SOL    HW120945   1.838   0.103  17.015  0.7925 -0.6618 -1.9721
 3103SOL    HW220946   1.780   0.027  17.133 -0.7186 -1.0614 -0.1615
 3104SOL     OW20947   4.090   2.846  16.949  0.2465 -0.4411  0.3108
 3104SOL    HW120948   4.042   2.790  16.888 -0.7907  0.6149  0.1702
 3104SOL    HW220949   4.095   2.788  17.024  0.3454 -3.3256 -1.9379
 3105SOL     OW20950   4.021   2.905  13.743 -0.9813  0.4245  0.2154
 3105SOL    HW120951   4.026   2.834  13.678 -0.9102  0.6846 -0.0673
 3105SOL    HW220952   3.962   2.973  13.711 -2.7988 -1.0093  0.5374
 3106SOL     OW20953   3.950   3.952  13.661  0.3981 -0.3904  0.7941
 3106SOL    HW120954   3.958   3.874  13.716  1.2692 -0.5795  0.4092
 3106SOL    HW220955   4.004   3.916  13.591  1.2459 -0.5697  1.5384
 3107SOL     OW20956   1.510   3.526   6.262  0.2179  0.5321  0.6749
 3107SOL    HW120957   1.436   3.548   6.206  0.4987  1.1356  0.5404
 3107SOL    HW220958   1.553   3.611   6.275  1.0534  0.3268 -0.7210
 3108SOL     OW20959   4.340   2.841   1.866 -0.1591 -0.7784  0.1272
 3108SOL    HW120960   4.326   2.816   1.774  0.5257 -0.0800 -0.1634
 3108SOL    HW220961   4.251   2.865   1.893 -0.6249 -2.3654  0.0072
 3109SOL     OW20962   1.016   0.236   4.742  0.3682 -0.3248  0.1927
 3109SOL    HW120963   1.107   0.254   4.763  0.5974 -1.5132  0.1926
 3109SOL    HW220964   0.962   0.240   4.821 -1.8869 -1.9330 -1.2678
 3110SOL     OW20965   0.605   4.064   9.089  0.0240 -0.3181 -0.1157
 3110SOL    HW120966   0.699   4.068   9.107  0.0442 -0.6653 -0.1511
 3110SOL    HW220967   0.572   4.049   9.178 -1.1814  2.5060 -0.0912
 3111SOL     OW20968   4.359   1.918   4.376 -0.3129  0.4231  0.2904
 3111SOL    HW120969   4.365   1.958   4.289 -1.0167 -0.1527 -0.0217
 3111SOL    HW220970   4.449   1.908   4.407 -0.8328 -1.7403  1.0906
 3112SOL     OW20971   4.363   2.274  16.097 -0.5037  0.3224  0.7720
 3112SOL    HW120972   4.424   2.301  16.028  1.1170 -0.4175  1.9133
 3112SOL    HW220973   4.393   2.183  16.094 -3.1422 -0.5747  1.0728
 3113SOL     OW20974   0.029   4.149   6.615  0.3785  0.1045  0.0719
 3113SOL    HW120975   0.094   4.079   6.618 -0.1015 -0.2745  1.4701
 3113SOL    HW220976   0.005   4.160   6.707 -1.1862 -0.0734 -0.3151
 3114SOL     OW20977   4.089   1.618   1.249  0.6336  0.1152  0.4146
 3114SOL    HW120978   4.144   1.673   1.305  0.7058 -1.4674  1.9084
 3114SOL    HW220979   4.137   1.629   1.167  1.1084 -0.1741  0.6514
 3115SOL     OW20980   4.704   1.276   6.234  0.1636 -0.3423  0.0578
 3115SOL    HW120981   4.706   1.370   6.252 -1.0942 -0.4864  0.9612
 3115SOL    HW220982   0.045   1.278   6.179 -0.4195  0.3433 -0.7408
 3116SOL     OW20983   0.321   4.003   9.052 -0.0213  0.8005 -0.1292
 3116SOL    HW120984   0.416   3.997   9.045 -0.0021 -0.6659  1.3880
 3116SOL    HW220985   0.297   3.937   9.117 -1.4245  1.2507 -0.1834
 3117SOL     OW20986   0.004   0.539   8.365 -0.1719 -0.4685  0.0297
 3117SOL    HW120987   4.728   0.504   8.453 -0.4024  0.1425  0.2390
 3117SOL    HW220988   4.671   0.604   8.363 -0.7235 -1.2020 -4.4341
 3118SOL     OW20989   3.939   2.890  10.954 -0.0026 -0.0631  0.3038
 3118SOL    HW120990   3.921   2.951  11.025 -1.0953  1.4952 -1.3246
 3118SOL    HW220991   3.969   2.947  10.883  0.9635  2.1595  2.5013
 3119SOL     OW20992   0.664   1.489   3.214 -0.2651  0.9966  0.0811
 3119SOL    HW120993   0.685   1.573   3.173 -2.6373  1.4840 -0.1426
 3119SOL    HW220994   0.719   1.505   3.290 -2.9525 -0.3835  2.3466
 3120SOL     OW20995   2.208   4.677  13.471  0.0041  0.4846 -0.3852
 3120SOL    HW120996   2.273   4.735  13.512  0.5636 -0.4452  0.0368
 3120SOL    HW220997   2.181   0.003  13.404 -1.0524 -1.3861 -1.7168
 3121SOL     OW20998   0.470   2.505   1.093 -0.0060 -0.6762 -0.3502
 3121SOL    HW120999   0.419   2.520   1.172  1.4702  3.5418 -0.1760
 3121SOL    HW221000   0.410   2.458   1.035  0.7443 -0.5367 -1.2388
 3122SOL     OW21001   1.660   2.966  16.207 -0.0245 -0.1203  0.3418
 3122SOL    HW121002   1.605   3.041  16.227  0.4610 -0.1183  1.7137
 3122SOL    HW221003   1.735   3.005  16.162 -0.5964  1.6228  0.9205
 3123SOL     OW21004   2.118   4.660   7.332 -0.4305  0.2768  0.0535
 3123SOL    HW121005   2.100   4.723   7.402  1.1519  1.6889 -0.8086
 3123SOL    HW221006   2.173   4.713   7.274 -0.3227  0.2837  0.1602
 3124SOL     OW21007   3.474   3.738  12.543  0.0630  0.0866 -0.0265
 3124SOL    HW121008   3.514   3.690  12.616 -0.7999  2.6801  2.1475
 3124SOL    HW221009   3.541   3.803  12.522 -0.1643  0.1446 -0.5648
 3125SOL     OW21010   1.881   0.347   5.466 -0.4254  0.4333  0.8776
 3125SOL    HW121011   1.975   0.332   5.477 -0.0552  1.2792 -1.1734
 3125SOL    HW221012   1.848   0.262   5.496  1.1072  0.5413  2.8448
 3126SOL     OW21013   3.046   2.148  15.099  0.8622  0.0294 -0.0787
 3126SOL    HW121014   3.072   2.171  15.010  1.9174  0.8936  0.4566
 3126SOL    HW221015   3.046   2.232  15.145  1.6974 -0.9500  1.7017
 3127SOL     OW21016   2.201   4.494   5.615 -0.3001  0.0088  0.1693
 3127SOL    HW121017   2.116   4.462   5.643 -0.4394  0.5104  0.3085
 3127SOL    HW221018   2.179   4.528   5.528  2.2732  1.1589 -0.0371
 3128SOL     OW21019   2.546   3.450   8.226  0.2617  0.6373 -0.1246
 3128SOL    HW121020   2.608   3.391   8.183  0.5377  1.4043 -0.7859
 3128SOL    HW221021   2.472   3.417   8.174  0.1304 -3.1015  2.4988
 3129SOL     OW21022   1.916   3.981   6.843  0.2592  0.2593  0.0630
 3129SOL    HW121023   1.942   3.953   6.755 -2.1333  1.7143 -1.1064
 3129SOL    HW221024   1.992   4.038   6.859 -0.4191  0.6161  2.0613
 3130SOL     OW21025   0.519   3.309  17.003 -0.2162 -0.3972 -0.4243
 3130SOL    HW121026   0.578   3.352  17.064 -2.6194  0.4735  1.2991
 3130SOL    HW221027   0.533   3.359  16.923  2.3607 -1.9054 -0.8930
 3131SOL     OW21028   2.665   4.003   3.764 -0.6094 -0.3730  0.0325
 3131SOL    HW121029   2.710   4.033   3.844 -0.7888  1.7585 -0.6690
 3131SOL    HW221030   2.731   4.030   3.701 -0.9311 -0.1351 -0.1995
 3132SOL     OW21031   1.761   4.716   8.394 -0.5772  0.0564  0.3305
 3132SOL    HW121032   1.788   0.057   8.346 -1.6210  0.5201  0.4788
 3132SOL    HW221033   1.834   4.706   8.455  0.7924 -1.0203 -1.5302
 3133SOL     OW21034   3.786   2.905   1.935 -0.5408  0.5664  0.0681
 3133SOL    HW121035   3.788   2.984   1.989 -2.7700  0.2641  0.5910
 3133SOL    HW221036   3.754   2.932   1.849  0.4208 -0.3297 -0.5662
 3134SOL     OW21037   4.464   2.504   0.263  0.6781 -0.5261  0.0578
 3134SOL    HW121038   4.555   2.478   0.275  1.1542  1.3527  0.4238
 3134SOL    HW221039   4.463   2.541   0.175  1.3685 -0.1037  0.2301
 3135SOL     OW21040   0.825   3.145  17.202 -0.5120  0.1159 -0.2929
 3135SOL    HW121041   0.891   3.077  17.216 -0.6581 -0.0853 -0.6022
 3135SOL    HW221042   0.852   3.190  17.122 -1.2798 -0.6614 -0.9931
 3136SOL     OW21043   4.410   1.901  12.263  0.0496  0.5639  0.1916
 3136SOL    HW121044   4.448   1.836  12.323 -1.4342  0.1523  0.7049
 3136SOL    HW221045   4.442   1.981  12.304 -0.5831  0.3019  1.2093
 3137SOL     OW21046   1.331   3.655  12.894  0.6683 -0.2156  0.4016
 3137SOL    HW121047   1.247   3.634  12.936  0.7982 -2.8854 -0.6685
 3137SOL    HW221048   1.375   3.683  12.974  2.3273 -2.6060  0.3213
 3138SOL     OW21049   3.914   4.428   3.896  0.3702 -0.6422  0.0198
 3138SOL    HW121050   3.915   4.333   3.881  2.9463 -0.5541 -0.3731
 3138SOL    HW221051   3.865   4.437   3.978 -0.6130  0.6179 -0.7299
 3139SOL     OW21052   1.445   0.002   7.584 -0.6740 -0.3384  0.3522
 3139SOL    HW121053   1.390   4.677   7.536  1.8392 -1.7697 -0.6931
 3139SOL    HW221054   1.416   0.078   7.535  2.2825  0.6637  0.1734
 3140SOL     OW21055   4.477   0.380   5.993  0.4871  0.2191 -0.4220
 3140SOL    HW121056   4.413   0.316   5.960 -0.3039  0.8924 -0.2149
 3140SOL    HW221057   4.523   0.411   5.916 -1.5377  1.5200 -1.1231
 3141SOL     OW21058   0.371   0.123   4.681 -0.0052  0.3541  0.0437
 3141SOL    HW121059   0.413   0.157   4.602 -2.7118  1.6349 -0.8291
 3141SOL    HW221060   0.446   0.084   4.727 -0.2355  1.6475  1.5122
 3142SOL     OW21061   1.951   3.554   5.528 -0.2006  0.0041  0.5892
 3142SOL    HW121062   1.981   3.615   5.596 -0.4607 -0.2299  0.9080
 3142SOL    HW221063   1.858   3.571   5.516 -0.2778 -0.2084  0.9073
 3143SOL     OW21064   2.485   0.763   8.056  0.3230  0.5456  0.0273
 3143SOL    HW121065   2.426   0.838   8.053  1.0203  1.1105  0.7809
 3143SOL    HW221066   2.478   0.732   7.965 -2.3870  0.6614  0.2060
 3144SOL     OW21067   4.249   3.406  13.088  0.3599  0.0208  0.0795
 3144SOL    HW121068   4.284   3.454  13.014 -2.9502  2.0206 -0.1506
 3144SOL    HW221069   4.258   3.315  13.059  0.9299 -0.0610  0.5126
 3145SOL     OW21070   3.088   3.504   1.531 -0.0551  0.6018  0.4297
 3145SOL    HW121071   3.158   3.441   1.546  0.3728  0.5351 -1.7627
 3145SOL    HW221072   3.021   3.453   1.485  1.6084  0.9245 -2.3348
 3146SOL     OW21073   2.888   0.605   7.327 -0.1051  0.2825 -0.7152
 3146SOL    HW121074   2.975   0.645   7.323 -0.5442  1.3379  0.3204
 3146SOL    HW221075   2.902   0.511   7.331 -0.4743  0.2354 -0.5930
 3147SOL     OW21076   1.022   1.585  10.021 -0.1657  0.8427 -0.5588
 3147SOL    HW121077   1.067   1.625  10.095 -1.5392  0.8102  0.2881
 3147SOL    HW221078   0.973   1.513  10.061  2.2304 -1.1375 -1.1987
 3148SOL     OW21079   2.067   1.716   3.305  0.4237  0.6365 -0.0767
 3148SOL    HW121080   2.148   1.724   3.255  0.5740 -0.6870 -0.0271
 3148SOL    HW221081   2.008   1.727   3.231  0.2151 -1.2377 -0.1782
 3149SOL     OW21082   0.493   1.109   9.366  0.1099  0.0761 -0.3839
 3149SOL    HW121083   0.430   1.181   9.362  0.4573  0.4710  1.3102
 3149SOL    HW221084   0.566   1.156   9.327  1.2152  0.0629  1.6323
 3150SOL     OW21085   1.193   1.764   2.189  0.2578 -0.4381  0.0940
 3150SOL    HW121086   1.152   1.758   2.103  0.4432 -0.5049  0.0121
 3150SOL    HW221087   1.119   1.753   2.249  1.1304 -1.3568  1.0090
 3151SOL     OW21088   3.401   3.488  15.443  0.4966  0.1717 -0.2416
 3151SOL    HW121089   3.444   3.403  15.433  0.3892  0.5356 -3.7391
 3151SOL    HW221090   3.449   3.538  15.377 -2.9832  1.3792 -1.8516
 3152SOL     OW21091   2.705   1.359  10.319 -0.3437  0.2064  0.7643
 3152SOL    HW121092   2.640   1.417  10.281 -0.0830  0.1880  0.2961
 3152SOL    HW221093   2.652   1.291  10.361  2.0092 -2.6070 -0.7488
 3153SOL     OW21094   0.452   3.522   3.317 -0.1138 -0.3897 -0.0383
 3153SOL    HW121095   0.480   3.451   3.259  0.8434  0.4357 -0.5972
 3153SOL    HW221096   0.362   3.522   3.286  0.4055  1.0879 -1.5851
 3154SOL     OW21097   4.333   1.556  17.221 -0.3642  0.3803  0.0062
 3154SOL    HW121098   4.253   1.596  17.187 -1.1760 -2.9011 -1.8369
 3154SOL    HW221099   4.388   1.596  17.153  0.0948  0.3073  0.3312
 3155SOL     OW21100   3.179   0.582   8.348  0.4478 -0.0078  0.1173
 3155SOL    HW121101   3.183   0.597   8.254 -3.7393  1.9829  0.2499
 3155SOL    HW221102   3.237   0.652   8.377 -0.6583  1.3029 -0.8587
 3156SOL     OW21103   4.183   1.014  11.923  0.2177 -0.5992  0.0314
 3156SOL    HW121104   4.199   1.059  11.841  0.0146  1.6471  1.2086
 3156SOL    HW221105   4.150   1.091  11.970  2.0324  0.3154 -0.1810
 3157SOL     OW21106   3.502   3.828   1.239  0.5288 -0.3335  0.0425
 3157SOL    HW121107   3.479   3.916   1.208  1.7239 -0.7221 -1.9299
 3157SOL    HW221108   3.425   3.794   1.285 -0.0742 -0.9487 -1.4280
 3158SOL     OW21109   3.657   3.611   9.933 -0.2597 -0.3486  0.3488
 3158SOL    HW121110   3.593   3.654   9.990 -1.0278 -1.4805  0.3290
 3158SOL    HW221111   3.727   3.592   9.996 -0.0494 -0.4277  0.0894
 3159SOL     OW21112   0.100   0.189   7.837  0.1665  0.0941  0.1402
 3159SOL    HW121113   0.039   0.142   7.894 -0.4722  3.2300  1.9767
 3159SOL    HW221114   0.105   0.125   7.766  3.0049 -1.1623  1.4730
 3160SOL     OW21115   4.282   3.416   4.306 -0.1883 -0.1250  0.1639
 3160SOL    HW121116   4.203   3.471   4.306 -1.1317 -1.4596 -0.2902
 3160SOL    HW221117   4.314   3.435   4.394 -0.1549  1.7262 -0.2420
 3161SOL     OW21118   1.347   3.456   9.765 -0.1548  0.0542  0.1359
 3161SOL    HW121119   1.355   3.551   9.757 -0.3959  0.3158  2.8029
 3161SOL    HW221120   1.304   3.425   9.686 -0.4158  1.3491 -0.2257
 3162SOL     OW21121   0.198   4.686  13.039 -0.4532  0.4551  0.2057
 3162SOL    HW121122   0.165   4.640  12.962  1.5431  0.5911 -0.7642
 3162SOL    HW221123   0.276   4.729  13.001  0.6602 -0.6375  1.2638
 3163SOL     OW21124   1.922   4.638   2.553  0.6767  0.7049  0.3158
 3163SOL    HW121125   1.946   4.727   2.579 -1.0333  0.8257  1.4625
 3163SOL    HW221126   1.851   4.669   2.496 -0.0148  0.9304  1.3093
 3164SOL     OW21127   3.925   2.902   4.542  0.1674  0.0914  0.2590
 3164SOL    HW121128   3.887   2.975   4.493  1.0949  0.7688  0.5488
 3164SOL    HW221129   4.001   2.876   4.491  0.4691  1.9676 -0.2416
 3165SOL     OW21130   3.900   1.900   3.872 -0.4791 -0.0803  0.5122
 3165SOL    HW121131   3.952   1.837   3.922  1.6276 -0.5330 -2.2080
 3165SOL    HW221132   3.839   1.839   3.830 -0.9989  0.6817  0.1747
 3166SOL     OW21133   1.990   3.877   7.754  0.0042  0.4002  0.3664
 3166SOL    HW121134   1.905   3.864   7.797 -0.9001 -1.8935 -2.1469
 3166SOL    HW221135   2.021   3.957   7.796  2.4793  0.2114 -1.1576
 3167SOL     OW21136   2.678   0.796   2.892  0.1616 -0.3830 -0.0214
 3167SOL    HW121137   2.592   0.831   2.912 -0.2854 -1.1938 -0.5394
 3167SOL    HW221138   2.732   0.810   2.970 -0.6186 -0.0427  0.4525
 3168SOL     OW21139   4.412   1.132   5.659  0.3282 -0.2766 -0.4545
 3168SOL    HW121140   4.487   1.171   5.706  1.1273 -1.6736 -0.5795
 3168SOL    HW221141   4.378   1.211   5.618 -0.7328  0.1783  1.2996
 3169SOL     OW21142   2.014   1.509   1.105  0.1325  0.4048 -0.2523
 3169SOL    HW121143   2.001   1.457   1.184  2.2079  0.5763  0.1870
 3169SOL    HW221144   1.964   1.588   1.122 -0.8581  0.2139 -2.2508
 3170SOL     OW21145   3.730   4.057  11.946  0.0642  0.2654  0.2247
 3170SOL    HW121146   3.652   4.089  11.992 -1.8678  1.3500 -3.7892
 3170SOL    HW221147   3.698   3.982  11.894 -0.4079  1.4922 -1.2526
 3171SOL     OW21148   2.392   4.211   3.182 -0.5737  0.1622 -0.2475
 3171SOL    HW121149   2.387   4.176   3.271  0.0823  3.0102  0.9073
 3171SOL    HW221150   2.462   4.275   3.188  0.8476 -1.2811 -1.2406
 3172SOL     OW21151   2.966   1.852   6.237  0.0640 -0.4944  0.5174
 3172SOL    HW121152   2.986   1.938   6.201  0.7298 -1.5894 -1.7091
 3172SOL    HW221153   3.031   1.793   6.199 -0.4621 -0.7899  0.0881
 3173SOL     OW21154   1.512   0.183   2.995  0.2332  0.0130  0.5815
 3173SOL    HW121155   1.499   0.105   3.049 -0.6006 -0.5278 -0.3894
 3173SOL    HW221156   1.598   0.214   3.025 -0.3850  0.0759  2.2740
 3174SOL     OW21157   1.823   0.780  12.543  0.2044  0.1825  0.4698
 3174SOL    HW121158   1.849   0.870  12.563  1.6368 -0.0030 -0.5784
 3174SOL    HW221159   1.742   0.793  12.493 -0.2991 -0.0054  1.2400
 3175SOL     OW21160   4.152   3.189   7.933  0.1156 -0.7341 -0.1753
 3175SOL    HW121161   4.113   3.149   8.011 -0.6557  1.3152  0.5024
 3175SOL    HW221162   4.224   3.127   7.922  0.8290  0.1076 -0.2613
 3176SOL     OW21163   0.013   1.692  15.078 -0.1110  0.2126  0.0028
 3176SOL    HW121164   0.040   1.772  15.033  1.6997  0.9523  2.4001
 3176SOL    HW221165   0.065   1.686  15.158 -1.3896 -0.8126  0.7679
 3177SOL     OW21166   3.389   2.593   1.578 -0.2522  0.5608  0.3917
 3177SOL    HW121167   3.406   2.677   1.622 -2.9893  1.8080 -0.9463
 3177SOL    HW221168   3.420   2.621   1.492 -0.5214  0.8245  0.3823
 3178SOL     OW21169   2.780   1.808  13.864 -0.4826 -0.4910  0.5834
 3178SOL    HW121170   2.734   1.735  13.823  0.6472 -1.6478  1.3829
 3178SOL    HW221171   2.801   1.774  13.951  1.6942  0.2934  0.3632
 3179SOL     OW21172   4.001   0.891  15.702  0.4078  0.2000 -0.3623
 3179SOL    HW121173   4.095   0.893  15.720  0.7953  1.2062 -2.4495
 3179SOL    HW221174   3.982   0.985  15.700  2.1370  0.5999  1.3992
 3180SOL     OW21175   2.302   2.087  16.562 -0.1044 -0.4015  0.3791
 3180SOL    HW121176   2.226   2.106  16.616  1.6142  0.9038  2.3457
 3180SOL    HW221177   2.271   2.011  16.513 -0.3028  0.8737 -1.5036
 3181SOL     OW21178   1.524   0.905  11.650  0.3790  0.4640 -0.9292
 3181SOL    HW121179   1.449   0.876  11.599  0.1400 -1.4104  0.5003
 3181SOL    HW221180   1.591   0.892  11.583 -0.4448 -1.7197 -1.3306
 3182SOL     OW21181   4.281   3.982   6.195  0.4653  0.8242  0.3299
 3182SOL    HW121182   4.374   3.960   6.196 -0.2492 -2.1362  0.1882
 3182SOL    HW221183   4.265   3.995   6.288  1.3201  0.4597  0.5311
 3183SOL     OW21184   1.618   2.358   2.769 -0.3374  1.0195  0.2126
 3183SOL    HW121185   1.567   2.292   2.722 -0.1429  1.2010 -0.2576
 3183SOL    HW221186   1.700   2.311   2.782 -1.2289 -0.4723  0.3654
 3184SOL     OW21187   2.643   3.879   9.271  0.1120 -0.5569  0.2464
 3184SOL    HW121188   2.624   3.887   9.364 -0.5824 -2.0104  0.2300
 3184SOL    HW221189   2.561   3.919   9.242  0.1690 -0.9228 -0.4187
 3185SOL     OW21190   1.852   0.170  10.301 -0.3526  0.2458 -0.1117
 3185SOL    HW121191   1.795   0.101  10.336 -0.3627  0.2388 -0.1422
 3185SOL    HW221192   1.930   0.121  10.275  2.4346  4.4857  0.2809
 3186SOL     OW21193   0.804   3.534   5.673  0.2424 -0.0586 -0.2708
 3186SOL    HW121194   0.758   3.474   5.614 -0.7454  2.1753 -1.7813
 3186SOL    HW221195   0.756   3.613   5.649 -2.9491 -1.9018 -0.0285
 3187SOL     OW21196   4.634   2.818   4.049 -0.0056  0.1121 -0.6890
 3187SOL    HW121197   4.650   2.902   4.006 -2.0929 -0.5670 -2.8677
 3187SOL    HW221198   4.706   2.764   4.017 -0.4937 -0.6989 -0.4268
 3188SOL     OW21199   1.086   2.338   2.745 -0.6261 -0.2026 -0.1273
 3188SOL    HW121200   1.177   2.360   2.764  0.0267 -3.0029  0.0365
 3188SOL    HW221201   1.060   2.389   2.821  0.9505  2.1532 -1.1624
 3189SOL     OW21202   4.357   1.181   3.230  0.0536 -0.1378  0.2131
 3189SOL    HW121203   4.452   1.170   3.228  0.1184  0.7502 -1.5229
 3189SOL    HW221204   4.328   1.105   3.282  4.2552 -1.3142  0.7991
 3190SOL     OW21205   1.422   4.734   4.031 -0.4420  0.0063  0.6525
 3190SOL    HW121206   1.380   4.720   4.116  0.8801 -1.8559  0.9899
 3190SOL    HW221207   1.410   0.091   4.018 -0.2020  0.0937  1.0624
 3191SOL     OW21208   1.665   4.408   2.439  0.4943  0.5578  0.7655
 3191SOL    HW121209   1.710   4.429   2.357  1.3749 -1.2647  0.7851
 3191SOL    HW221210   1.574   4.419   2.412  0.2420 -0.0840  1.3444
 3192SOL     OW21211   2.743   2.743  11.208  0.1269 -0.0147  0.1356
 3192SOL    HW121212   2.707   2.658  11.235  0.9528  0.4486  2.6905
 3192SOL    HW221213   2.785   2.768  11.290 -2.3701  1.1888  1.0568
 3193SOL     OW21214   2.152   1.936   4.409  0.2547 -0.2103  0.0658
 3193SOL    HW121215   2.172   2.022   4.445 -0.5469 -1.0528  2.5076
 3193SOL    HW221216   2.235   1.908   4.370 -0.1536 -0.8919 -0.3309
 3194SOL     OW21217   3.229   3.150   2.486 -0.4395 -0.3122 -0.5511
 3194SOL    HW121218   3.282   3.227   2.465 -1.8099  0.7312 -0.1610
 3194SOL    HW221219   3.163   3.198   2.536  2.4852  1.1266  1.9689
 3195SOL     OW21220   0.687   3.290   4.501  0.1810  0.1380 -0.5054
 3195SOL    HW121221   0.624   3.265   4.569  1.7757  1.4402  1.4720
 3195SOL    HW221222   0.690   3.384   4.518  1.7989  0.5200 -2.9244
 3196SOL     OW21223   1.741   2.340   9.055 -0.2182  0.3478 -0.5395
 3196SOL    HW121224   1.715   2.331   9.147 -0.4453 -3.3594 -0.9586
 3196SOL    HW221225   1.670   2.388   9.013 -0.4143 -0.5124 -1.1932
 3197SOL     OW21226   3.804   4.677   8.365  0.2136 -0.6288  0.0295
 3197SOL    HW121227   3.784   0.014   8.422 -0.8724  0.8513 -2.2842
 3197SOL    HW221228   3.720   4.632   8.362 -1.3106  2.2772 -0.6066
 3198SOL     OW21229   2.219   2.478  10.618  0.4984 -0.5636 -0.4522
 3198SOL    HW121230   2.124   2.492  10.621  0.1858 -2.4841 -0.8180
 3198SOL    HW221231   2.223   2.409  10.685  2.3071 -1.9104 -1.9237
 3199SOL     OW21232   2.542   0.171   5.909 -0.0257 -0.3566  0.0689
 3199SOL    HW121233   2.504   0.146   5.993  0.9440  0.9582  0.9056
 3199SOL    HW221234   2.545   0.084   5.870  1.4600 -1.3222  2.3534
 3200SOL     OW21235   1.452   4.734   3.763 -0.1721  0.0578 -0.2626
 3200SOL    HW121236   1.524   0.060   3.767 -0.2032 -0.0535  2.6167
 3200SOL    HW221237   1.421   0.004   3.854 -1.5366  0.0161 -0.7301
 3201SOL     OW21238   3.282   2.395   3.931  0.2602  0.4436 -0.0136
 3201SOL    HW121239   3.311   2.486   3.936  0.2696  0.4842 -0.7993
 3201SOL    HW221240   3.359   2.353   3.968  0.3077  0.0334 -0.5915
 3202SOL     OW21241   0.677   3.036  12.303 -1.1339 -1.0423 -0.3551
 3202SOL    HW121242   0.676   2.972  12.374  0.9887 -1.1526 -0.4262
 3202SOL    HW221243   0.672   2.980  12.226  0.0363 -3.0881  1.0461
 3203SOL     OW21244   3.613   0.215   4.086  0.2276 -1.1470  0.2771
 3203SOL    HW121245   3.565   0.200   4.168 -1.3298 -0.4782 -0.5074
 3203SOL    HW221246   3.664   0.136   4.068  1.6221 -0.0348 -0.6694
 3204SOL     OW21247   1.261   2.778  13.865 -0.5450 -0.1098 -0.1866
 3204SOL    HW121248   1.246   2.757  13.772  0.7406 -0.4746 -0.3108
 3204SOL    HW221249   1.278   2.696  13.912  0.6674  1.2477  1.7123
 3205SOL     OW21250   3.418   2.387   7.680 -0.4545  0.0657 -0.2017
 3205SOL    HW121251   3.453   2.476   7.669  0.8941 -0.3423  0.7605
 3205SOL    HW221252   3.349   2.404   7.744 -0.3750  0.5530 -0.2470
 3206SOL     OW21253   2.811   1.509   2.800 -0.0788 -0.3844  0.2351
 3206SOL    HW121254   2.853   1.591   2.826  0.6466 -0.4123 -0.8293
 3206SOL    HW221255   2.792   1.520   2.707 -1.8709 -0.2226  0.6212
 3207SOL     OW21256   2.465   3.307   2.374  0.0995 -0.2953 -0.3713
 3207SOL    HW121257   2.426   3.246   2.438 -0.0053  0.5370  0.3609
 3207SOL    HW221258   2.545   3.255   2.368 -1.2023 -2.3361 -0.3032
 3208SOL     OW21259   1.738   0.669   2.336  0.1157 -0.0019 -0.3712
 3208SOL    HW121260   1.823   0.708   2.356  0.1275 -0.4502  0.4339
 3208SOL    HW221261   1.711   0.727   2.264 -0.5872 -0.2165 -0.2869
 3209SOL     OW21262   3.238   2.244   5.281  0.2181  0.4054 -1.0351
 3209SOL    HW121263   3.311   2.186   5.301  0.6848  1.3559  0.0395
 3209SOL    HW221264   3.238   2.310   5.351  0.8242 -0.3794 -0.2977
 3210SOL     OW21265   0.539   3.869   3.127  0.3278  0.1777  0.1567
 3210SOL    HW121266   0.585   3.826   3.199  2.0834 -1.0507 -1.7375
 3210SOL    HW221267   0.602   3.939   3.109  1.3566 -0.9154 -0.4186
 3211SOL     OW21268   4.100   1.930   4.911  0.2796 -0.4701 -0.1602
 3211SOL    HW121269   4.084   2.024   4.900  0.2803 -0.8285 -3.4807
 3211SOL    HW221270   4.022   1.885   4.880  0.4505  0.4441 -1.9308
 3212SOL     OW21271   3.569   0.906   0.824  0.5152 -0.1068 -0.1702
 3212SOL    HW121272   3.482   0.943   0.839  1.3197  2.1642 -1.1236
 3212SOL    HW221273   3.557   0.837   0.758  1.9113  0.8937 -1.4696
 3213SOL     OW21274   0.626   3.192  14.876 -0.0382  0.1065 -0.1499
 3213SOL    HW121275   0.541   3.162  14.909  0.1361  0.6351  0.7748
 3213SOL    HW221276   0.622   3.144  14.793 -1.2037  0.9548 -0.5870
 3214SOL     OW21277   2.418   2.736   2.956  0.2691 -0.3796  0.2003
 3214SOL    HW121278   2.409   2.667   2.890  0.7271 -0.4009  0.1544
 3214SOL    HW221279   2.514   2.735   2.957  0.3422  2.0357 -2.8087
 3215SOL     OW21280   0.273   0.493   3.556 -0.2525  0.6112  0.3420
 3215SOL    HW121281   0.221   0.416   3.579  1.1275 -0.1149  1.0625
 3215SOL    HW221282   0.207   0.553   3.591 -0.1600 -0.0296  1.6045
 3216SOL     OW21283   3.478   3.749   3.620 -0.2969  0.5158  0.3939
 3216SOL    HW121284   3.569   3.752   3.649 -0.0905 -0.3997 -0.1658
 3216SOL    HW221285   3.443   3.667   3.655  1.6805  0.2639  1.7532
 3217SOL     OW21286   1.634   1.205   5.715  0.1642 -0.1405 -0.3068
 3217SOL    HW121287   1.720   1.172   5.691  1.7841  2.3217  2.0887
 3217SOL    HW221288   1.617   1.251   5.632  2.2397  2.3818  0.6508
 3218SOL     OW21289   2.885   3.673   9.458 -0.5267 -0.2671  0.1338
 3218SOL    HW121290   2.794   3.662   9.483 -1.5637  0.9084 -3.1659
 3218SOL    HW221291   2.905   3.585   9.427 -3.0200 -0.6857 -0.2924
 3219SOL     OW21292   2.384   0.229   3.252  0.1624  0.0098 -0.6184
 3219SOL    HW121293   2.315   0.190   3.198 -1.3398  0.9676  0.5929
 3219SOL    HW221294   2.339   0.228   3.337 -0.4668  0.5040 -0.9477
 3220SOL     OW21295   0.923   4.088   7.374  0.1661  0.1785  0.1861
 3220SOL    HW121296   0.996   4.027   7.362 -2.1316 -2.1000 -2.2131
 3220SOL    HW221297   0.853   4.026   7.355  0.8589  0.0477 -1.8613
 3221SOL     OW21298   4.382   2.919   8.279  0.1708  0.1053 -0.2362
 3221SOL    HW121299   4.318   2.989   8.272 -4.2135 -3.8089  0.4917
 3221SOL    HW221300   4.356   2.856   8.211 -0.5245  1.4088 -1.1614
 3222SOL     OW21301   3.375   4.653   4.321  0.1547 -0.3281 -0.2039
 3222SOL    HW121302   3.457   4.701   4.331  0.7673 -1.8633  2.0689
 3222SOL    HW221303   3.357   4.620   4.409 -1.2489  0.9344 -0.0163
 3223SOL     OW21304   1.092   2.788   6.199 -0.0140 -0.0132  0.2323
 3223SOL    HW121305   1.135   2.868   6.231  0.4874 -0.6166  1.0925
 3223SOL    HW221306   1.055   2.750   6.279  1.1402 -0.5834  0.4942
 3224SOL     OW21307   0.609   0.846   2.705 -0.5634 -0.1042  0.4891
 3224SOL    HW121308   0.678   0.790   2.740  0.8078  1.9547  1.0974
 3224SOL    HW221309   0.549   0.776   2.679 -1.0980  0.4281  0.2945
 3225SOL     OW21310   4.531   3.478   3.001  0.2307  0.2679 -0.0653
 3225SOL    HW121311   4.474   3.526   3.061  1.6918  1.7767  0.1319
 3225SOL    HW221312   4.602   3.459   3.063 -1.7593  0.1959  2.1914
 3226SOL     OW21313   3.633   1.976   2.161  0.2510 -0.5078 -0.5497
 3226SOL    HW121314   3.539   1.982   2.146  0.4674  1.0896 -1.2467
 3226SOL    HW221315   3.640   1.894   2.211 -0.4710  0.7603  1.6443
 3227SOL     OW21316   3.508   3.761  11.401 -0.0630 -0.0190  0.5488
 3227SOL    HW121317   3.517   3.854  11.378  2.9575 -0.1712  1.1572
 3227SOL    HW221318   3.600   3.740  11.417 -0.1539  0.3103  1.4993
 3228SOL     OW21319   0.386   0.488  13.149  0.4602 -0.5263  0.1964
 3228SOL    HW121320   0.407   0.417  13.210  1.4436 -0.8117 -0.4740
 3228SOL    HW221321   0.468   0.515  13.109 -1.3540 -0.6872 -3.7151
 3229SOL     OW21322   1.345   4.175   8.301  0.8789 -0.5260  0.0463
 3229SOL    HW121323   1.334   4.092   8.347  1.1548  0.5975  2.1433
 3229SOL    HW221324   1.329   4.243   8.366 -1.1947 -1.1013  0.1201
 3230SOL     OW21325   1.058   3.432   7.674 -0.0419  0.3498 -0.1298
 3230SOL    HW121326   1.051   3.490   7.750  0.2092  2.3462 -1.6269
 3230SOL    HW221327   1.052   3.349   7.721  0.8029  0.1741 -0.3282
 3231SOL     OW21328   1.309   1.220   7.301  0.1574 -0.8330 -0.1756
 3231SOL    HW121329   1.251   1.239   7.226 -1.6736 -3.1233  0.6669
 3231SOL    HW221330   1.241   1.190   7.361  0.8907  0.0019  1.0578
 3232SOL     OW21331   4.205   4.325  10.916  0.1464 -0.1959 -0.0954
 3232SOL    HW121332   4.170   4.365  10.996 -1.2347 -1.2144 -0.2027
 3232SOL    HW221333   4.124   4.319  10.866  0.4530  2.3386 -0.8967
 3233SOL     OW21334   1.815   0.881   5.452  0.1771  0.4826  0.0168
 3233SOL    HW121335   1.805   0.951   5.517  2.8581 -0.7613  1.7605
 3233SOL    HW221336   1.803   0.804   5.508  1.0018  0.7376  0.5405
 3234SOL     OW21337   3.192   3.864  14.274  0.0709 -0.2594 -0.3674
 3234SOL    HW121338   3.097   3.853  14.272  0.1592 -1.0003 -0.6196
 3234SOL    HW221339   3.212   3.815  14.353  2.0172  0.7031 -0.2503
 3235SOL     OW21340   3.074   4.088   8.359 -0.0057  0.8148  0.0519
 3235SOL    HW121341   3.040   4.027   8.425 -1.5409 -0.9639 -2.4243
 3235SOL    HW221342   3.165   4.104   8.383 -0.2874  0.4244  1.4182
 3236SOL     OW21343   3.844   4.296   2.594  0.1295  0.2376 -0.2092
 3236SOL    HW121344   3.937   4.311   2.578  0.2202  0.1321  0.2152
 3236SOL    HW221345   3.849   4.255   2.680  2.1986  2.8228  0.8997
 3237SOL     OW21346   2.885   4.579  15.153 -0.1251 -0.0139 -0.2393
 3237SOL    HW121347   2.792   4.557  15.147 -0.0879 -0.3343  0.3463
 3237SOL    HW221348   2.922   4.558  15.067  0.9929 -1.1465  0.5241
 3238SOL     OW21349   0.857   2.229  14.204 -0.2177  0.1290  0.4720
 3238SOL    HW121350   0.775   2.266  14.238 -0.9713  0.3021 -1.5073
 3238SOL    HW221351   0.821   2.205  14.118 -0.3150  0.0919  0.5229
 3239SOL     OW21352   3.829   3.163  15.152 -0.7348  0.2443  0.0712
 3239SOL    HW121353   3.754   3.168  15.093 -0.9676 -2.3164  0.1851
 3239SOL    HW221354   3.834   3.070  15.171  0.8014  0.3335  0.1376
 3240SOL     OW21355   3.725   2.163   2.328 -0.4518 -0.7597 -0.1381
 3240SOL    HW121356   3.691   2.098   2.267 -2.0974  0.9962 -1.0906
 3240SOL    HW221357   3.685   2.246   2.303 -0.9341 -0.4163  1.7450
 3241SOL     OW21358   3.273   2.572   9.448 -0.2581  0.0902 -0.1066
 3241SOL    HW121359   3.362   2.552   9.476 -1.6664 -1.4067  3.2730
 3241SOL    HW221360   3.283   2.657   9.405  1.4240 -0.5213 -0.9411
 3242SOL     OW21361   4.205   4.269   3.556 -0.1147 -0.0541  0.2463
 3242SOL    HW121362   4.139   4.223   3.503  0.3727 -0.2088 -0.2310
 3242SOL    HW221363   4.267   4.196   3.551 -1.5143 -1.2362 -0.1074
 3243SOL     OW21364   0.775   3.996   5.604 -0.0440  0.4102 -0.4901
 3243SOL    HW121365   0.852   4.051   5.592  0.9813 -1.0994 -0.8833
 3243SOL    HW221366   0.787   3.943   5.526 -0.0122 -0.9984  0.4719
 3244SOL     OW21367   1.747   1.700   9.131 -0.5207 -0.0528  0.0489
 3244SOL    HW121368   1.809   1.731   9.197  1.4548 -2.5293 -0.6390
 3244SOL    HW221369   1.713   1.785   9.103 -0.4998 -0.4484 -1.2008
 3245SOL     OW21370   4.564   3.964   5.868  0.1945  0.4298  0.0475
 3245SOL    HW121371   4.648   3.945   5.910 -0.1348 -1.9156 -0.3587
 3245SOL    HW221372   4.544   3.873   5.844  1.2873 -0.0724  1.0194
 3246SOL     OW21373   3.182   2.411   3.520 -0.1929 -0.3020  0.1140
 3246SOL    HW121374   3.154   2.439   3.433 -0.7013 -1.0106  0.0551
 3246SOL    HW221375   3.268   2.373   3.504 -0.1400  0.2311 -0.8506
 3247SOL     OW21376   2.631   1.247  10.664 -0.1031  0.0555 -0.4813
 3247SOL    HW121377   2.598   1.207  10.745 -0.0958  1.3130  0.1383
 3247SOL    HW221378   2.721   1.247  10.695  0.2852  0.6034 -1.6308
 3248SOL     OW21379   1.763   1.243   2.468  0.4003  0.4768  0.8753
 3248SOL    HW121380   1.792   1.152   2.460  0.6172  0.5284  1.0852
 3248SOL    HW221381   1.778   1.277   2.380 -2.4448 -1.2674 -0.2916
 3249SOL     OW21382   3.420   2.320  12.312  0.3664 -0.0514  0.6797
 3249SOL    HW121383   3.326   2.307  12.295  0.8889 -0.5820 -1.7558
 3249SOL    HW221384   3.435   2.387  12.245  1.0612 -0.2730  0.6206
 3250SOL     OW21385   4.035   3.743   7.657 -0.3727  0.0573 -1.2123
 3250SOL    HW121386   4.076   3.700   7.583  3.1118  2.0459 -0.4520
 3250SOL    HW221387   3.944   3.734   7.628 -0.1720 -2.8982 -0.9273
 3251SOL     OW21388   3.505   3.642  11.797 -0.0507  0.2862 -0.2581
 3251SOL    HW121389   3.459   3.633  11.880  3.7425  0.4760  1.8561
 3251SOL    HW221390   3.502   3.737  11.793  0.1073  0.2698 -0.8898
 3252SOL     OW21391   1.510   2.510   3.349  0.0121 -0.6869 -0.0438
 3252SOL    HW121392   1.524   2.592   3.395  1.0712  0.3817 -2.2629
 3252SOL    HW221393   1.496   2.447   3.420 -0.4335 -0.3409  0.1674
 3253SOL     OW21394   4.104   4.553   7.305  0.3247 -0.1576 -0.6617
 3253SOL    HW121395   4.149   4.611   7.366  1.5911 -1.1984 -0.5972
 3253SOL    HW221396   4.140   4.567   7.217  3.4958 -0.6702  0.5419
 3254SOL     OW21397   1.864   3.256   2.422  0.0006  0.0350  0.3036
 3254SOL    HW121398   1.848   3.282   2.513  0.6155  1.9465 -0.1479
 3254SOL    HW221399   1.933   3.190   2.434 -0.2771 -0.4380 -0.6652
 3255SOL     OW21400   3.266   4.287   5.222  0.3750 -0.0070  0.1027
 3255SOL    HW121401   3.336   4.287   5.156 -0.6250  0.6397 -0.9651
 3255SOL    HW221402   3.319   4.295   5.301 -1.0222 -0.2768  1.0475
 3256SOL     OW21403   2.089   4.075   3.195 -0.3114  0.3060 -0.0799
 3256SOL    HW121404   2.045   4.004   3.149 -0.7695 -0.0714  0.9373
 3256SOL    HW221405   2.171   4.036   3.227  1.1034  1.0851 -2.6822
 3257SOL     OW21406   2.327   4.237   4.797 -0.7285  0.1333 -0.2217
 3257SOL    HW121407   2.378   4.292   4.857  0.4930 -1.8438  0.5512
 3257SOL    HW221408   2.383   4.160   4.804 -0.7634 -0.0656 -2.3893
 3258SOL     OW21409   4.503   1.310   6.756  0.1704  0.5258 -0.3487
 3258SOL    HW121410   4.438   1.254   6.714  0.0695 -0.0734  0.6017
 3258SOL    HW221411   4.583   1.259   6.742 -0.4762 -0.3748 -0.8264
 3259SOL     OW21412   2.382   3.807  10.196 -0.1866 -0.1906  0.1235
 3259SOL    HW121413   2.303   3.770  10.237 -1.9857  1.6967 -1.6130
 3259SOL    HW221414   2.347   3.824  10.109 -0.0535 -0.7322 -0.0355
 3260SOL     OW21415   4.256   4.249   8.091  0.3309 -0.9048 -0.4098
 3260SOL    HW121416   4.166   4.280   8.095  0.5733 -0.6081  2.2751
 3260SOL    HW221417   4.270   4.264   7.997  0.3627 -0.3255 -0.3128
 3261SOL     OW21418   0.514   1.981   2.604 -0.6605 -0.2132  0.6139
 3261SOL    HW121419   0.423   1.950   2.605 -0.6496 -0.2033  1.9409
 3261SOL    HW221420   0.488   2.066   2.568 -0.2178  0.5008  1.9801
 3262SOL     OW21421   0.581   3.025  17.302  0.0479  0.1514 -0.1789
 3262SOL    HW121422   0.666   3.058  17.274  1.5049 -1.7555  1.9757
 3262SOL    HW221423   0.543   3.023  17.214  0.3283  1.5775 -0.3227
 3263SOL     OW21424   2.506   4.607   9.533 -0.0218  0.1801  0.1673
 3263SOL    HW121425   2.418   4.590   9.567  0.0748 -0.3845  0.1390
 3263SOL    HW221426   2.538   4.518   9.517 -2.5595 -0.7747  0.4517
 3264SOL     OW21427   0.151   3.284   0.343 -0.1584  0.1484  0.5576
 3264SOL    HW121428   0.163   3.308   0.252 -0.3475  0.5263  0.6301
 3264SOL    HW221429   0.068   3.236   0.342 -0.0661 -0.0139  0.7190
 3265SOL     OW21430   2.762   4.150   3.989 -0.4200  0.0601  0.0334
 3265SOL    HW121431   2.803   4.128   4.072 -1.8868 -0.1790  0.7015
 3265SOL    HW221432   2.693   4.210   4.019 -1.5313 -1.1900  0.0155
 3266SOL     OW21433   2.313   3.558   8.754  0.6143  0.1697  0.8763
 3266SOL    HW121434   2.274   3.639   8.722 -2.6395 -1.8296 -0.1929
 3266SOL    HW221435   2.285   3.561   8.845 -0.0079  0.1876  0.6848
 3267SOL     OW21436   1.034   3.719  11.618  0.1777 -0.0462 -0.2924
 3267SOL    HW121437   0.940   3.735  11.612 -0.1299 -1.3712  0.9363
 3267SOL    HW221438   1.044   3.680  11.531 -2.8901  0.0517 -0.6781
 3268SOL     OW21439   2.440   1.265   1.980  0.1004  0.0680  0.2706
 3268SOL    HW121440   2.504   1.193   1.979  0.1264  0.0803  1.1293
 3268SOL    HW221441   2.421   1.277   1.887 -2.8331 -0.3243  0.8188
 3269SOL     OW21442   2.423   2.936   2.232  0.5335  0.3121  0.7690
 3269SOL    HW121443   2.391   3.003   2.172  0.1573  0.5587  1.2421
 3269SOL    HW221444   2.512   2.929   2.198 -0.3398  1.2532 -1.7314
 3270SOL     OW21445   4.510   0.632  16.709  0.2868  0.0604 -0.1916
 3270SOL    HW121446   4.426   0.668  16.734  0.3437 -0.0203  0.1151
 3270SOL    HW221447   4.502   0.588  16.624  0.3874 -1.2191  0.4715
 3271SOL     OW21448   3.628   0.467   5.154 -0.2740  0.2593  0.1093
 3271SOL    HW121449   3.648   0.484   5.246  0.2574 -0.8893  0.2169
 3271SOL    HW221450   3.700   0.412   5.123 -3.0294 -2.8278 -0.8069
 3272SOL     OW21451   0.393   0.434   2.196 -0.3449 -1.0326 -0.4476
 3272SOL    HW121452   0.391   0.438   2.100 -1.2636 -0.5119 -0.4121
 3272SOL    HW221453   0.487   0.444   2.207  0.1332 -2.7145 -2.9762
 3273SOL     OW21454   4.478   1.872   4.793  0.4400  0.3733  0.1923
 3273SOL    HW121455   4.440   1.785   4.802 -2.8064  1.7625 -0.1674
 3273SOL    HW221456   4.554   1.852   4.739 -0.6653 -1.8872 -0.4763
 3274SOL     OW21457   1.587   1.198   4.146  0.7452 -0.3570  0.0781
 3274SOL    HW121458   1.607   1.114   4.106  2.9722 -0.0414  0.5342
 3274SOL    HW221459   1.496   1.191   4.176  1.1619 -1.8276  0.9798
 3275SOL     OW21460   3.297   4.484  14.588  0.1619 -0.0288  0.6687
 3275SOL    HW121461   3.250   4.449  14.665 -1.3044  1.9636  0.6879
 3275SOL    HW221462   3.378   4.434  14.598  0.5977  0.6029  0.2018
 3276SOL     OW21463   3.930   2.119   8.267 -0.5523 -0.0848 -0.3904
 3276SOL    HW121464   3.991   2.144   8.336 -0.6369 -0.6326 -0.1171
 3276SOL    HW221465   3.864   2.081   8.326  1.3288 -1.4464  0.8648
 3277SOL     OW21466   2.599   2.648   4.364  0.0794  0.0476  0.6565
 3277SOL    HW121467   2.515   2.638   4.320  0.0477  1.3011  0.4418
 3277SOL    HW221468   2.592   2.563   4.409  2.2256 -1.3001 -1.5281
 3278SOL     OW21469   2.813   1.591   7.470 -0.3686  0.2468  0.0887
 3278SOL    HW121470   2.809   1.653   7.543  0.5027 -0.5144  0.7833
 3278SOL    HW221471   2.818   1.652   7.397 -1.8450 -2.0052 -1.8855
 3279SOL     OW21472   3.258   1.772  15.002  0.4094  0.2330  0.5353
 3279SOL    HW121473   3.336   1.755  14.950 -0.1151 -0.0800 -0.1528
 3279SOL    HW221474   3.200   1.721  14.946 -0.6398  0.6095  1.2767
 3280SOL     OW21475   0.100   3.000   3.424 -0.5015 -0.0226 -0.0140
 3280SOL    HW121476   0.046   3.008   3.503  1.2955  0.0757  1.2131
 3280SOL    HW221477   0.178   2.982   3.477 -0.9061  0.5408  0.7694
 3281SOL     OW21478   2.866   0.036   4.585  0.2518  0.3341 -0.2660
 3281SOL    HW121479   2.922   0.072   4.653  0.5212 -1.7654  0.6272
 3281SOL    HW221480   2.847   0.109   4.526 -2.2414 -0.3887 -0.3631
 3282SOL     OW21481   2.038   4.196   5.348  0.4583 -0.4610 -0.0477
 3282SOL    HW121482   2.041   4.106   5.316 -1.7446 -0.6596  0.3053
 3282SOL    HW221483   2.107   4.187   5.414 -0.4961  0.6294  1.1060
 3283SOL     OW21484   1.515   1.723   7.827 -0.1823  0.5834  0.2263
 3283SOL    HW121485   1.544   1.651   7.882 -1.2883  0.8602  1.1773
 3283SOL    HW221486   1.559   1.689   7.749  0.9889  0.0453  1.1343
 3284SOL     OW21487   4.536   4.292   7.322  0.1624  0.7569  0.1726
 3284SOL    HW121488   4.614   4.327   7.365  1.9908 -1.7220 -1.1782
 3284SOL    HW221489   4.465   4.326   7.377 -2.3272 -0.2026 -2.4384
 3285SOL     OW21490   3.103   1.260   6.862  0.6953  0.1268 -0.1602
 3285SOL    HW121491   3.115   1.198   6.934  0.7857 -0.0590 -0.3354
 3285SOL    HW221492   3.136   1.336   6.908  1.0477 -1.3424  2.0283
 3286SOL     OW21493   4.205   1.126  15.680 -0.4154  0.5789 -0.4739
 3286SOL    HW121494   4.222   1.128  15.775  1.0270 -1.4644 -0.6827
 3286SOL    HW221495   4.257   1.199  15.647 -0.0168  0.1723 -0.7366
 3287SOL     OW21496   3.125   4.557   1.740  0.0584  0.3098 -0.5518
 3287SOL    HW121497   3.118   4.463   1.758 -1.9338  1.1696  3.0281
 3287SOL    HW221498   3.218   4.560   1.717  0.8564  0.6686  2.7795
 3288SOL     OW21499   0.172   4.470   2.986 -0.8386  0.8805  0.3026
 3288SOL    HW121500   0.265   4.473   3.011 -1.3862  2.6894  2.0560
 3288SOL    HW221501   0.134   4.463   3.073 -1.3578 -2.0182 -0.1419
 3289SOL     OW21502   4.401   1.245   5.214 -0.5446  0.0115  0.3574
 3289SOL    HW121503   4.324   1.296   5.191 -0.6167  0.0775  0.7499
 3289SOL    HW221504   4.431   1.236   5.123 -0.2256 -2.1093  0.6919
 3290SOL     OW21505   1.267   2.082   2.714  0.3651 -0.1656  0.0728
 3290SOL    HW121506   1.175   2.096   2.733  0.1795 -0.3175 -0.7100
 3290SOL    HW221507   1.291   2.028   2.789 -1.0930 -0.5416  0.2528
 3291SOL     OW21508   3.284   1.164  15.505 -0.1252 -0.3523  0.2076
 3291SOL    HW121509   3.244   1.090  15.550 -1.6722  0.7071  0.5663
 3291SOL    HW221510   3.262   1.234  15.565 -1.0720  0.3871 -1.0072
 3292SOL     OW21511   3.579   2.300   4.845 -0.0637 -0.3059  0.1350
 3292SOL    HW121512   3.645   2.258   4.789  2.1075  2.7936  0.3864
 3292SOL    HW221513   3.610   2.285   4.934  1.4162  1.1960 -0.1241
 3293SOL     OW21514   0.373   1.900   6.400  0.0696 -0.4943 -0.7148
 3293SOL    HW121515   0.300   1.839   6.388 -0.8716  1.5389 -5.0824
 3293SOL    HW221516   0.329   1.980   6.371 -2.0188 -0.7668  1.6855
 3294SOL     OW21517   0.582   1.158  13.896 -0.4302  0.1563  0.8712
 3294SOL    HW121518   0.508   1.103  13.871  0.6895 -0.4666 -1.0932
 3294SOL    HW221519   0.556   1.175  13.986 -1.2598 -1.9442  1.0297
 3295SOL     OW21520   1.554   4.566   1.994 -1.0617 -0.1577  0.2796
 3295SOL    HW121521   1.482   4.617   1.957 -1.4057 -0.1434  0.9813
 3295SOL    HW221522   1.509   4.535   2.072  1.9008  1.4396  2.6359
 3296SOL     OW21523   1.888   1.101   5.215  0.1648 -0.0540 -0.0018
 3296SOL    HW121524   1.863   1.180   5.167  1.3993 -0.7840 -1.8374
 3296SOL    HW221525   1.913   1.140   5.299  2.6124  0.2253 -0.8704
 3297SOL     OW21526   0.701   4.156   4.681 -0.1451 -0.1332  0.1799
 3297SOL    HW121527   0.606   4.167   4.675 -0.1881  0.8998  2.8427
 3297SOL    HW221528   0.740   4.150   4.594  0.4633  0.0338  0.4385
 3298SOL     OW21529   1.682   2.937   5.214 -0.4827 -0.6541 -0.0519
 3298SOL    HW121530   1.759   2.973   5.170 -0.0715 -0.9816  0.4058
 3298SOL    HW221531   1.715   2.848   5.221  1.9739  0.2306 -0.4441
 3299SOL     OW21532   4.309   2.751   1.599 -0.7027 -0.2176 -0.0000
 3299SOL    HW121533   4.273   2.787   1.518 -0.0366 -2.2945 -1.2361
 3299SOL    HW221534   4.402   2.763   1.583 -1.3843  1.4964 -2.6558
 3300SOL     OW21535   2.327   3.904   9.898  0.6006  0.3205 -0.3489
 3300SOL    HW121536   2.240   3.912   9.858  0.1741 -0.1182  0.4741
 3300SOL    HW221537   2.326   3.979   9.957 -0.8676  1.4806 -1.8552
 3301SOL     OW21538   3.861   4.607   8.870 -0.6394 -0.2017 -0.3019
 3301SOL    HW121539   3.879   4.687   8.919 -0.5421  0.1036 -0.8386
 3301SOL    HW221540   3.931   4.555   8.909  0.6546  1.6101 -0.2040
 3302SOL     OW21541   0.930   1.358   5.310 -0.5890  0.3056 -0.4748
 3302SOL    HW121542   0.899   1.288   5.253  0.5476 -0.3923 -0.2505
 3302SOL    HW221543   0.862   1.363   5.377 -0.7103 -1.0232 -0.5066
 3303SOL     OW21544   3.299   1.157   6.575  0.4086 -0.8849  0.0794
 3303SOL    HW121545   3.208   1.161   6.604  0.5293 -2.1012  0.6000
 3303SOL    HW221546   3.302   1.234   6.517  0.9744 -0.6713  0.3944
 3304SOL     OW21547   0.439   3.824   2.200 -0.1571 -0.5286 -0.1871
 3304SOL    HW121548   0.450   3.867   2.115 -1.7063  0.1707 -0.0250
 3304SOL    HW221549   0.530   3.797   2.212  1.0129  3.4440  0.0835
 3305SOL     OW21550   3.148   1.478  12.857  0.5536 -0.4068  0.1633
 3305SOL    HW121551   3.164   1.573  12.854  1.6220 -0.6086 -0.4675
 3305SOL    HW221552   3.132   1.469  12.951  1.6900  1.4305  0.5386
 3306SOL     OW21553   3.623   1.051  15.734  0.1590 -0.0150 -0.0497
 3306SOL    HW121554   3.568   1.005  15.798  0.5514 -2.0273 -1.1710
 3306SOL    HW221555   3.678   0.976  15.710 -1.7025 -1.9820  1.8498
 3307SOL     OW21556   1.718   3.271   5.833 -0.2055 -0.4417  0.2919
 3307SOL    HW121557   1.713   3.353   5.882  4.3339 -0.4414  0.7916
 3307SOL    HW221558   1.797   3.281   5.780 -0.6100  2.1983  0.2029
 3308SOL     OW21559   1.246   3.100  12.666 -0.5096  0.4665  0.0728
 3308SOL    HW121560   1.163   3.059  12.640 -0.4998 -1.0471  2.3722
 3308SOL    HW221561   1.279   3.027  12.718 -2.4224  0.9283  1.9566
 3309SOL     OW21562   4.026   2.658  16.778 -0.0747  0.0480 -0.1818
 3309SOL    HW121563   4.000   2.709  16.702  0.1145 -0.1530 -0.3781
 3309SOL    HW221564   3.941   2.613  16.781  0.2410 -0.4182  2.5860
 3310SOL     OW21565   2.686   0.051  14.435  0.2213  0.1168  0.1913
 3310SOL    HW121566   2.780   0.071  14.431  0.5524 -1.3299  0.9055
 3310SOL    HW221567   2.688   4.716  14.498 -0.1868 -1.3071 -1.4180
 3311SOL     OW21568   1.620   0.230   7.304  0.4687 -0.3178  0.4550
 3311SOL    HW121569   1.607   0.325   7.314 -1.3045 -0.4308 -0.7914
 3311SOL    HW221570   1.546   0.195   7.255 -0.4726  0.7221  1.1311
 3312SOL     OW21571   0.542   2.778   1.141  0.5902  0.7102  0.2480
 3312SOL    HW121572   0.568   2.687   1.129 -0.2985  0.5083 -0.1664
 3312SOL    HW221573   0.447   2.781   1.125  0.8163  2.3036 -0.7665
 3313SOL     OW21574   1.335   3.910  11.078  0.7624 -0.4495 -0.3427
 3313SOL    HW121575   1.409   3.857  11.107  0.5925  1.3230  3.3875
 3313SOL    HW221576   1.377   3.976  11.023  2.6951 -1.1347  0.2985
 3314SOL     OW21577   1.878   1.164   4.546 -0.1890  0.0009 -0.2247
 3314SOL    HW121578   1.933   1.205   4.612 -0.2875 -0.8731  0.3911
 3314SOL    HW221579   1.799   1.214   4.566  0.5601  1.3077 -0.5652
 3315SOL     OW21580   0.759   1.674   4.704 -0.0874 -0.5837  0.1560
 3315SOL    HW121581   0.847   1.691   4.737 -0.8591  0.4961  1.6929
 3315SOL    HW221582   0.720   1.761   4.702 -0.6274 -0.8094  0.6973
 3316SOL     OW21583   0.171   1.239   6.050  0.2069  0.5035  0.3636
 3316SOL    HW121584   0.152   1.290   5.972  1.5773  0.0677 -0.2460
 3316SOL    HW221585   0.245   1.282   6.092  0.4921 -0.0585  0.4331
 3317SOL     OW21586   3.701   3.145   1.166 -0.3366  0.1098 -0.0998
 3317SOL    HW121587   3.650   3.208   1.114 -0.4444 -0.1440 -0.3025
 3317SOL    HW221588   3.726   3.207   1.234 -1.4746 -0.9504  1.2812
 3318SOL     OW21589   4.644   2.404   0.583  0.1158 -0.2947 -0.1795
 3318SOL    HW121590   4.549   2.395   0.586  0.1308 -0.6701 -0.9024
 3318SOL    HW221591   4.670   2.485   0.627  2.0663  0.1010 -2.0971
 3319SOL     OW21592   1.665   1.161   3.854 -0.4143  0.1914  0.1567
 3319SOL    HW121593   1.580   1.116   3.848  1.2075 -3.0313  1.3886
 3319SOL    HW221594   1.647   1.245   3.895  0.7112 -0.1237  1.2645
 3320SOL     OW21595   1.613   2.933  12.642 -0.0108 -0.0384 -0.4589
 3320SOL    HW121596   1.654   2.879  12.575 -0.8200 -1.4775  0.1943
 3320SOL    HW221597   1.616   3.021  12.604  3.2948  0.1481  0.3115
 3321SOL     OW21598   1.296   2.915   2.464  0.4952  0.4030  0.3521
 3321SOL    HW121599   1.371   2.878   2.417 -0.3889 -0.7525 -0.1507
 3321SOL    HW221600   1.304   2.999   2.418  1.8884 -0.0727 -0.2964
 3322SOL     OW21601   3.828   2.917   3.388 -0.8336 -0.0839  0.1641
 3322SOL    HW121602   3.902   2.976   3.400 -1.3321  0.9373 -1.7724
 3322SOL    HW221603   3.758   2.970   3.349 -0.2560 -0.6937 -1.7223
 3323SOL     OW21604   0.889   4.364  14.082  0.3493 -0.2735  0.1644
 3323SOL    HW121605   0.885   4.430  14.012  2.7454  0.9565  1.2018
 3323SOL    HW221606   0.801   4.359  14.119  1.3364  0.7537  2.6343
 3324SOL     OW21607   3.778   3.874   3.042 -0.2045  0.0481 -0.3550
 3324SOL    HW121608   3.732   3.937   3.097 -1.5676 -0.9112 -0.4057
 3324SOL    HW221609   3.725   3.794   3.046  0.5112 -0.3535  1.1028
 3325SOL     OW21610   3.482   2.773  13.400 -0.2757  0.2229  0.3880
 3325SOL    HW121611   3.391   2.780  13.430 -0.2912 -0.6030  0.5287
 3325SOL    HW221612   3.466   2.739  13.312  0.1047 -0.8954  0.7579
 3326SOL     OW21613   3.529   0.231  12.790  0.2462  0.4239 -0.3432
 3326SOL    HW121614   3.534   0.292  12.863 -2.1978  0.8620 -0.5089
 3326SOL    HW221615   3.571   0.278  12.718  2.1553 -1.1582 -0.2431
 3327SOL     OW21616   4.236   2.459   7.141  0.4486 -0.6936  0.4782
 3327SOL    HW121617   4.324   2.474   7.178 -0.5439  0.5899  2.3115
 3327SOL    HW221618   4.255   2.366   7.149  0.8122 -0.9792 -3.6572
 3328SOL     OW21619   1.383   4.225   6.536  0.5308  0.3242  0.2964
 3328SOL    HW121620   1.477   4.207   6.545  0.8035  1.7790  0.3549
 3328SOL    HW221621   1.365   4.229   6.630  0.3238  1.8224  0.1875
 3329SOL     OW21622   4.122   0.987   0.590 -0.3610  0.3163  0.0888
 3329SOL    HW121623   4.028   0.995   0.607 -0.2795  2.6625 -0.4953
 3329SOL    HW221624   4.128   1.018   0.500  0.7192 -1.4022 -0.4364
 3330SOL     OW21625   1.325   3.029   4.546  0.4709 -0.0319  0.3173
 3330SOL    HW121626   1.307   3.005   4.637  0.1392 -2.0373 -0.2904
 3330SOL    HW221627   1.334   2.939   4.515 -3.7911 -0.8429  1.3363
 3331SOL     OW21628   2.645   0.506   6.212  0.3901 -0.5022 -0.3119
 3331SOL    HW121629   2.552   0.485   6.224  0.1997  0.7230  0.2963
 3331SOL    HW221630   2.656   0.547   6.298 -0.8269 -0.4841 -0.1697
 3332SOL     OW21631   3.101   2.839   3.377 -0.2433  0.5021  0.3404
 3332SOL    HW121632   3.007   2.825   3.390 -0.3994  0.9176 -0.3897
 3332SOL    HW221633   3.135   2.772   3.437  1.6385 -0.5260 -1.8841
 3333SOL     OW21634   1.207   2.232   1.806  0.3106 -0.0189 -0.3763
 3333SOL    HW121635   1.272   2.219   1.875 -0.3973  0.1894  0.3230
 3333SOL    HW221636   1.124   2.217   1.851 -0.2799  2.6827 -0.5851
 3334SOL     OW21637   4.652   1.237   0.297  1.3612  0.1025 -0.2983
 3334SOL    HW121638   0.007   1.210   0.299  2.4004  3.4095 -1.9965
 3334SOL    HW221639   4.656   1.306   0.230  3.4993  0.0073 -0.2872
 3335SOL     OW21640   2.944   2.509  13.036  0.2261 -0.1104 -0.0014
 3335SOL    HW121641   2.937   2.600  13.067  1.3093  0.0684 -0.2850
 3335SOL    HW221642   3.035   2.507  13.008 -0.8208 -1.9789 -3.1763
 3336SOL     OW21643   2.587   0.711   9.103 -0.2080  0.1637  0.5993
 3336SOL    HW121644   2.647   0.784   9.118  0.2516 -0.0492 -0.1671
 3336SOL    HW221645   2.630   0.679   9.023 -1.5883  0.6468 -0.3264
 3337SOL     OW21646   3.227   3.781   7.310  0.1929 -0.0111 -0.0778
 3337SOL    HW121647   3.223   3.872   7.338  0.7829 -0.3329  1.0724
 3337SOL    HW221648   3.247   3.790   7.217  1.6488 -1.7847  0.0747
 3338SOL     OW21649   1.622   1.427   5.510  0.1690 -0.7605  0.2851
 3338SOL    HW121650   1.651   1.504   5.461  0.3670 -2.1170 -1.7520
 3338SOL    HW221651   1.556   1.395   5.447  0.9127  0.1384 -0.9461
 3339SOL     OW21652   2.746   3.078   1.604 -0.1651 -0.1496  0.2655
 3339SOL    HW121653   2.720   3.166   1.631 -0.0920 -0.8486  2.5810
 3339SOL    HW221654   2.833   3.069   1.644 -0.4069  0.0933  0.8385
 3340SOL     OW21655   2.950   1.501   5.618 -0.4632  0.1277 -0.4594
 3340SOL    HW121656   2.985   1.422   5.661  0.3042  0.5354 -0.3472
 3340SOL    HW221657   2.877   1.513   5.679 -0.8515 -0.0623 -0.8892
 3341SOL     OW21658   2.447   1.395   7.038 -0.4637  0.5568 -0.7824
 3341SOL    HW121659   2.510   1.462   7.011  0.2105  0.2360 -0.0189
 3341SOL    HW221660   2.406   1.436   7.114  2.2938 -1.8217  2.0143
 3342SOL     OW21661   1.091   1.354  11.993  0.1608 -0.5176 -0.3018
 3342SOL    HW121662   1.095   1.444  11.960  0.3319 -0.4238 -0.0318
 3342SOL    HW221663   1.016   1.315  11.948  0.0792 -2.6053  1.6216
 3343SOL     OW21664   0.731   0.139   3.925 -0.0045 -0.0501 -0.0512
 3343SOL    HW121665   0.821   0.119   3.899 -1.1169 -0.2693 -3.7528
 3343SOL    HW221666   0.693   0.175   3.845 -2.5046 -2.6315 -0.0287
 3344SOL     OW21667   0.995   1.255   3.219  0.3326 -1.0292  0.4777
 3344SOL    HW121668   1.041   1.273   3.137 -1.2355  1.6059  0.1775
 3344SOL    HW221669   0.919   1.210   3.182 -1.4291  0.8923  1.7298
 3345SOL     OW21670   3.730   4.292  10.133 -0.3431  0.6687  0.1393
 3345SOL    HW121671   3.681   4.290  10.215  1.6155  0.2233  1.2978
 3345SOL    HW221672   3.804   4.235  10.151 -0.1851  0.3555 -1.5325
 3346SOL     OW21673   0.255   0.966   6.428 -0.2045 -0.3082  0.4275
 3346SOL    HW121674   0.315   1.016   6.483  0.8841  0.3588 -1.3891
 3346SOL    HW221675   0.187   0.925   6.482  0.0507 -0.2005  0.8377
 3347SOL     OW21676   3.833   3.968  10.686 -0.5780  0.0223 -0.3825
 3347SOL    HW121677   3.884   4.044  10.716 -0.8683  0.8679 -2.0480
 3347SOL    HW221678   3.882   3.895  10.724 -0.5427  0.5272  0.5296
 3348SOL     OW21679   0.582   1.362   5.030  0.5117 -0.1916 -0.1476
 3348SOL    HW121680   0.565   1.391   4.941 -1.5776 -0.7442  0.0640
 3348SOL    HW221681   0.583   1.446   5.076  1.2314  0.5970 -1.6045
 3349SOL     OW21682   3.568   1.694   4.717  0.1468  0.1289  0.1701
 3349SOL    HW121683   3.551   1.755   4.645 -0.7667 -0.6430 -0.2722
 3349SOL    HW221684   3.645   1.649   4.682  0.9544  0.9635  0.9048
 3350SOL     OW21685   0.659   1.421   9.994 -0.2838 -0.0279  0.2976
 3350SOL    HW121686   0.734   1.399  10.050  2.1696  3.7090 -1.5335
 3350SOL    HW221687   0.629   1.502  10.035  2.7332  1.3228 -0.1736
 3351SOL     OW21688   1.665   2.572   9.475 -0.2980 -0.4739  0.1794
 3351SOL    HW121689   1.637   2.527   9.555 -0.5807  0.6782  0.7318
 3351SOL    HW221690   1.673   2.658   9.516 -0.8388  0.3235 -1.3720
 3352SOL     OW21691   1.611   0.960   6.556  0.4424 -0.3662  0.0695
 3352SOL    HW121692   1.693   1.006   6.540  0.2132  1.2346  3.6375
 3352SOL    HW221693   1.543   1.020   6.525  0.5002 -1.4979 -2.2762
 3353SOL     OW21694   2.363   3.635  15.293  0.0446  0.9754 -0.0569
 3353SOL    HW121695   2.391   3.619  15.383 -1.4613  2.0142  0.6034
 3353SOL    HW221696   2.448   3.614  15.256 -0.7517 -1.6026 -0.3888
 3354SOL     OW21697   3.891   0.130   3.225 -0.1617 -0.3291  0.0899
 3354SOL    HW121698   3.928   0.079   3.152 -0.7647 -1.3803  0.5327
 3354SOL    HW221699   3.900   0.072   3.300  1.3964  1.3996  1.2502
 3355SOL     OW21700   0.208   4.355  16.478  0.7051 -0.3659 -0.9046
 3355SOL    HW121701   0.234   4.432  16.427  1.3959 -1.4590 -2.2135
 3355SOL    HW221702   0.114   4.373  16.489  1.0093  1.5587 -1.4111
 3356SOL     OW21703   2.337   0.045   7.165  0.2277  0.2823 -0.2194
 3356SOL    HW121704   2.431   0.062   7.164  0.4277 -0.8131 -0.1882
 3356SOL    HW221705   2.337   4.688   7.185  2.2455  0.1480 -0.7884
 3357SOL     OW21706   3.937   3.259   2.943 -0.1359 -0.2646  0.2541
 3357SOL    HW121707   3.915   3.171   2.972  2.2208 -0.4704  1.4293
 3357SOL    HW221708   3.883   3.313   3.002 -1.1448  0.7143 -1.5485
 3358SOL     OW21709   0.380   4.476   2.362 -0.7611  0.0424 -0.4225
 3358SOL    HW121710   0.462   4.496   2.407 -0.4512 -0.5930 -0.7058
 3358SOL    HW221711   0.390   4.528   2.282  1.0129 -0.6790 -0.6685
 3359SOL     OW21712   0.854   4.575   0.237 -0.4800 -0.0685  0.4555
 3359SOL    HW121713   0.848   4.494   0.286 -0.9148  1.7213  3.3366
 3359SOL    HW221714   0.943   4.600   0.260  0.7307 -1.0193 -3.2090
 3360SOL     OW21715   1.959   1.155  17.092 -0.3103 -0.1052 -0.0924
 3360SOL    HW121716   1.938   1.176  17.183  0.8271 -0.1139  0.1701
 3360SOL    HW221717   1.933   1.063  17.080 -0.5670  0.0495 -0.7394
 3361SOL     OW21718   0.841   3.336   7.406  0.1366 -0.1931 -0.2385
 3361SOL    HW121719   0.915   3.285   7.439 -0.3369 -0.6364  0.1174
 3361SOL    HW221720   0.783   3.334   7.482  1.3357 -1.6031  0.6365
 3362SOL     OW21721   3.338   1.691  15.914  0.1778 -1.1621  0.3252
 3362SOL    HW121722   3.258   1.719  15.869  0.1363 -0.9972  0.4981
 3362SOL    HW221723   3.403   1.730  15.857  0.5184 -1.3403  0.5922
 3363SOL     OW21724   3.903   1.862  17.594  0.8636 -0.0026  0.2380
 3363SOL    HW121725   3.937   1.950  17.605  0.0297  0.2681  0.6978
 3363SOL    HW221726   3.892   1.872  17.499  2.3468 -3.7271 -0.3062
 3364SOL     OW21727   2.724   4.032  13.731 -0.2189  0.3017 -0.1153
 3364SOL    HW121728   2.749   3.942  13.752  1.4652  0.8220  0.1359
 3364SOL    HW221729   2.729   4.067  13.819 -1.3319 -0.1354  0.1226
 3365SOL     OW21730   4.045   0.411   6.556  0.4403 -0.0773 -0.2347
 3365SOL    HW121731   4.102   0.342   6.521 -0.6553 -0.5238 -1.1395
 3365SOL    HW221732   4.109   0.468   6.600  1.2179 -0.0731 -1.3814
 3366SOL     OW21733   2.884   1.575   8.916  0.0691  0.2989 -0.4610
 3366SOL    HW121734   2.891   1.614   9.003 -1.1290  0.4337 -0.4245
 3366SOL    HW221735   2.976   1.552   8.904 -0.0901 -0.1774 -0.7554
 3367SOL     OW21736   2.640   4.616   2.529  0.0788 -0.1548  0.0274
 3367SOL    HW121737   2.639   4.551   2.600  1.5701  2.0503  2.0647
 3367SOL    HW221738   2.689   4.688   2.569 -2.4614  1.3133  0.4689
 3368SOL     OW21739   1.582   2.645  10.646 -0.4144  0.0225 -0.0227
 3368SOL    HW121740   1.521   2.635  10.573  0.0575 -0.5753 -0.3443
 3368SOL    HW221741   1.640   2.703  10.595  1.8360 -2.7337 -0.5663
 3369SOL     OW21742   3.364   0.251  10.785  0.4099  0.3016 -0.3041
 3369SOL    HW121743   3.301   0.192  10.743  0.8412 -1.0083  0.8830
 3369SOL    HW221744   3.322   0.263  10.870 -0.7310  0.8505 -0.9357
 3370SOL     OW21745   3.063   2.030  12.436 -0.0896 -0.1874 -0.4782
 3370SOL    HW121746   3.124   2.005  12.367  0.2599 -0.8896  0.0798
 3370SOL    HW221747   3.015   2.095  12.385 -0.9594  0.5646  1.2839
 3371SOL     OW21748   0.266   2.718   3.647 -0.1679 -0.0712 -1.0536
 3371SOL    HW121749   0.277   2.770   3.727 -2.5694 -1.0225 -0.0812
 3371SOL    HW221750   0.304   2.775   3.580  1.0732  0.9535  0.5349
 3372SOL     OW21751   1.184   3.892   2.827 -0.2191  0.3681 -0.2910
 3372SOL    HW121752   1.156   3.983   2.827 -0.8365  0.1711  1.3002
 3372SOL    HW221753   1.140   3.852   2.752 -0.2020 -1.5117  0.7029
 3373SOL     OW21754   3.708   1.905   7.707 -0.3193 -0.4494 -0.0378
 3373SOL    HW121755   3.711   1.857   7.790  0.7828  2.2624  1.4811
 3373SOL    HW221756   3.639   1.964   7.736  0.3501  0.0677  0.5088
 3374SOL     OW21757   3.416   0.786  16.600  0.0882 -0.2722  0.7256
 3374SOL    HW121758   3.368   0.764  16.520 -0.4955  1.5909  0.5816
 3374SOL    HW221759   3.357   0.856  16.628 -1.4237 -1.3910  0.3748
 3375SOL     OW21760   3.532   0.727  11.294  0.8443 -0.1115  0.0263
 3375SOL    HW121761   3.525   0.822  11.293 -0.6465 -0.2374 -1.0230
 3375SOL    HW221762   3.626   0.710  11.300  1.1614  1.2736 -0.9380
 3376SOL     OW21763   3.137   1.501   1.011 -0.3911 -0.2245  0.0322
 3376SOL    HW121764   3.147   1.591   1.039  0.1174 -0.2977  0.0752
 3376SOL    HW221765   3.128   1.448   1.091 -1.0090 -0.3068 -0.0871
 3377SOL     OW21766   2.734   2.416   2.372  0.4359 -0.0601  0.1774
 3377SOL    HW121767   2.826   2.391   2.365  0.5212  0.7982 -1.5559
 3377SOL    HW221768   2.689   2.335   2.350 -0.0423  0.5260 -0.9689
 3378SOL     OW21769   0.263   2.888  12.937  0.0391 -0.1565 -0.8158
 3378SOL    HW121770   0.197   2.861  12.873  0.4888 -0.6308 -1.0925
 3378SOL    HW221771   0.248   2.833  13.014  3.8149  0.5609  0.4288
 3379SOL     OW21772   4.330   3.492  14.283 -0.0623 -0.3732 -0.3676
 3379SOL    HW121773   4.314   3.482  14.377  1.1485  0.1170 -0.1061
 3379SOL    HW221774   4.276   3.568  14.263 -0.4113  0.2961  3.0867
 3380SOL     OW21775   0.534   1.651   6.038 -0.4139  0.0222 -0.2037
 3380SOL    HW121776   0.570   1.687   5.957  1.7141 -3.1338 -0.6628
 3380SOL    HW221777   0.441   1.668   6.026 -0.4071  0.2378  0.0624
 3381SOL     OW21778   0.351   4.588   7.077  0.0067 -0.3314  0.0713
 3381SOL    HW121779   0.405   4.517   7.112 -1.5804 -3.3638 -3.6908
 3381SOL    HW221780   0.410   4.631   7.016 -1.5552 -1.8326 -2.4957
 3382SOL     OW21781   1.962   1.242   8.024 -0.1366  0.1820  1.1424
 3382SOL    HW121782   1.946   1.204   7.938  1.4888  0.2748  0.8025
 3382SOL    HW221783   1.888   1.218   8.079 -0.3811 -0.2375  0.6281
 3383SOL     OW21784   2.073   1.969   4.040  0.1346 -0.1405  0.0800
 3383SOL    HW121785   2.125   2.043   4.009 -0.4842  0.1144 -0.3426
 3383SOL    HW221786   2.065   1.914   3.962  0.8148  1.2783 -0.9900
 3384SOL     OW21787   4.498   3.739  15.395  0.6649  0.1970 -0.3928
 3384SOL    HW121788   4.408   3.711  15.377  0.6752  0.0763 -0.2542
 3384SOL    HW221789   4.513   3.821  15.348 -1.4562  1.6388  1.4345
 3385SOL     OW21790   3.483   3.002   8.465  0.1721 -0.3422  0.3551
 3385SOL    HW121791   3.465   2.916   8.502  1.7076 -0.0215  1.8224
 3385SOL    HW221792   3.511   2.980   8.377  0.3161 -0.5442  0.4536
 3386SOL     OW21793   0.639   4.703   5.341 -0.0352 -0.0065 -0.7339
 3386SOL    HW121794   0.702   4.635   5.318 -0.0172 -0.4377  0.5877
 3386SOL    HW221795   0.642   0.023   5.263  2.3518 -1.5988 -1.8056
 3387SOL     OW21796   1.381   2.198   8.442 -0.0590  0.2126 -0.4285
 3387SOL    HW121797   1.465   2.153   8.440 -0.4660 -0.3647 -4.7282
 3387SOL    HW221798   1.358   2.194   8.349 -2.0507  0.9831  0.0301
 3388SOL     OW21799   0.357   2.153   7.191  0.2140  0.0089 -0.1173
 3388SOL    HW121800   0.414   2.230   7.187 -1.2969  1.1847  1.2384
 3388SOL    HW221801   0.393   2.095   7.124  2.6197  1.3133  0.0321
 3389SOL     OW21802   2.143   4.166  12.616  0.9027 -0.0625  0.0453
 3389SOL    HW121803   2.220   4.187  12.667  1.1798  1.6939 -1.0840
 3389SOL    HW221804   2.140   4.240  12.554  0.2952 -0.9627 -1.0070
 3390SOL     OW21805   1.892   3.528   9.036 -0.1988  0.6428 -0.9679
 3390SOL    HW121806   1.923   3.531   8.946 -1.2574  0.0399 -1.3483
 3390SOL    HW221807   1.809   3.482   9.026 -0.3126  0.2454  1.9138
 3391SOL     OW21808   4.173   3.342  12.333  0.6035 -0.6959 -0.0090
 3391SOL    HW121809   4.258   3.308  12.363  0.2605 -1.9567 -0.4550
 3391SOL    HW221810   4.192   3.434  12.350 -0.1351 -0.3463 -1.0590
 3392SOL     OW21811   0.334   1.494  17.332  0.1481 -0.1153 -0.3004
 3392SOL    HW121812   0.422   1.463  17.355  0.8485  2.5835  0.6501
 3392SOL    HW221813   0.276   1.464  17.401 -0.5017  1.4704 -0.1817
 3393SOL     OW21814   3.144   3.651   4.774 -0.3655 -0.0275 -0.0314
 3393SOL    HW121815   3.106   3.588   4.835 -1.2519  0.8662  0.3369
 3393SOL    HW221816   3.232   3.668   4.805 -0.4161  0.1903 -0.0075
 3394SOL     OW21817   3.562   1.878   4.471  0.3941 -0.2317  0.6998
 3394SOL    HW121818   3.483   1.932   4.467 -1.2441 -2.4166  3.1744
 3394SOL    HW221819   3.588   1.866   4.380 -0.0937  1.2858  0.3524
 3395SOL     OW21820   1.864   1.457   7.749  0.4553  0.7300  0.0737
 3395SOL    HW121821   1.932   1.524   7.759 -0.9521  2.2790 -0.9210
 3395SOL    HW221822   1.832   1.454   7.840 -0.6417 -0.0501 -0.3357
 3396SOL     OW21823   3.736   2.232   4.602  0.3110  0.5712 -0.0662
 3396SOL    HW121824   3.662   2.217   4.544  2.4510  0.4076 -2.7629
 3396SOL    HW221825   3.772   2.313   4.564 -1.2019  1.0393 -0.5104
 3397SOL     OW21826   1.426   0.962   5.648  0.1803 -0.4822 -0.2979
 3397SOL    HW121827   1.340   0.920   5.654  1.5293 -2.9484  2.1525
 3397SOL    HW221828   1.397   1.045   5.685  0.7960 -1.6304  2.7961
 3398SOL     OW21829   0.953   3.942   8.669  0.0452  0.0418  0.2159
 3398SOL    HW121830   0.878   4.001   8.683  0.3072  0.4144  0.0330
 3398SOL    HW221831   1.025   3.997   8.640 -0.8686  0.6038 -0.9734
 3399SOL     OW21832   3.927   2.180   3.888 -0.8663 -0.4396  0.0526
 3399SOL    HW121833   3.877   2.214   3.814 -0.8926 -1.1185 -0.2388
 3399SOL    HW221834   3.928   2.087   3.864 -1.1466 -0.7312  1.1604
 3400SOL     OW21835   0.289   2.295   4.030  0.7238 -0.2212  0.6281
 3400SOL    HW121836   0.235   2.273   4.106  0.4213  2.1813  1.1069
 3400SOL    HW221837   0.324   2.378   4.062  0.8309 -0.6403  1.5773
 3401SOL     OW21838   2.398   3.302   8.065  0.0009 -0.3072  0.2600
 3401SOL    HW121839   2.338   3.248   8.117 -0.1905 -1.5828 -1.2756
 3401SOL    HW221840   2.339   3.315   7.991  1.1460 -1.4567 -0.8654
 3402SOL     OW21841   2.192   0.723   2.506 -0.2024 -0.0010  0.3599
 3402SOL    HW121842   2.202   0.636   2.545 -0.1517  0.8469  2.2382
 3402SOL    HW221843   2.209   0.787   2.575 -1.4553 -1.0067  1.5916
 3403SOL     OW21844   0.307   2.757   9.899 -0.1142 -0.0185 -0.1299
 3403SOL    HW121845   0.391   2.720   9.874 -0.6760 -1.4754  0.1593
 3403SOL    HW221846   0.325   2.851   9.908 -1.1787  0.0109  1.6730
 3404SOL     OW21847   4.643   0.896  16.640 -0.0445 -0.4704 -0.3495
 3404SOL    HW121848   4.606   0.966  16.693  1.0053  0.2104 -0.4942
 3404SOL    HW221849   4.607   0.817  16.679 -2.1800 -0.0327 -1.4568
 3405SOL     OW21850   0.810   0.285   1.636  0.3850  0.1787  0.0953
 3405SOL    HW121851   0.747   0.305   1.567  1.1336  0.2471 -0.5746
 3405SOL    HW221852   0.836   0.375   1.656  1.1750 -0.1510  0.5534
 3406SOL     OW21853   3.097   4.669  12.009 -0.1690 -0.3823 -0.2098
 3406SOL    HW121854   3.101   0.005  11.948 -0.0531  2.0932  2.7703
 3406SOL    HW221855   3.050   4.707  12.083 -2.3881 -0.6120 -1.4995
 3407SOL     OW21856   4.296   3.240   6.693 -0.3009  0.6248  0.5273
 3407SOL    HW121857   4.252   3.155   6.705 -0.8784  0.7039 -1.1222
 3407SOL    HW221858   4.338   3.259   6.777  2.5525  1.9017 -1.2103
 3408SOL     OW21859   1.307   1.409   7.640 -0.2758 -0.2205 -0.0921
 3408SOL    HW121860   1.258   1.331   7.666  2.1112 -1.8592 -0.5781
 3408SOL    HW221861   1.361   1.372   7.570 -1.2450  2.3402 -2.2053
 3409SOL     OW21862   3.721   0.182   8.948  0.2452  0.2989  0.2393
 3409SOL    HW121863   3.792   0.162   9.008  0.0871 -1.1151 -0.0496
 3409SOL    HW221864   3.647   0.200   9.006 -0.6224 -1.2496 -0.3778
 3410SOL     OW21865   0.152   1.333   4.159  0.4911  0.0022 -0.8352
 3410SOL    HW121866   0.203   1.366   4.232  0.2034  2.0951 -1.5808
 3410SOL    HW221867   0.095   1.275   4.209  0.0036  1.6854  0.5619
 3411SOL     OW21868   2.830   0.424   7.905  0.3120 -0.0584 -0.1210
 3411SOL    HW121869   2.833   0.433   8.000  0.6281  1.9701 -0.3330
 3411SOL    HW221870   2.893   0.352   7.902  0.4170 -0.0063  0.7462
 3412SOL     OW21871   3.723   2.013  11.133 -0.5857  0.8901  0.6101
 3412SOL    HW121872   3.716   1.955  11.209  0.5341  0.8326  0.6800
 3412SOL    HW221873   3.799   1.968  11.096 -0.7532  0.2002  1.0906
 3413SOL     OW21874   3.212   4.374   3.721  0.3745  0.0852  0.4501
 3413SOL    HW121875   3.203   4.413   3.808 -0.1582 -0.0329  0.4429
 3413SOL    HW221876   3.271   4.433   3.673  0.5579 -0.7076 -0.2844
 3414SOL     OW21877   3.082   1.780   7.834  0.1179  0.0346  0.2275
 3414SOL    HW121878   3.113   1.837   7.905 -0.3427 -0.4344  0.8011
 3414SOL    HW221879   3.130   1.698   7.845 -0.5694 -0.5988 -1.5092
 3415SOL     OW21880   1.874   2.825   8.056  0.2311  0.7953 -0.4122
 3415SOL    HW121881   1.898   2.783   8.138 -3.8569 -1.6961 -0.4625
 3415SOL    HW221882   1.841   2.751   8.003 -0.2907 -0.1296  1.2201
 3416SOL     OW21883   2.688   3.805   2.977 -0.0192  0.0102 -0.7892
 3416SOL    HW121884   2.675   3.815   2.883  0.1166  1.0584 -0.6988
 3416SOL    HW221885   2.632   3.876   3.009  1.6524  1.7235 -1.5936
 3417SOL     OW21886   3.442   4.267   7.413  1.0256  0.2283 -0.5719
 3417SOL    HW121887   3.482   4.210   7.348  1.1319 -0.2489 -0.0901
 3417SOL    HW221888   3.527   4.303   7.436  0.0230  0.4342  2.8164
 3418SOL     OW21889   3.121   0.704   2.510  0.4619 -0.2275  0.4176
 3418SOL    HW121890   3.041   0.651   2.511 -0.2376  0.8718  2.1846
 3418SOL    HW221891   3.184   0.632   2.513 -1.2873 -1.7470  0.9850
 3419SOL     OW21892   0.708   4.544   8.771  0.8522  0.4444  0.2807
 3419SOL    HW121893   0.651   4.467   8.780 -0.1728  1.1491 -0.1212
 3419SOL    HW221894   0.655   4.610   8.815  0.1977 -0.8820  1.5058
 3420SOL     OW21895   0.867   1.735   2.739  0.4331 -0.2233  0.2934
 3420SOL    HW121896   0.828   1.672   2.679  0.2355  1.5336 -1.4165
 3420SOL    HW221897   0.788   1.787   2.752  0.0412 -0.8129  0.2377
 3421SOL     OW21898   2.371   0.751   0.891 -0.5125  0.4067 -0.2358
 3421SOL    HW121899   2.448   0.730   0.838  0.0619 -0.4030  0.9181
 3421SOL    HW221900   2.302   0.712   0.837 -0.6735  0.6709 -0.2176
 3422SOL     OW21901   1.809   0.199   0.550 -0.0273 -0.2278  0.0258
 3422SOL    HW121902   1.795   0.272   0.490  1.3156 -1.9089 -2.3420
 3422SOL    HW221903   1.770   0.123   0.505  0.6897 -0.3498 -0.3952
 3423SOL     OW21904   2.988   3.242   1.732 -0.4000 -0.4315 -0.5265
 3423SOL    HW121905   3.034   3.204   1.657 -0.0034 -0.9700 -0.0054
 3423SOL    HW221906   2.942   3.321   1.702  0.3346  0.2323  0.0844
 3424SOL     OW21907   2.148   1.231   5.682  0.1789 -0.4951  0.1468
 3424SOL    HW121908   2.147   1.269   5.770  0.5417  0.4237 -0.2548
 3424SOL    HW221909   2.196   1.153   5.710 -0.3868 -0.4384  1.2908
 3425SOL     OW21910   3.833   2.445   7.105  0.3141 -0.3226  0.2073
 3425SOL    HW121911   3.870   2.411   7.187  3.0010 -2.0356 -1.7229
 3425SOL    HW221912   3.752   2.396   7.090 -0.9791  1.5779  0.9283
 3426SOL     OW21913   1.241   3.383   1.917 -0.2948  0.1714 -0.0937
 3426SOL    HW121914   1.281   3.469   1.928  0.9096 -0.0700 -2.5760
 3426SOL    HW221915   1.200   3.368   2.002  0.5734 -1.4801  0.0326
 3427SOL     OW21916   1.201   2.955   8.302 -0.3578  0.0857  0.3287
 3427SOL    HW121917   1.226   2.921   8.216  3.3755 -0.7026  1.7355
 3427SOL    HW221918   1.107   2.938   8.294 -0.0034  0.0049 -3.3938
 3428SOL     OW21919   2.817   1.502  17.426  0.4079  0.3014 -0.4300
 3428SOL    HW121920   2.861   1.539  17.350 -0.8432  0.0085 -1.2877
 3428SOL    HW221921   2.811   1.578  17.484  1.4285 -0.8918  1.2272
 3429SOL     OW21922   4.242   1.430   3.215 -0.2374  0.5267 -0.4170
 3429SOL    HW121923   4.323   1.462   3.254 -1.2213  0.4430  1.6719
 3429SOL    HW221924   4.252   1.338   3.241  1.5987  0.5968 -0.8211
 3430SOL     OW21925   4.668   4.524   7.987 -0.1786 -0.2564  0.0882
 3430SOL    HW121926   4.628   4.437   7.992 -0.4021 -0.0389  2.4725
 3430SOL    HW221927   4.726   4.526   7.911 -1.2090 -0.4617 -0.7031
 3431SOL     OW21928   4.468   4.546  16.128  0.3501 -0.0092  0.5371
 3431SOL    HW121929   4.447   4.453  16.139 -1.5997  0.4487  0.6020
 3431SOL    HW221930   4.551   4.554  16.176  0.7120 -2.2322  0.3229
 3432SOL     OW21931   2.631   2.835   9.185 -0.3799  0.4010  0.1089
 3432SOL    HW121932   2.587   2.918   9.169 -1.5568 -0.7366 -2.5096
 3432SOL    HW221933   2.690   2.844   9.110  0.3554 -2.1262  0.3660
 3433SOL     OW21934   1.260   0.415   8.833  0.0826 -0.1844 -0.2665
 3433SOL    HW121935   1.297   0.422   8.745 -0.7303 -2.0751 -0.7518
 3433SOL    HW221936   1.191   0.351   8.819 -1.3954  0.5036  3.8387
 3434SOL     OW21937   0.973   0.032   3.814 -0.5642 -0.0004 -0.3965
 3434SOL    HW121938   0.955   4.681   3.781 -1.9224  0.5891 -1.2162
 3434SOL    HW221939   1.044   0.054   3.754  1.7896 -1.5679  1.7910
 3435SOL     OW21940   0.449   2.619  16.763 -0.2200  0.2316  0.1844
 3435SOL    HW121941   0.544   2.609  16.769 -0.1988  0.3990  0.1228
 3435SOL    HW221942   0.411   2.628  16.850 -1.5337  1.2156 -0.4877
 3436SOL     OW21943   0.518   3.014   8.375 -0.0693 -0.2116 -0.3338
 3436SOL    HW121944   0.513   3.025   8.470 -0.6992  1.8937 -0.6124
 3436SOL    HW221945   0.427   3.031   8.350 -0.6595 -1.6922  0.8024
 3437SOL     OW21946   4.661   0.805   8.038  0.5188 -0.7372  1.2327
 3437SOL    HW121947   4.636   0.870   7.972  2.2424 -1.2997  0.0206
 3437SOL    HW221948   4.594   0.819   8.105 -1.9963  0.2489 -1.4477
 3438SOL     OW21949   0.472   2.488   4.599 -0.2217 -0.5177  0.2641
 3438SOL    HW121950   0.521   2.564   4.631 -0.8465  1.4090 -3.3416
 3438SOL    HW221951   0.507   2.467   4.513  0.7879 -1.7021  0.9757
 3439SOL     OW21952   1.928   1.067   8.741 -0.6090  0.7079  0.3430
 3439SOL    HW121953   1.910   1.052   8.834 -1.1427 -1.2976 -0.0908
 3439SOL    HW221954   1.874   0.999   8.700  1.0685 -1.7968  2.2668
 3440SOL     OW21955   2.242   3.067   6.164  0.2047  0.1736 -0.5586
 3440SOL    HW121956   2.181   2.993   6.173  1.4740 -1.1074 -2.6825
 3440SOL    HW221957   2.325   3.022   6.174 -0.2065 -0.7459 -1.3147
 3441SOL     OW21958   1.187   3.447   6.329 -0.1882 -0.4001  0.4543
 3441SOL    HW121959   1.113   3.390   6.309 -0.5581  0.0927  0.4128
 3441SOL    HW221960   1.195   3.445   6.424  1.0885 -2.4539  0.3023
 3442SOL     OW21961   2.528   0.960  15.355 -0.1052 -0.4419 -0.4600
 3442SOL    HW121962   2.588   0.889  15.381  2.2800  0.8314 -2.4516
 3442SOL    HW221963   2.593   1.022  15.320  1.2882 -1.7900 -0.2791
 3443SOL     OW21964   1.086   4.686   4.724  0.0127  0.0716  0.2530
 3443SOL    HW121965   1.121   4.720   4.806  0.1331  1.1658 -0.2542
 3443SOL    HW221966   1.083   0.030   4.673  0.9721  0.0300  0.1348
 3444SOL     OW21967   3.645   3.541   4.292  0.1564  0.3194 -0.7654
 3444SOL    HW121968   3.604   3.482   4.229  1.2459 -0.9421 -0.2785
 3444SOL    HW221969   3.709   3.484   4.334  0.0897 -0.4768 -1.7468
 3445SOL     OW21970   4.580   2.106   7.235 -0.4933  0.1177 -0.4187
 3445SOL    HW121971   4.634   2.170   7.187 -2.4860  0.1667 -2.5844
 3445SOL    HW221972   4.637   2.029   7.240  0.0841  0.5938  0.3164
 3446SOL     OW21973   4.456   0.078   8.170  0.4681  0.2857  0.3162
 3446SOL    HW121974   4.453   0.101   8.263  2.8748  0.1532  0.4306
 3446SOL    HW221975   4.368   0.097   8.139  0.3504 -0.9126 -0.0957
 3447SOL     OW21976   3.147   3.925   1.517  0.1458  0.7092 -0.3898
 3447SOL    HW121977   3.154   4.020   1.530 -2.2221  1.0439 -1.5730
 3447SOL    HW221978   3.177   3.905   1.606  0.5623  0.2186 -0.6397
 3448SOL     OW21979   4.195   0.906   5.325 -0.2375  0.3422 -0.0450
 3448SOL    HW121980   4.147   0.943   5.251 -0.7340 -1.9851 -0.9019
 3448SOL    HW221981   4.126   0.862   5.376 -2.1991  2.9501 -0.4605
 3449SOL     OW21982   2.974   3.931   4.134 -0.1949 -0.0608  0.0138
 3449SOL    HW121983   3.012   4.019   4.132  2.2345 -1.1520 -1.1001
 3449SOL    HW221984   2.954   3.920   4.227  0.3471 -1.5937 -0.0597
 3450SOL     OW21985   0.949   1.773   8.945  0.1762  0.2050  0.2346
 3450SOL    HW121986   1.037   1.750   8.915  0.3950  1.4318 -0.0442
 3450SOL    HW221987   0.945   1.716   9.022 -0.4541 -1.2131 -0.8670
 3451SOL     OW21988   3.576   3.661  16.772  0.0081 -0.5645 -0.3428
 3451SOL    HW121989   3.519   3.617  16.835  0.4767 -2.6532 -1.3975
 3451SOL    HW221990   3.506   3.718  16.740  0.3706  0.0373 -0.0619
 3452SOL     OW21991   0.883   0.073  14.815 -0.3502 -0.3333 -0.1471
 3452SOL    HW121992   0.893   0.076  14.720  0.0600 -1.6324 -0.1455
 3452SOL    HW221993   0.921   0.155  14.846 -0.2008 -0.4484 -0.0238
 3453SOL     OW21994   0.794   0.754  15.417  0.1798  0.1086  0.5383
 3453SOL    HW121995   0.703   0.758  15.448 -0.6275  1.1821 -1.9801
 3453SOL    HW221996   0.804   0.659  15.412 -1.1379 -0.1222  2.1012
 3454SOL     OW21997   4.051   0.109   7.595 -0.2180  0.0854  0.3432
 3454SOL    HW121998   3.985   0.069   7.538 -0.0738  2.5155 -1.5087
 3454SOL    HW221999   4.027   0.060   7.673  0.2151  0.4385  0.6967
 3455SOL     OW22000   4.536   0.732   1.745  0.4682  0.0075 -0.2095
 3455SOL    HW122001   4.557   0.643   1.774 -0.1080  0.0413  0.3228
 3455SOL    HW222002   4.479   0.765   1.815 -1.8984 -2.5699 -0.9012
 3456SOL     OW22003   3.764   4.029   6.878  0.1695  0.0822 -0.3365
 3456SOL    HW122004   3.713   3.977   6.816 -0.0457  0.7945 -0.7581
 3456SOL    HW222005   3.718   4.113   6.880 -1.6200 -0.8503 -2.7098
 3457SOL     OW22006   0.769   0.446  14.909  0.5460 -0.1882  0.1868
 3457SOL    HW122007   0.843   0.416  14.857 -0.1673 -1.0073 -0.3644
 3457SOL    HW222008   0.810   0.480  14.988  1.7123 -1.8596  0.2857
 3458SOL     OW22009   2.396   0.715   1.361  0.5899 -1.4685 -0.4062
 3458SOL    HW122010   2.420   0.804   1.389 -1.0607 -1.0078 -0.4920
 3458SOL    HW222011   2.376   0.676   1.446  0.9876  1.2624  0.9571
 3459SOL     OW22012   1.762   4.687   8.725  0.6472  0.1803 -0.5777
 3459SOL    HW122013   1.667   4.694   8.728  0.4974 -2.8957  0.8867
 3459SOL    HW222014   1.783   4.691   8.818 -2.2488 -0.4023  0.0841
 3460SOL     OW22015   3.594   0.263   3.615  0.3618  0.4283  0.8251
 3460SOL    HW122016   3.584   0.358   3.605 -1.3008  0.2586  0.7747
 3460SOL    HW222017   3.504   0.231   3.606  0.6886 -0.5272  0.9915
 3461SOL     OW22018   3.985   3.788   8.914 -0.7604 -0.0050  0.2785
 3461SOL    HW122019   4.079   3.805   8.925 -1.1967  2.3360  0.4074
 3461SOL    HW222020   3.995   3.734   8.836 -2.2356 -2.0361  1.5108
 3462SOL     OW22021   0.519   1.368  15.732  0.2242 -0.5156 -0.2020
 3462SOL    HW122022   0.528   1.393  15.640 -0.8540  1.7317  0.3055
 3462SOL    HW222023   0.598   1.405  15.771  0.4220  0.6710 -1.7242
 3463SOL     OW22024   3.096   2.254   8.510  0.1984  0.2810 -0.2526
 3463SOL    HW122025   3.009   2.224   8.535  0.2386  0.0332 -0.4124
 3463SOL    HW222026   3.075   2.321   8.445  1.0280  1.0977  0.3198
 3464SOL     OW22027   0.778   0.277   6.373 -0.2024  0.7334  0.2545
 3464SOL    HW122028   0.752   0.344   6.310 -1.7093  0.6706  0.8058
 3464SOL    HW222029   0.710   0.304   6.434 -0.4177  0.9588 -0.0854
 3465SOL     OW22030   3.752   1.055   8.581 -0.3840 -0.2945  0.1883
 3465SOL    HW122031   3.799   1.003   8.646  0.2540 -0.1976 -0.1951
 3465SOL    HW222032   3.803   1.043   8.501 -0.9571 -1.8009  0.0376
 3466SOL     OW22033   3.633   4.273   8.389  0.4339 -0.5109  0.0690
 3466SOL    HW122034   3.714   4.247   8.432  0.5151  0.1579  0.3138
 3466SOL    HW222035   3.642   4.228   8.305 -0.4205 -3.6245  1.6569
 3467SOL     OW22036   1.232   0.248   3.251  0.2738  0.3944 -0.5833
 3467SOL    HW122037   1.150   0.266   3.205  0.4530  0.5315 -0.8546
 3467SOL    HW222038   1.251   0.166   3.206 -0.5446  0.7567 -1.5959
 3468SOL     OW22039   1.913   3.898  16.245  0.1753  0.0985  0.2871
 3468SOL    HW122040   1.885   3.875  16.334 -2.5965 -0.0551 -0.6437
 3468SOL    HW222041   2.007   3.919  16.253  0.2410  0.9930 -3.1593
 3469SOL     OW22042   1.753   2.467   8.478 -0.2853 -0.5683 -0.2857
 3469SOL    HW122043   1.816   2.396   8.465  1.3884  1.2616 -2.0493
 3469SOL    HW222044   1.700   2.467   8.399  0.7442  1.4649 -0.9866
 3470SOL     OW22045   3.239   0.378  14.371  0.3656  0.7801  0.3950
 3470SOL    HW122046   3.299   0.451  14.360 -1.1482  2.2572  1.8228
 3470SOL    HW222047   3.266   0.348  14.458 -0.8189 -1.4575  0.0099
 3471SOL     OW22048   4.292   3.215   4.613  0.0369  0.5189 -0.0014
 3471SOL    HW122049   4.381   3.248   4.629 -1.4003  3.6750  1.5605
 3471SOL    HW222050   4.258   3.301   4.587 -1.1210 -0.4879 -1.7923
 3472SOL     OW22051   2.616   4.619   3.403 -0.4235  0.4828  0.4107
 3472SOL    HW122052   2.532   4.636   3.446  0.9058  3.0355  1.9414
 3472SOL    HW222053   2.686   4.630   3.467 -1.5497  1.2788  1.4890
 3473SOL     OW22054   2.010   4.060  11.533 -0.4222  0.5624  0.6985
 3473SOL    HW122055   1.961   4.121  11.479  1.3568  2.1363  0.8680
 3473SOL    HW222056   2.084   4.035  11.477 -0.2447 -0.2245  1.2877
 3474SOL     OW22057   2.433   3.315  14.896  0.3225  0.3161 -0.3002
 3474SOL    HW122058   2.512   3.365  14.876 -0.0814  1.7759  1.7926
 3474SOL    HW222059   2.368   3.358  14.840 -1.9741 -2.4470  0.2662
 3475SOL     OW22060   3.193   0.776   9.261  0.1762 -0.2630 -0.0569
 3475SOL    HW122061   3.185   0.869   9.243  1.5151 -0.2458 -0.5094
 3475SOL    HW222062   3.288   0.775   9.255  0.1675  3.2348 -0.6902
 3476SOL     OW22063   3.000   0.266  17.215  0.1982  0.0954  0.6263
 3476SOL    HW122064   3.006   0.361  17.227 -0.9851  0.3980 -1.2174
 3476SOL    HW222065   3.049   0.226  17.288  0.0217 -1.7696 -0.2769
 3477SOL     OW22066   0.888   0.481   2.516  0.1643  0.1207  0.1475
 3477SOL    HW122067   0.892   0.458   2.609 -2.5263 -0.8654  0.0488
 3477SOL    HW222068   0.800   0.443   2.505 -0.2814  1.5272 -1.2539
 3478SOL     OW22069   3.406   4.587   6.202 -0.5325  0.0050  0.1246
 3478SOL    HW122070   3.458   4.663   6.229 -0.2360 -0.6126  1.2770
 3478SOL    HW222071   3.355   4.625   6.130  0.4139  2.0368  0.5108
 3479SOL     OW22072   0.151   1.717  16.237  0.0855 -0.1801  0.6240
 3479SOL    HW122073   0.185   1.630  16.218 -2.1200 -0.7661 -0.6087
 3479SOL    HW222074   0.193   1.733  16.322 -0.8459  0.7630  0.9143
 3480SOL     OW22075   1.325   3.837   7.074  0.1478 -0.0003 -0.5106
 3480SOL    HW122076   1.360   3.772   7.136 -1.7266 -1.2206 -0.7477
 3480SOL    HW222077   1.294   3.777   7.006 -0.5741 -0.1054 -0.0849
 3481SOL     OW22078   1.888   3.692  13.070 -0.6189 -0.6422  0.2601
 3481SOL    HW122079   1.855   3.653  13.151 -0.5035  0.9564  1.0872
 3481SOL    HW222080   1.978   3.712  13.097 -0.3642  0.2524 -1.2653
 3482SOL     OW22081   4.277   2.317   0.365  0.0747  0.1830 -0.2311
 3482SOL    HW122082   4.220   2.366   0.424  1.1049 -0.1313  1.0278
 3482SOL    HW222083   4.325   2.387   0.322  1.1670 -1.1805 -1.2432
 3483SOL     OW22084   0.511   2.411   3.187  0.2760 -0.3278 -0.7136
 3483SOL    HW122085   0.457   2.335   3.163 -0.8233  0.3422 -0.3395
 3483SOL    HW222086   0.541   2.392   3.276 -0.7993  0.5626 -0.1642
 3484SOL     OW22087   1.278   1.333  13.821  0.7701  0.4090 -0.0900
 3484SOL    HW122088   1.272   1.324  13.916  0.7433 -1.2774 -0.2513
 3484SOL    HW222089   1.190   1.302  13.802  1.6132 -2.6980  0.8830
 3485SOL     OW22090   0.290   2.457   6.933  0.1664 -0.0249  0.4848
 3485SOL    HW122091   0.300   2.496   6.846 -0.4523 -1.0931 -0.0664
 3485SOL    HW222092   0.212   2.402   6.924  0.4524 -0.1158 -1.2842
 3486SOL     OW22093   3.943   3.912   6.605  0.5377  0.1480  0.0020
 3486SOL    HW122094   3.854   3.909   6.569  0.9443  0.8807 -1.0636
 3486SOL    HW222095   3.947   3.817   6.614  0.6159  0.1491 -0.0209
 3487SOL     OW22096   4.459   3.442   5.302 -0.6016 -0.1431  0.3381
 3487SOL    HW122097   4.462   3.405   5.390  0.4416 -1.0154 -0.0730
 3487SOL    HW222098   4.365   3.455   5.286 -0.2825 -1.5875 -2.6466
 3488SOL     OW22099   4.729   3.879   4.865 -0.4060  0.0182 -0.1851
 3488SOL    HW122100   0.034   3.962   4.842 -0.6318  1.1680  3.5777
 3488SOL    HW222101   0.039   3.819   4.807 -1.0384 -1.5469  0.9195
 3489SOL     OW22102   4.026   4.577  11.465  0.0333  0.2494  0.1283
 3489SOL    HW122103   3.968   4.581  11.541 -0.0144  0.2336  0.0929
 3489SOL    HW222104   3.960   4.600  11.399 -1.4770 -0.1094  1.5382
 3490SOL     OW22105   3.799   3.534   6.879  0.0035  0.2190 -0.2959
 3490SOL    HW122106   3.735   3.504   6.814  0.5784  2.8314 -2.0750
 3490SOL    HW222107   3.763   3.495   6.958 -2.4332 -0.2559 -1.6602
 3491SOL     OW22108   0.171   4.306   5.429 -0.2448 -0.0234 -0.0860
 3491SOL    HW122109   0.207   4.379   5.479 -1.0671 -0.1042  0.6272
 3491SOL    HW222110   0.099   4.281   5.487  0.0609  0.0561  0.3283
 3492SOL     OW22111   3.694   0.862   8.063 -0.2409 -0.1074  0.4965
 3492SOL    HW122112   3.782   0.830   8.083 -1.2873 -2.9327  0.6545
 3492SOL    HW222113   3.688   0.951   8.098  2.2034  1.5692 -3.4970
 3493SOL     OW22114   0.326   3.239   3.522 -0.5743  0.2746 -0.2620
 3493SOL    HW122115   0.380   3.204   3.452 -0.9937 -1.8146  0.4514
 3493SOL    HW222116   0.381   3.314   3.547 -0.2077 -0.0045 -0.2230
 3494SOL     OW22117   0.306   3.018   7.364  0.5473  0.5906 -0.3494
 3494SOL    HW122118   0.280   2.975   7.446 -0.6423  0.2413 -0.8983
 3494SOL    HW222119   0.283   2.947   7.303  3.7259  0.1094 -0.9903
 3495SOL     OW22120   1.435   4.101   2.997  0.1627 -0.1859  0.4283
 3495SOL    HW122121   1.350   4.146   3.001 -0.3011 -0.9034 -1.6056
 3495SOL    HW222122   1.425   4.037   3.067  0.2230 -0.8039 -0.1329
 3496SOL     OW22123   2.643   2.892   3.708  0.2602  0.3941  0.2259
 3496SOL    HW122124   2.679   2.978   3.728  0.8078  0.0857  0.5552
 3496SOL    HW222125   2.716   2.838   3.737  1.4009  1.3832 -0.8462
 3497SOL     OW22126   2.012   0.799   2.303  0.3263 -0.1102 -0.5798
 3497SOL    HW122127   2.064   0.760   2.372  0.5642  0.4372 -0.4462
 3497SOL    HW222128   2.058   0.759   2.229 -0.9558 -1.5401 -0.5918
 3498SOL     OW22129   4.056   0.038  14.220  0.0476  0.4234 -0.3641
 3498SOL    HW122130   4.027   4.700  14.168 -0.4199  1.0214 -0.9709
 3498SOL    HW222131   3.981   0.096  14.220  0.0427  0.3996  2.0278
 3499SOL     OW22132   4.602   0.700   5.863 -0.2169 -0.3629  0.1188
 3499SOL    HW122133   4.571   0.624   5.814  0.5486 -0.3873 -0.3326
 3499SOL    HW222134   4.685   0.664   5.894  0.1806  1.3539  1.0704
 3500SOL     OW22135   3.302   0.448  12.890 -0.7255  0.0284 -0.3788
 3500SOL    HW122136   3.293   0.358  12.858 -2.4841  0.2174 -0.4501
 3500SOL    HW222137   3.236   0.430  12.957 -1.3784  2.7023 -0.2898
 3501SOL     OW22138   4.624   3.614   4.266  0.4246 -0.2118  0.5931
 3501SOL    HW122139   4.663   3.698   4.241 -0.9147  0.6509  1.3912
 3501SOL    HW222140   4.696   3.551   4.266  0.9312  0.4037 -3.3875
 3502SOL     OW22141   4.491   3.029   8.810 -0.6376 -0.3929  0.0130
 3502SOL    HW122142   4.395   3.033   8.816 -0.5302 -0.5268  1.8721
 3502SOL    HW222143   4.502   2.935   8.796 -0.8907 -0.4017 -0.1252
 3503SOL     OW22144   2.628   2.454   2.645  0.1933  0.1625 -0.3811
 3503SOL    HW122145   2.713   2.499   2.650 -1.2905  2.8832  0.2192
 3503SOL    HW222146   2.639   2.441   2.551 -3.0587  0.5675 -0.7989
 3504SOL     OW22147   3.167   3.662   2.838 -0.8439  0.0180 -0.1768
 3504SOL    HW122148   3.222   3.595   2.879 -0.1864  0.4531 -0.3359
 3504SOL    HW222149   3.136   3.713   2.913  1.9520  3.0410 -1.0081
 3505SOL     OW22150   0.520   4.566   7.811 -0.4563 -0.3624 -0.1024
 3505SOL    HW122151   0.598   4.544   7.862 -1.7934 -1.1452  1.5891
 3505SOL    HW222152   0.460   4.501   7.848 -1.3171 -0.3812 -1.5510
 3506SOL     OW22153   0.265   1.152  14.204 -0.0096 -0.0156  0.3181
 3506SOL    HW122154   0.237   1.236  14.242 -3.0614 -0.7708 -0.2969
 3506SOL    HW222155   0.361   1.163  14.205 -0.3502  2.8827  0.8637
 3507SOL     OW22156   4.169   1.310   7.768  0.4551 -0.2390  0.3463
 3507SOL    HW122157   4.261   1.286   7.755  0.6736  0.9491 -0.3142
 3507SOL    HW222158   4.128   1.224   7.766 -2.1744  1.0002  0.5422
 3508SOL     OW22159   0.232   2.523   0.080 -1.2589 -0.4863  0.4436
 3508SOL    HW122160   0.284   2.501   0.158 -0.4535 -1.5210 -0.3850
 3508SOL    HW222161   0.257   2.615   0.072  0.1803 -1.0412 -1.4261
 3509SOL     OW22162   1.029   1.722  17.664 -0.3725 -0.0016  0.1244
 3509SOL    HW122163   0.995   1.638  17.632  0.4554 -1.1480  2.2632
 3509SOL    HW222164   1.087   1.695  17.734 -0.0786 -0.3236 -0.2459
 3510SOL     OW22165   0.434   2.619   7.769 -0.5506  0.5366 -0.3293
 3510SOL    HW122166   0.344   2.621   7.735 -0.8888  1.1080  0.5872
 3510SOL    HW222167   0.419   2.598   7.861 -2.5255  0.4622 -0.6531
 3511SOL     OW22168   3.785   2.950   5.618 -0.3044 -0.1477  0.3105
 3511SOL    HW122169   3.700   2.957   5.575 -0.3936 -2.1256  0.1974
 3511SOL    HW222170   3.796   2.860   5.648 -1.6775 -0.4444 -0.0822
 3512SOL     OW22171   3.785   1.317   2.878  0.3044  0.0899  0.7880
 3512SOL    HW122172   3.794   1.221   2.883  1.1808  0.1966  1.0930
 3512SOL    HW222173   3.797   1.341   2.970 -0.4957  1.0594  0.6386
 3513SOL     OW22174   1.718   3.179   3.059 -0.0982  0.0741 -0.2767
 3513SOL    HW122175   1.762   3.264   3.049 -2.1202  1.3924  2.1685
 3513SOL    HW222176   1.791   3.119   3.073 -0.1971 -0.1816 -0.8680
 3514SOL     OW22177   0.013   2.277   0.259  0.2442  0.1645 -0.1349
 3514SOL    HW122178   4.729   2.249   0.170  0.3231  0.2606 -0.1841
 3514SOL    HW222179   0.060   2.205   0.300 -0.2220  0.0101  0.1236
 3515SOL     OW22180   0.394   2.748   0.064  0.4350  0.1168 -0.3202
 3515SOL    HW122181   0.417   2.758  17.718 -1.1293 -0.0022 -0.7127
 3515SOL    HW222182   0.483   2.750   0.101  0.1765  0.9862  0.2758
 3516SOL     OW22183   4.064   2.756   8.372 -0.0187  0.0092  0.1999
 3516SOL    HW122184   4.032   2.840   8.339  2.7614 -0.1008 -2.7832
 3516SOL    HW222185   4.015   2.750   8.454 -0.4438 -0.0410 -0.0591
 3517SOL     OW22186   3.985   4.160  12.812  0.0910  0.7380 -0.0275
 3517SOL    HW122187   3.988   4.201  12.898  0.2295  0.8390 -0.0807
 3517SOL    HW222188   3.978   4.069  12.841  1.9246  1.6235  3.1521
 3518SOL     OW22189   0.111   4.599   3.741 -0.0338  0.6262 -0.5084
 3518SOL    HW122190   0.043   4.661   3.765 -0.4099 -0.2332  0.6374
 3518SOL    HW222191   0.127   4.545   3.819  1.4699 -0.3285 -1.4906
 3519SOL     OW22192   1.601   4.311   1.843 -0.5269  0.1717 -0.6420
 3519SOL    HW122193   1.632   4.400   1.826 -1.4280  0.8547  1.3536
 3519SOL    HW222194   1.611   4.280   1.752 -2.3815 -1.1677 -0.3898
 3520SOL     OW22195   4.206   3.308   2.940 -0.2789  0.1099 -0.1162
 3520SOL    HW122196   4.128   3.252   2.947  1.1508 -2.2796 -3.0664
 3520SOL    HW222197   4.159   3.390   2.947 -0.2761  0.1699 -0.7751
 3521SOL     OW22198   2.566   4.438   4.417 -0.7938 -0.3456  0.0622
 3521SOL    HW122199   2.476   4.431   4.450 -0.4106  3.7055  1.9975
 3521SOL    HW222200   2.612   4.392   4.487 -0.4175  1.5064  1.0103
 3522SOL     OW22201   1.031   1.567   3.206 -0.0827 -0.0587  0.1755
 3522SOL    HW122202   0.951   1.590   3.159 -0.4848 -0.9357  0.4289
 3522SOL    HW222203   1.014   1.475   3.229 -0.2100  0.4951  2.3288
 3523SOL     OW22204   2.421   3.968   3.676  0.0729 -0.1149 -0.3131
 3523SOL    HW122205   2.513   3.980   3.701  0.3714  0.4683 -1.6879
 3523SOL    HW222206   2.417   3.875   3.656 -0.6925 -0.1397 -0.0470
 3524SOL     OW22207   3.179   4.282   2.368  0.1779  0.1499 -0.8116
 3524SOL    HW122208   3.123   4.228   2.424  1.7573 -0.3693  0.2705
 3524SOL    HW222209   3.261   4.281   2.417 -0.2546  1.5981 -0.0558
 3525SOL     OW22210   0.600   0.780  13.610 -0.4741  0.1927  0.1840
 3525SOL    HW122211   0.692   0.799  13.627 -0.5664  0.8230 -0.0373
 3525SOL    HW222212   0.573   0.726  13.684 -0.1052  0.4413  0.5008
 3526SOL     OW22213   3.846   3.853   7.065 -0.0552  0.2958  0.3178
 3526SOL    HW122214   3.915   3.810   7.015  0.4182  1.4838 -0.0570
 3526SOL    HW222215   3.801   3.914   7.006 -0.6657  0.8419  1.3389
 3527SOL     OW22216   2.455   3.270  10.909  0.0034  0.1123 -0.4448
 3527SOL    HW122217   2.445   3.181  10.942 -0.0201  0.0120 -0.7214
 3527SOL    HW222218   2.540   3.272  10.864  1.9876  0.7584  3.3244
 3528SOL     OW22219   3.129   4.398   7.368 -0.3431 -0.2201 -0.0439
 3528SOL    HW122220   3.208   4.410   7.421 -0.1772 -1.0626 -0.0922
 3528SOL    HW222221   3.069   4.457   7.413  0.8259  1.9295 -1.3248
 3529SOL     OW22222   0.491   1.669   1.330  0.2572  0.5351 -0.6388
 3529SOL    HW122223   0.432   1.743   1.341  0.1398  0.3688 -0.1720
 3529SOL    HW222224   0.428   1.608   1.370  2.7071 -0.3693  1.7882
 3530SOL     OW22225   1.672   1.504   1.535 -0.1178 -0.3907 -0.1719
 3530SOL    HW122226   1.603   1.441   1.551 -0.9526  0.9462  1.5104
 3530SOL    HW222227   1.656   1.573   1.600 -1.0405 -0.3080 -0.4975
 3531SOL     OW22228   4.188   2.588  17.383 -0.0741 -0.1428  0.1547
 3531SOL    HW122229   4.145   2.541  17.454  0.2329 -1.1382 -0.3188
 3531SOL    HW222230   4.262   2.627  17.429  0.3585 -2.0897  1.1261
 3532SOL     OW22231   4.609   3.197   4.135 -0.3360  0.2288  0.2308
 3532SOL    HW122232   4.643   3.117   4.175 -2.8772  0.3248  2.6418
 3532SOL    HW222233   4.529   3.205   4.188  0.0474 -1.2948  1.0194
 3533SOL     OW22234   2.589   2.393   4.474  0.2393  0.0273 -0.4304
 3533SOL    HW122235   2.657   2.341   4.432  2.9896  2.2152  1.3271
 3533SOL    HW222236   2.626   2.394   4.562  2.8429 -0.6156 -1.5244
 3534SOL     OW22237   3.694   4.731  17.551  0.2160  0.1018 -0.0988
 3534SOL    HW122238   3.762   4.691  17.605 -1.1491  0.5636  1.9603
 3534SOL    HW222239   3.729   0.078  17.521  1.3034 -0.3032  0.0487
 3535SOL     OW22240   1.528   3.264   7.408 -1.0776 -0.5001  0.1183
 3535SOL    HW122241   1.567   3.275   7.321  1.5364 -1.6618  1.1356
 3535SOL    HW222242   1.609   3.237   7.452 -1.7880 -3.2473 -0.2998
 3536SOL     OW22243   2.947   0.976  16.586  0.3050  0.3795 -0.2342
 3536SOL    HW122244   2.958   1.064  16.620  0.1866  0.1893  0.2935
 3536SOL    HW222245   2.888   0.936  16.650  0.0810 -0.1058 -0.7338
 3537SOL     OW22246   3.105   4.619   3.480 -0.3041  0.3680  0.0776
 3537SOL    HW122247   3.170   4.598   3.548  0.7789 -4.5561 -2.5163
 3537SOL    HW222248   3.166   4.625   3.407 -1.9772  1.7845 -1.2034
 3538SOL     OW22249   4.578   0.575   1.477  0.4326 -0.1641  0.4428
 3538SOL    HW122250   4.660   0.598   1.432 -0.7832  2.0880 -0.6452
 3538SOL    HW222251   4.563   0.662   1.516 -1.0044 -0.6326  0.9358
 3539SOL     OW22252   4.299   1.720   0.435 -0.0724 -0.0473  0.2031
 3539SOL    HW122253   4.333   1.796   0.482  1.4237 -0.5877 -0.0193
 3539SOL    HW222254   4.365   1.711   0.367 -0.4974 -0.6278 -0.1369
 3540SOL     OW22255   0.836   3.622   2.875  0.4921  0.2827 -0.4729
 3540SOL    HW122256   0.820   3.654   2.786 -1.3615 -0.0067 -0.2387
 3540SOL    HW222257   0.863   3.702   2.920  0.4513 -0.3187  0.6218
 3541SOL     OW22258   1.023   2.850  10.108  0.3602  0.3796 -0.2035
 3541SOL    HW122259   0.968   2.928  10.099 -2.2821 -1.4590 -0.2415
 3541SOL    HW222260   1.065   2.844  10.022 -2.0009 -0.2335 -1.3222
 3542SOL     OW22261   2.461   3.567  15.540  0.1012  0.1355  0.8694
 3542SOL    HW122262   2.548   3.580  15.579 -0.4578  1.6349  1.6182
 3542SOL    HW222263   2.403   3.518  15.598 -0.3183 -1.1090 -0.5995
 3543SOL     OW22264   4.661   0.061  16.848  0.2778  0.1438  0.3462
 3543SOL    HW122265   4.622   0.048  16.762 -0.6328  0.3532  0.7221
 3543SOL    HW222266   4.728   0.128  16.832  1.8477 -2.2111 -2.7735
 3544SOL     OW22267   3.674   3.178  17.739  0.0332 -0.2599  0.6924
 3544SOL    HW122268   3.714   3.142   0.071  0.2828  0.8863  1.0810
 3544SOL    HW222269   3.678   3.272   0.007 -1.5191 -0.0681 -0.0976
 3545SOL     OW22270   4.462   2.645   2.014 -0.1440  0.3755 -0.0808
 3545SOL    HW122271   4.428   2.729   1.982  0.7804  0.8521  0.2007
 3545SOL    HW222272   4.394   2.584   1.983  0.5700  0.4469 -1.7781
 3546SOL     OW22273   1.873   3.074   6.026 -0.4246 -0.3397 -0.3570
 3546SOL    HW122274   1.900   3.041   5.941 -0.9195 -3.1177  0.5905
 3546SOL    HW222275   1.919   3.158   6.018 -2.7170  0.9986  0.5352
 3547SOL     OW22276   2.929   3.217   6.487 -0.6021  0.4571  0.2084
 3547SOL    HW122277   2.905   3.252   6.401  0.8190 -1.1663 -0.8706
 3547SOL    HW222278   2.998   3.156   6.460 -1.0488 -1.2892  3.0829
 3548SOL     OW22279   2.996   0.179  12.128  0.1263  0.5882  0.0456
 3548SOL    HW122280   2.919   0.142  12.171  0.5160 -1.0529 -0.6430
 3548SOL    HW222281   2.959   0.242  12.067  0.1848  0.3900 -0.1960
 3549SOL     OW22282   2.342   3.511   0.860  0.1107  0.2756  0.1451
 3549SOL    HW122283   2.344   3.605   0.843 -0.9343  0.6388  2.0590
 3549SOL    HW222284   2.260   3.493   0.907  0.9726  2.2240  2.4031
 3550SOL     OW22285   0.547   4.564   3.757  0.5460  0.1883  0.2777
 3550SOL    HW122286   0.534   4.655   3.786  1.5819  0.6360 -0.6594
 3550SOL    HW222287   0.607   4.550   3.830  0.6218 -0.1895  0.1416
 3551SOL     OW22288   0.849   1.494   8.176 -0.0503  0.2379  0.7705
 3551SOL    HW122289   0.779   1.428   8.184  0.2025 -0.2379 -0.9783
 3551SOL    HW222290   0.905   1.444   8.116  0.9306  0.0240  1.8657
 3552SOL     OW22291   4.336   3.312   7.282  0.4085 -0.1266  0.2450
 3552SOL    HW122292   4.403   3.375   7.257 -0.3219 -0.3901 -2.3247
 3552SOL    HW222293   4.392   3.234   7.292  0.4471  0.1466  2.1596
 3553SOL     OW22294   3.167   2.884   1.653  0.5720  0.2044  0.5228
 3553SOL    HW122295   3.260   2.865   1.668  0.9202  1.6027  0.1252
 3553SOL    HW222296   3.127   2.862   1.737  0.4618 -0.7152  0.2394
 3554SOL     OW22297   2.085   1.668   6.679 -0.5768  0.3929  0.1684
 3554SOL    HW122298   2.163   1.614   6.696  1.9035  3.2688 -2.0021
 3554SOL    HW222299   2.105   1.728   6.751 -0.1938  0.2485  0.1879
 3555SOL     OW22300   0.928   1.505   7.671 -0.3942  0.0078  0.2251
 3555SOL    HW122301   0.849   1.537   7.626 -0.3633 -0.8500 -0.4402
 3555SOL    HW222302   0.982   1.481   7.596  1.1314 -0.1235  1.3737
 3556SOL     OW22303   1.035   4.004   4.812 -0.3921  0.3489  0.1044
 3556SOL    HW122304   1.022   4.021   4.719  1.9797 -0.5578 -0.3956
 3556SOL    HW222305   1.093   4.074   4.841  1.9377 -1.7992  0.6555
 3557SOL     OW22306   1.452   0.631  13.814 -0.3240  0.2121  0.1224
 3557SOL    HW122307   1.388   0.610  13.881  0.2231  0.5824  0.7571
 3557SOL    HW222308   1.463   0.724  13.833  1.3483 -0.1243  0.7525
 3558SOL     OW22309   1.448   2.550  13.430  0.8998 -0.5152 -0.4760
 3558SOL    HW122310   1.357   2.536  13.455  0.8272  0.3682 -0.2413
 3558SOL    HW222311   1.483   2.468  13.395  1.2066 -1.7234  2.6729
 3559SOL     OW22312   1.275   0.603   0.212  0.0623  0.1196  0.4327
 3559SOL    HW122313   1.331   0.581   0.138 -0.7496 -0.8602  0.1222
 3559SOL    HW222314   1.317   0.688   0.229 -0.1467  0.5198 -1.0477
 3560SOL     OW22315   1.712   0.160  16.835 -0.3488  0.6170 -0.0373
 3560SOL    HW122316   1.745   0.235  16.885 -1.3328 -1.1724  3.3136
 3560SOL    HW222317   1.620   0.158  16.860 -0.3845 -0.7646 -0.2872
 3561SOL     OW22318   2.747   1.313   1.040  1.2569 -0.1606  0.5618
 3561SOL    HW122319   2.720   1.358   0.960  1.0841 -1.5910 -0.1853
 3561SOL    HW222320   2.801   1.242   1.007 -0.5375 -0.5678 -1.5049
 3562SOL     OW22321   2.256   1.726   9.142 -0.5152  0.1982  0.6062
 3562SOL    HW122322   2.315   1.782   9.092  0.9244 -0.3739  1.6866
 3562SOL    HW222323   2.279   1.638   9.112  0.3104  1.3621 -2.2535
 3563SOL     OW22324   2.224   0.848   8.721 -0.0998  0.2024  0.2236
 3563SOL    HW122325   2.259   0.909   8.785 -0.1021  1.8932 -1.3808
 3563SOL    HW222326   2.154   0.809   8.773  1.2136  0.1771  1.9473
 3564SOL     OW22327   4.731   3.765   8.410 -0.6835 -0.5669  0.2327
 3564SOL    HW122328   4.695   3.726   8.331  3.7543 -3.1514 -0.4659
 3564SOL    HW222329   4.715   3.859   8.398 -3.3260 -0.9545  0.7503
 3565SOL     OW22330   1.703   3.483  11.908 -0.8501 -0.4452  0.8545
 3565SOL    HW122331   1.699   3.578  11.918 -0.0147 -0.1940 -1.1805
 3565SOL    HW222332   1.631   3.463  11.848 -1.4217  0.8089  1.1310
 3566SOL     OW22333   1.798   3.494   9.380 -0.0824 -0.3428  0.1315
 3566SOL    HW122334   1.828   3.493   9.289 -1.5939  1.5595 -0.4015
 3566SOL    HW222335   1.704   3.483   9.365 -0.5352  1.4616  1.6537
 3567SOL     OW22336   1.579   4.292   2.141  0.2321 -0.5965  0.5859
 3567SOL    HW122337   1.592   4.287   2.047  0.6176  1.4119  0.5313
 3567SOL    HW222338   1.525   4.369   2.156 -0.7798 -1.3169  0.6596
 3568SOL     OW22339   1.628   3.275  17.228  0.4311 -1.2295 -0.3985
 3568SOL    HW122340   1.677   3.197  17.202  0.1530 -0.8903 -1.9134
 3568SOL    HW222341   1.685   3.322  17.289 -0.1961 -0.2387 -0.5879
 3569SOL     OW22342   3.575   2.335  15.731  0.2113  0.5230  0.6314
 3569SOL    HW122343   3.608   2.305  15.816 -1.9029  0.4038  1.4126
 3569SOL    HW222344   3.512   2.400  15.762  1.9009  1.6878  1.6489
 3570SOL     OW22345   0.059   4.152   4.871 -0.5907  0.2864  0.2918
 3570SOL    HW122346   4.720   4.202   4.899  0.5352  2.0367  0.2527
 3570SOL    HW222347   0.117   4.158   4.948 -2.2928 -2.5984  1.7922
 3571SOL     OW22348   3.525   4.188   9.195 -0.2924 -0.4533 -0.1664
 3571SOL    HW122349   3.551   4.108   9.241  0.0236 -1.6297 -2.3622
 3571SOL    HW222350   3.596   4.251   9.209  1.5170 -2.2084 -1.2723
 3572SOL     OW22351   0.976   1.855  15.242  0.0352  0.1414 -0.5038
 3572SOL    HW122352   0.927   1.849  15.325 -0.7063 -0.1821 -0.9638
 3572SOL    HW222353   0.915   1.804  15.189  0.0817  0.7595 -1.1410
 3573SOL     OW22354   4.436   4.527   7.726 -0.6811 -0.2615 -0.0033
 3573SOL    HW122355   4.428   4.452   7.784 -0.6101  0.9318  1.5432
 3573SOL    HW222356   4.374   4.592   7.758  0.8909  0.8166  0.8559
 3574SOL     OW22357   3.773   0.253   7.779 -0.1839  0.3031  0.6147
 3574SOL    HW122358   3.707   0.303   7.731  0.6183  1.4988  0.7689
 3574SOL    HW222359   3.832   0.319   7.815  0.0407  0.7160 -0.5169
 3575SOL     OW22360   3.234   4.472   9.120  0.1428 -0.1877  0.4314
 3575SOL    HW122361   3.197   4.532   9.055  0.3803 -0.4345  0.0698
 3575SOL    HW222362   3.183   4.491   9.199 -0.4361 -1.7257  0.4184
 3576SOL     OW22363   3.427   0.300   5.557 -0.1552  0.2036 -0.1510
 3576SOL    HW122364   3.396   0.210   5.556  2.2087 -0.6134 -0.7074
 3576SOL    HW222365   3.522   0.293   5.565  0.0260  1.2235 -1.3667
 3577SOL     OW22366   0.759   2.867  12.625  0.9636  0.3573 -0.0433
 3577SOL    HW122367   0.681   2.889  12.676 -0.0073 -3.1680 -0.0346
 3577SOL    HW222368   0.810   2.813  12.686  0.8101 -0.6229 -0.7921
 3578SOL     OW22369   2.694   4.181   1.191  0.2738  0.3921  0.0356
 3578SOL    HW122370   2.631   4.119   1.155  0.9387 -0.0785 -0.3156
 3578SOL    HW222371   2.637   4.259   1.194  1.6596  1.3489  1.2729
 3579SOL     OW22372   0.678   0.367   2.182  0.4054  0.0497 -0.5696
 3579SOL    HW122373   0.733   0.300   2.222 -2.0034 -1.0260  0.8887
 3579SOL    HW222374   0.703   0.357   2.090 -0.2179  0.9308 -0.8295
 3580SOL     OW22375   4.384   1.218   2.900 -0.2782 -0.2103  0.1979
 3580SOL    HW122376   4.353   1.218   2.990 -2.4899  2.6462 -0.5506
 3580SOL    HW222377   4.479   1.207   2.907 -0.6241 -2.0637  1.7749
 3581SOL     OW22378   3.130   0.114   3.982  0.0387 -0.6302  0.2828
 3581SOL    HW122379   3.138   0.023   4.008 -0.8280 -0.5189  0.9419
 3581SOL    HW222380   3.107   0.154   4.066  2.9407  0.1379  0.7237
 3582SOL     OW22381   2.980   2.650   7.865 -0.1685  0.1037  0.7234
 3582SOL    HW122382   3.000   2.707   7.790  0.8104 -1.1260  0.0492
 3582SOL    HW222383   2.887   2.658   7.883 -0.3757 -0.5472 -0.0373
 3583SOL     OW22384   2.464   3.609   2.636 -0.0256 -0.4822 -0.8436
 3583SOL    HW122385   2.550   3.651   2.639  1.3802 -3.2428 -2.1728
 3583SOL    HW222386   2.464   3.586   2.728  1.1850  0.0251 -0.7159
 3584SOL     OW22387   2.330   2.486   8.143 -0.1552 -1.0642  0.0541
 3584SOL    HW122388   2.389   2.413   8.124  1.7606  0.1205  1.3577
 3584SOL    HW222389   2.370   2.517   8.225  1.0528 -0.6699 -0.6980
 3585SOL     OW22390   1.927   2.280  17.191  0.0805 -0.3241  0.0299
 3585SOL    HW122391   1.967   2.298  17.276 -1.0714 -1.3323  0.7690
 3585SOL    HW222392   1.840   2.249  17.216 -0.9241  1.5185 -1.1710
 3586SOL     OW22393   3.575   3.355   6.206  0.1400  0.0880 -0.0749
 3586SOL    HW122394   3.603   3.443   6.182 -2.3518  0.9563  0.1192
 3586SOL    HW222395   3.507   3.376   6.271  1.2834 -1.9986  1.7613
 3587SOL     OW22396   0.907   4.589   7.779  0.5021 -0.4705  0.4710
 3587SOL    HW122397   0.999   4.568   7.764  0.5402 -0.2511  0.4049
 3587SOL    HW222398   0.888   4.627   7.693 -1.4275  1.0796  1.6059
 3588SOL     OW22399   0.412   1.346   2.885 -0.3538  0.2901 -0.1289
 3588SOL    HW122400   0.464   1.426   2.888 -1.5005  0.9846  1.1330
 3588SOL    HW222401   0.450   1.296   2.813 -1.7362  0.6818 -1.1303
 3589SOL     OW22402   1.278   3.861   2.320 -0.1066 -0.0832 -0.7697
 3589SOL    HW122403   1.299   3.922   2.249 -3.2452  2.3961  0.4588
 3589SOL    HW222404   1.185   3.869   2.340  0.3599 -0.3130  1.4498
 3590SOL     OW22405   3.354   3.682  15.902  0.2653 -0.3387 -0.4953
 3590SOL    HW122406   3.444   3.701  15.929 -0.5505  2.1248  0.4936
 3590SOL    HW222407   3.339   3.756  15.843 -0.9520 -1.7837 -1.9918
 3591SOL     OW22408   3.488   2.158   6.316 -0.7649 -0.1908 -0.2056
 3591SOL    HW122409   3.486   2.090   6.382  1.8991  0.4705  0.5321
 3591SOL    HW222410   3.478   2.234   6.373  3.5146  0.6560 -0.5819
 3592SOL     OW22411   3.828   2.989   0.455 -0.0480 -0.4506 -0.5580
 3592SOL    HW122412   3.822   3.038   0.374 -3.2882  0.3633  0.2003
 3592SOL    HW222413   3.798   2.901   0.432  0.3713 -0.4850 -0.9797
 3593SOL     OW22414   0.814   0.574  13.553  1.0670  0.3085 -0.0717
 3593SOL    HW122415   0.897   0.538  13.520 -0.1361 -1.2646 -1.3787
 3593SOL    HW222416   0.829   0.587  13.647  1.8730  0.3555 -0.2063
 3594SOL     OW22417   1.934   2.715   7.453 -0.2748 -0.2568 -0.0671
 3594SOL    HW122418   1.849   2.702   7.412 -0.6647 -1.9167  1.2811
 3594SOL    HW222419   1.978   2.630   7.449  0.3754  0.1278 -1.0321
 3595SOL     OW22420   4.558   4.382   8.256  0.1643  0.0245 -0.2545
 3595SOL    HW122421   4.531   4.318   8.190  0.6410 -2.0320  1.5346
 3595SOL    HW222422   4.638   4.418   8.218  0.8719  2.6804  3.7862
 3596SOL     OW22423   2.625   1.069   8.978 -0.2822 -0.2739 -0.1964
 3596SOL    HW122424   2.628   1.100   9.068  3.4866  1.1085 -0.8269
 3596SOL    HW222425   2.713   1.036   8.959 -0.3373 -0.0097 -0.9333
 3597SOL     OW22426   3.528   4.484  11.345 -0.2840 -0.1283 -0.0745
 3597SOL    HW122427   3.477   4.437  11.278  1.8125 -0.5103 -1.3903
 3597SOL    HW222428   3.476   4.565  11.346 -1.3301 -0.7865 -0.4871
 3598SOL     OW22429   3.187   3.117   3.965 -0.0371 -0.2465 -0.1562
 3598SOL    HW122430   3.181   3.202   3.922  0.3206  0.2998  0.8598
 3598SOL    HW222431   3.097   3.093   3.988 -0.8925  2.2826 -0.8472
 3599SOL     OW22432   1.955   2.493   6.300  0.1947  0.4549  0.3011
 3599SOL    HW122433   2.029   2.453   6.345 -0.5604 -0.2129  0.9514
 3599SOL    HW222434   1.886   2.470   6.362 -0.4042 -0.1571 -0.5744
 3600SOL     OW22435   4.173   3.567   5.286 -0.9715  0.5205 -0.2282
 3600SOL    HW122436   4.170   3.516   5.206  1.1449 -0.8394  0.5648
 3600SOL    HW222437   4.078   3.582   5.290 -1.3597 -2.3365  1.6056
 3601SOL     OW22438   2.827   0.520   5.368  0.3400 -0.0367 -0.0715
 3601SOL    HW122439   2.832   0.443   5.311  2.1740 -0.4630  0.6610
 3601SOL    HW222440   2.889   0.576   5.321  1.1074  0.4286  1.4888
 3602SOL     OW22441   1.194   1.427   7.976  0.4173  0.3641  0.6052
 3602SOL    HW122442   1.102   1.402   7.967  0.1103  1.6243  0.1357
 3602SOL    HW222443   1.216   1.490   7.907  1.4184 -2.2533 -1.4456
 3603SOL     OW22444   1.634   0.275   1.781 -0.3308  0.2386 -0.4144
 3603SOL    HW122445   1.575   0.319   1.842 -1.4381 -1.9771  0.0946
 3603SOL    HW222446   1.639   0.335   1.706  5.1439  0.6113  0.2415
 3604SOL     OW22447   0.757   4.622  17.402  0.2988 -0.2082 -0.5623
 3604SOL    HW122448   0.685   4.566  17.431  0.9798 -1.3956 -1.1490
 3604SOL    HW222449   0.829   4.560  17.411  0.8977  0.8666  2.0925
 3605SOL     OW22450   2.657   3.231   7.903  0.2335  0.2286 -0.7062
 3605SOL    HW122451   2.703   3.249   7.985 -2.1369  0.8456  0.4768
 3605SOL    HW222452   2.571   3.210   7.939 -0.5791  1.3665 -1.9828
 3606SOL     OW22453   2.204   1.842   6.899  0.1453  0.7446  0.2221
 3606SOL    HW122454   2.294   1.815   6.918  0.7534  0.0576 -3.5663
 3606SOL    HW222455   2.162   1.844   6.985  0.5381  0.3705  0.4243
 3607SOL     OW22456   4.073   2.153   7.407  0.4871  0.7447  0.0196
 3607SOL    HW122457   4.127   2.076   7.390  0.0995  0.2770  0.9050
 3607SOL    HW222458   4.057   2.134   7.500  0.9455  0.5672  0.0646
 3608SOL     OW22459   1.025   4.582   7.206 -0.0155 -0.1221 -0.3248
 3608SOL    HW122460   1.039   4.677   7.213 -1.4729  0.1108 -0.6135
 3608SOL    HW222461   1.002   4.569   7.115  2.0171  1.2569 -1.0456
 3609SOL     OW22462   1.445   2.555   8.028 -0.2914 -0.3339 -0.4944
 3609SOL    HW122463   1.476   2.562   7.938 -1.4969  0.4881 -0.8478
 3609SOL    HW222464   1.423   2.642   8.061 -1.5391 -0.6910 -0.3756
 3610SOL     OW22465   2.956   2.432   5.799 -0.4919  0.1255  0.8846
 3610SOL    HW122466   2.953   2.512   5.851  0.4378  1.1884 -0.6997
 3610SOL    HW222467   2.946   2.369   5.871 -2.6150 -0.7870 -0.2046
 3611SOL     OW22468   1.510   4.447  16.312  0.4238  0.5326 -0.1344
 3611SOL    HW122469   1.460   4.448  16.230 -0.9893  2.8731  0.7689
 3611SOL    HW222470   1.594   4.413  16.279 -0.1339 -0.1528 -0.8492
 3612SOL     OW22471   2.913   0.113  15.212 -0.0853  0.3527  0.0617
 3612SOL    HW122472   2.903   0.037  15.154  3.7536  1.8439 -2.6323
 3612SOL    HW222473   2.885   0.186  15.157 -0.2052 -0.6995 -1.2825
 3613SOL     OW22474   4.683   4.731  16.309  0.7513  0.6509  0.2715
 3613SOL    HW122475   4.723   0.052  16.245  0.1337  0.4033 -0.3477
 3613SOL    HW222476   4.600   0.038  16.326 -0.0297  0.0440 -1.9807
 3614SOL     OW22477   2.763   3.679  14.652 -0.3122 -0.3097  0.4149
 3614SOL    HW122478   2.708   3.748  14.688  1.1291  1.0714 -0.0382
 3614SOL    HW222479   2.810   3.671  14.736  1.8656  0.2058 -0.7451
 3615SOL     OW22480   3.015   0.002   6.641 -0.5053 -0.3238  0.2202
 3615SOL    HW122481   3.063   0.054   6.705  0.5985  0.3628 -1.1555
 3615SOL    HW222482   3.017   0.056   6.562 -1.9324 -0.6394 -0.0255
 3616SOL     OW22483   1.803   3.645  15.539 -0.6716  0.2335  0.2127
 3616SOL    HW122484   1.713   3.658  15.510 -0.5925 -0.5736 -0.3873
 3616SOL    HW222485   1.841   3.723  15.500 -0.0513 -0.4427 -0.5281
 3617SOL     OW22486   2.180   4.451   1.733 -0.3336 -0.4227 -0.6821
 3617SOL    HW122487   2.159   4.519   1.797 -0.5508  0.3598 -1.5809
 3617SOL    HW222488   2.093   4.431   1.700 -1.4310  0.7961  1.4415
 3618SOL     OW22489   1.724   1.317   5.095  0.4198 -0.1284 -0.4288
 3618SOL    HW122490   1.691   1.257   5.028 -1.6141  0.7037 -0.1839
 3618SOL    HW222491   1.647   1.367   5.121  1.4539  0.7457  0.9202
 3619SOL     OW22492   3.073   4.449  15.313 -0.3900  0.3724  0.0257
 3619SOL    HW122493   3.039   4.406  15.392  0.0075  2.3083  1.2496
 3619SOL    HW222494   2.989   4.478  15.279 -1.6210 -1.0248  1.8435
 3620SOL     OW22495   2.765   3.226   0.129 -0.0360 -0.4115 -0.4713
 3620SOL    HW122496   2.683   3.178   0.146 -0.5620  1.0947  1.2363
 3620SOL    HW222497   2.755   3.300   0.189 -1.7912 -1.2158  0.2236
 3621SOL     OW22498   4.637   2.158   3.861  0.2345  0.2371  0.1319
 3621SOL    HW122499   4.672   2.075   3.828  0.8490 -0.9205  3.6995
 3621SOL    HW222500   4.621   2.139   3.954  0.1509 -0.1962  0.0273
 3622SOL     OW22501   3.787   2.293  17.625 -0.4448  0.3823 -0.3938
 3622SOL    HW122502   3.794   2.202  17.654 -0.9632 -0.8385 -4.0473
 3622SOL    HW222503   3.825   2.274  17.539 -1.4054 -1.4623 -0.4201
 3623SOL     OW22504   2.918   2.771  12.459  0.5114  0.3593  0.6414
 3623SOL    HW122505   2.877   2.855  12.478 -0.1934  0.4040 -1.0910
 3623SOL    HW222506   2.855   2.703  12.483  0.2594  0.7759  1.1656
 3624SOL     OW22507   0.010   1.821   6.548 -0.0320 -0.1186 -0.5051
 3624SOL    HW122508   4.701   1.855   6.625 -0.2779 -0.1189 -0.6503
 3624SOL    HW222509   0.091   1.782   6.580  0.8382  2.0979 -0.0236
 3625SOL     OW22510   0.451   0.041   5.506  0.2457  0.4279 -0.0706
 3625SOL    HW122511   0.515   0.012   5.441 -3.4388 -1.1189 -2.9584
 3625SOL    HW222512   0.369   0.038   5.457  0.7616 -1.1940 -0.8235
 3626SOL     OW22513   1.982   2.185  11.233 -0.0540 -0.0592 -0.0773
 3626SOL    HW122514   2.063   2.141  11.260  0.0246 -0.7017 -1.3803
 3626SOL    HW222515   2.012   2.275  11.239 -1.6053  0.4672 -0.0842
 3627SOL     OW22516   0.185   2.371   8.541 -0.1424 -0.6777  0.3630
 3627SOL    HW122517   0.124   2.428   8.589 -0.9921 -0.1946 -1.3041
 3627SOL    HW222518   0.224   2.441   8.489 -1.7196 -1.8371 -2.3454
 3628SOL     OW22519   3.369   0.268   2.813  0.4104 -0.1866 -0.2604
 3628SOL    HW122520   3.325   0.352   2.829  2.6522  1.0932 -0.9083
 3628SOL    HW222521   3.426   0.285   2.738  0.0704 -2.2305 -0.9804
 3629SOL     OW22522   1.518   4.700   3.172  0.2622 -0.8323 -0.3767
 3629SOL    HW122523   1.572   4.651   3.234 -0.5176 -2.4424 -0.9819
 3629SOL    HW222524   1.433   4.657   3.182  1.0369 -1.8469  1.9114
 3630SOL     OW22525   3.237   1.320   2.612 -0.3651  0.6229 -0.1665
 3630SOL    HW122526   3.150   1.280   2.622 -0.0182 -0.8809 -3.1519
 3630SOL    HW222527   3.215   1.409   2.587 -1.2704 -0.1373 -2.0402
 3631SOL     OW22528   2.974   4.618   4.261  0.1656  0.4982 -0.1306
 3631SOL    HW122529   2.887   4.644   4.291 -0.3655 -2.4608  0.8780
 3631SOL    HW222530   2.956   4.552   4.194  1.4764 -0.8171  0.8287
 3632SOL     OW22531   3.690   1.639   0.033 -0.1430  0.0044 -0.2301
 3632SOL    HW122532   3.778   1.655   0.067 -0.0232 -1.6748  0.2223
 3632SOL    HW222533   3.669   1.561   0.083  2.3950 -0.3079  0.3447
 3633SOL     OW22534   4.649   0.890   3.800 -0.6002 -0.3558 -0.4699
 3633SOL    HW122535   4.646   0.796   3.783 -0.7402  0.0490 -2.6636
 3633SOL    HW222536   4.565   0.891   3.845 -0.5423 -1.7763 -0.3368
 3634SOL     OW22537   4.553   0.575   3.035 -0.0685 -0.0732  0.2859
 3634SOL    HW122538   4.539   0.541   3.123 -0.9338 -0.0107  0.1733
 3634SOL    HW222539   4.589   0.493   3.001  1.1147 -0.2354  1.9088
 3635SOL     OW22540   4.433   1.715   8.706  0.4952  0.3065  0.3020
 3635SOL    HW122541   4.516   1.682   8.740  0.5485  1.5198  1.3243
 3635SOL    HW222542   4.454   1.809   8.700  0.1853  0.4123  0.9470
 3636SOL     OW22543   1.900   0.305   6.770 -0.1037 -0.5811 -0.0686
 3636SOL    HW122544   1.859   0.244   6.831  0.6021 -0.1339  0.8630
 3636SOL    HW222545   1.870   0.391   6.799  1.7935  0.0709 -0.0782
 3637SOL     OW22546   1.564   1.283  12.828  0.0113  0.0679  0.2047
 3637SOL    HW122547   1.645   1.309  12.873  0.1101 -0.2349  0.2065
 3637SOL    HW222548   1.510   1.257  12.903 -0.8207  1.7719  0.1873
 3638SOL     OW22549   0.876   2.240   1.952 -0.6523 -0.3568  0.2733
 3638SOL    HW122550   0.918   2.292   2.020 -1.9005 -0.3661  1.0403
 3638SOL    HW222551   0.864   2.153   1.991  0.1713 -0.0897  1.1145
 3639SOL     OW22552   3.162   0.534   7.156  0.7428 -0.0868 -0.3851
 3639SOL    HW122553   3.217   0.601   7.198  0.2113 -0.7762  1.4256
 3639SOL    HW222554   3.131   0.478   7.228  0.6434 -1.1956 -1.3032
 3640SOL     OW22555   0.395   4.183  17.658 -0.1044  0.2377  0.1016
 3640SOL    HW122556   0.370   4.271  17.686  0.9525  0.2411  1.0279
 3640SOL    HW222557   0.374   4.126  17.733 -1.2706  0.5158 -0.0055
 3641SOL     OW22558   0.579   4.274   9.547  0.2101  0.8059  0.5468
 3641SOL    HW122559   0.507   4.289   9.486  0.7848  0.3221 -0.2392
 3641SOL    HW222560   0.633   4.352   9.539  1.5088 -0.5598 -3.5401
 3642SOL     OW22561   2.574   1.803   2.526 -0.4074 -0.1683  0.6490
 3642SOL    HW122562   2.514   1.805   2.601 -2.1556  1.7312 -0.7990
 3642SOL    HW222563   2.518   1.822   2.450  0.0980  0.3938  0.4227
 3643SOL     OW22564   3.954   0.227   4.254 -0.2626 -0.1454  0.3538
 3643SOL    HW122565   3.874   0.265   4.289 -0.5342  1.5276 -2.0780
 3643SOL    HW222566   4.016   0.218   4.326 -0.9458 -2.9474  0.5730
 3644SOL     OW22567   1.060   3.024   0.290 -0.2279  0.0927  0.1522
 3644SOL    HW122568   1.113   3.102   0.275  1.5570 -0.8123  1.7421
 3644SOL    HW222569   1.073   2.995   0.380 -0.6087  0.0554  0.1935
 3645SOL     OW22570   2.528   2.311   3.108 -0.7674  0.3282 -0.2381
 3645SOL    HW122571   2.574   2.299   3.191  0.1966 -2.9616 -1.2673
 3645SOL    HW222572   2.592   2.354   3.050  1.1966 -1.6253  0.4849
 3646SOL     OW22573   4.331   3.094   3.535  0.2925  0.0429 -0.3207
 3646SOL    HW122574   4.360   3.004   3.551 -2.7253 -0.5064  2.0305
 3646SOL    HW222575   4.374   3.119   3.454 -1.4891  1.1967 -0.9024
 3647SOL     OW22576   3.837   1.892   8.699  0.3598 -0.1736 -0.1000
 3647SOL    HW122577   3.773   1.952   8.739 -0.5643 -0.9658 -0.4008
 3647SOL    HW222578   3.916   1.932   8.734  0.1429  0.2848 -0.1334
 3648SOL     OW22579   3.416   2.151  10.373  0.1132  0.8906 -0.2306
 3648SOL    HW122580   3.500   2.161  10.329  0.0450  0.8601 -0.3693
 3648SOL    HW222581   3.424   2.059  10.399  0.2436  0.8009 -0.5856
 3649SOL     OW22582   3.809   1.682   8.900  0.1461  0.8268  0.0464
 3649SOL    HW122583   3.802   1.728   8.983  0.8303  3.2615 -1.2338
 3649SOL    HW222584   3.823   1.756   8.841 -1.4405  1.1412  0.0655
 3650SOL     OW22585   0.911   1.467   2.929  0.3180 -0.6375  0.5310
 3650SOL    HW122586   0.838   1.424   2.883  0.0948  2.4915 -2.0585
 3650SOL    HW222587   0.985   1.446   2.873 -0.0691 -0.9715  0.1400
 3651SOL     OW22588   3.931   3.823   5.891  0.2924 -0.0360  0.7878
 3651SOL    HW122589   3.966   3.874   5.965 -0.7430 -0.7208  1.7460
 3651SOL    HW222590   3.862   3.877   5.854 -0.9329 -0.6344  2.2135
 3652SOL     OW22591   4.268   0.865   7.122 -0.0449  0.5130 -0.3968
 3652SOL    HW122592   4.208   0.894   7.053  1.4878  0.0577 -1.9312
 3652SOL    HW222593   4.309   0.790   7.080 -3.0503 -1.0953 -0.4671
 3653SOL     OW22594   4.221   2.867   1.357  0.1572 -0.0190 -0.7963
 3653SOL    HW122595   4.227   2.923   1.279 -1.6438 -0.4847 -1.2540
 3653SOL    HW222596   4.153   2.912   1.406  1.0996 -0.1163  0.5884
 3654SOL     OW22597   4.688   0.887   5.257 -0.2453  0.1069 -0.1709
 3654SOL    HW122598   4.686   0.981   5.240 -1.2379  0.1951  0.4222
 3654SOL    HW222599   4.596   0.866   5.272  0.0351 -0.0146  1.4267
 3655SOL     OW22600   3.956   1.165   7.877  0.1501 -0.5475  0.0099
 3655SOL    HW122601   3.937   1.072   7.860 -0.9917 -0.3455  0.1643
 3655SOL    HW222602   3.930   1.207   7.795  1.5042 -0.0013 -0.1304
 3656SOL     OW22603   2.854   0.979  13.802  0.0809 -0.2327  0.0280
 3656SOL    HW122604   2.900   0.925  13.867 -1.1752 -0.9991  0.2818
 3656SOL    HW222605   2.910   1.055  13.789  1.8677 -1.2851  1.5773
 3657SOL     OW22606   2.102   4.072   7.935  0.3478 -0.2511 -0.1099
 3657SOL    HW122607   2.039   4.090   8.004  0.5708 -0.4759  0.1492
 3657SOL    HW222608   2.136   3.989   7.968  1.8180  0.1280 -0.6824
 3658SOL     OW22609   3.834   3.184   9.281 -0.3318 -0.2107  0.2923
 3658SOL    HW122610   3.754   3.144   9.246  0.8605 -1.4420 -1.0384
 3658SOL    HW222611   3.837   3.129   9.359  0.4298  1.1311  1.2116
 3659SOL     OW22612   4.036   2.783   4.912 -0.1151  0.0360  0.5574
 3659SOL    HW122613   4.076   2.838   4.845  0.8576 -0.2036  0.9546
 3659SOL    HW222614   4.066   2.823   4.993 -1.1688  2.3530 -0.2085
 3660SOL     OW22615   2.421   3.476   1.206  0.2038  0.2914 -0.0047
 3660SOL    HW122616   2.446   3.549   1.262 -2.6406  1.5057 -0.2754
 3660SOL    HW222617   2.402   3.405   1.267  0.1533  0.0215 -0.3327
 3661SOL     OW22618   2.282   3.198   7.026 -0.4907  0.2698 -0.5148
 3661SOL    HW122619   2.330   3.278   7.005 -1.4200  1.1497  0.7245
 3661SOL    HW222620   2.222   3.233   7.092 -1.1661  0.1957 -1.0978
 3662SOL     OW22621   1.160   2.949  11.855  0.1229  0.6276  0.3295
 3662SOL    HW122622   1.084   2.926  11.801  1.2353  0.1309 -1.0299
 3662SOL    HW222623   1.180   2.866  11.897 -0.2704  0.3763  0.0231
 3663SOL     OW22624   1.481   3.095   3.237 -0.0472 -0.4125 -0.2858
 3663SOL    HW122625   1.468   3.063   3.148 -0.8975 -3.8869  1.0899
 3663SOL    HW222626   1.571   3.126   3.244 -1.3266  3.5925 -1.4684
 3664SOL     OW22627   1.364   4.175  13.121 -0.7845 -0.3344  0.0161
 3664SOL    HW122628   1.352   4.090  13.161 -0.6833 -1.0672 -1.5181
 3664SOL    HW222629   1.363   4.163  13.026  1.1027 -0.9051  0.0697
 3665SOL     OW22630   4.170   0.473  17.726 -0.0700  0.5585  0.0175
 3665SOL    HW122631   4.151   0.566  17.717  1.5570  0.6610 -2.2051
 3665SOL    HW222632   4.262   0.464  17.702  0.0936  0.6665  0.5972
 3666SOL     OW22633   2.778   3.802   6.769 -0.0544 -0.4909  0.4652
 3666SOL    HW122634   2.868   3.777   6.787  0.6646  1.2595 -0.6608
 3666SOL    HW222635   2.763   3.750   6.690 -2.0390 -0.0662  0.5579
 3667SOL     OW22636   3.260   2.741   7.408 -0.2770 -0.0238  0.6288
 3667SOL    HW122637   3.280   2.831   7.381 -0.3082 -0.2421 -0.1428
 3667SOL    HW222638   3.167   2.737   7.386  0.2713 -2.3428 -1.3731
 3668SOL     OW22639   4.330   0.840   7.389 -0.0756 -0.1219 -0.5323
 3668SOL    HW122640   4.276   0.764   7.412  1.1418 -1.2383 -1.3526
 3668SOL    HW222641   4.311   0.853   7.297  0.3398  0.5603 -0.5198
 3669SOL     OW22642   3.983   4.348   2.058 -0.1516  0.3805 -0.0051
 3669SOL    HW122643   4.035   4.270   2.037 -1.0961 -1.1306  3.1963
 3669SOL    HW222644   3.915   4.353   1.991 -2.8835 -1.0367  2.6445
 3670SOL     OW22645   1.465   4.012  17.046  0.0152  1.0726 -0.5030
 3670SOL    HW122646   1.553   4.018  17.011  0.5675  0.0012  0.6829
 3670SOL    HW222647   1.429   4.096  17.016  2.9351  1.1581 -3.7174
 3671SOL     OW22648   2.675   2.417   6.590 -0.3680 -0.0387 -0.1241
 3671SOL    HW122649   2.650   2.325   6.583  0.8115 -0.3313 -0.5328
 3671SOL    HW222650   2.752   2.426   6.534 -1.6604 -0.9426 -2.0458
 3672SOL     OW22651   4.564   1.100  15.691  0.3069 -0.2926  0.5492
 3672SOL    HW122652   4.649   1.139  15.709 -0.7805  1.9000  0.8671
 3672SOL    HW222653   4.507   1.169  15.657  2.4934  1.8365  1.1982
 3673SOL     OW22654   1.917   4.341  13.296  0.1946  0.0652  0.5053
 3673SOL    HW122655   1.887   4.258  13.334 -1.7582  1.2466  1.5172
 3673SOL    HW222656   2.011   4.323  13.288  0.0463  0.1213 -1.4555
 3674SOL     OW22657   2.844   3.450  15.157  0.0040 -0.0401  0.4197
 3674SOL    HW122658   2.861   3.367  15.201 -1.6924 -0.2261  0.7246
 3674SOL    HW222659   2.868   3.509  15.229  2.4414 -0.1126 -0.3399
 3675SOL     OW22660   3.941   1.041   1.853  0.3458 -0.5406  0.0628
 3675SOL    HW122661   3.875   0.990   1.898  1.5011 -0.7116  1.5572
 3675SOL    HW222662   3.928   0.999   1.767  2.6290  3.1512 -2.1057
 3676SOL     OW22663   1.386   2.284   6.180  0.2543 -0.0954  0.1190
 3676SOL    HW122664   1.353   2.340   6.109 -0.8422 -0.1796  0.5580
 3676SOL    HW222665   1.480   2.286   6.163  0.6087  0.4451  2.2449
 3677SOL     OW22666   3.384   0.753   6.260 -0.0846 -0.6328 -0.4135
 3677SOL    HW122667   3.319   0.793   6.202  0.6409 -0.6832 -1.2654
 3677SOL    HW222668   3.365   0.789   6.346  1.0660 -1.7425  0.3026
 3678SOL     OW22669   1.528   2.673   5.935 -0.2141  0.1640 -0.2005
 3678SOL    HW122670   1.470   2.646   6.006  1.2821  0.0589  0.9745
 3678SOL    HW222671   1.473   2.634   5.867 -0.5609 -1.4967  1.0353
 3679SOL     OW22672   2.614   2.738   2.539 -0.7595  0.1873  0.3175
 3679SOL    HW122673   2.622   2.738   2.635 -1.8038 -0.4805  0.4009
 3679SOL    HW222674   2.521   2.736   2.517 -1.3387 -3.1924  2.9918
 3680SOL     OW22675   2.418   2.603   8.357 -0.1305 -0.5761  0.2804
 3680SOL    HW122676   2.389   2.542   8.425  1.3720 -1.3806  0.2007
 3680SOL    HW222677   2.511   2.602   8.378  0.1296  1.4805 -0.7282
 3681SOL     OW22678   2.796   2.940  10.580 -0.1381  0.0977 -0.1533
 3681SOL    HW122679   2.707   2.929  10.547 -0.5732  0.2853  0.9623
 3681SOL    HW222680   2.783   2.983  10.664 -0.0422  2.0804 -1.1376
 3682SOL     OW22681   4.690   2.337   6.616 -0.4248  0.0296  0.7055
 3682SOL    HW122682   0.028   2.280   6.628 -1.3853 -1.2066  0.8724
 3682SOL    HW222683   4.736   2.408   6.570  0.3630 -1.8334 -1.3535
 3683SOL     OW22684   4.677   2.675  13.995  0.1922 -0.3910  0.0671
 3683SOL    HW122685   4.598   2.638  13.955 -1.4543  0.9260  2.0288
 3683SOL    HW222686   4.711   2.718  13.917 -2.0675  1.7906  0.2669
 3684SOL     OW22687   2.484   0.876   3.607  0.0294 -0.1432  0.3490
 3684SOL    HW122688   2.537   0.855   3.684 -0.0819  0.2314  0.5309
 3684SOL    HW222689   2.403   0.912   3.645 -0.4098 -2.1689  1.3414
 3685SOL     OW22690   4.720   1.239   7.663 -0.0414 -0.5772  0.6412
 3685SOL    HW122691   0.071   1.245   7.700  0.2889 -1.3462 -0.0337
 3685SOL    HW222692   4.684   1.167   7.714  1.5979 -1.6443  0.3167
 3686SOL     OW22693   1.011   2.135   2.908 -0.3223  0.1186 -0.0158
 3686SOL    HW122694   1.007   2.200   2.838  1.7222 -0.7311 -0.9314
 3686SOL    HW222695   1.030   2.190   2.984  1.9596 -0.7473  0.0392
 3687SOL     OW22696   4.598   1.601   7.848  0.3492 -0.6651  0.0747
 3687SOL    HW122697   4.663   1.645   7.793 -1.5745  2.0354 -0.0467
 3687SOL    HW222698   4.522   1.627   7.796  1.2156  1.5608 -0.0794
 3688SOL     OW22699   1.208   1.287  16.083 -0.1851  0.6399  0.3505
 3688SOL    HW122700   1.184   1.365  16.033 -2.5046 -0.1354  0.2178
 3688SOL    HW222701   1.164   1.224  16.027  1.4702  0.9201 -1.2393
 3689SOL     OW22702   4.230   2.744   6.322  0.0812 -0.4178  0.0358
 3689SOL    HW122703   4.226   2.651   6.343 -0.4918 -0.4419 -0.1868
 3689SOL    HW222704   4.272   2.792   6.393  0.4516 -0.5170 -0.1138
 3690SOL     OW22705   3.031   0.101   3.119 -0.6875  1.2537  0.7610
 3690SOL    HW122706   3.026   0.194   3.143 -1.0307  0.9943  1.6988
 3690SOL    HW222707   2.956   0.071   3.171 -0.0346 -1.7701 -0.0286
 3691SOL     OW22708   1.231   3.350   6.025  0.0344  0.4082 -0.3361
 3691SOL    HW122709   1.227   3.445   6.013  0.0455  0.4345 -0.1144
 3691SOL    HW222710   1.263   3.342   6.114  0.8059  0.0480 -0.6507
 3692SOL     OW22711   3.499   2.823  15.258  0.2507  0.0975 -0.0889
 3692SOL    HW122712   3.417   2.801  15.301 -1.6025  0.3484 -3.4973
 3692SOL    HW222713   3.541   2.874  15.327  0.9394 -3.4615  2.0871
 3693SOL     OW22714   4.669   4.733  13.062 -0.0773  0.4709 -0.0453
 3693SOL    HW122715   0.025   4.710  13.069  0.0134  1.0590  0.7000
 3693SOL    HW222716   4.665   0.029  12.972  3.3559 -0.5092 -0.5550
 3694SOL     OW22717   3.165   0.469   6.643  0.1996 -0.0070  0.3684
 3694SOL    HW122718   3.197   0.545   6.692  0.2551  0.3944 -0.2855
 3694SOL    HW222719   3.164   0.503   6.553  1.3691  0.9511  0.7126
 3695SOL     OW22720   3.881   1.794   1.865  0.4815  0.1302 -0.1683
 3695SOL    HW122721   3.831   1.744   1.929 -0.5452 -0.7957 -1.7180
 3695SOL    HW222722   3.967   1.788   1.908  0.4620  2.7141  0.2339
 3696SOL     OW22723   0.725   0.146   5.872  0.0919  0.6701 -0.6323
 3696SOL    HW122724   0.660   0.080   5.897 -0.6842  2.0799  1.0984
 3696SOL    HW222725   0.729   0.126   5.778  1.8169  0.7183 -0.5755
 3697SOL     OW22726   0.625   2.074   8.722 -0.1364 -0.1609  0.2128
 3697SOL    HW122727   0.620   2.162   8.685  1.8253 -0.0630  0.1702
 3697SOL    HW222728   0.717   2.049   8.715 -0.0979 -0.1779  0.8414
 3698SOL     OW22729   0.719   1.113   8.023  0.1562  0.0658 -0.0432
 3698SOL    HW122730   0.713   1.023   7.989  2.0986  0.8267 -2.3458
 3698SOL    HW222731   0.799   1.140   7.979  0.3922  0.4504  0.6258
 3699SOL     OW22732   3.391   1.640   1.027  0.0080 -0.4362  0.5839
 3699SOL    HW122733   3.330   1.697   1.075 -1.0875  0.2269 -1.5959
 3699SOL    HW222734   3.344   1.556   1.029 -1.4190  0.2849 -2.3456
 3700SOL     OW22735   0.047   2.862   2.489 -0.2878  0.5091  0.1347
 3700SOL    HW122736   0.052   2.944   2.439  1.4731 -0.3325 -1.0328
 3700SOL    HW222737   4.728   2.884   2.563 -0.2815  1.0837 -0.0263
 3701SOL     OW22738   0.518   0.310   5.511  0.0255 -0.0766  0.7524
 3701SOL    HW122739   0.517   0.305   5.415  0.1688  1.1118  0.6863
 3701SOL    HW222740   0.532   0.217   5.526  0.5520 -0.0263  0.5496
 3702SOL     OW22741   4.687   4.468  16.414  0.4041  0.3993 -0.3247
 3702SOL    HW122742   4.683   4.496  16.505 -1.5610 -2.1362  0.3869
 3702SOL    HW222743   4.704   4.555  16.378 -0.7540 -0.6674 -3.4610
 3703SOL     OW22744   4.577   1.453   8.915 -0.0945  0.2711  0.5880
 3703SOL    HW122745   4.551   1.509   8.988  0.7343  2.3220 -0.7017
 3703SOL    HW222746   4.613   1.519   8.856 -0.5435  2.4077  2.7140
 3704SOL     OW22747   1.826   2.656  14.873  0.3172  0.0148  0.1425
 3704SOL    HW122748   1.787   2.671  14.787 -1.3659 -4.3177  0.1326
 3704SOL    HW222749   1.853   2.741  14.907  1.5695 -0.2465 -0.1805
 3705SOL     OW22750   0.517   0.046   7.636  0.7336 -0.2491 -0.0291
 3705SOL    HW122751   0.583   0.092   7.687 -0.2066  0.1587  0.8362
 3705SOL    HW222752   0.487   4.719   7.701  0.1170  1.5489  1.4732
 3706SOL     OW22753   4.655   2.612   0.984  0.3726  0.0174 -0.4067
 3706SOL    HW122754   4.728   2.551   0.997 -0.5286 -0.9110  0.3610
 3706SOL    HW222755   4.670   2.636   0.893  0.5173 -1.2016 -0.7104
 3707SOL     OW22756   0.837   0.441  11.789 -0.3028  0.0672 -0.5927
 3707SOL    HW122757   0.880   0.424  11.705  0.9341 -0.5182  0.1596
 3707SOL    HW222758   0.916   0.443  11.842 -2.0172  0.2605  1.9238
 3708SOL     OW22759   0.255   0.781  11.231 -0.3721 -0.0175  0.1349
 3708SOL    HW122760   0.205   0.760  11.309 -0.8831 -0.9576 -0.4442
 3708SOL    HW222761   0.287   0.695  11.204  3.4949  1.8652 -1.3103
 3709SOL     OW22762   3.864   0.626   4.901  0.5407 -0.0139 -0.5129
 3709SOL    HW122763   3.936   0.683   4.876  0.2412  0.9235  0.6846
 3709SOL    HW222764   3.903   0.593   4.982 -0.4243 -0.2921 -0.1537
 3710SOL     OW22765   2.978   1.261   6.080  0.0916 -0.0481 -0.0467
 3710SOL    HW122766   3.011   1.243   6.168  0.7692 -3.5683 -1.0016
 3710SOL    HW222767   2.906   1.319   6.104  0.0598 -1.2340  2.6556
 3711SOL     OW22768   1.262   4.345   2.990  0.3277 -0.9873 -0.7104
 3711SOL    HW122769   1.327   4.388   3.045 -0.7256 -1.3569  0.8259
 3711SOL    HW222770   1.183   4.357   3.044 -0.4930  0.7471 -2.2665
 3712SOL     OW22771   3.168   0.959   2.380 -0.9502  0.0629  0.2181
 3712SOL    HW122772   3.190   0.866   2.376 -2.9923 -0.3990 -0.4329
 3712SOL    HW222773   3.077   0.974   2.405 -0.7883 -0.6751  1.2658
 3713SOL     OW22774   0.595   1.268   8.683  0.3205  0.0552 -0.1728
 3713SOL    HW122775   0.663   1.314   8.634  1.4972 -1.5610 -0.0599
 3713SOL    HW222776   0.652   1.226   8.747  2.1934  3.1238  0.2002
 3714SOL     OW22777   1.146   0.885   7.481 -0.0186 -0.1318  0.2312
 3714SOL    HW122778   1.068   0.920   7.524  0.3656  0.6398  0.3047
 3714SOL    HW222779   1.215   0.899   7.546 -0.4961  2.6561  0.1514
 3715SOL     OW22780   1.034   1.929   9.970  0.0828 -0.2484  0.1236
 3715SOL    HW122781   0.988   1.876   9.905  1.0102  1.1144 -1.6539
 3715SOL    HW222782   1.122   1.902   9.944 -0.3580 -1.4015 -0.1319
 3716SOL     OW22783   0.734   3.206   5.127 -0.4018 -0.3247 -0.0684
 3716SOL    HW122784   0.765   3.115   5.126  0.2901 -0.0968  0.9197
 3716SOL    HW222785   0.784   3.248   5.198 -2.2792  1.3190  0.2615
 3717SOL     OW22786   2.692   1.151   6.338 -0.2113 -0.1641 -0.1280
 3717SOL    HW122787   2.636   1.140   6.415 -0.6932 -1.5247 -0.6678
 3717SOL    HW222788   2.697   1.246   6.342 -0.9863 -0.1116 -0.3540
 3718SOL     OW22789   0.445   3.876   9.459  0.5218 -0.2270  0.0366
 3718SOL    HW122790   0.364   3.918   9.488  1.4817  1.1270  0.7719
 3718SOL    HW222791   0.508   3.913   9.521 -0.1115 -0.3599  0.7597
 3719SOL     OW22792   2.155   3.362   2.240  0.4736 -0.2975 -0.7962
 3719SOL    HW122793   2.241   3.402   2.251  1.3112 -2.2714 -0.2386
 3719SOL    HW222794   2.124   3.365   2.330  0.5683  2.5789 -0.8564
 3720SOL     OW22795   2.399   0.388   6.237  0.0484  0.2550  0.7207
 3720SOL    HW122796   2.340   0.315   6.219  0.8940  0.0455 -1.1943
 3720SOL    HW222797   2.338   0.443   6.287  0.6723  0.3416  1.3934
 3721SOL     OW22798   1.442   1.456   9.222 -0.0567  0.7360  0.0680
 3721SOL    HW122799   1.512   1.402   9.261 -1.0464  1.4789  2.8778
 3721SOL    HW222800   1.438   1.531   9.281 -0.1567 -0.1152  1.1560
 3722SOL     OW22801   3.573   2.236   9.461 -0.7594  0.4684  0.1530
 3722SOL    HW122802   3.500   2.184   9.495  0.7272 -0.6614  1.6608
 3722SOL    HW222803   3.539   2.325   9.459  0.4179  0.9440  1.2005
 3723SOL     OW22804   2.440   4.156   7.940 -0.7671  0.2987  0.3434
 3723SOL    HW122805   2.397   4.190   8.018 -1.3071  0.7369 -0.1473
 3723SOL    HW222806   2.387   4.205   7.877 -0.6383 -0.8781 -0.6780
 3724SOL     OW22807   4.443   1.363  11.537 -0.0016 -0.0282  0.4261
 3724SOL    HW122808   4.498   1.314  11.476 -0.4506 -0.1694  0.1372
 3724SOL    HW222809   4.504   1.425  11.578 -1.3411  1.8187 -0.3670
 3725SOL     OW22810   4.193   1.587   3.001  0.1526 -0.4411 -0.2596
 3725SOL    HW122811   4.122   1.555   2.944  1.7182 -0.1273 -2.3896
 3725SOL    HW222812   4.200   1.519   3.068 -2.3243 -2.2362 -1.8078
 3726SOL     OW22813   1.461   0.974   7.856 -0.0746 -0.3090 -0.0142
 3726SOL    HW122814   1.416   0.955   7.938  1.8657 -1.8350  0.7045
 3726SOL    HW222815   1.452   0.893   7.805 -1.7601  0.6034 -1.1560
 3727SOL     OW22816   2.839   0.553   8.646  0.1194  0.7695 -0.8698
 3727SOL    HW122817   2.780   0.618   8.607  1.4011  2.1669 -0.4828
 3727SOL    HW222818   2.873   0.507   8.569  0.1131  1.7001 -1.4330
 3728SOL     OW22819   2.966   1.345   6.649 -0.3107 -0.2432  0.4981
 3728SOL    HW122820   2.952   1.434   6.683  1.1507  0.3928 -0.5588
 3728SOL    HW222821   3.006   1.305   6.726 -0.6797  0.9005  1.2854
 3729SOL     OW22822   1.231   4.720   3.171  0.2877  0.3735 -0.1875
 3729SOL    HW122823   1.198   4.652   3.230  1.2349  1.5106  1.6537
 3729SOL    HW222824   1.180   4.709   3.091 -1.0311 -0.1251  0.7207
 3730SOL     OW22825   2.106   3.740   2.470 -1.2129 -0.0574 -0.4269
 3730SOL    HW122826   2.089   3.733   2.376  1.1112  1.3691 -0.9488
 3730SOL    HW222827   2.151   3.661   2.498  0.1960  0.8099 -0.2236
 3731SOL     OW22828   3.841   0.092  11.343  0.3371  0.5645 -0.3297
 3731SOL    HW122829   3.913   0.083  11.281 -0.3949  1.1240 -1.2762
 3731SOL    HW222830   3.820   0.184  11.326 -0.0957  0.0818 -2.3849
 3732SOL     OW22831   3.121   4.417  11.570  0.3561  0.0955  0.1650
 3732SOL    HW122832   3.095   4.508  11.558 -0.5109 -0.1656  0.0571
 3732SOL    HW222833   3.216   4.423  11.561  0.3128  0.2663 -0.1844
 3733SOL     OW22834   0.173   1.493   0.999 -0.4421  0.1595 -0.0751
 3733SOL    HW122835   0.155   1.423   0.936 -0.1929  2.4682 -2.7068
 3733SOL    HW222836   0.235   1.450   1.058  1.0333 -0.2847 -1.9529
 3734SOL     OW22837   1.047   3.700   4.767  0.7048  0.4862 -0.4176
 3734SOL    HW122838   0.997   3.663   4.839  1.2249 -2.1181 -1.3905
 3734SOL    HW222839   1.013   3.790   4.769  0.1626  0.2261  1.6789
 3735SOL     OW22840   3.324   2.489   6.738 -0.1477  0.0896 -0.5304
 3735SOL    HW122841   3.358   2.538   6.814  1.3390 -2.4646  0.4530
 3735SOL    HW222842   3.230   2.492   6.753 -0.2131  0.1243 -0.9434
 3736SOL     OW22843   0.759   4.612  17.725  0.0050  0.3288 -0.1857
 3736SOL    HW122844   0.785   4.599   0.070 -0.3966 -1.4469 -0.3353
 3736SOL    HW222845   0.723   4.701  17.720  0.4787  0.4968 -0.6609
 3737SOL     OW22846   2.282   1.606   3.671 -0.2292  0.4656  0.3628
 3737SOL    HW122847   2.242   1.530   3.713  0.8054 -0.2364  0.0777
 3737SOL    HW222848   2.223   1.619   3.597  1.2988  0.2796 -0.8842
 3738SOL     OW22849   3.539   0.436   9.413  0.2211  0.7276 -0.4373
 3738SOL    HW122850   3.615   0.421   9.356  2.0394  0.8953  1.9686
 3738SOL    HW222851   3.576   0.484   9.486 -0.2068 -0.4364  0.5478
 3739SOL     OW22852   0.371   0.144   5.776 -0.4570 -0.3896 -0.0773
 3739SOL    HW122853   0.344   0.236   5.784  0.6279 -0.1619  0.9346
 3739SOL    HW222854   0.328   0.109   5.698 -1.4285  0.0365  0.2661
 3740SOL     OW22855   0.476   0.839   9.346  0.3020  0.2761 -0.1207
 3740SOL    HW122856   0.493   0.933   9.358 -0.7884  0.4228  0.2411
 3740SOL    HW222857   0.384   0.815   9.357 -0.0444  0.8331 -1.6767
 3741SOL     OW22858   2.556   3.670   3.361  0.1572  0.1483 -0.9969
 3741SOL    HW122859   2.530   3.697   3.449 -0.1611 -0.0093 -1.0430
 3741SOL    HW222860   2.620   3.739   3.342  0.2315  1.4270  3.9564
 3742SOL     OW22861   2.390   3.370   6.339 -0.1439 -0.7834  0.1713
 3742SOL    HW122862   2.324   3.374   6.408  0.2989  1.2741  0.4615
 3742SOL    HW222863   2.439   3.292   6.365  1.8835  0.0334 -1.1887
 3743SOL     OW22864   4.491   2.140   0.414  0.3758  0.5855 -0.3324
 3743SOL    HW122865   4.417   2.198   0.394  0.4801  0.4587 -1.0988
 3743SOL    HW222866   4.549   2.203   0.369 -1.7537  1.0004 -2.4853
 3744SOL     OW22867   0.711   0.186   3.649 -0.2998 -0.2655  0.3031
 3744SOL    HW122868   0.793   0.232   3.631 -0.9278  1.1275  0.9947
 3744SOL    HW222869   0.714   0.122   3.579  0.4844 -0.6721  0.7007
 3745SOL     OW22870   2.276   2.133   2.447  0.2122  0.1425 -0.2596
 3745SOL    HW122871   2.225   2.080   2.508  1.7696 -2.2010 -0.9780
 3745SOL    HW222872   2.210   2.161   2.383 -0.2148 -1.6721 -0.5984
 3746SOL     OW22873   4.237   4.618   4.901 -1.1003  0.6698 -0.1367
 3746SOL    HW122874   4.326   4.584   4.907 -0.5836  2.0353 -0.0297
 3746SOL    HW222875   4.196   4.532   4.889 -1.8052  0.7846  1.3949
 3747SOL     OW22876   0.943   4.271   8.212 -0.6845 -0.1674 -0.3087
 3747SOL    HW122877   0.964   4.294   8.122  2.2231 -0.1550  0.3510
 3747SOL    HW222878   1.011   4.315   8.263  0.0615  0.8950 -2.2200
 3748SOL     OW22879   2.804   3.297   3.946  0.2704  0.0944 -0.1751
 3748SOL    HW122880   2.839   3.209   3.933 -0.8817 -0.6378  1.7101
 3748SOL    HW222881   2.839   3.357   3.880  1.4291  0.5698  0.8845
 3749SOL     OW22882   2.699   4.496   4.903  0.3943  0.0223 -0.3685
 3749SOL    HW122883   2.617   4.470   4.944  1.3020 -1.5721  0.4562
 3749SOL    HW222884   2.667   4.561   4.840 -0.7191 -0.3680 -0.1928
 3750SOL     OW22885   2.940   3.003   9.906 -0.3256  0.5174 -0.3186
 3750SOL    HW122886   2.985   3.087   9.902  0.3457  0.2228  1.1681
 3750SOL    HW222887   2.922   2.982   9.997 -0.3497  2.3859  0.0991
 3751SOL     OW22888   0.657   0.199   8.130  0.0031  0.3405  0.2082
 3751SOL    HW122889   0.571   0.187   8.170  0.7984  0.1410  1.8296
 3751SOL    HW222890   0.692   0.124   8.177 -0.0897  2.2298  3.2470
 3752SOL     OW22891   3.670   4.513   3.098  0.0256 -0.7054 -0.2683
 3752SOL    HW122892   3.667   4.603   3.064  1.5519  0.1173  1.7533
 3752SOL    HW222893   3.580   4.493   3.072 -0.3729 -0.5448  0.9632
 3753SOL     OW22894   2.108   2.983   1.993  0.5171 -0.9124  0.0714
 3753SOL    HW122895   2.049   3.034   1.938 -0.8123 -0.6272  1.7431
 3753SOL    HW222896   2.119   2.901   1.946  0.4622 -0.8499 -0.0493
 3754SOL     OW22897   1.293   3.673   1.900  0.3733 -0.2455  1.2145
 3754SOL    HW122898   1.320   3.663   1.992  1.8811  0.1563  0.8198
 3754SOL    HW222899   1.250   3.759   1.902  0.2091 -0.3184  0.4407
 3755SOL     OW22900   2.611   4.519  17.415 -0.8020  0.2790  0.6730
 3755SOL    HW122901   2.539   4.460  17.393 -1.2414  0.5597  1.3757
 3755SOL    HW222902   2.593   4.542  17.506  2.2381 -0.3013  1.4343
 3756SOL     OW22903   0.522   1.648   1.754  0.3469 -0.1255 -0.0254
 3756SOL    HW122904   0.427   1.649   1.742 -0.1197  2.1622  3.8451
 3756SOL    HW222905   0.534   1.737   1.721 -0.4011 -0.4363 -1.1284
 3757SOL     OW22906   3.294   2.987   4.829 -0.1509 -0.1894 -0.3102
 3757SOL    HW122907   3.389   2.988   4.842 -0.0775 -0.7757 -0.7708
 3757SOL    HW222908   3.288   3.050   4.757 -1.1623 -1.4539 -1.3294
 3758SOL     OW22909   3.367   0.711   4.982  0.1373  0.1512 -0.3164
 3758SOL    HW122910   3.451   0.733   4.942 -1.4792  1.9193 -2.6880
 3758SOL    HW222911   3.368   0.771   5.056 -1.5424  1.1283 -1.0902
 3759SOL     OW22912   2.706   3.724   2.334 -0.2746  0.0043  0.3758
 3759SOL    HW122913   2.614   3.704   2.313 -0.0579 -1.7359  1.1158
 3759SOL    HW222914   2.701   3.795   2.397  2.8204  0.7284 -0.2367
 3760SOL     OW22915   0.103   2.037   0.410  0.0095  0.5975 -0.3721
 3760SOL    HW122916   0.196   2.014   0.413 -0.4283 -0.8593  2.6738
 3760SOL    HW222917   0.097   2.087   0.491 -2.9503 -1.2847  0.5762
 3761SOL     OW22918   2.479   1.074   8.676 -0.5184 -0.4948  0.7297
 3761SOL    HW122919   2.385   1.072   8.654 -0.3515  1.1742 -0.1395
 3761SOL    HW222920   2.463   1.069   8.771  1.7119  0.2598  1.1527
 3762SOL     OW22921   3.210   0.208  12.799 -0.0181 -0.1072 -0.3375
 3762SOL    HW122922   3.116   0.197  12.788  0.2115 -2.6724  0.3259
 3762SOL    HW222923   3.252   0.174  12.720 -0.2707 -0.3803 -0.3519
 3763SOL     OW22924   3.767   3.454   9.358 -0.2714  0.3027 -0.0909
 3763SOL    HW122925   3.678   3.478   9.334 -0.1947  0.0995 -0.5884
 3763SOL    HW222926   3.763   3.358   9.362  0.7338  0.3506  1.8970
 3764SOL     OW22927   0.665   0.553   0.952 -0.1818 -0.0787 -0.4290
 3764SOL    HW122928   0.621   0.615   0.893 -0.6550 -1.4131 -1.4666
 3764SOL    HW222929   0.735   0.535   0.890  1.0820  0.8592  0.7152
 3765SOL     OW22930   1.601   2.615  13.657  0.3544  0.0350 -0.1741
 3765SOL    HW122931   1.568   2.607  13.567  1.2375 -0.1525 -0.4817
 3765SOL    HW222932   1.573   2.704  13.679 -3.1168 -0.6310 -1.8671
 3766SOL     OW22933   2.055   3.562   6.345  0.2701 -0.2756  0.2267
 3766SOL    HW122934   2.080   3.503   6.274  1.3476  0.5339 -0.0722
 3766SOL    HW222935   2.072   3.654   6.323 -1.7153  0.4062  1.5311
 3767SOL     OW22936   4.467   2.361   5.563 -0.0979 -0.1362 -1.0130
 3767SOL    HW122937   4.507   2.411   5.492  0.8055  1.5857  0.6992
 3767SOL    HW222938   4.410   2.308   5.508 -0.8038 -1.5457  1.0798
 3768SOL     OW22939   4.088   0.118  11.598  0.2622 -0.2767 -0.1852
 3768SOL    HW122940   4.164   0.096  11.543  0.1311 -0.8614 -0.1294
 3768SOL    HW222941   4.026   0.052  11.568 -0.2738  0.2426 -0.2118
 3769SOL     OW22942   3.691   3.638  17.395 -0.3617  0.1780 -0.3326
 3769SOL    HW122943   3.622   3.621  17.460 -0.1702  0.3700 -0.0804
 3769SOL    HW222944   3.734   3.552  17.391  0.2159  0.5508 -1.9120
 3770SOL     OW22945   0.969   1.222  15.341  0.4241  0.0597  0.2330
 3770SOL    HW122946   0.915   1.225  15.421  1.7846  1.9262  1.0885
 3770SOL    HW222947   0.944   1.140  15.299  1.5040  0.2095 -0.6728
 3771SOL     OW22948   3.253   1.501   5.960 -0.2146 -0.1959  0.3947
 3771SOL    HW122949   3.274   1.483   5.868 -1.7217 -0.9730  0.2056
 3771SOL    HW222950   3.282   1.422   6.006  1.6509  0.9266  1.1424
 3772SOL     OW22951   3.250   2.042   7.588  0.0281  0.5349  0.3167
 3772SOL    HW122952   3.268   2.119   7.533 -1.8889 -1.0602 -2.5329
 3772SOL    HW222953   3.300   2.061   7.668 -1.0394 -0.0740  1.1261
 3773SOL     OW22954   2.177   3.406   1.078 -0.7473 -0.5676 -0.6191
 3773SOL    HW122955   2.192   3.312   1.079  0.2313 -0.3912  1.4529
 3773SOL    HW222956   2.265   3.441   1.087 -1.6749  1.7362 -0.2293
 3774SOL     OW22957   2.172   1.348   8.452  0.3205  0.4023  0.7271
 3774SOL    HW122958   2.156   1.436   8.419  0.2376  0.7538  1.7137
 3774SOL    HW222959   2.135   1.283   8.391  0.6652  1.3184 -0.4409
 3775SOL     OW22960   0.524   2.284  15.259 -0.3625  0.2224 -0.2386
 3775SOL    HW122961   0.524   2.367  15.211 -1.1523 -0.0680 -0.7261
 3775SOL    HW222962   0.607   2.298  15.306 -0.5795  1.0317 -0.0924
 3776SOL     OW22963   4.382   3.853   9.508  0.2719  0.5944 -0.7638
 3776SOL    HW122964   4.454   3.794   9.528 -0.2115 -0.1195 -1.1382
 3776SOL    HW222965   4.310   3.800   9.542  1.6234  1.5464  3.5706
 3777SOL     OW22966   2.097   0.981   0.837 -0.2761  0.0893  0.1635
 3777SOL    HW122967   2.076   1.066   0.876 -2.0164 -1.3053  2.2356
 3777SOL    HW222968   2.131   0.939   0.916  0.1571 -0.7004 -0.4356
 3778SOL     OW22969   1.707   1.993   1.334  0.1150 -0.0181 -0.4458
 3778SOL    HW122970   1.795   2.029   1.337  0.7583 -1.6686  0.6583
 3778SOL    HW222971   1.695   1.973   1.426  4.0470 -1.4791 -0.2545
 3779SOL     OW22972   1.753   3.380   6.205 -0.2419  0.3070  0.2954
 3779SOL    HW122973   1.758   3.414   6.116  0.9822  1.4256  0.7700
 3779SOL    HW222974   1.688   3.435   6.249  0.1944 -0.1702  1.5421
 3780SOL     OW22975   1.138   3.500  13.682 -0.3429  0.5664 -0.2933
 3780SOL    HW122976   1.206   3.433  13.683  1.3174  2.2311 -0.9068
 3780SOL    HW222977   1.074   3.460  13.624 -0.2637 -2.0372  1.4435
 3781SOL     OW22978   3.329   3.886   9.707  0.7833  0.6431 -0.8223
 3781SOL    HW122979   3.321   3.929   9.621  0.9858 -1.1157 -1.7169
 3781SOL    HW222980   3.238   3.858   9.718  0.4679  1.7988 -0.5156
 3782SOL     OW22981   1.215   2.427   8.055 -0.5343  0.1071 -1.0397
 3782SOL    HW122982   1.177   2.498   8.107 -0.1910  0.1677 -0.8736
 3782SOL    HW222983   1.304   2.459   8.044 -0.5205 -0.6210 -3.1135
 3783SOL     OW22984   4.303   3.491   5.520  0.0449 -0.0526  0.2133
 3783SOL    HW122985   4.233   3.473   5.583  0.2601 -0.3087  0.3772
 3783SOL    HW222986   4.244   3.520   5.451 -0.5732  0.0069  0.7565
 3784SOL     OW22987   2.973   1.467  12.514  0.2830  0.2481  0.2974
 3784SOL    HW122988   3.027   1.490  12.439 -1.8003  1.6526 -0.7738
 3784SOL    HW222989   3.034   1.407  12.557 -1.7602 -1.7288  0.3767
 3785SOL     OW22990   0.403   2.664   7.050 -0.2448  0.3105 -0.4774
 3785SOL    HW122991   0.364   2.589   7.005 -1.5717  0.9042 -0.3320
 3785SOL    HW222992   0.427   2.719   6.976 -1.3145  0.6559 -0.5665
 3786SOL     OW22993   4.517   0.282   1.992 -0.3173 -0.0031  0.2431
 3786SOL    HW122994   4.590   0.229   1.958 -0.5148  0.4284 -0.8684
 3786SOL    HW222995   4.443   0.245   1.944 -0.7695  1.2021  0.0058
 3787SOL     OW22996   1.399   4.651   6.526  0.0950  0.0613  0.1290
 3787SOL    HW122997   1.441   4.639   6.441 -0.9708  2.0685 -0.6801
 3787SOL    HW222998   1.449   4.593   6.583  0.6026 -0.5927 -0.9741
 3788SOL     OW22999   2.216   1.692  15.343 -0.3952 -0.1732  0.1601
 3788SOL    HW123000   2.275   1.617  15.343  0.3313  0.4037  0.2135
 3788SOL    HW223001   2.271   1.766  15.318  1.8787 -2.1876 -0.7838
 3789SOL     OW23002   0.171   2.682  14.696 -0.0821 -0.3513 -0.9103
 3789SOL    HW123003   0.182   2.597  14.738 -1.2785  0.2372  0.5810
 3789SOL    HW223004   0.182   2.645  14.608  0.8734  1.5241 -1.5840
 3790SOL     OW23005   1.334   0.966   6.754  0.6743 -0.0616 -0.2903
 3790SOL    HW123006   1.430   0.960   6.748  0.7002 -0.0950  0.2219
 3790SOL    HW223007   1.325   1.012   6.837  0.9897 -0.9440  0.2247
 3791SOL     OW23008   3.428   3.421   4.639  0.2388 -0.3069 -0.2368
 3791SOL    HW123009   3.398   3.333   4.615 -0.1643 -0.0661 -0.6039
 3791SOL    HW223010   3.510   3.399   4.684 -1.7966  0.5714  3.8281
 3792SOL     OW23011   1.440   4.116  13.878  0.0681  0.3381 -0.3297
 3792SOL    HW123012   1.503   4.147  13.812 -3.7426  1.5027 -3.3729
 3792SOL    HW223013   1.371   4.181  13.893 -1.0442 -1.4786  2.3934
 3793SOL     OW23014   2.345   3.320   7.780  0.0650  0.4235  0.5894
 3793SOL    HW123015   2.415   3.361   7.729 -0.1611 -0.5449 -0.5079
 3793SOL    HW223016   2.285   3.395   7.781 -0.6011 -0.0853 -1.3404
 3794SOL     OW23017   0.568   3.279   4.776  0.0029  0.6271 -0.2014
 3794SOL    HW123018   0.558   3.326   4.859 -0.8804 -0.2317  0.1764
 3794SOL    HW223019   0.658   3.258   4.798 -0.3826  0.0598  0.8252
 3795SOL     OW23020   0.740   3.996  13.341  0.1497 -0.1546 -0.1663
 3795SOL    HW123021   0.770   4.000  13.432 -1.7248  0.4369  0.4280
 3795SOL    HW223022   0.807   4.052  13.301  0.1025 -1.8035 -2.5688
 3796SOL     OW23023   2.142   4.057   3.711  0.3365 -0.3570 -0.1933
 3796SOL    HW123024   2.098   4.015   3.785 -0.7641  0.0105 -0.6408
 3796SOL    HW223025   2.230   4.021   3.700 -0.5911 -3.1336  1.5186
 3797SOL     OW23026   4.182   3.044   9.602  0.3545 -0.0006  0.3673
 3797SOL    HW123027   4.265   3.036   9.554  0.1042 -0.5421  0.0235
 3797SOL    HW223028   4.194   3.135   9.629  2.4145  0.2565 -1.3329
 3798SOL     OW23029   2.221   0.070   8.088 -0.5289 -0.2511 -0.0454
 3798SOL    HW123030   2.187   0.155   8.057 -1.3612 -0.2925  0.7673
 3798SOL    HW223031   2.130   0.043   8.101 -0.6504 -1.9782 -4.4114
 3799SOL     OW23032   4.317   0.948   2.343 -0.4268 -0.1110  0.0992
 3799SOL    HW123033   4.262   0.901   2.405 -1.3153 -0.0159 -0.6162
 3799SOL    HW223034   4.258   0.990   2.281 -1.0463 -0.5055  0.4241
 3800SOL     OW23035   2.384   3.699   2.099  0.1007  0.5949  0.0302
 3800SOL    HW123036   2.431   3.672   2.178 -1.7621 -2.5428  0.0621
 3800SOL    HW223037   2.443   3.671   2.029  0.7845 -0.1898  0.9147
 3801SOL     OW23038   2.381   3.192   9.898  0.0808 -0.2833 -0.4833
 3801SOL    HW123039   2.358   3.281   9.873 -0.0238 -0.2904 -0.4098
 3801SOL    HW223040   2.477   3.195   9.890  0.4437 -0.3695  3.7885
 3802SOL     OW23041   2.429   3.301  11.540  0.3089  0.3185 -0.2046
 3802SOL    HW123042   2.362   3.255  11.590  1.8539  0.1678  1.7139
 3802SOL    HW223043   2.410   3.275  11.450  0.7881 -0.1377 -0.1759
 3803SOL     OW23044   1.858   4.700   8.989  0.1489 -0.4768  0.4886
 3803SOL    HW123045   1.788   4.686   9.053 -0.9989 -0.7722 -0.8285
 3803SOL    HW223046   1.930   4.710   9.051 -0.0346 -0.1264  0.6421
 3804SOL     OW23047   0.732   0.081   3.160 -0.4805  0.2573  0.3495
 3804SOL    HW123048   0.652   0.040   3.192 -1.1888  2.0878  0.9150
 3804SOL    HW223049   0.798   0.069   3.229  1.4834 -0.5322 -1.6669
 3805SOL     OW23050   1.819   1.428   3.123 -0.1508 -0.2697  0.1758
 3805SOL    HW123051   1.771   1.450   3.203 -0.3265  0.0528 -0.0199
 3805SOL    HW223052   1.880   1.358   3.147  3.6586  2.2807 -2.0757
 3806SOL     OW23053   1.476   0.151   8.169  0.1461  0.3671 -0.5436
 3806SOL    HW123054   1.567   0.125   8.155 -0.6868 -3.1250  0.4630
 3806SOL    HW223055   1.448   0.069   8.210 -0.8794  0.6115 -0.7374
 3807SOL     OW23056   2.183   1.923  14.277  0.1370 -1.0462  0.2737
 3807SOL    HW123057   2.188   1.943  14.183  0.1346  0.2839  0.5530
 3807SOL    HW223058   2.201   2.012  14.307  0.3448 -0.5300 -1.3552
 3808SOL     OW23059   0.068   2.168   0.662  0.1246  0.7173 -0.0599
 3808SOL    HW123060   4.733   2.223   0.631 -0.9851 -0.5971  0.1516
 3808SOL    HW223061   0.107   2.236   0.717 -0.7854  0.7977  0.4973
 3809SOL     OW23062   0.231   1.470   4.606 -0.1619 -0.5826  0.3259
 3809SOL    HW123063   0.240   1.421   4.525 -2.6936 -0.6328  0.0566
 3809SOL    HW223064   0.245   1.396   4.666 -2.7903 -0.8951  0.5568
 3810SOL     OW23065   4.255   1.358   8.876 -0.0149  0.3750  0.1504
 3810SOL    HW123066   4.268   1.363   8.970  0.5611 -1.5868  0.1806
 3810SOL    HW223067   4.318   1.424   8.847  0.1381 -0.8798 -2.4741
 3811SOL     OW23068   3.818   4.379  14.498  0.3024  0.2221 -0.1849
 3811SOL    HW123069   3.878   4.361  14.570 -0.0171 -0.5204 -0.1048
 3811SOL    HW223070   3.871   4.435  14.442  1.2862 -1.8937 -1.3673
 3812SOL     OW23071   1.352   3.626   2.166  0.3486 -0.1115 -0.0313
 3812SOL    HW123072   1.320   3.680   2.238 -0.4874 -2.4350  1.3477
 3812SOL    HW223073   1.444   3.606   2.183  0.5187  0.8878  0.2463
 3813SOL     OW23074   0.374   3.238  15.548 -0.0203 -0.1178  0.0431
 3813SOL    HW123075   0.410   3.310  15.495 -0.2543 -1.2303 -1.6071
 3813SOL    HW223076   0.279   3.247  15.540 -0.1474 -2.1105 -0.7551
 3814SOL     OW23077   2.432   3.505   5.401  0.4533 -0.0840 -0.0983
 3814SOL    HW123078   2.448   3.491   5.307  2.1984  2.3210 -0.1581
 3814SOL    HW223079   2.341   3.480   5.415  0.8712 -1.4627  0.2103
 3815SOL     OW23080   2.414   0.727   8.323  0.0917 -0.0473  0.0177
 3815SOL    HW123081   2.418   0.702   8.231 -1.6952  0.4023 -0.1833
 3815SOL    HW223082   2.444   0.817   8.332  0.4800 -0.1653 -0.1006
 3816SOL     OW23083   2.627   4.667   4.706 -0.3867 -0.1902 -0.0500
 3816SOL    HW123084   2.554   4.681   4.647  0.2040 -1.7088 -1.1600
 3816SOL    HW223085   2.697   4.686   4.644  0.1982  0.7700  0.9053
 3817SOL     OW23086   4.029   2.064   1.862 -0.4488 -0.2162  0.0819
 3817SOL    HW123087   4.026   2.020   1.947  1.1626 -0.7959 -0.1557
 3817SOL    HW223088   4.075   2.147   1.879 -0.7269  0.0792 -0.6339
 3818SOL     OW23089   2.181   2.074   3.253 -0.2159 -0.1593 -0.1065
 3818SOL    HW123090   2.108   2.068   3.191  0.4918 -1.0209 -0.8444
 3818SOL    HW223091   2.195   2.169   3.255 -0.7627 -0.0660 -0.6578
 3819SOL     OW23092   3.505   1.562  10.342 -0.2429 -0.4264 -0.2099
 3819SOL    HW123093   3.591   1.604  10.339  0.2886 -1.4240  1.2680
 3819SOL    HW223094   3.455   1.605  10.272  0.2443 -3.1858 -2.2804
 3820SOL     OW23095   0.344   4.403   7.895  0.5257  0.2469  0.4652
 3820SOL    HW123096   0.316   4.316   7.924 -0.4453  0.2598 -0.4104
 3820SOL    HW223097   0.258   4.441   7.879  0.5847 -0.2160 -1.0555
 3821SOL     OW23098   2.280   4.602   8.482  0.1650 -0.0461  0.6554
 3821SOL    HW123099   2.336   4.550   8.541 -1.8407 -2.3602  0.5045
 3821SOL    HW223100   2.308   4.583   8.392  0.2296  2.5053  0.1317
 3822SOL     OW23101   1.947   4.588   4.312  0.3149  0.2822 -0.1199
 3822SOL    HW123102   1.867   4.629   4.345  0.1382 -0.4549  0.3834
 3822SOL    HW223103   2.011   4.635   4.366  0.6461  0.9556 -1.1052
 3823SOL     OW23104   3.158   0.241   8.904  0.3128 -0.4492  0.2945
 3823SOL    HW123105   3.227   0.189   8.945  1.0580  1.0781  0.9921
 3823SOL    HW223106   3.187   0.328   8.931 -0.4412 -0.2521  0.4946
 3824SOL     OW23107   2.825   0.542   6.964  0.1847 -0.2630 -0.1043
 3824SOL    HW123108   2.791   0.483   6.897  0.5582  0.9678 -1.3668
 3824SOL    HW223109   2.751   0.546   7.023  1.4175  1.7148  1.3265
 3825SOL     OW23110   0.412   4.567   4.969 -0.3054  0.3919  0.0776
 3825SOL    HW123111   0.381   4.479   4.950  1.5184 -0.0983 -0.6390
 3825SOL    HW223112   0.504   4.554   4.993 -0.3999  1.6108  1.0896
 3826SOL     OW23113   2.611   0.125   8.524 -0.2446  0.0027  0.7165
 3826SOL    HW123114   2.519   0.121   8.551 -0.5278 -0.0434 -0.2496
 3826SOL    HW223115   2.636   0.033   8.513 -0.5032  0.1954 -1.4236
 3827SOL     OW23116   4.600   0.703   9.339 -0.3024 -0.2397  0.3766
 3827SOL    HW123117   4.614   0.612   9.312 -1.1465 -0.3312  0.2299
 3827SOL    HW223118   4.644   0.695   9.423  1.3618  0.9979 -0.3816
 3828SOL     OW23119   1.677   1.468   8.756  0.0586  0.5433 -0.2866
 3828SOL    HW123120   1.597   1.415   8.754  0.0097  0.6047  0.1389
 3828SOL    HW223121   1.712   1.453   8.844  0.6535  0.5049 -0.5368
 3829SOL     OW23122   4.084   2.277   0.861  0.0301 -0.5875  0.2172
 3829SOL    HW123123   4.047   2.189   0.867  0.3963 -0.6648  1.3753
 3829SOL    HW223124   4.036   2.323   0.931 -1.3518 -0.8166 -0.5963
 3830SOL     OW23125   0.150   2.938   8.715 -0.0689 -0.6877 -0.2825
 3830SOL    HW123126   0.174   3.020   8.673 -0.3170 -1.0817 -1.1872
 3830SOL    HW223127   0.215   2.929   8.784  0.5210 -2.9453 -1.1311
 3831SOL     OW23128   0.608   2.642   8.046 -0.6126  0.3851  0.0033
 3831SOL    HW123129   0.676   2.633   8.112 -2.0748  0.8350  1.5521
 3831SOL    HW223130   0.667   2.619   7.974  0.5694 -0.8562  1.3852
 3832SOL     OW23131   1.813   0.979   9.572 -0.4107  0.2338  0.1836
 3832SOL    HW123132   1.737   0.928   9.596  0.1901 -0.6298  0.2477
 3832SOL    HW223133   1.763   1.061   9.576 -0.6645 -0.0265  2.0091
 3833SOL     OW23134   0.068   2.127  17.296 -0.5544  0.1770 -0.2902
 3833SOL    HW123135   0.124   2.050  17.288 -1.8058 -0.7415 -0.1428
 3833SOL    HW223136   4.721   2.101  17.332  0.4331  0.2952  2.1400
 3834SOL     OW23137   3.889   1.703   0.207 -0.4415  0.6994 -0.2605
 3834SOL    HW123138   3.858   1.723   0.295 -2.0103 -1.1739 -0.3907
 3834SOL    HW223139   3.984   1.695   0.219 -0.4943  1.8422  0.9088
 3835SOL     OW23140   0.084   0.542   1.801 -0.2611  0.6293 -0.6778
 3835SOL    HW123141   0.081   0.615   1.739  4.7053  1.0874 -0.3205
 3835SOL    HW223142   0.072   0.464   1.746 -1.1553  0.4780 -0.2651
 3836SOL     OW23143   2.849   0.794   7.084 -0.0332 -0.0559  0.0962
 3836SOL    HW123144   2.866   0.707   7.049  0.1366  0.1691 -0.3835
 3836SOL    HW223145   2.820   0.777   7.174  0.6842  1.5093  0.6173
 3837SOL     OW23146   0.930   2.509   2.939  0.3978  1.2351  0.0249
 3837SOL    HW123147   0.868   2.581   2.927  0.6313  1.9036  2.6489
 3837SOL    HW223148   1.016   2.548   2.953  1.2608 -0.9987  1.0408
 3838SOL     OW23149   0.968   1.289  15.756 -0.1517  0.1083  0.4500
 3838SOL    HW123150   1.004   1.249  15.835  0.6898 -0.1440 -0.0651
 3838SOL    HW223151   1.044   1.334  15.719 -0.1136 -0.5695 -0.2880
 3839SOL     OW23152   2.380   4.680   2.549 -0.0998 -0.1989  0.5157
 3839SOL    HW123153   2.344   4.675   2.638  3.2180 -2.8130  1.7266
 3839SOL    HW223154   2.474   4.663   2.561 -0.2350 -1.7315 -0.7285
 3840SOL     OW23155   3.314   2.425  12.067  0.4474 -0.1702 -0.1033
 3840SOL    HW123156   3.250   2.496  12.064 -1.3778 -1.8537 -0.8932
 3840SOL    HW223157   3.397   2.473  12.068  0.4534 -0.1808 -0.0951
 3841SOL     OW23158   2.824   3.113   3.013 -0.2780  0.1457 -0.0548
 3841SOL    HW123159   2.769   3.097   3.090  0.7549  0.7389  0.8154
 3841SOL    HW223160   2.908   3.090   3.052  0.2207  0.4223 -0.9804
 3842SOL     OW23161   0.971   1.905   8.314  0.4398 -0.0008  0.0510
 3842SOL    HW123162   1.027   1.884   8.240  0.8275  0.3097  0.2536
 3842SOL    HW223163   0.900   1.841   8.314  0.5941 -0.1705  0.0884
 3843SOL     OW23164   3.554   3.472   1.187 -0.0799  0.0698  0.3623
 3843SOL    HW123165   3.631   3.463   1.131 -1.4687 -0.5729 -1.4575
 3843SOL    HW223166   3.483   3.470   1.122 -1.2531  0.2125  1.6493
 3844SOL     OW23167   0.443   3.701   4.489 -0.4248  0.3049  0.5777
 3844SOL    HW123168   0.428   3.656   4.406  1.5656 -0.6173  0.7000
 3844SOL    HW223169   0.478   3.787   4.466  1.5349 -1.1670 -2.0555
 3845SOL     OW23170   1.940   2.929   9.742  0.1754  0.0160  0.5620
 3845SOL    HW123171   1.952   2.838   9.771 -0.4161 -0.7617 -1.6572
 3845SOL    HW223172   1.918   2.929   9.649 -2.4779  0.3422  1.1955
 3846SOL     OW23173   1.191   0.449   5.792  0.4086 -0.1369 -0.3302
 3846SOL    HW123174   1.262   0.465   5.730  0.2564  0.1095 -0.4378
 3846SOL    HW223175   1.224   0.460   5.882  0.7537 -0.8118 -0.3757
 3847SOL     OW23176   3.803   1.184   5.476 -0.3536 -0.0877 -0.3006
 3847SOL    HW123177   3.895   1.211   5.479 -0.3387  0.0176 -1.6698
 3847SOL    HW223178   3.761   1.263   5.509 -1.1161 -1.7206  2.5548
 3848SOL     OW23179   4.209   1.057   1.907 -0.6540 -0.3835 -0.1207
 3848SOL    HW123180   4.117   1.068   1.882 -0.3285 -0.6344 -1.4480
 3848SOL    HW223181   4.203   1.044   2.001 -0.1027  0.1160 -0.0243
 3849SOL     OW23182   1.748   4.250   3.710  0.7736  0.2711  0.5084
 3849SOL    HW123183   1.754   4.202   3.628  1.5604 -2.1192  1.9774
 3849SOL    HW223184   1.818   4.218   3.767 -0.0091 -0.6405  0.9610
 3850SOL     OW23185   2.593   2.582  12.959 -0.6321 -0.4281 -0.6208
 3850SOL    HW123186   2.662   2.635  12.919  0.5027 -0.3523  1.4055
 3850SOL    HW223187   2.642   2.500  12.955  0.0528 -0.0506 -0.0408
 3851SOL     OW23188   2.679   4.473   7.580 -0.4168 -0.2618  0.1499
 3851SOL    HW123189   2.717   4.484   7.667 -0.4152 -0.0452  0.1210
 3851SOL    HW223190   2.596   4.430   7.599 -1.1827  1.0991 -0.0786
 3852SOL     OW23191   2.964   2.399   8.140  0.5553 -0.0411 -0.1661
 3852SOL    HW123192   2.874   2.429   8.144  0.0193 -1.5190 -1.2522
 3852SOL    HW223193   3.013   2.481   8.140  2.9540 -1.4534 -1.4057
 3853SOL     OW23194   3.933   0.086   5.583  0.6269  0.4491 -0.3859
 3853SOL    HW123195   3.932   0.001   5.539 -0.6031  1.2545 -1.9265
 3853SOL    HW223196   3.975   0.146   5.521  0.0090  0.7299 -0.5343
 3854SOL     OW23197   1.336   4.728  11.248  0.6017  0.2827 -0.3461
 3854SOL    HW123198   1.266   0.029  11.300  0.3997 -0.6666  0.0751
 3854SOL    HW223199   1.326   0.036  11.164  0.4738 -0.7292 -0.8729
 3855SOL     OW23200   4.734   1.792   1.510  0.0195 -0.2395 -0.5318
 3855SOL    HW123201   4.642   1.810   1.492  1.0347  6.1591  0.9101
 3855SOL    HW223202   0.048   1.872   1.507 -0.0253 -0.1803  0.2697
 3856SOL     OW23203   1.689   2.079   7.222  0.4164 -0.3854  0.5948
 3856SOL    HW123204   1.652   2.139   7.158  0.0594 -0.6261  0.5804
 3856SOL    HW223205   1.625   2.087   7.293 -1.3335  1.4324 -1.1746
 3857SOL     OW23206   3.555   1.715   5.628 -0.1712  0.2117  0.1851
 3857SOL    HW123207   3.581   1.788   5.685  1.6386  1.5835 -2.3885
 3857SOL    HW223208   3.596   1.731   5.542  1.1594  0.2722  0.8339
 3858SOL     OW23209   2.757   3.572   7.265 -0.0768  0.5800 -1.1208
 3858SOL    HW123210   2.719   3.654   7.235 -0.0804  0.6626 -0.8923
 3858SOL    HW223211   2.739   3.570   7.359 -0.0814 -0.3893 -1.1376
 3859SOL     OW23212   0.540   2.803   4.861  0.0380 -0.2543  0.0378
 3859SOL    HW123213   0.488   2.824   4.783  0.7790 -1.7499 -0.8634
 3859SOL    HW223214   0.629   2.803   4.824 -0.3089 -0.4091 -0.7854
 3860SOL     OW23215   2.086   4.172   2.269 -0.2061 -0.5605 -0.0132
 3860SOL    HW123216   1.991   4.169   2.264 -0.1689  0.7831 -1.7023
 3860SOL    HW223217   2.102   4.112   2.342 -0.1332 -1.1800 -0.5397
 3861SOL     OW23218   1.409   0.726  12.108 -0.4392 -0.6460  0.1066
 3861SOL    HW123219   1.475   0.796  12.109 -1.1408  0.0889 -3.1096
 3861SOL    HW223220   1.453   0.644  12.084 -1.4207 -0.2927 -2.9126
 3862SOL     OW23221   3.801   3.161  14.777 -0.1932 -0.2068  0.2785
 3862SOL    HW123222   3.729   3.135  14.720  2.5769 -1.6790 -2.5538
 3862SOL    HW223223   3.813   3.254  14.759  0.2502 -0.5752 -1.2885
 3863SOL     OW23224   1.528   2.699   4.035  0.8437  0.2660 -0.1393
 3863SOL    HW123225   1.584   2.686   3.959  0.0775  0.6349 -0.7569
 3863SOL    HW223226   1.490   2.785   4.021 -2.2917 -1.3044 -1.2417
 3864SOL     OW23227   0.518   4.391   4.646  0.3256 -0.1045  0.0960
 3864SOL    HW123228   0.511   4.407   4.552 -2.2434 -1.8827 -0.0231
 3864SOL    HW223229   0.560   4.471   4.678  0.6222  0.3731 -1.4732
 3865SOL     OW23230   3.085   0.872   5.926 -0.4216 -0.0538 -0.3420
 3865SOL    HW123231   3.150   0.941   5.937 -1.5553  1.0286 -0.4078
 3865SOL    HW223232   3.138   0.799   5.894  0.2877  0.7602 -0.9939
 3866SOL     OW23233   0.164   0.846  14.631  0.2495  0.5115 -0.3362
 3866SOL    HW123234   0.187   0.933  14.599  4.8117 -0.9697 -1.0737
 3866SOL    HW223235   0.250   0.817  14.661  0.1276 -1.3241 -1.7831
 3867SOL     OW23236   2.995   0.716  13.119  0.5276 -0.5337  0.4901
 3867SOL    HW123237   3.075   0.728  13.171  0.8006  1.9560 -0.4693
 3867SOL    HW223238   2.991   0.621  13.113 -4.1180 -0.2140 -1.3193
 3868SOL     OW23239   4.436   4.581  10.455  0.6754  0.5315 -0.6718
 3868SOL    HW123240   4.366   4.630  10.499 -0.1750 -0.7168 -0.6259
 3868SOL    HW223241   4.459   4.506  10.510  1.2049  0.5027 -0.9366
 3869SOL     OW23242   3.602   3.900   6.639  0.3399 -0.2515 -0.7625
 3869SOL    HW123243   3.523   3.954   6.641  0.3728 -0.2093 -0.5169
 3869SOL    HW223244   3.569   3.833   6.579 -1.3284  1.6281 -1.9482
 3870SOL     OW23245   1.263   1.936  14.392 -0.3221  0.1303 -0.3514
 3870SOL    HW123246   1.333   1.942  14.327  0.1514  1.3330  0.2688
 3870SOL    HW223247   1.187   1.977  14.351 -0.9340 -1.8581 -1.2312
 3871SOL     OW23248   1.185   4.508   5.667 -0.3436 -0.0962 -0.6137
 3871SOL    HW123249   1.218   4.593   5.636  2.9688 -0.6787  1.3507
 3871SOL    HW223250   1.095   4.535   5.686  0.2621 -0.0332  2.0867
 3872SOL     OW23251   3.498   1.808  15.737  0.0814  0.1708 -0.0926
 3872SOL    HW123252   3.482   1.884  15.681  1.2207 -0.7189 -1.6280
 3872SOL    HW223253   3.588   1.824  15.765 -0.2643 -0.4801  1.3962
 3873SOL     OW23254   4.161   3.237   0.687 -0.3073  0.4455 -0.3267
 3873SOL    HW123255   4.069   3.232   0.664 -0.8318 -0.9621  2.0348
 3873SOL    HW223256   4.182   3.144   0.675  0.5629  0.5508  0.3552
 3874SOL     OW23257   0.076   1.389   4.910  0.0710 -0.3855 -0.2844
 3874SOL    HW123258   0.086   1.424   4.999  0.3805  2.4645 -1.4460
 3874SOL    HW223259   0.166   1.357   4.902  0.7737  1.5570 -0.0711
 3875SOL     OW23260   3.872   1.415  11.537  0.1956 -0.5520 -0.2453
 3875SOL    HW123261   3.962   1.444  11.521 -0.0004 -0.2657 -0.8180
 3875SOL    HW223262   3.887   1.331  11.582 -0.3451 -1.0909 -1.0762
 3876SOL     OW23263   4.512   1.369   7.281 -0.5330 -0.0189  0.5424
 3876SOL    HW123264   4.458   1.290   7.287 -0.4880 -0.0491  0.5580
 3876SOL    HW223265   4.580   1.345   7.218  0.6596  2.2967  0.9700
 3877SOL     OW23266   1.768   3.413   2.652  0.0265 -0.2081  0.3353
 3877SOL    HW123267   1.815   3.460   2.721  1.4324 -0.1405 -0.6728
 3877SOL    HW223268   1.722   3.485   2.610  1.4236  0.9628  0.7964
 3878SOL     OW23269   1.154   2.990   7.232  0.6050  0.1982 -0.3834
 3878SOL    HW123270   1.184   2.899   7.225 -3.9884 -1.3609  0.0714
 3878SOL    HW223271   1.222   3.031   7.179  0.4859  0.0347 -0.6620
 3879SOL     OW23272   1.916   3.120   1.866  0.4370  0.0619  0.0064
 3879SOL    HW123273   1.948   3.199   1.908  2.7830 -1.2264  0.6410
 3879SOL    HW223274   1.833   3.109   1.914  0.5901 -1.8787 -0.1669
 3880SOL     OW23275   2.088   2.729   6.949  0.2692 -0.6368 -0.2480
 3880SOL    HW123276   2.177   2.754   6.973 -0.8101  4.2768 -1.2297
 3880SOL    HW223277   2.034   2.801   6.982 -0.0920 -1.9637  2.0399
 3881SOL     OW23278   1.150   2.983   7.652  0.2977  0.2237 -0.5640
 3881SOL    HW123279   1.144   3.039   7.730  0.4083 -0.3755 -0.1199
 3881SOL    HW223280   1.116   3.044   7.586  0.1100  1.4038  0.6193
 3882SOL     OW23281   2.165   3.726   5.270 -0.8142  0.1897  0.0118
 3882SOL    HW123282   2.132   3.637   5.280  1.4169 -0.6188  0.1016
 3882SOL    HW223283   2.170   3.729   5.175  2.2493 -1.8951  0.1047
 3883SOL     OW23284   4.481   0.582  10.262 -0.1547 -0.4198 -0.4322
 3883SOL    HW123285   4.539   0.511  10.236  0.3071 -0.5790  1.0042
 3883SOL    HW223286   4.434   0.539  10.333  1.1451 -0.1484  0.6017
 3884SOL     OW23287   4.727   0.625   0.322  0.3218  0.0192 -0.2523
 3884SOL    HW123288   4.730   0.536   0.288  1.8146  0.2739 -0.7847
 3884SOL    HW223289   4.651   0.625   0.380  1.0237 -0.5674  0.6664
 3885SOL     OW23290   1.622   2.656   4.869  0.1453 -0.2744 -0.0562
 3885SOL    HW123291   1.689   2.722   4.889 -1.2896  1.3591 -0.6441
 3885SOL    HW223292   1.655   2.604   4.796  0.0025 -0.1118 -0.2352
 3886SOL     OW23293   2.009   3.786   0.637  0.2408  0.7457  0.3505
 3886SOL    HW123294   1.983   3.793   0.546 -1.2086  3.0223  0.9438
 3886SOL    HW223295   2.031   3.875   0.663  0.7949  0.3498  1.2567
 3887SOL     OW23296   2.775   2.452  14.827 -0.2492  0.5712 -0.3815
 3887SOL    HW123297   2.860   2.425  14.792 -0.7864  0.0407 -1.2595
 3887SOL    HW223298   2.789   2.546  14.842 -2.0658  1.1142 -2.2644
 3888SOL     OW23299   2.481   1.424   1.055 -0.3257 -0.0693  0.7480
 3888SOL    HW123300   2.512   1.453   0.970  2.9913 -1.7153  1.3908
 3888SOL    HW223301   2.566   1.415   1.099  1.5413 -1.5053 -3.2023
 3889SOL     OW23302   1.156   1.507  15.931 -0.3450  0.4489  0.3097
 3889SOL    HW123303   1.160   1.489  15.837 -1.0053  1.2236  0.1332
 3889SOL    HW223304   1.166   1.601  15.941  0.8468  0.3608 -0.0778
 3890SOL     OW23305   3.635   4.295   4.781  0.3817 -0.0916  0.2706
 3890SOL    HW123306   3.719   4.255   4.805 -0.2066 -2.2570 -1.2859
 3890SOL    HW223307   3.592   4.226   4.731  1.3450 -1.9545  1.9874
 3891SOL     OW23308   1.552   2.478   9.250 -0.0367  0.5006  0.3857
 3891SOL    HW123309   1.553   2.560   9.200  1.8963  0.4220  0.3192
 3891SOL    HW223310   1.572   2.518   9.335 -0.9606  0.3644  0.6682
 3892SOL     OW23311   4.172   4.382   6.319  0.0376  0.1257  0.1324
 3892SOL    HW123312   4.131   4.393   6.233  0.5439 -0.1563 -0.1469
 3892SOL    HW223313   4.259   4.356   6.290  1.2717  2.6744  1.5484
 3893SOL     OW23314   3.813   0.166   0.450 -0.1019  0.9024  0.1600
 3893SOL    HW123315   3.766   0.199   0.526 -0.4490 -0.9044  0.7232
 3893SOL    HW223316   3.889   0.118   0.485 -0.0393 -0.1534 -1.4192
 3894SOL     OW23317   3.928   1.529  14.338  0.3732  0.0284 -0.3910
 3894SOL    HW123318   3.876   1.508  14.261  0.7960 -0.0064 -0.6671
 3894SOL    HW223319   3.906   1.622  14.349  0.7796  0.1268 -0.4090
 3895SOL     OW23320   2.907   3.847   5.806 -0.1071  0.3196 -0.3464
 3895SOL    HW123321   2.839   3.880   5.748 -0.7886  1.3436  1.0370
 3895SOL    HW223322   2.868   3.810   5.885 -1.1065  0.9016 -0.5690
 3896SOL     OW23323   3.031   1.095  12.262 -0.2361  0.0559  0.7945
 3896SOL    HW123324   3.093   1.040  12.310 -2.4403 -0.8850  2.6140
 3896SOL    HW223325   2.952   1.059  12.303  0.2291 -1.0900  0.6891
 3897SOL     OW23326   0.968   3.186   5.323  0.2412  0.6935 -0.3603
 3897SOL    HW123327   0.950   3.172   5.416 -1.2553  0.4372 -0.6799
 3897SOL    HW223328   1.053   3.145   5.309 -0.5875 -1.0347 -0.3016
 3898SOL     OW23329   3.719   3.176  11.618  0.0342  0.1131 -0.0646
 3898SOL    HW123330   3.667   3.211  11.545  0.0667  1.2258  0.4374
 3898SOL    HW223331   3.773   3.118  11.565 -0.9289 -2.1476  1.4662
 3899SOL     OW23332   0.252   0.797   5.608  0.0240  0.2262 -0.3096
 3899SOL    HW123333   0.333   0.832   5.572  0.8113 -2.6556 -1.3596
 3899SOL    HW223334   0.278   0.709   5.634  1.0426  0.8474  0.7470
 3900SOL     OW23335   1.194   0.914  17.013 -0.6267  0.0247 -0.3605
 3900SOL    HW123336   1.251   0.990  16.998  1.4851 -1.1828  1.5950
 3900SOL    HW223337   1.153   0.925  17.098  1.8743  0.9670  0.7374
 3901SOL     OW23338   4.147   0.920   6.849  0.1586 -0.8898  0.1901
 3901SOL    HW123339   4.054   0.937   6.865 -0.3484 -2.9739 -0.4567
 3901SOL    HW223340   4.134   0.874   6.765 -2.2572  0.6853 -0.2925
 3902SOL     OW23341   0.076   0.699   2.829  0.1174  0.3905 -0.2002
 3902SOL    HW123342   0.149   0.645   2.860  0.6934  1.2317 -0.1028
 3902SOL    HW223343   0.120   0.770   2.783  1.3862 -0.9015 -0.9885
 3903SOL     OW23344   3.763   2.919  10.647 -0.2224  0.1172 -0.3912
 3903SOL    HW123345   3.742   2.841  10.699  0.9920 -2.4901 -3.7289
 3903SOL    HW223346   3.760   2.993  10.707  2.1725  1.9590 -2.5427
 3904SOL     OW23347   4.347   2.700   5.661  0.2260  0.0797 -0.0032
 3904SOL    HW123348   4.377   2.610   5.678  0.3293  0.6527  2.8053
 3904SOL    HW223349   4.370   2.741   5.745 -1.6933 -0.0694  0.5869
 3905SOL     OW23350   0.258   1.190   0.573 -0.3877  0.9492  0.2097
 3905SOL    HW123351   0.252   1.206   0.478  0.9773  2.3913  0.3697
 3905SOL    HW223352   0.223   1.275   0.600 -0.2160  0.2428  2.6663
 3906SOL     OW23353   1.039   0.803   8.028 -0.4215 -0.1330  0.3575
 3906SOL    HW123354   0.987   0.793   8.107 -1.6594 -1.4393 -0.6427
 3906SOL    HW223355   1.043   0.899   8.028  1.3947 -0.2086 -0.5270
 3907SOL     OW23356   1.078   2.057  14.237 -0.5391  0.0598  0.3765
 3907SOL    HW123357   1.003   2.117  14.229  0.6198  1.3639 -0.6451
 3907SOL    HW223358   1.044   1.986  14.183  0.3160 -1.8420  2.3529
 3908SOL     OW23359   3.455   0.277   9.032 -0.1990 -0.1805 -0.0199
 3908SOL    HW123360   3.490   0.363   9.009  1.3935 -1.0557 -0.8848
 3908SOL    HW223361   3.400   0.297   9.108 -0.3675 -1.2902  0.1506
 3909SOL     OW23362   1.281   3.271   8.239 -0.1371 -0.8312 -0.3974
 3909SOL    HW123363   1.203   3.259   8.292 -0.3592  0.1752 -0.4959
 3909SOL    HW223364   1.352   3.253   8.301  1.2578  0.6834 -1.5587
 3910SOL     OW23365   0.928   1.309   8.993 -0.3436 -0.6058 -0.2007
 3910SOL    HW123366   0.868   1.373   8.954 -0.4088 -0.4990  0.0730
 3910SOL    HW223367   0.972   1.349   9.069 -0.2942 -0.6460 -0.2087
 3911SOL     OW23368   2.952   2.021   5.279  0.4692 -0.0013  0.4358
 3911SOL    HW123369   2.992   2.067   5.204  1.4045 -0.7782  0.4651
 3911SOL    HW223370   2.961   1.934   5.239  2.4033 -0.1269  1.1529
 3912SOL     OW23371   3.782   0.588   2.735  0.1946 -0.4496  0.2395
 3912SOL    HW123372   3.774   0.643   2.813 -1.3032 -1.9683  1.1584
 3912SOL    HW223373   3.734   0.642   2.673 -3.0604 -1.1644  2.1280
 3913SOL     OW23374   4.638   2.900   7.797 -0.3755 -0.2964  0.6603
 3913SOL    HW123375   4.658   2.828   7.857  1.3626 -0.4194 -0.0628
 3913SOL    HW223376   4.641   2.979   7.851 -0.6079 -0.2151  0.5558
 3914SOL     OW23377   0.892   2.025   4.862  0.5827 -0.7647 -0.8834
 3914SOL    HW123378   0.943   2.067   4.931 -2.6172  0.0311  0.9954
 3914SOL    HW223379   0.910   2.084   4.789 -2.8441  0.7109 -0.5144
 3915SOL     OW23380   2.855   1.902  14.931 -0.3645 -0.0449  0.2166
 3915SOL    HW123381   2.805   1.980  14.907 -0.6822 -0.0614  0.8402
 3915SOL    HW223382   2.874   1.877  14.840  0.4019 -2.7051  1.1037
 3916SOL     OW23383   1.623   2.581   2.381 -0.3025  0.2110 -0.6001
 3916SOL    HW123384   1.593   2.656   2.330 -0.5759 -0.0536 -0.8279
 3916SOL    HW223385   1.647   2.622   2.464  1.2173  1.4381 -1.6388
 3917SOL     OW23386   2.541   3.973   6.421 -0.1303 -0.1567 -0.3035
 3917SOL    HW123387   2.501   3.908   6.363 -2.0988  0.4177  0.4390
 3917SOL    HW223388   2.632   3.943   6.421 -0.6055 -1.6298  0.1067
 3918SOL     OW23389   2.233   0.447   5.048  0.1261  0.2364  0.3219
 3918SOL    HW123390   2.258   0.535   5.077 -0.5159  0.2864  0.7443
 3918SOL    HW223391   2.267   0.408   5.129 -1.8054  1.4882  1.7661
 3919SOL     OW23392   2.282   4.200   2.882 -0.3917  0.3609  0.1370
 3919SOL    HW123393   2.207   4.215   2.825 -0.4694 -0.3582  0.0521
 3919SOL    HW223394   2.251   4.240   2.963  1.6041  0.6526  0.7616
 3920SOL     OW23395   3.369   0.612   3.030 -0.3501  0.1994 -0.5738
 3920SOL    HW123396   3.303   0.588   2.965 -1.4958  1.2110  0.2060
 3920SOL    HW223397   3.448   0.568   3.000  0.7620  1.9540 -0.2193
 3921SOL     OW23398   3.762   3.398   3.128  0.5311 -0.1458 -0.5026
 3921SOL    HW123399   3.813   3.474   3.154 -1.1722  0.8113  0.0481
 3921SOL    HW223400   3.685   3.445   3.096 -0.3184  0.2123  2.0205
 3922SOL     OW23401   0.183   3.646   5.564  0.8734 -0.7149  0.2343
 3922SOL    HW123402   0.114   3.699   5.525 -0.3546 -2.6359 -0.2034
 3922SOL    HW223403   0.216   3.705   5.631 -0.0435 -0.6141  0.5911
 3923SOL     OW23404   0.337   1.019   1.460 -1.2450 -0.1076  0.7032
 3923SOL    HW123405   0.390   0.948   1.496  1.1541  1.0051 -0.6262
 3923SOL    HW223406   0.340   1.083   1.531 -1.0150 -0.4819  1.0280
 3924SOL     OW23407   2.011   4.555   6.888 -0.4538  0.0172 -0.1100
 3924SOL    HW123408   2.043   4.640   6.916 -0.8494  0.2866 -0.4751
 3924SOL    HW223409   1.918   4.574   6.901 -0.8248 -2.4218  0.9100
 3925SOL     OW23410   2.850   3.433  13.110 -0.2578 -0.4905 -0.0310
 3925SOL    HW123411   2.909   3.482  13.167 -1.7005  1.5154 -0.2871
 3925SOL    HW223412   2.825   3.376  13.182 -0.7409 -1.2774 -0.8135
 3926SOL     OW23413   0.813   0.991   3.172 -0.2121 -0.2757 -0.2585
 3926SOL    HW123414   0.733   0.947   3.200 -0.1843 -0.4304 -0.4256
 3926SOL    HW223415   0.778   1.042   3.099 -1.6077 -0.4792  0.2867
 3927SOL     OW23416   1.931   0.276   2.353  0.8885 -0.6221  0.5105
 3927SOL    HW123417   1.994   0.228   2.300 -0.5289 -0.7428 -1.0475
 3927SOL    HW223418   1.976   0.289   2.437  1.0125 -1.0291  0.5077
 3928SOL     OW23419   2.750   1.040   3.407  0.5291  0.9349  0.3614
 3928SOL    HW123420   2.719   0.981   3.475  0.1990  0.6574 -0.0341
 3928SOL    HW223421   2.686   1.112   3.409  1.0068  1.3635  0.3990
 3929SOL     OW23422   2.168   3.789  13.735  0.2961  0.0872 -0.0843
 3929SOL    HW123423   2.114   3.791  13.815  0.5446  1.9100  0.0315
 3929SOL    HW223424   2.186   3.883  13.735  1.7926 -0.1922  3.6930
 3930SOL     OW23425   0.113   3.358   6.840 -0.5575  0.1735  0.4142
 3930SOL    HW123426   0.041   3.421   6.849 -1.9051 -1.1501 -0.9004
 3930SOL    HW223427   0.165   3.400   6.772  1.1596  0.9839  2.2722
 3931SOL     OW23428   0.644   0.753  16.198  0.1018 -0.5449  0.3229
 3931SOL    HW123429   0.643   0.791  16.110  1.5004  0.2951  0.6734
 3931SOL    HW223430   0.625   0.831  16.250 -1.5792 -1.4926  1.1358
 3932SOL     OW23431   1.267   2.782   8.078 -0.1027  0.3945  0.3033
 3932SOL    HW123432   1.201   2.731   8.124 -1.7499  2.6504  0.4391
 3932SOL    HW223433   1.221   2.794   7.995 -1.5172  3.2865  1.4941
 3933SOL     OW23434   3.266   4.617   5.322  0.7667 -0.2996 -0.3167
 3933SOL    HW123435   3.288   4.605   5.415 -2.5133 -0.1683  0.4818
 3933SOL    HW223436   3.348   4.591   5.280  1.2197 -2.2901  1.7901
 3934SOL     OW23437   1.893   2.475   6.021 -0.1101  0.7306  0.7811
 3934SOL    HW123438   1.854   2.561   6.004 -1.1130 -0.4157 -2.6933
 3934SOL    HW223439   1.915   2.483   6.113 -0.4854  0.6406  0.8803
 3935SOL     OW23440   0.890   0.275   6.048 -0.0182  0.7572  0.7016
 3935SOL    HW123441   0.871   0.219   5.972 -0.0019 -0.3494  1.5057
 3935SOL    HW223442   0.859   0.216   6.117  1.2934 -1.6539 -0.7383
 3936SOL     OW23443   1.923   3.333   0.306  0.3014 -0.2192 -0.0679
 3936SOL    HW123444   1.967   3.273   0.246 -1.2597  0.6881 -2.1272
 3936SOL    HW223445   1.908   3.270   0.376  1.0425 -0.6633 -0.3036
 3937SOL     OW23446   3.376   0.199  14.238 -0.1873 -0.3179 -0.3827
 3937SOL    HW123447   3.406   0.166  14.323  1.2601 -1.3741 -1.3066
 3937SOL    HW223448   3.306   0.254  14.273  1.9363  1.3593  1.1841
 3938SOL     OW23449   1.745   0.298   9.326  0.8846 -0.4112  0.4232
 3938SOL    HW123450   1.826   0.326   9.368  0.3065  0.0715  1.2375
 3938SOL    HW223451   1.763   0.312   9.233  0.8829  0.5650  0.5619
 3939SOL     OW23452   4.628   2.520  17.439  0.0322 -0.2815  0.3679
 3939SOL    HW123453   4.687   2.545  17.368 -0.7617  0.7965  0.0999
 3939SOL    HW223454   4.698   2.504  17.503 -0.4426 -0.7298  0.7687
 3940SOL     OW23455   0.937   4.519   3.720  0.0314 -0.3377  0.2256
 3940SOL    HW123456   1.021   4.519   3.675  1.0736  0.3853  2.2075
 3940SOL    HW223457   0.909   4.433   3.686 -0.9527  0.3972 -0.8219
 3941SOL     OW23458   2.484   3.967   3.085  0.3007 -0.1643  0.5229
 3941SOL    HW123459   2.463   4.057   3.108 -1.1569 -0.3630  0.0249
 3941SOL    HW223460   2.445   3.920   3.159 -1.7693  1.1834  0.2793
 3942SOL     OW23461   1.778   1.179   2.931 -0.4965  0.3579  0.2679
 3942SOL    HW123462   1.745   1.269   2.922  1.2061  0.8310 -1.2659
 3942SOL    HW223463   1.863   1.185   2.973 -0.5383  2.0396  0.1421
 3943SOL     OW23464   3.185   0.500   9.053 -0.0607 -0.0234  0.3435
 3943SOL    HW123465   3.236   0.531   9.128  1.4039  3.9289 -2.3091
 3943SOL    HW223466   3.221   0.542   8.975  1.8001 -0.6659  0.8412
 3944SOL     OW23467   4.725   3.848   2.109  0.0609  0.2669  0.0491
 3944SOL    HW123468   4.719   3.865   2.015  1.6414 -1.8698 -0.4259
 3944SOL    HW223469   0.023   3.760   2.118 -0.0787  0.1737 -0.3196
 3945SOL     OW23470   3.242   3.781   4.332  0.4299  0.0852 -0.0718
 3945SOL    HW123471   3.242   3.754   4.240  2.8830 -0.3836  0.0781
 3945SOL    HW223472   3.327   3.753   4.364  0.9586  0.2619 -1.3246
 3946SOL     OW23473   2.149   1.894   1.177 -0.2634 -0.4315 -0.5583
 3946SOL    HW123474   2.216   1.864   1.117  0.7005  1.6898 -0.5353
 3946SOL    HW223475   2.151   1.826   1.245  4.3203  0.0685 -0.2197
 3947SOL     OW23476   1.280   4.731   4.271  0.3840  0.0450 -0.4364
 3947SOL    HW123477   1.325   4.690   4.345  0.2536  0.1675 -0.2900
 3947SOL    HW223478   1.248   0.075   4.311 -0.1060  0.3107 -1.3575
 3948SOL     OW23479   4.113   2.466  12.679  0.1118 -0.3505  0.1501
 3948SOL    HW123480   4.121   2.561  12.672 -1.4216 -0.2324  0.1272
 3948SOL    HW223481   4.158   2.441  12.598 -0.5798  1.5133 -0.8125
 3949SOL     OW23482   2.009   0.606   5.237  0.1133  0.2753 -0.8747
 3949SOL    HW123483   2.046   0.686   5.199 -0.2409  0.7657 -0.1766
 3949SOL    HW223484   2.012   0.623   5.331 -0.6320  0.4497 -0.8820
 3950SOL     OW23485   1.246   1.459   2.245 -0.1003 -0.0326  0.7397
 3950SOL    HW123486   1.180   1.416   2.191  2.9567 -2.8066 -0.7452
 3950SOL    HW223487   1.279   1.524   2.182 -0.0292 -2.9997 -2.2456
 3951SOL     OW23488   0.471   2.281   6.544 -0.7717 -0.0481  0.1038
 3951SOL    HW123489   0.517   2.305   6.625  0.0491  1.2132 -0.7302
 3951SOL    HW223490   0.532   2.312   6.477 -1.0054 -2.1843 -1.0829
 3952SOL     OW23491   0.780   3.701   1.264  0.6283  0.5474 -0.0488
 3952SOL    HW123492   0.798   3.647   1.341  0.0320  2.3053  1.3335
 3952SOL    HW223493   0.860   3.670   1.222 -0.1013 -2.1005  0.5203
 3953SOL     OW23494   3.039   0.304   5.738  0.5814 -0.1808  0.1397
 3953SOL    HW123495   3.076   0.313   5.826  1.2261  0.8675 -0.2269
 3953SOL    HW223496   2.949   0.282   5.759 -0.1941 -0.2523 -3.3179
 3954SOL     OW23497   1.205   1.890  15.092 -0.2850 -0.0256  0.0246
 3954SOL    HW123498   1.211   1.832  15.016  0.8375 -3.0465  2.4149
 3954SOL    HW223499   1.119   1.866  15.128 -0.3762  0.4897  0.1526
 3955SOL     OW23500   0.148   0.622   3.197  0.5079 -0.2189  0.1830
 3955SOL    HW123501   0.137   0.528   3.213  0.6298 -0.5446 -1.7233
 3955SOL    HW223502   0.160   0.632   3.103 -0.6880 -1.4861 -0.1039
 3956SOL     OW23503   3.836   4.183  12.570 -0.2640  0.0609 -0.0342
 3956SOL    HW123504   3.770   4.246  12.599  1.6683  2.1435 -0.1996
 3956SOL    HW223505   3.880   4.176  12.655  0.2807  0.7141 -0.2676
 3957SOL     OW23506   4.589   3.328   1.623  0.2088  0.2029  0.4058
 3957SOL    HW123507   4.611   3.239   1.594  2.2225  0.9156 -0.2401
 3957SOL    HW223508   4.598   3.366   1.536 -0.6966 -2.0481 -0.6585
 3958SOL     OW23509   2.828   3.209   4.865 -0.1693 -0.3290 -0.0073
 3958SOL    HW123510   2.785   3.166   4.790  0.8685 -1.1305 -0.1512
 3958SOL    HW223511   2.775   3.286   4.885  0.7512  0.9172 -2.3826
 3959SOL     OW23512   2.224   0.946   3.670  0.0050  0.1793  0.3465
 3959SOL    HW123513   2.205   1.021   3.727 -0.2634  2.5846 -2.8981
 3959SOL    HW223514   2.190   0.884   3.735 -0.3842 -1.0898 -1.0824
 3960SOL     OW23515   0.155   2.654   7.682  0.5865  0.3703  0.2924
 3960SOL    HW123516   0.099   2.668   7.606 -0.9226 -2.1976  0.9311
 3960SOL    HW223517   0.112   2.595   7.744 -0.4010  0.5522 -0.2262
 3961SOL     OW23518   4.461   2.048   9.039  0.2850  0.0681 -0.5617
 3961SOL    HW123519   4.401   1.974   9.053 -0.2239  0.4020 -1.0051
 3961SOL    HW223520   4.533   1.994   9.005 -0.2987 -0.6172 -0.7233
 3962SOL     OW23521   1.437   4.337  11.889 -0.1231 -0.1994 -0.4879
 3962SOL    HW123522   1.390   4.405  11.842  0.0248 -1.0625 -1.8586
 3962SOL    HW223523   1.393   4.331  11.974 -3.2276 -1.7757 -2.2537
 3963SOL     OW23524   0.623   2.060  17.077 -0.0558  0.3136  0.0850
 3963SOL    HW123525   0.672   1.982  17.052  0.3338  0.6278 -0.1233
 3963SOL    HW223526   0.579   2.029  17.156  1.7236  1.2980  1.4579
 3964SOL     OW23527   0.579   1.895   4.651 -0.5454 -0.6633  0.0795
 3964SOL    HW123528   0.499   1.934   4.616 -0.2589  0.4928  0.7417
 3964SOL    HW223529   0.542   1.809   4.674  1.5669 -1.2384  1.3483
 3965SOL     OW23530   3.730   3.816   6.367  0.2249  0.4256 -0.1532
 3965SOL    HW123531   3.726   3.910   6.348 -1.1964  0.5258  0.6810
 3965SOL    HW223532   3.763   3.775   6.287  3.3335  2.2250  0.1784
 3966SOL     OW23533   2.045   2.633   1.803 -0.3486  0.0540 -0.2956
 3966SOL    HW123534   1.993   2.714   1.797  0.1196  0.3134 -0.8103
 3966SOL    HW223535   2.126   2.683   1.814 -0.1355  0.0224 -1.6869
 3967SOL     OW23536   4.452   1.329   7.644 -0.6488  0.5726  0.3516
 3967SOL    HW123537   4.440   1.407   7.589 -1.9214 -0.9248 -1.4720
 3967SOL    HW223538   4.542   1.302   7.627 -0.9033  1.0953 -1.8122
 3968SOL     OW23539   1.873   3.803   0.384 -0.0077 -0.0615  0.1934
 3968SOL    HW123540   1.787   3.765   0.399 -1.0144  1.8574 -0.6853
 3968SOL    HW223541   1.886   3.796   0.289  0.0370 -1.1963  0.2904
 3969SOL     OW23542   1.050   2.648   5.755 -0.6049 -0.2137  0.7737
 3969SOL    HW123543   1.038   2.623   5.847 -0.6539 -0.5545  0.6728
 3969SOL    HW223544   1.028   2.566   5.712  1.1459 -0.1769 -0.2079
 3970SOL     OW23545   4.272   0.544   6.632  0.1944  0.2878  0.4245
 3970SOL    HW123546   4.301   0.542   6.541  0.9779  0.0009  0.6833
 3970SOL    HW223547   4.356   0.512   6.666 -0.6251 -0.9024  1.3190
 3971SOL     OW23548   2.829   4.052   1.717 -0.0901  0.4513 -0.3468
 3971SOL    HW123549   2.807   4.100   1.797 -0.5091 -3.1632  1.7065
 3971SOL    HW223550   2.846   4.123   1.654  1.7841 -1.4185 -1.9708
 3972SOL     OW23551   2.300   0.425   9.329 -0.4142 -0.0723 -0.0483
 3972SOL    HW123552   2.259   0.349   9.368 -0.0263  0.1363  0.7575
 3972SOL    HW223553   2.353   0.452   9.404 -0.9371  1.3647 -0.1894
 3973SOL     OW23554   0.485   4.720  10.557  0.0293 -0.1309 -0.2107
 3973SOL    HW123555   0.498   4.631  10.523  0.2525  0.2216 -1.0717
 3973SOL    HW223556   0.494   4.714  10.652  1.9805  2.0857 -0.2525
 3974SOL     OW23557   2.368   0.289   2.266  0.2094  0.7616 -0.6265
 3974SOL    HW123558   2.305   0.237   2.315  1.1901 -0.6996 -0.9277
 3974SOL    HW223559   2.402   0.343   2.337 -0.0100 -1.4080  1.1270
 3975SOL     OW23560   0.719   1.583   2.582  0.6049  0.3212  0.8275
 3975SOL    HW123561   0.767   1.520   2.529 -0.1728  0.6156 -0.2065
 3975SOL    HW223562   0.663   1.631   2.522 -0.9102 -3.5143 -0.7785
 3976SOL     OW23563   4.333   1.477   0.060  0.3853  0.5487 -0.1367
 3976SOL    HW123564   4.287   1.545   0.109 -0.9482  0.4717 -1.2715
 3976SOL    HW223565   4.327   1.524  17.724 -0.6997  0.4501 -0.1190
 3977SOL     OW23566   0.256   0.279  16.308  0.6985 -0.2650  0.2653
 3977SOL    HW123567   0.216   0.361  16.279  2.5757 -0.0434 -1.6834
 3977SOL    HW223568   0.208   0.205  16.272 -0.7946  0.0923  1.5143
 3978SOL     OW23569   1.025   1.400   4.632 -1.1136 -0.0396  0.3051
 3978SOL    HW123570   1.049   1.490   4.611 -0.1645 -0.7017 -1.4020
 3978SOL    HW223571   0.987   1.405   4.720  0.8209 -1.7341  1.2479
 3979SOL     OW23572   4.606   1.416   3.136  0.1415  0.5010  0.2280
 3979SOL    HW123573   4.655   1.485   3.091 -0.0756  0.8540  0.5316
 3979SOL    HW223574   4.627   1.347   3.073 -3.5194 -1.2624  0.9480
 3980SOL     OW23575   3.932   4.639  14.842 -0.1168 -0.3017  0.1548
 3980SOL    HW123576   3.854   4.608  14.795  0.0043 -1.7255  0.8923
 3980SOL    HW223577   3.953   4.714  14.787  1.5312 -0.2477  0.8709
 3981SOL     OW23578   4.210   4.274  12.687  0.2188  0.0178  0.1857
 3981SOL    HW123579   4.205   4.361  12.727 -0.2156  0.3888 -0.6501
 3981SOL    HW223580   4.131   4.233  12.721  0.8299 -0.3580  1.1222
 3982SOL     OW23581   3.821   3.964   7.572 -0.2969 -0.1859  0.7221
 3982SOL    HW123582   3.777   3.906   7.510  0.8509 -0.8902  0.5700
 3982SOL    HW223583   3.782   3.929   7.653  1.3166 -0.3835  1.4141
 3983SOL     OW23584   1.141   0.665  13.878  0.3762  0.0110 -0.1543
 3983SOL    HW123585   1.074   0.712  13.828 -1.1733 -0.3429  1.6245
 3983SOL    HW223586   1.122   0.573  13.857 -1.5620 -0.3602  3.3476
 3984SOL     OW23587   3.071   2.921   5.902  0.2223 -0.1583 -0.1795
 3984SOL    HW123588   3.159   2.960   5.893  0.8982 -1.4083  1.0844
 3984SOL    HW223589   3.020   2.966   5.835  2.2927  0.8392 -1.1178
 3985SOL     OW23590   3.548   2.062   9.200 -0.1167  0.3609  0.6888
 3985SOL    HW123591   3.500   2.095   9.276  0.1535 -0.3499  1.1687
 3985SOL    HW223592   3.544   2.140   9.145 -1.0058 -1.9396 -2.5378
 3986SOL     OW23593   2.935   2.708  15.137 -0.1426  0.4098  0.2140
 3986SOL    HW123594   2.870   2.685  15.070 -1.6307 -1.8347  2.4042
 3986SOL    HW223595   3.010   2.655  15.110  0.7328  1.9033 -0.3066
 3987SOL     OW23596   3.737   3.717   3.378 -0.3098 -0.5782 -0.5877
 3987SOL    HW123597   3.822   3.688   3.343 -0.0702  2.3803 -2.4925
 3987SOL    HW223598   3.755   3.728   3.471 -0.8284 -0.5876 -0.4856
 3988SOL     OW23599   4.503   1.107   1.078  0.7190 -0.3569 -0.4211
 3988SOL    HW123600   4.441   1.175   1.105  2.0500  0.1641  1.3216
 3988SOL    HW223601   4.515   1.131   0.986  0.1006 -1.2173 -0.7293
 3989SOL     OW23602   1.281   0.516   4.375  0.0528  0.0719 -0.6927
 3989SOL    HW123603   1.295   0.578   4.303  0.1033 -1.1868 -1.7795
 3989SOL    HW223604   1.369   0.509   4.412 -0.7459 -1.9926  0.7825
 3990SOL     OW23605   0.075   0.977   4.091  0.1455 -0.0752  0.0370
 3990SOL    HW123606   4.721   1.004   4.098  0.4026  1.3981 -2.4816
 3990SOL    HW223607   0.068   0.888   4.127  1.1369 -0.9527 -1.9397
 3991SOL     OW23608   2.783   0.689   8.899 -0.1224  0.6798  0.3140
 3991SOL    HW123609   2.852   0.753   8.918  1.7958 -1.6873  1.3413
 3991SOL    HW223610   2.792   0.664   8.807  0.8638  1.4145  0.2020
 3992SOL     OW23611   1.688   4.035   0.674 -0.0806 -0.0629 -0.1652
 3992SOL    HW123612   1.620   3.970   0.657 -0.9945  0.3638  1.9093
 3992SOL    HW223613   1.634   4.108   0.642  0.6832  0.8369  0.5802
 3993SOL     OW23614   0.771   3.840   7.310  0.0416 -0.0834  0.2733
 3993SOL    HW123615   0.784   3.749   7.334 -0.3248  0.1248  1.2398
 3993SOL    HW223616   0.702   3.836   7.244  0.2808  0.4373 -0.0123
 3994SOL     OW23617   0.153   3.028  10.836 -0.4510 -0.1415  0.6454
 3994SOL    HW123618   0.169   2.946  10.883 -3.1244 -0.9214  0.2296
 3994SOL    HW223619   0.217   3.020  10.765  0.2769 -2.1158  1.5269
 3995SOL     OW23620   0.486   4.648   2.177  0.4111  0.1118 -0.5968
 3995SOL    HW123621   0.450   4.730   2.143 -0.7409 -0.4009 -0.6123
 3995SOL    HW223622   0.569   4.639   2.130  0.0677  0.4479 -1.2613
 3996SOL     OW23623   1.780   3.597   3.469  0.2585  0.3814  0.2527
 3996SOL    HW123624   1.707   3.620   3.413 -0.7051 -1.8945  0.5817
 3996SOL    HW223625   1.792   3.511   3.430 -1.4106 -0.1458  0.8878
 3997SOL     OW23626   2.991   3.847   4.390  0.2372  0.5300  0.2250
 3997SOL    HW123627   3.076   3.831   4.348  0.6087 -0.6070  1.4156
 3997SOL    HW223628   3.007   3.835   4.483 -1.9036  0.9613  0.6388
 3998SOL     OW23629   0.794   4.021   6.943  0.2302 -0.4821  0.3984
 3998SOL    HW123630   0.789   4.045   6.850  1.7981 -1.0494  0.1621
 3998SOL    HW223631   0.836   3.935   6.933 -1.1069 -1.2468  1.4612
 3999SOL     OW23632   1.945   1.648   5.777 -0.1789 -0.3491  0.0651
 3999SOL    HW123633   1.993   1.717   5.731  0.5370 -2.1376 -1.9044
 3999SOL    HW223634   1.859   1.658   5.738 -0.4642 -0.6303  0.6236
 4000SOL     OW23635   2.431   1.874   2.291 -0.2278 -0.6114  0.0618
 4000SOL    HW123636   2.474   1.824   2.222  2.3203 -0.9665  1.9169
 4000SOL    HW223637   2.404   1.950   2.240 -0.3460 -2.3430 -2.4363
 4001SOL     OW23638   4.073   3.858   3.418 -0.2523 -0.1549 -0.4809
 4001SOL    HW123639   4.125   3.778   3.430  2.0489  1.2729 -0.9566
 4001SOL    HW223640   4.066   3.856   3.322  2.5201  0.7080 -0.7008
 4002SOL     OW23641   3.119   0.462  13.156 -0.1260  0.4919  0.1463
 4002SOL    HW123642   3.122   0.372  13.190  0.4529  0.0004 -1.1887
 4002SOL    HW223643   3.175   0.507  13.220  1.8261  0.0867 -1.2618
 4003SOL     OW23644   0.095   1.046   2.886  0.1972 -0.4032 -0.2802
 4003SOL    HW123645   0.024   0.984   2.904  1.1369 -1.1026  1.0256
 4003SOL    HW223646   0.110   1.015   2.797  0.8777  2.1670 -1.0666
 4004SOL     OW23647   0.592   3.040   7.331  0.4379 -0.1973 -0.0322
 4004SOL    HW123648   0.497   3.038   7.331  0.4195  0.7814  0.0292
 4004SOL    HW223649   0.608   2.971   7.395 -0.4293  0.7982  1.2524
 4005SOL     OW23650   0.996   1.062   6.679 -0.8641 -0.6926 -0.2333
 4005SOL    HW123651   1.049   1.019   6.612 -0.6577 -1.2204  0.2721
 4005SOL    HW223652   1.018   1.016   6.760 -1.0758  1.6785  1.1644
 4006SOL     OW23653   1.055   0.880   2.389  0.1696  0.0875 -0.2661
 4006SOL    HW123654   1.121   0.942   2.419 -0.3325  1.0256 -1.0947
 4006SOL    HW223655   0.982   0.910   2.442  2.9558 -0.5779  3.9307
 4007SOL     OW23656   0.018   3.279   7.674  0.3370 -0.7915 -0.3667
 4007SOL    HW123657   0.028   3.194   7.631  0.7608 -0.5017 -0.8392
 4007SOL    HW223658   0.081   3.328   7.621 -0.8695  2.0385  0.8431
 4008SOL     OW23659   3.450   0.692   9.640  0.0377  0.0378 -0.2737
 4008SOL    HW123660   3.360   0.699   9.609 -1.5263 -3.7083  3.2927
 4008SOL    HW223661   3.426   0.678   9.732  0.1926  0.4322 -0.1727
 4009SOL     OW23662   2.323   2.121  16.078  0.1270  0.1118 -0.4019
 4009SOL    HW123663   2.315   2.056  16.009 -0.8372  0.8832 -1.0136
 4009SOL    HW223664   2.397   2.083  16.125 -0.2456 -0.0814  0.0376
 4010SOL     OW23665   3.524   1.008  15.156 -0.4050 -0.4889  0.4640
 4010SOL    HW123666   3.495   0.953  15.083  0.9157  0.9382 -1.1279
 4010SOL    HW223667   3.503   0.943  15.224  2.3786 -0.9430  0.9104
 4011SOL     OW23668   1.046   3.737   5.298  0.9703 -0.2439 -0.6964
 4011SOL    HW123669   1.069   3.659   5.348 -2.5665 -0.9415 -0.1617
 4011SOL    HW223670   1.115   3.739   5.231  1.7776  1.3611  0.1666
 4012SOL     OW23671   2.812   4.075   7.238  0.1027  0.1079  0.6144
 4012SOL    HW123672   2.837   4.157   7.194 -1.2035  0.1397 -0.0669
 4012SOL    HW223673   2.734   4.089   7.291 -1.4448  0.5326 -1.8128
 4013SOL     OW23674   4.146   0.500   0.255 -0.4384 -0.2621 -0.2658
 4013SOL    HW123675   4.163   0.495   0.161 -0.5238  0.0565 -0.2987
 4013SOL    HW223676   4.156   0.595   0.263 -1.3288 -0.1611 -0.3081
 4014SOL     OW23677   0.828   4.539  12.503  0.3016  0.5058 -0.8335
 4014SOL    HW123678   0.742   4.538  12.461  0.4172 -0.8991 -1.0140
 4014SOL    HW223679   0.829   4.623  12.549  0.4352 -1.1747  2.2106
 4015SOL     OW23680   2.514   0.103   7.804  0.2893  0.0159 -0.3422
 4015SOL    HW123681   2.522   0.024   7.750  0.1572  2.2210 -3.5562
 4015SOL    HW223682   2.469   0.071   7.882  2.5295  0.0618  0.9584
 4016SOL     OW23683   4.703   3.139   6.823  0.3916  0.1439 -0.2309
 4016SOL    HW123684   4.714   3.110   6.913  1.3307  1.4611  0.0770
 4016SOL    HW223685   0.009   3.224   6.832 -0.2865  0.3597  0.9819
 4017SOL     OW23686   0.378   2.055   3.942  0.3551  0.6266  0.1306
 4017SOL    HW123687   0.344   2.144   3.950 -2.0202 -0.0762 -2.2001
 4017SOL    HW223688   0.389   2.029   4.034  0.0135 -0.1623 -0.0525
 4018SOL     OW23689   3.854   3.203   0.633 -0.2179  0.1376  0.0063
 4018SOL    HW123690   3.826   3.143   0.703 -0.6763 -0.9160 -1.0746
 4018SOL    HW223691   3.856   3.137   0.564 -1.1751 -0.3978  0.4852
 4019SOL     OW23692   2.105   3.303   8.029  0.3608 -0.3922 -0.5989
 4019SOL    HW123693   2.036   3.328   8.091  2.2141 -0.0412  1.2981
 4019SOL    HW223694   2.115   3.384   7.980  1.7263  0.2331  0.7456
 4020SOL     OW23695   4.552   3.697   2.836  0.1114  0.2584 -0.2145
 4020SOL    HW123696   4.555   3.689   2.741 -0.4604  0.6557 -0.2622
 4020SOL    HW223697   4.538   3.608   2.870 -3.4395  0.3910 -1.3887
 4021SOL     OW23698   0.684   2.914   3.928  0.1373  0.5004 -0.2258
 4021SOL    HW123699   0.688   2.822   3.903  2.9501  0.0363  1.9818
 4021SOL    HW223700   0.688   2.965   3.847  0.1544  0.0140 -0.5303
 4022SOL     OW23701   0.661   3.827   2.358 -0.0010 -0.6927  0.2693
 4022SOL    HW123702   0.640   3.910   2.401 -0.6803  0.9236 -3.1873
 4022SOL    HW223703   0.586   3.783   2.398  0.1503 -1.4667 -0.3190
 4023SOL     OW23704   3.651   0.025   2.115  0.1185  0.1936  0.3077
 4023SOL    HW123705   3.713   0.016   2.187  2.9285 -0.8446 -2.2735
 4023SOL    HW223706   3.668   4.679   2.071 -0.6422 -0.3172  0.9690
 4024SOL     OW23707   0.889   1.263   4.281 -0.4806  0.3620 -0.2403
 4024SOL    HW123708   0.807   1.214   4.286  0.4136 -1.0170  0.8854
 4024SOL    HW223709   0.873   1.351   4.316 -0.5670  0.7130 -1.1680
 4025SOL     OW23710   2.432   2.524  16.916 -0.4317 -0.0114  0.0497
 4025SOL    HW123711   2.488   2.451  16.890 -0.9511 -0.8724  1.3986
 4025SOL    HW223712   2.500   2.579  16.954  2.1478 -1.3374 -2.6424
 4026SOL     OW23713   0.621   2.494   7.556 -0.4006 -0.2751 -0.1950
 4026SOL    HW123714   0.551   2.554   7.581  0.1936  0.1711  0.4060
 4026SOL    HW223715   0.571   2.420   7.523  1.7354 -0.5225 -2.8179
 4027SOL     OW23716   4.731   1.888   3.795  0.2515  0.1074  0.3709
 4027SOL    HW123717   4.722   1.821   3.863 -1.3596 -0.9578 -0.9014
 4027SOL    HW223718   4.678   1.855   3.722 -0.7040  1.1846  0.5879
 4028SOL     OW23719   4.318   3.335   8.737 -0.5583  0.1618  0.0050
 4028SOL    HW123720   4.284   3.251   8.767 -1.6306  0.3279 -0.7650
 4028SOL    HW223721   4.246   3.394   8.756 -0.6193 -0.1538  0.7164
 4029SOL     OW23722   3.052   2.692   2.861 -0.1003 -0.0365 -0.1579
 4029SOL    HW123723   3.144   2.674   2.879  0.2469 -0.0019 -1.9396
 4029SOL    HW223724   3.075   2.761   2.798  1.3750 -0.5188 -0.1362
 4030SOL     OW23725   0.008   2.467  17.689  0.2096  0.3669  0.1965
 4030SOL    HW123726   4.721   2.377  17.711  0.1651  0.3719  0.1670
 4030SOL    HW223727   0.100   2.473  17.715 -0.4149  0.0902  2.5007
 4031SOL     OW23728   1.195   0.134  11.413 -0.0797 -0.1620 -0.4144
 4031SOL    HW123729   1.239   0.213  11.443 -0.2736 -0.3954  0.4672
 4031SOL    HW223730   1.136   0.111  11.484  0.7455 -1.9337 -0.3110
 4032SOL     OW23731   3.921   3.384   6.471 -0.3383  0.1617 -0.0958
 4032SOL    HW123732   4.014   3.382   6.449  0.4792 -1.2043  3.4783
 4032SOL    HW223733   3.935   3.331   6.549 -3.2784 -1.5114 -0.7011
 4033SOL     OW23734   1.011   2.044   9.074 -0.1505  0.4870 -0.1205
 4033SOL    HW123735   0.998   2.042   9.169  1.5086 -2.1486  0.0581
 4033SOL    HW223736   1.033   1.953   9.053 -0.5347  0.1805  0.7892
 4034SOL     OW23737   3.072   1.808  16.446  0.0843 -0.5018 -0.1145
 4034SOL    HW123738   3.082   1.815  16.351 -0.3849  2.5359  0.0854
 4034SOL    HW223739   2.977   1.808  16.455  0.1766 -0.6572  0.8193
 4035SOL     OW23740   1.224   0.974   8.789 -0.4220 -0.0553  0.0220
 4035SOL    HW123741   1.237   0.948   8.881 -2.9807  0.3047  0.4820
 4035SOL    HW223742   1.137   1.011   8.797  0.8905  2.4904  2.5387
 4036SOL     OW23743   0.049   2.684   9.855 -0.2455  0.3181  0.5240
 4036SOL    HW123744   0.029   2.778   9.858  4.1138  1.2329  0.4943
 4036SOL    HW223745   0.145   2.683   9.858 -0.1878 -0.0956 -1.5741
 4037SOL     OW23746   3.562   1.914   4.967  0.2356 -0.3213  0.0808
 4037SOL    HW123747   3.578   1.950   4.879  1.3123  0.7341  0.7052
 4037SOL    HW223748   3.641   1.862   4.981  0.5415  0.5307  1.5127
 4038SOL     OW23749   4.282   3.125   7.620  0.3316  0.0549  0.6180
 4038SOL    HW123750   4.231   3.206   7.615  0.3334  0.0359  0.2653
 4038SOL    HW223751   4.301   3.114   7.713  0.1979 -0.7087  0.5556
 4039SOL     OW23752   3.770   4.191   3.622 -0.1971 -0.4102  0.2115
 4039SOL    HW123753   3.841   4.195   3.685 -1.0866  0.2233  1.1659
 4039SOL    HW223754   3.704   4.144   3.672 -1.3507 -1.1126 -1.9339
 4040SOL     OW23755   3.894   0.986   6.836 -0.5433 -0.2284  0.2193
 4040SOL    HW123756   3.853   1.016   6.755 -1.7104 -0.2641  0.7960
 4040SOL    HW223757   3.849   1.034   6.906 -1.3896 -0.3279 -0.2658
 4041SOL     OW23758   2.529   4.191   5.450 -0.3782 -0.0571  0.0296
 4041SOL    HW123759   2.516   4.283   5.472  0.4232 -0.0432  0.4142
 4041SOL    HW223760   2.623   4.195   5.434  0.2709  0.2802  4.0626
 4042SOL     OW23761   1.005   1.167   3.885  0.2205 -0.0651  0.1596
 4042SOL    HW123762   0.919   1.193   3.917 -0.4992 -0.7016 -1.2210
 4042SOL    HW223763   1.062   1.201   3.953 -0.7838  2.5225 -0.3160
 4043SOL     OW23764   4.096   3.812  13.401  0.2860  0.8248 -0.2726
 4043SOL    HW123765   4.036   3.833  13.329 -0.6190 -1.6736 -0.2543
 4043SOL    HW223766   4.144   3.735  13.370 -1.2446 -0.7620  1.2485
 4044SOL     OW23767   1.282   4.400   1.736  0.2932  0.1947  0.0800
 4044SOL    HW123768   1.205   4.457   1.732 -1.0411 -1.6392 -0.8597
 4044SOL    HW223769   1.353   4.455   1.705  1.2766 -1.3822 -0.4615
 4045SOL     OW23770   3.928   0.806   0.378 -0.3841  0.4919 -0.0944
 4045SOL    HW123771   3.853   0.865   0.390 -0.6929 -0.0212  0.5569
 4045SOL    HW223772   3.895   0.750   0.309 -1.0592  0.6490  0.0972
 4046SOL     OW23773   3.760   3.517   8.540 -0.0956  0.7604 -0.4682
 4046SOL    HW123774   3.721   3.592   8.495  0.4103  1.4459  0.2482
 4046SOL    HW223775   3.825   3.486   8.476 -1.1987  0.7982 -1.6058
 4047SOL     OW23776   3.782   2.806   4.158 -0.1004  0.1332 -0.5120
 4047SOL    HW123777   3.812   2.802   4.067  0.4390  0.8769 -0.3614
 4047SOL    HW223778   3.869   2.836   4.186  0.2544 -1.5631  0.1579
 4048SOL     OW23779   4.449   0.897   4.984  0.5339 -0.3917  0.1822
 4048SOL    HW123780   4.538   0.923   4.959  1.7603 -0.4880  4.4536
 4048SOL    HW223781   4.466   0.856   5.069  1.0936  0.5622  0.5287
 4049SOL     OW23782   3.831   4.374  15.646  0.0760  0.3512 -0.1555
 4049SOL    HW123783   3.849   4.445  15.708  0.1164 -1.1694  1.5779
 4049SOL    HW223784   3.742   4.348  15.670 -0.1373 -0.1169 -1.4844
 4050SOL     OW23785   3.473   2.728   5.614  0.3582  0.4059  0.1147
 4050SOL    HW123786   3.536   2.658   5.597 -1.4196 -1.5524  1.6100
 4050SOL    HW223787   3.412   2.682   5.672 -1.2058  1.6463 -0.5619
 4051SOL     OW23788   3.896   0.304   2.319 -0.2501 -0.4234  0.2521
 4051SOL    HW123789   3.907   0.211   2.339  3.1726  0.1852  1.3924
 4051SOL    HW223790   3.872   0.298   2.227  0.7469  3.1099 -0.2185
 4052SOL     OW23791   1.225   4.324   6.102 -0.4421 -0.6006 -0.6037
 4052SOL    HW123792   1.169   4.391   6.141  0.8456 -1.9197  3.5852
 4052SOL    HW223793   1.284   4.289   6.169 -0.1947  0.7565 -0.1110
 4053SOL     OW23794   2.143   2.330   8.628  0.0846 -0.0592 -0.3056
 4053SOL    HW123795   2.132   2.342   8.722 -1.8163 -1.9080 -0.2734
 4053SOL    HW223796   2.153   2.235   8.621  0.5558  0.0351 -0.8802
 4054SOL     OW23797   2.963   4.396   3.397 -0.2215 -0.5121  0.0933
 4054SOL    HW123798   3.037   4.454   3.412 -1.4755  1.0532  0.2653
 4054SOL    HW223799   2.907   4.420   3.471  1.0741  0.9131  0.6069
 4055SOL     OW23800   3.366   4.549   2.637 -0.3417  0.1066 -0.3069
 4055SOL    HW123801   3.363   4.486   2.709 -0.9588  0.2082 -0.2482
 4055SOL    HW223802   3.277   4.581   2.624 -0.5878  0.8371  3.1965
 4056SOL     OW23803   2.377   2.602  13.121 -0.1972  0.2738 -0.3263
 4056SOL    HW123804   2.294   2.574  13.084  0.9915 -1.6216 -1.5731
 4056SOL    HW223805   2.451   2.604  13.060  0.5342 -0.6171  0.5376
 4057SOL     OW23806   3.129   2.437   6.059 -0.3852 -0.7346  0.8888
 4057SOL    HW123807   3.139   2.526   6.092  2.4802 -1.2948  1.5910
 4057SOL    HW223808   3.079   2.393   6.128 -0.6073  0.5070  1.5043
 4058SOL     OW23809   2.084   1.088  16.340 -0.6696  0.3128  0.1276
 4058SOL    HW123810   2.054   1.058  16.426 -1.9838 -0.4050 -0.5745
 4058SOL    HW223811   2.176   1.094  16.366 -0.3063 -1.7871 -0.6249
 4059SOL     OW23812   1.819   0.041   6.331 -0.2027 -0.5951 -0.3458
 4059SOL    HW123813   1.858   0.101   6.268  2.9882 -0.9231  1.2829
 4059SOL    HW223814   1.730   0.072   6.317 -0.5138 -1.7188 -0.8536
 4060SOL     OW23815   4.202   1.174   6.941  0.2840 -0.0673 -0.2520
 4060SOL    HW123816   4.185   1.086   6.907 -0.1091 -0.6224  1.3910
 4060SOL    HW223817   4.126   1.199   6.994 -0.4993 -3.4038  0.2193
 4061SOL     OW23818   2.882   1.902  14.657 -0.1230  0.2455 -0.1536
 4061SOL    HW123819   2.960   1.957  14.659 -0.5313  0.8247 -0.2681
 4061SOL    HW223820   2.835   1.935  14.581 -3.1311  0.0286  1.5776
 4062SOL     OW23821   2.062   4.547   2.962  0.3081 -0.5866  0.1495
 4062SOL    HW123822   2.095   4.462   2.991  0.0309 -0.9774 -0.6656
 4062SOL    HW223823   2.001   4.558   3.035 -1.6753  2.6510 -2.0011
 4063SOL     OW23824   2.371   1.251   4.640 -0.0770 -0.4263  0.3040
 4063SOL    HW123825   2.376   1.191   4.714 -0.0568 -0.3986  0.3249
 4063SOL    HW223826   2.463   1.276   4.639 -0.5033  1.1020  0.0736
 4064SOL     OW23827   4.109   2.432   4.778 -0.3119  0.4688 -1.1030
 4064SOL    HW123828   4.167   2.491   4.730 -2.2414  0.5078 -3.4037
 4064SOL    HW223829   4.151   2.347   4.767  0.8244  0.9132 -0.2396
 4065SOL     OW23830   1.580   0.637  10.256  0.0090 -0.5270  0.0339
 4065SOL    HW123831   1.526   0.605  10.183 -0.1318  0.0955 -0.1295
 4065SOL    HW223832   1.523   0.631  10.332  0.5598 -0.4845  0.4485
 4066SOL     OW23833   3.279   0.840  12.104  0.6504 -0.4700  0.2999
 4066SOL    HW123834   3.342   0.896  12.150  0.0207  1.8222 -1.5870
 4066SOL    HW223835   3.330   0.760  12.095  1.2222 -0.1756  0.9337
 4067SOL     OW23836   3.327   4.317   8.931 -0.0197  0.6289 -0.3307
 4067SOL    HW123837   3.355   4.245   8.988  0.6823  0.0840 -1.3749
 4067SOL    HW223838   3.281   4.374   8.993 -0.4960  0.1946 -0.2873
 4068SOL     OW23839   0.036   2.261   5.421 -0.6349  0.4914 -0.1075
 4068SOL    HW123840   4.703   2.316   5.387 -2.5008 -0.9780  1.3789
 4068SOL    HW223841   0.106   2.320   5.452  0.2817  0.0422 -1.3456
 4069SOL     OW23842   0.791   2.352   0.648  0.4454 -0.3665  0.4621
 4069SOL    HW123843   0.817   2.260   0.637  0.8523 -0.3905  1.6275
 4069SOL    HW223844   0.761   2.352   0.739 -1.1411 -0.6297 -0.0718
 4070SOL     OW23845   1.406   0.417   1.344 -0.0390 -0.2036 -0.2407
 4070SOL    HW123846   1.326   0.395   1.391  0.2192  0.0633  0.3269
 4070SOL    HW223847   1.366   0.422   1.258 -0.8269  1.4707  0.2262
 4071SOL     OW23848   3.272   2.225  11.453  0.5022 -0.0726 -0.3563
 4071SOL    HW123849   3.258   2.132  11.471 -1.0046  0.1676 -0.3277
 4071SOL    HW223850   3.367   2.229  11.468  0.0393 -0.4572  2.7613
 4072SOL     OW23851   0.833   3.326   2.142  0.5428  0.1615 -0.0474
 4072SOL    HW123852   0.891   3.284   2.206  0.4818  0.3092  0.1062
 4072SOL    HW223853   0.782   3.387   2.196  0.6257  1.3837 -1.3676
 4073SOL     OW23854   0.031   4.423   7.410 -0.7493  0.3139  0.5390
 4073SOL    HW123855   0.111   4.471   7.432  0.4212 -1.1103 -0.5791
 4073SOL    HW223856   0.032   4.462   7.322 -0.0610  1.8612  1.2422
 4074SOL     OW23857   2.278   0.930   9.192 -0.2210  0.1101  0.4417
 4074SOL    HW123858   2.224   0.934   9.271 -1.4537  0.0878 -0.4168
 4074SOL    HW223859   2.238   0.854   9.149  0.4561 -1.1110  1.9356
 4075SOL     OW23860   0.460   4.708   9.515  0.2818  0.0002  0.0358
 4075SOL    HW123861   0.365   4.707   9.508  0.2970  0.7622 -0.3107
 4075SOL    HW223862   0.467   0.042   9.579  1.7389 -0.6907  0.6408
 4076SOL     OW23863   0.980   3.076  12.338 -0.4362 -0.4563  0.2504
 4076SOL    HW123864   0.986   3.031  12.254  1.4998  0.2409  0.0105
 4076SOL    HW223865   0.897   3.119  12.317  0.5653  1.5448  0.3431
 4077SOL     OW23866   2.264   1.156   2.489 -0.2229 -0.2461 -0.5831
 4077SOL    HW123867   2.253   1.248   2.514  0.2692 -0.3280 -0.0599
 4077SOL    HW223868   2.219   1.150   2.405 -0.7143  0.8169 -0.4025
 4078SOL     OW23869   1.501   3.843   6.497  0.0930 -0.2551  0.1457
 4078SOL    HW123870   1.573   3.826   6.436 -0.7605  0.1641 -0.9724
 4078SOL    HW223871   1.463   3.758   6.522 -1.4081  0.7192  1.1433
 4079SOL     OW23872   0.040   0.775   9.623  0.0126  0.1200  1.0047
 4079SOL    HW123873   0.114   0.787   9.682  0.6717  3.0522 -0.4109
 4079SOL    HW223874   0.013   0.867   9.619  0.6348  0.1789 -1.6189
 4080SOL     OW23875   2.372   0.589   3.757  0.3134 -0.5997 -0.3979
 4080SOL    HW123876   2.323   0.612   3.678  0.6457  0.2392 -0.3587
 4080SOL    HW223877   2.311   0.570   3.827 -1.7472  0.9137 -1.7709
 4081SOL     OW23878   1.072   3.879  11.086 -0.4560  0.2268  0.2521
 4081SOL    HW123879   1.165   3.898  11.069 -0.0829 -0.7134  1.2669
 4081SOL    HW223880   1.041   3.960  11.045  2.0396  1.1686  0.2083
 4082SOL     OW23881   3.184   1.963   8.039  0.3597  0.0441 -0.5226
 4082SOL    HW123882   3.127   2.040   8.040  0.3360  0.0242 -0.3309
 4082SOL    HW223883   3.265   2.009   8.062  0.8307 -2.1546  2.3033
 4083SOL     OW23884   3.740   4.235   7.441 -0.4673  0.4105  0.4818
 4083SOL    HW123885   3.774   4.148   7.463  0.8269  0.9614  0.6968
 4083SOL    HW223886   3.787   4.256   7.360 -0.8434 -0.1345  0.1245
 4084SOL     OW23887   0.021   4.330  16.193  0.4404 -0.1267  0.4891
 4084SOL    HW123888   0.020   4.373  16.278 -0.6699 -1.9236  1.3945
 4084SOL    HW223889   4.665   4.310  16.182  0.3159  0.2267  0.9201
 4085SOL     OW23890   3.004   2.111   6.124  0.5373 -0.3061 -0.1615
 4085SOL    HW123891   2.991   2.191   6.174 -1.5051 -1.0143  0.4875
 4085SOL    HW223892   2.918   2.104   6.082  1.4365  2.0086 -2.3309
 4086SOL     OW23893   4.095   0.292   8.444 -0.4130 -0.7449  0.7345
 4086SOL    HW123894   4.006   0.260   8.428 -0.7840  0.2083  0.8962
 4086SOL    HW223895   4.134   0.233   8.380 -1.1319  0.2148 -0.5932
 4087SOL     OW23896   3.976   2.603   0.249  0.2316  0.3678 -0.0322
 4087SOL    HW123897   3.918   2.676   0.272  2.2096  1.5487  1.1500
 4087SOL    HW223898   3.919   2.531   0.223  0.7469 -0.1909  0.3897
 4088SOL     OW23899   0.245   1.907   2.571  0.1180 -0.1336  0.3766
 4088SOL    HW123900   0.260   1.953   2.489  1.3382  1.5505  1.5632
 4088SOL    HW223901   0.187   1.840   2.534 -1.5283  2.5590 -1.8937
 4089SOL     OW23902   3.669   0.773   2.578 -0.0021  0.0663 -1.0035
 4089SOL    HW123903   3.755   0.799   2.545  0.8794  0.6918  1.7993
 4089SOL    HW223904   3.627   0.841   2.631  0.4962 -0.5807  0.2131
 4090SOL     OW23905   4.341   1.607  10.914  0.1774 -0.0352  0.4670
 4090SOL    HW123906   4.383   1.573  10.993 -2.3288 -2.2716  0.8463
 4090SOL    HW223907   4.399   1.675  10.879 -1.5495  0.5420 -1.3177
 4091SOL     OW23908   2.735   0.787  15.332 -0.0747  0.2376  0.3846
 4091SOL    HW123909   2.785   0.780  15.251  2.0554  0.6060  1.6628
 4091SOL    HW223910   2.714   0.695  15.344 -0.6889  0.1826 -1.0620
 4092SOL     OW23911   4.435   1.536   6.580 -0.7663 -0.0146  0.5510
 4092SOL    HW123912   4.489   1.470   6.624  1.1947 -0.1325 -2.0275
 4092SOL    HW223913   4.414   1.602   6.647  0.0798  2.0528 -1.2082
 4093SOL     OW23914   2.546   0.058   5.066 -0.1821 -0.0357 -0.0373
 4093SOL    HW123915   2.623   0.108   5.042  0.3072  0.2548  2.1061
 4093SOL    HW223916   2.582   4.732   5.128  2.1794 -0.3118 -1.7243
 4094SOL     OW23917   2.887   3.385   7.682 -0.2215  0.3676 -0.1774
 4094SOL    HW123918   2.851   3.427   7.760 -1.5245 -3.2418  1.1513
 4094SOL    HW223919   2.978   3.373   7.708 -0.3656 -1.8013 -0.6675
 4095SOL     OW23920   2.159   4.490   8.064 -0.0250  0.2843  0.2850
 4095SOL    HW123921   2.102   4.531   8.129  0.6442 -0.1850  1.1817
 4095SOL    HW223922   2.119   4.515   7.981  3.3271 -0.8342 -1.6701
 4096SOL     OW23923   0.104   1.741   5.093 -0.1266 -0.2257  0.9692
 4096SOL    HW123924   0.054   1.821   5.075 -0.2804 -0.8098 -1.1715
 4096SOL    HW223925   0.074   1.736   5.184  1.7176  1.0203  1.6422
 4097SOL     OW23926   0.553   4.010  14.954  0.0018 -0.6255  0.0631
 4097SOL    HW123927   0.571   4.044  14.866  2.6178  2.8513  1.9227
 4097SOL    HW223928   0.608   3.932  14.962  0.5047 -0.2670  0.1134
 4098SOL     OW23929   2.598   0.157  13.221  0.2116 -0.2855 -0.1338
 4098SOL    HW123930   2.615   0.196  13.307  0.4958  0.7168 -0.6453
 4098SOL    HW223931   2.505   0.178  13.208  0.1683  1.3251  2.7242
 4099SOL     OW23932   2.088   1.309   4.651  0.1141  0.1583  0.2035
 4099SOL    HW123933   2.084   1.401   4.623  1.3101 -0.0602 -0.6494
 4099SOL    HW223934   2.174   1.289   4.614 -0.4276 -0.3288 -0.7961
 4100SOL     OW23935   0.883   4.601   8.533 -0.2830 -0.3933 -0.1274
 4100SOL    HW123936   0.822   4.592   8.606 -0.7400  1.3365 -0.3017
 4100SOL    HW223937   0.937   4.524   8.550 -0.5606 -0.1154  2.0585
 4101SOL     OW23938   4.519   1.474   4.502  0.1300 -0.2347 -0.1703
 4101SOL    HW123939   4.429   1.462   4.471 -0.1939 -0.7623  0.9493
 4101SOL    HW223940   4.526   1.410   4.573  1.3118  0.7810  0.6379
 4102SOL     OW23941   4.533   0.350   5.009  0.2655  0.0249 -0.1466
 4102SOL    HW123942   4.553   0.442   4.999 -0.8249  0.3748  0.8269
 4102SOL    HW223943   4.615   0.325   5.053 -0.5271 -0.8177  0.8754
 4103SOL     OW23944   4.556   1.573  12.309 -0.6072  0.2931 -0.0898
 4103SOL    HW123945   4.561   1.650  12.365 -0.5839 -0.5381  1.0672
 4103SOL    HW223946   4.572   1.510  12.379 -3.2305  0.1357  0.3718
 4104SOL     OW23947   1.765   4.036   3.099  0.3999  0.5881  0.4717
 4104SOL    HW123948   1.800   4.080   3.022  2.5612 -0.7788  0.6758
 4104SOL    HW223949   1.736   3.950   3.066 -0.6343  1.5478 -1.1099
 4105SOL     OW23950   0.359   0.237   8.750  0.0839 -0.3965 -0.2047
 4105SOL    HW123951   0.355   0.143   8.771 -1.0405 -0.2890  0.0497
 4105SOL    HW223952   0.380   0.271   8.837  0.6477 -1.1022 -0.0646
 4106SOL     OW23953   1.127   2.494  13.487  0.5767 -0.5475 -0.1656
 4106SOL    HW123954   1.038   2.461  13.479  0.7946 -1.4331  1.0928
 4106SOL    HW223955   1.153   2.410  13.524 -1.5488  0.0747  2.6998
 4107SOL     OW23956   1.781   4.656   7.073 -0.2170 -0.2388 -0.2158
 4107SOL    HW123957   1.716   4.645   7.142  0.1127  1.5006  0.3824
 4107SOL    HW223958   1.869   4.655   7.110  0.8778 -0.3390 -2.8084
 4108SOL     OW23959   3.942   3.393   5.423 -0.2211  0.6506 -0.5355
 4108SOL    HW123960   3.995   3.317   5.446 -1.2295  0.1382  0.1015
 4108SOL    HW223961   3.983   3.456   5.483  1.0541 -0.9498  0.2773
 4109SOL     OW23962   2.185   4.251   4.427  0.1123 -0.3484 -0.1268
 4109SOL    HW123963   2.248   4.280   4.362  0.5740  1.5196  1.1616
 4109SOL    HW223964   2.191   4.316   4.497  2.6035 -0.9890  0.2880
 4110SOL     OW23965   2.634   3.098   6.948  0.0259 -0.1116  0.5572
 4110SOL    HW123966   2.729   3.104   6.947  0.0008  0.4059  1.5446
 4110SOL    HW223967   2.619   3.004   6.933  0.1904 -0.4595  2.6585
 4111SOL     OW23968   4.573   1.871   0.146 -0.4315  0.7165 -0.6321
 4111SOL    HW123969   4.479   1.886   0.136 -0.5198 -0.1773 -1.2203
 4111SOL    HW223970   4.596   1.932   0.216 -1.5081 -0.5012  0.7762
 4112SOL     OW23971   0.978   3.292  17.007  0.2838  0.1471 -0.0457
 4112SOL    HW123972   0.993   3.375  17.052  1.9124 -0.0917 -0.1439
 4112SOL    HW223973   1.064   3.251  17.001  0.2771 -0.1248  1.6858
 4113SOL     OW23974   2.731   1.994   4.251  0.1637  0.4117  0.2234
 4113SOL    HW123975   2.788   1.978   4.175  0.2755 -0.7954  0.5594
 4113SOL    HW223976   2.656   1.940   4.226  0.2967 -0.0295  0.7600
 4114SOL     OW23977   2.999   0.784   1.538 -0.2866 -0.0915 -0.5010
 4114SOL    HW123978   2.951   0.867   1.539  0.1821  0.1727 -0.1406
 4114SOL    HW223979   3.021   0.769   1.630  2.1343 -0.7716 -1.2037
 4115SOL     OW23980   4.431   0.227   7.752  0.0031 -0.4113 -0.2690
 4115SOL    HW123981   4.493   0.297   7.772 -1.0830  0.5420 -0.2230
 4115SOL    HW223982   4.441   0.196   7.662 -1.7290  1.0639 -0.9549
 4116SOL     OW23983   1.880   0.969   2.812 -0.3647 -0.3673 -0.1305
 4116SOL    HW123984   1.820   1.024   2.863 -1.3366 -0.8812 -0.7079
 4116SOL    HW223985   1.961   0.992   2.858  1.2075 -1.7741 -2.2061
 4117SOL     OW23986   1.574   3.933   6.766  0.0994  0.0075 -0.1975
 4117SOL    HW123987   1.634   3.861   6.784  1.0227  0.9421  0.4246
 4117SOL    HW223988   1.542   3.904   6.680 -0.5348  2.7665 -0.8809
 4118SOL     OW23989   1.314   0.264   9.870  0.1008 -0.3905 -0.2796
 4118SOL    HW123990   1.310   0.309   9.786 -2.0634 -0.7603 -0.3723
 4118SOL    HW223991   1.313   0.340   9.929  0.8335  1.1286 -2.2070
 4119SOL     OW23992   2.909   2.827   3.754  0.0491  0.3370 -0.9215
 4119SOL    HW123993   2.959   2.806   3.675  2.6383 -0.0771  0.7962
 4119SOL    HW223994   2.966   2.779   3.815 -2.6369 -1.1436  0.4080
 4120SOL     OW23995   1.420   0.493   7.032  0.0541 -0.2883  0.7020
 4120SOL    HW123996   1.376   0.573   7.059  0.5345 -0.4003  1.7992
 4120SOL    HW223997   1.512   0.517   7.023 -0.7924  1.4376 -3.5185
 4121SOL     OW23998   4.718   0.873  14.405  0.0506 -0.5073  0.1157
 4121SOL    HW123999   0.022   0.860  14.491  1.9962  1.0916 -0.5671
 4121SOL    HW224000   4.716   0.969  14.401 -0.2486 -0.6461 -3.1476
 4122SOL     OW24001   2.846   0.437   6.047  0.5447 -0.3481 -0.3494
 4122SOL    HW124002   2.860   0.529   6.027  0.2743 -0.0855  0.7072
 4122SOL    HW224003   2.762   0.444   6.091  1.9190  0.6899  2.1098
 4123SOL     OW24004   2.381   2.699   6.885 -0.1041  0.1485 -0.0716
 4123SOL    HW124005   2.417   2.777   6.842  0.4313  1.0270  1.9817
 4123SOL    HW224006   2.440   2.626   6.865  0.7543  1.4219 -2.2326
 4124SOL     OW24007   0.951   1.799   6.851 -0.3437  0.2765 -0.0062
 4124SOL    HW124008   0.942   1.847   6.769  4.3681 -1.3007 -1.4321
 4124SOL    HW224009   1.026   1.744   6.829 -1.8679 -2.1384  0.8503
 4125SOL     OW24010   1.054   1.066   8.013  0.0711 -0.3135  0.1748
 4125SOL    HW124011   1.043   1.147   7.964 -0.1017 -0.3888  0.0884
 4125SOL    HW224012   1.083   1.109   8.093 -0.1587  1.7500 -0.8530
 4126SOL     OW24013   3.622   3.248   3.519  0.2655  0.0810 -0.5038
 4126SOL    HW124014   3.613   3.230   3.613  3.7432  0.4852 -0.0875
 4126SOL    HW224015   3.692   3.313   3.520  0.7911 -0.4890 -0.1253
 4127SOL     OW24016   4.417   0.342   1.692 -0.1623  0.0670  0.5090
 4127SOL    HW124017   4.339   0.319   1.643  1.1474  0.6671 -1.8528
 4127SOL    HW224018   4.390   0.423   1.736  1.4353  0.3885  0.9333
 4128SOL     OW24019   4.378   0.723   3.708  0.1332 -0.3310  0.1911
 4128SOL    HW124020   4.407   0.761   3.625 -1.6099  2.1089  0.7037
 4128SOL    HW224021   4.420   0.638   3.700 -0.8625 -0.6171 -2.0203
 4129SOL     OW24022   1.502   0.593   2.937  0.5788  0.3385  0.5574
 4129SOL    HW124023   1.483   0.687   2.938 -0.2612  0.1754 -0.3211
 4129SOL    HW224024   1.511   0.576   2.843  1.9541  0.5365  0.6430
 4130SOL     OW24025   0.990   2.122  11.176  0.0680  0.3400 -0.5291
 4130SOL    HW124026   0.984   2.205  11.222  0.0286  0.0649 -0.0368
 4130SOL    HW224027   1.020   2.157  11.092 -0.1083 -1.7369 -1.4829
 4131SOL     OW24028   2.058   0.240   9.927 -0.1065  0.1452 -1.0725
 4131SOL    HW124029   1.971   0.230   9.965  0.3042  2.2443  0.4553
 4131SOL    HW224030   2.110   0.254  10.007 -0.1824  2.2982 -1.4184
 4132SOL     OW24031   0.647   0.952  16.028 -0.0693  0.2628 -0.6610
 4132SOL    HW124032   0.722   0.995  16.071  1.2979 -2.5186 -0.2152
 4132SOL    HW224033   0.626   1.009  15.954  0.6625 -0.3934 -1.3729
 4133SOL     OW24034   3.010   1.773  12.226 -0.2570  0.3673  0.5433
 4133SOL    HW124035   3.031   1.680  12.235 -0.7674  0.3218  1.2533
 4133SOL    HW224036   2.914   1.765  12.226 -0.1975 -0.3515  0.7868
 4134SOL     OW24037   0.424   2.844   3.855 -0.8433  0.8075 -0.0720
 4134SOL    HW124038   0.472   2.766   3.884 -0.8651  0.1410 -1.8128
 4134SOL    HW224039   0.491   2.907   3.880 -1.5064  1.4780 -0.0013
 4135SOL     OW24040   0.960   4.340   1.828 -0.1209  0.5752  0.3896
 4135SOL    HW124041   1.050   4.311   1.845  0.2333  2.0518  1.0141
 4135SOL    HW224042   0.972   4.428   1.792  0.4570  0.0049 -0.8404
 4136SOL     OW24043   0.985   2.427   2.436  0.5299  0.0834  0.0907
 4136SOL    HW124044   0.947   2.500   2.484 -0.1316 -0.1569 -0.0673
 4136SOL    HW224045   1.027   2.385   2.512  1.4665 -0.1019 -0.5262
 4137SOL     OW24046   3.846   1.985   6.532  0.0660 -0.4041  0.4415
 4137SOL    HW124047   3.871   1.942   6.614 -0.9816  3.0708  2.5661
 4137SOL    HW224048   3.788   2.051   6.569  0.4218  0.5440 -0.6785
 4138SOL     OW24049   3.724   2.185   6.703  0.0870 -0.0086  0.2842
 4138SOL    HW124050   3.751   2.274   6.721  0.6311 -0.4604  1.6382
 4138SOL    HW224051   3.713   2.139   6.786  1.5660 -0.0873  0.4361
 4139SOL     OW24052   2.114   1.439   3.855 -0.2922 -0.6470  0.5260
 4139SOL    HW124053   2.169   1.419   3.930  0.3145 -0.2465  0.1945
 4139SOL    HW224054   2.037   1.404   3.899  0.7947 -1.5963  1.6698
 4140SOL     OW24055   0.056   2.712   7.447  0.3569  0.3346  1.0780
 4140SOL    HW124056   0.119   2.716   7.375 -0.7860 -0.6141  0.0236
 4140SOL    HW224057   0.012   2.628   7.431  2.8494 -0.7441  0.0121
 4141SOL     OW24058   4.717   3.111   2.372  0.1422 -0.4330 -0.1406
 4141SOL    HW124059   4.639   3.059   2.352 -0.0118  0.7465 -2.5877
 4141SOL    HW224060   0.000   3.154   2.289 -0.4711 -0.4302 -0.2903
 4142SOL     OW24061   4.202   2.428   2.412  0.4261  0.2406 -0.1297
 4142SOL    HW124062   4.252   2.352   2.382 -0.4072 -0.6645  0.7823
 4142SOL    HW224063   4.174   2.472   2.332 -2.5036 -2.5259 -0.6460
 4143SOL     OW24064   3.838   4.057  11.285 -0.8887 -0.3553  0.9169
 4143SOL    HW124065   3.758   4.034  11.331 -3.2774  0.8626 -2.6770
 4143SOL    HW224066   3.882   4.131  11.328 -0.8571 -0.0616  0.3766
 4144SOL     OW24067   1.255   1.648   5.674 -0.1002  0.5024  0.5373
 4144SOL    HW124068   1.266   1.694   5.591 -2.4315  2.1480  1.1327
 4144SOL    HW224069   1.173   1.600   5.663 -1.1719  2.3151  0.7712
 4145SOL     OW24070   0.137   1.974   1.831  0.4629 -0.1372  0.3500
 4145SOL    HW124071   0.187   2.047   1.866 -0.1116 -0.2823  1.4624
 4145SOL    HW224072   0.119   2.006   1.743  0.3505 -0.1816  0.3566
 4146SOL     OW24073   0.159   1.744   1.956 -0.3813  0.2197  0.9182
 4146SOL    HW124074   0.144   1.834   1.928 -1.0768 -0.4196 -0.8195
 4146SOL    HW224075   0.201   1.715   1.874  1.5383  1.1257  1.5929
 4147SOL     OW24076   0.372   2.594   7.476 -0.3315 -0.4689 -0.2652
 4147SOL    HW124077   0.310   2.635   7.536 -1.5980 -3.9429  0.8067
 4147SOL    HW224078   0.351   2.501   7.481  0.2006 -0.5663  0.1920
 4148SOL     OW24079   2.690   4.119   4.838 -0.0788  0.0001 -0.0164
 4148SOL    HW124080   2.779   4.153   4.832 -0.4293  1.1612  1.3203
 4148SOL    HW224081   2.680   4.130   4.932  0.2603 -1.6378  0.2236
 4149SOL     OW24082   2.760   2.121   5.985  0.1069 -0.1101 -0.7718
 4149SOL    HW124083   2.709   2.193   5.947 -1.3777 -1.5459 -1.4884
 4149SOL    HW224084   2.696   2.051   5.993 -0.6555  0.6628 -0.1180
 4150SOL     OW24085   1.861   3.202   2.774 -0.1986  0.2132  0.2269
 4150SOL    HW124086   1.903   3.251   2.844  0.4393  0.8112 -0.5797
 4150SOL    HW224087   1.838   3.274   2.716  0.3020  0.0791 -0.1300
 4151SOL     OW24088   3.158   3.245   1.972  0.2363 -0.7592 -0.3985
 4151SOL    HW124089   3.099   3.229   1.898 -1.2120 -0.0658  0.6054
 4151SOL    HW224090   3.104   3.316   2.006  3.2495  0.8522  0.9231
 4152SOL     OW24091   1.979   1.712   3.859 -0.1651 -0.4692  0.5749
 4152SOL    HW124092   2.035   1.635   3.852 -1.3224 -1.2506 -0.0797
 4152SOL    HW224093   1.966   1.738   3.767  1.8662  0.3334  0.5174
 4153SOL     OW24094   4.114   2.180   5.679  0.1128 -0.2693 -0.1466
 4153SOL    HW124095   4.101   2.162   5.586 -1.3961  1.6623 -0.3281
 4153SOL    HW224096   4.197   2.134   5.691  0.0649 -0.9120 -2.2132
 4154SOL     OW24097   1.199   2.849  14.125  0.8572  0.0829 -0.2029
 4154SOL    HW124098   1.269   2.809  14.176 -0.9130 -4.4873 -1.4174
 4154SOL    HW224099   1.230   2.828  14.037  3.2290 -0.0150  0.6492
 4155SOL     OW24100   1.776   0.651  12.109 -0.1791  0.1878  0.1946
 4155SOL    HW124101   1.848   0.696  12.153 -0.6576  1.2339 -0.1040
 4155SOL    HW224102   1.714   0.723  12.101  1.9672  2.1959  1.6005
 4156SOL     OW24103   2.032   2.954   3.641  0.1624 -0.3328 -0.3655
 4156SOL    HW124104   2.094   3.015   3.680 -1.1481 -0.0998  1.4074
 4156SOL    HW224105   2.051   2.873   3.689  0.0956 -0.3919 -0.4379
 4157SOL     OW24106   3.611   3.938   4.308 -0.0809  0.0198  0.3931
 4157SOL    HW124107   3.620   4.030   4.286 -1.7178  0.5978  2.0980
 4157SOL    HW224108   3.670   3.942   4.383  0.4449  0.4641 -0.0493
 4158SOL     OW24109   1.135   1.560  15.127 -0.0197  0.4023 -0.0608
 4158SOL    HW124110   1.057   1.613  15.113  0.1755  0.3236 -1.4091
 4158SOL    HW224111   1.171   1.577  15.040 -0.1358 -1.4372 -0.4535
 4159SOL     OW24112   4.677   0.058   8.007  0.4939  0.5796 -0.9501
 4159SOL    HW124113   4.607   0.071   8.071  0.0929  0.7576 -1.4346
 4159SOL    HW224114   4.665   4.701   7.991 -1.9993  0.6329  0.6039
 4160SOL     OW24115   3.389   2.946   6.546  0.3253  0.2384  0.3862
 4160SOL    HW124116   3.477   2.982   6.539 -0.7003  2.3393 -1.5371
 4160SOL    HW224117   3.411   2.858   6.515 -0.8978 -0.0068  0.2261
 4161SOL     OW24118   1.508   2.162   2.588  0.1322 -0.0413 -0.1189
 4161SOL    HW124119   1.466   2.114   2.517 -0.4569  0.6737 -0.2559
 4161SOL    HW224120   1.444   2.142   2.656 -0.0494  0.9303 -0.0098
 4162SOL     OW24121   3.914   0.704   0.835  0.2594 -0.1055 -0.1955
 4162SOL    HW124122   3.871   0.686   0.752 -2.0558 -0.9877  1.2299
 4162SOL    HW224123   3.966   0.625   0.848 -1.4280 -0.7902  2.2629
 4163SOL     OW24124   3.052   2.854  10.524 -0.2695 -0.4797 -1.0488
 4163SOL    HW124125   3.020   2.935  10.565  3.5654  0.3999  0.2405
 4163SOL    HW224126   2.966   2.814  10.515 -0.7824  0.3075  0.3102
 4164SOL     OW24127   0.760   1.755   5.847  0.5355 -0.3221  0.3127
 4164SOL    HW124128   0.717   1.813   5.785  0.0261 -0.1910  0.7877
 4164SOL    HW224129   0.838   1.810   5.854  0.6928 -0.4659 -0.2953
 4165SOL     OW24130   0.474   1.701   2.453  0.4450 -0.1680 -0.4332
 4165SOL    HW124131   0.405   1.670   2.395  0.1679 -0.7670  0.2037
 4165SOL    HW224132   0.535   1.731   2.386 -1.2382 -1.1495 -2.3810
 4166SOL     OW24133   4.149   1.079   2.194  0.5957  0.6936  0.0312
 4166SOL    HW124134   4.054   1.067   2.204  0.7761 -0.6787  0.0682
 4166SOL    HW224135   4.169   1.167   2.226 -1.4341  0.8596  0.8699
 4167SOL     OW24136   4.428   0.187   5.625  0.1975  0.6593 -0.2692
 4167SOL    HW124137   4.365   0.174   5.554 -1.1798  0.3113  1.0174
 4167SOL    HW224138   4.516   0.170   5.591 -0.5984 -0.8302 -1.5381
 4168SOL     OW24139   2.762   3.281   8.170 -0.4282 -0.4286  0.0770
 4168SOL    HW124140   2.779   3.187   8.170 -0.9828 -0.5305  0.3770
 4168SOL    HW224141   2.787   3.308   8.259  0.5226  4.3732 -1.6151
 4169SOL     OW24142   1.138   0.249  17.448  0.5862 -0.2094 -0.4327
 4169SOL    HW124143   1.051   0.209  17.460  0.4506 -0.5153 -2.4811
 4169SOL    HW224144   1.115   0.332  17.490 -0.6243  0.3516 -2.2015
 4170SOL     OW24145   3.570   4.541   8.352  0.0708  0.0757 -0.0346
 4170SOL    HW124146   3.479   4.524   8.374 -0.6499  1.5449 -1.8677
 4170SOL    HW224147   3.612   4.457   8.370 -0.9040 -0.3823  0.1015
 4171SOL     OW24148   1.099   0.028   8.877  0.1358 -0.0603  0.8697
 4171SOL    HW124149   1.185   4.728   8.860 -0.1878 -0.8564  0.9283
 4171SOL    HW224150   1.049   4.684   8.889 -0.0411  0.1926  1.8967
 4172SOL     OW24151   4.472   4.364  10.713 -0.1336  0.5471  0.0750
 4172SOL    HW124152   4.510   4.297  10.769  0.3323 -0.2582 -1.2052
 4172SOL    HW224153   4.394   4.390  10.761 -1.3089 -0.0493 -1.5271
 4173SOL     OW24154   0.126   4.472   8.257  0.4031 -0.8288  0.0050
 4173SOL    HW124155   0.133   4.442   8.348  1.1738  0.1655  0.2669
 4173SOL    HW224156   0.196   4.418   8.220  1.3492  0.5996 -0.2804
 4174SOL     OW24157   3.066   3.566  17.115 -0.1476  0.4934  0.4781
 4174SOL    HW124158   3.084   3.634  17.050 -0.1938  0.4798  0.4513
 4174SOL    HW224159   3.061   3.494  17.051 -0.9186  1.3058 -0.3666
 4175SOL     OW24160   0.282   1.528   1.405  0.0635  0.2122  0.0970
 4175SOL    HW124161   0.189   1.540   1.386 -0.8250 -3.1792  2.4233
 4175SOL    HW224162   0.296   1.445   1.359 -2.2002 -0.5417  0.7881
 4176SOL     OW24163   4.432   2.928  11.004 -0.3312 -0.2841 -0.4135
 4176SOL    HW124164   4.421   2.933  11.099 -1.4869  1.6920 -0.6444
 4176SOL    HW224165   4.501   2.863  10.991  0.3101  0.2250  0.4544
 4177SOL     OW24166   2.419   3.453   1.597  0.5037  0.4333  0.5003
 4177SOL    HW124167   2.503   3.464   1.642 -0.2730  0.2071  1.9797
 4177SOL    HW224168   2.431   3.530   1.541  0.2063 -1.4809 -2.1945
 4178SOL     OW24169   4.694   3.978   8.125 -0.0766  0.2631  0.6490
 4178SOL    HW124170   4.652   3.894   8.111 -0.1958  0.3959  0.2316
 4178SOL    HW224171   0.049   3.958   8.109 -0.0147 -0.3160  1.7217
 4179SOL     OW24172   0.295   4.494   3.935  0.1613 -0.4631  0.0857
 4179SOL    HW124173   0.364   4.537   3.884  0.5881 -1.3944 -0.1235
 4179SOL    HW224174   0.301   4.539   4.019 -0.2962  1.8771 -1.1565
 4180SOL     OW24175   4.124   3.374   3.289  0.2707  0.1625 -0.4536
 4180SOL    HW124176   4.070   3.296   3.301 -0.6760  0.9491  0.3139
 4180SOL    HW224177   4.196   3.324   3.251 -1.8895 -2.1323 -1.5060
 4181SOL     OW24178   3.009   3.784  14.765 -0.0299  0.1064 -0.4665
 4181SOL    HW124179   3.010   3.709  14.706 -0.3090 -0.8055  0.6983
 4181SOL    HW224180   2.941   3.754  14.826 -0.6091  3.2204  0.4431
 4182SOL     OW24181   3.441   0.456  14.113 -0.2786  0.1924  0.1621
 4182SOL    HW124182   3.443   0.367  14.148 -0.5617  0.1632  0.1028
 4182SOL    HW224183   3.510   0.454  14.046 -0.8287  1.2446 -0.4433
 4183SOL     OW24184   0.015   3.345  12.093  0.0189  0.1439  0.2503
 4183SOL    HW124185   4.707   3.371  12.013 -0.0674  3.4917  1.3989
 4183SOL    HW224186   4.717   3.403  12.160 -1.1916 -1.8793  1.3758
 4184SOL     OW24187   1.680   1.301   8.444 -0.5640 -0.1681  0.7263
 4184SOL    HW124188   1.765   1.323   8.481 -0.2335  0.5830 -0.4811
 4184SOL    HW224189   1.691   1.325   8.352  0.6737 -0.5636  0.7718
 4185SOL     OW24190   2.914   4.295   6.247  0.1305  0.2723  0.1579
 4185SOL    HW124191   2.929   4.269   6.338 -1.3813  0.5106  0.4729
 4185SOL    HW224192   2.842   4.358   6.246  0.0520  0.2886  3.7853
 4186SOL     OW24193   2.065   4.315   6.770  0.8712  1.0515 -0.0112
 4186SOL    HW124194   2.084   4.351   6.684  2.1024  0.8820  0.1877
 4186SOL    HW224195   2.050   4.394   6.823 -0.8041  0.3251  0.6062
 4187SOL     OW24196   0.764   3.091   4.323 -0.7576 -0.3954 -0.1883
 4187SOL    HW124197   0.736   3.156   4.388 -0.2034  0.8669 -1.2089
 4187SOL    HW224198   0.682   3.082   4.275 -0.0592  0.8800 -1.6196
 4188SOL     OW24199   1.031   1.448   6.925  0.0760  0.3348  0.6001
 4188SOL    HW124200   1.099   1.432   6.860  1.0419  1.0539  1.4264
 4188SOL    HW224201   1.069   1.522   6.974  0.6947 -0.2291  0.9734
 4189SOL     OW24202   0.919   0.676  10.103  0.3600  0.5405 -0.2455
 4189SOL    HW124203   0.829   0.681  10.135  0.6651  0.6520  0.5872
 4189SOL    HW224204   0.917   0.603  10.041  1.0852  2.0704 -2.0623
 4190SOL     OW24205   3.574   0.265   6.006 -0.2232 -0.2602 -0.3976
 4190SOL    HW124206   3.512   0.269   6.078  0.2919 -0.0241  0.0309
 4190SOL    HW224207   3.558   0.346   5.957 -0.1096 -0.3751 -0.6300
 4191SOL     OW24208   2.597   1.601  15.307  0.0215 -0.0056 -0.2521
 4191SOL    HW124209   2.631   1.635  15.390  1.7313 -1.7112 -0.2538
 4191SOL    HW224210   2.659   1.530  15.288 -0.7975 -0.7598 -0.1085
 4192SOL     OW24211   3.978   2.429   7.739  0.6495  0.0963 -0.3311
 4192SOL    HW124212   3.950   2.337   7.742  1.4201 -0.1695 -1.7590
 4192SOL    HW224213   4.015   2.449   7.825 -0.9101  1.4845  0.0323
 4193SOL     OW24214   3.962   4.508  10.255 -0.6821 -0.3629  0.4269
 4193SOL    HW124215   3.962   4.420  10.219 -1.3265  0.0778 -0.6216
 4193SOL    HW224216   3.884   4.553  10.225  1.1624  2.0731 -0.7222
 4194SOL     OW24217   3.932   4.128  10.961  0.4564  0.3543 -0.3248
 4194SOL    HW124218   3.889   4.087  11.035 -0.9712  1.3854 -0.5949
 4194SOL    HW224219   3.872   4.200  10.941  1.7883  1.6939  0.5354
 4195SOL     OW24220   0.368   3.714   7.599  0.0733 -0.1296  0.2304
 4195SOL    HW124221   0.295   3.738   7.542  1.0056  2.8010  0.2762
 4195SOL    HW224222   0.445   3.753   7.557 -0.0393  0.0763  0.2111
 4196SOL     OW24223   0.997   1.378   7.416  0.6119 -0.3551 -0.1347
 4196SOL    HW124224   0.963   1.441   7.353  1.9195  1.2176  0.7167
 4196SOL    HW224225   1.000   1.299   7.363 -5.6507 -2.5026  2.7744
 4197SOL     OW24226   3.329   1.604   0.673  0.4184 -0.7690 -0.0144
 4197SOL    HW124227   3.387   1.678   0.693  0.8764 -0.8213 -1.1512
 4197SOL    HW224228   3.387   1.528   0.675  1.6571  0.1084 -2.2197
 4198SOL     OW24229   3.853   2.666   9.962 -0.3868 -0.0445 -0.1294
 4198SOL    HW124230   3.947   2.657   9.943 -0.2174  0.1573  0.6161
 4198SOL    HW224231   3.860   2.723  10.039  0.3943  3.3826 -2.7446
 4199SOL     OW24232   3.284   3.549  11.414 -0.6571 -0.3769  0.2047
 4199SOL    HW124233   3.353   3.615  11.422 -1.3787  0.3853  0.0809
 4199SOL    HW224234   3.204   3.600  11.418 -0.1739  0.0505  3.8531
 4200SOL     OW24235   2.783   1.779   8.734 -0.2416  0.4108  0.4906
 4200SOL    HW124236   2.809   1.693   8.767 -1.4436  0.2470  1.0058
 4200SOL    HW224237   2.845   1.788   8.661 -1.4627  1.0388 -0.4588
 4201SOL     OW24238   1.226   3.693   6.860  0.1275  0.3342 -0.2284
 4201SOL    HW124239   1.174   3.628   6.814 -1.2838  1.0433  0.3719
 4201SOL    HW224240   1.306   3.641   6.871 -0.1198  0.2002  0.9300
 4202SOL     OW24241   1.921   3.015   6.561  0.7979 -1.0461  0.1424
 4202SOL    HW124242   1.939   3.081   6.495  2.2941 -1.5538  0.0189
 4202SOL    HW224243   1.847   3.052   6.609 -0.4118 -1.3917 -1.4546
 4203SOL     OW24244   0.979   2.829   3.289 -0.0599  0.2311  0.0228
 4203SOL    HW124245   1.060   2.880   3.291  0.5328 -0.7239  0.5371
 4203SOL    HW224246   1.012   2.759   3.231  1.4403 -0.2301  1.4310
 4204SOL     OW24247   4.218   3.241   2.222  0.2300  0.0626 -0.0215
 4204SOL    HW124248   4.243   3.155   2.187  0.6186  0.4016 -0.5766
 4204SOL    HW224249   4.267   3.230   2.304  1.4867  1.7424 -0.5582
 4205SOL     OW24250   3.472   3.278   7.039  0.1672 -0.5311  0.2151
 4205SOL    HW124251   3.522   3.228   7.104  0.7348  1.1237  1.0480
 4205SOL    HW224252   3.397   3.219   7.026  1.6173 -2.0557 -1.1446
 4206SOL     OW24253   0.320   0.578   6.604 -0.2137 -0.2006  1.0335
 4206SOL    HW124254   0.245   0.520   6.620 -1.5407  1.1798 -0.1421
 4206SOL    HW224255   0.366   0.561   6.686  0.7592  0.1937  0.5605
 4207SOL     OW24256   1.623   4.594   6.104 -0.2349 -0.3009 -0.1957
 4207SOL    HW124257   1.611   4.673   6.155 -0.0139  1.3074 -2.6384
 4207SOL    HW224258   1.603   4.536   6.178 -0.0903 -0.0115  0.0675
 4208SOL     OW24259   2.215   0.993  12.420  0.1050 -0.1433 -0.1774
 4208SOL    HW124260   2.122   1.015  12.417  0.0545 -0.4255 -0.6766
 4208SOL    HW224261   2.234   0.977  12.328  2.3277  2.2990 -0.1677
 4209SOL     OW24262   2.957   1.004   3.702 -0.5599 -0.2800  0.0017
 4209SOL    HW124263   2.946   0.979   3.794  2.6414  1.6262  0.9252
 4209SOL    HW224264   2.931   0.928   3.651 -0.0483 -1.0348  0.8857
 4210SOL     OW24265   0.334   2.511   1.307 -0.0238  0.3964  0.2524
 4210SOL    HW124266   0.242   2.532   1.291 -0.5749  0.2673  3.2683
 4210SOL    HW224267   0.333   2.475   1.395 -0.2991 -0.2425 -0.0124
 4211SOL     OW24268   4.416   3.213  10.682 -0.8390 -0.1030 -0.4191
 4211SOL    HW124269   4.493   3.166  10.715  0.0261  0.4524 -1.6475
 4211SOL    HW224270   4.344   3.154  10.703 -1.2613  1.3147  2.1228
 4212SOL     OW24271   0.561   3.052   4.139 -0.4383 -0.2195  0.1893
 4212SOL    HW124272   0.522   3.128   4.096 -0.7392 -0.2836  0.3484
 4212SOL    HW224273   0.586   2.990   4.071 -2.4929 -0.3076 -0.4890
 4213SOL     OW24274   1.074   1.670  11.868 -0.0290 -0.3143 -0.3259
 4213SOL    HW124275   0.989   1.665  11.824 -0.2508 -0.6816  0.1468
 4213SOL    HW224276   1.055   1.634  11.954  1.2485 -2.4587 -0.9268
 4214SOL     OW24277   4.467   0.265  14.138 -0.1167 -0.0483 -0.6630
 4214SOL    HW124278   4.463   0.181  14.092  1.6796 -1.2288  1.3109
 4214SOL    HW224279   4.418   0.245  14.217  0.3520  0.4482 -0.2422
 4215SOL     OW24280   0.581   0.785   3.542 -0.2333 -0.2474 -0.3792
 4215SOL    HW124281   0.569   0.692   3.560  2.1801 -0.2740  1.1147
 4215SOL    HW224282   0.517   0.800   3.473  0.0843  1.2468 -0.3562
 4216SOL     OW24283   3.291   1.136  15.787  0.0931  0.1356  0.0269
 4216SOL    HW124284   3.342   1.217  15.787 -1.0276  0.8264  1.2301
 4216SOL    HW224285   3.205   1.177  15.793 -0.1895 -0.3544 -0.5281
 4217SOL     OW24286   0.600   2.427  15.838  0.6172  0.1960  0.1736
 4217SOL    HW124287   0.642   2.500  15.883 -0.1862  1.0767 -0.4965
 4217SOL    HW224288   0.576   2.376  15.915 -0.3137 -0.8111 -0.7802
 4218SOL     OW24289   0.300   1.849   2.191 -0.3075 -0.2647 -0.1323
 4218SOL    HW124290   0.265   1.762   2.208 -0.6674  0.1180  1.1206
 4218SOL    HW224291   0.266   1.860   2.102  1.2428 -0.1285 -0.6931
 4219SOL     OW24292   2.863   0.363   2.227  0.1186 -0.3736  0.0221
 4219SOL    HW124293   2.780   0.353   2.181  0.1851 -3.6464  0.6550
 4219SOL    HW224294   2.919   0.322   2.160 -1.4444 -0.9305 -0.9401
 4220SOL     OW24295   1.337   3.586   8.932 -0.0185 -0.0120  0.3319
 4220SOL    HW124296   1.268   3.582   8.998 -0.0271 -0.9904  0.2608
 4220SOL    HW224297   1.396   3.630   8.993 -0.5975  1.8087 -0.4172
 4221SOL     OW24298   2.610   2.994  12.654 -0.2091  0.1229  0.4557
 4221SOL    HW124299   2.561   2.915  12.674 -0.6133 -0.2818 -2.0798
 4221SOL    HW224300   2.578   3.068  12.706 -1.0740 -0.4119  0.6765
 4222SOL     OW24301   3.441   3.555   2.160 -0.7381  0.2415  0.8240
 4222SOL    HW124302   3.449   3.460   2.168  0.3928  0.1082 -1.9427
 4222SOL    HW224303   3.421   3.590   2.247 -1.8055  0.2033  0.5931
 4223SOL     OW24304   1.456   3.785   8.602  0.6444 -0.2352  0.0908
 4223SOL    HW124305   1.487   3.716   8.543 -0.8200 -0.5906 -0.2593
 4223SOL    HW224306   1.374   3.743   8.630  0.0088 -0.0075 -1.4729
 4224SOL     OW24307   2.371   0.577   5.623  0.3383  0.5032 -0.0358
 4224SOL    HW124308   2.401   0.541   5.706 -0.6549 -0.1421  0.0528
 4224SOL    HW224309   2.449   0.562   5.570  0.3650 -1.0841  0.4501
 4225SOL     OW24310   0.179   0.068   2.493  0.4565  0.3712  0.2970
 4225SOL    HW124311   0.124   0.092   2.567 -0.6397  0.9962 -0.7179
 4225SOL    HW224312   0.159   0.144   2.438 -0.8504 -0.6141 -0.6134
 4226SOL     OW24313   3.031   0.245   7.918 -0.0220 -0.1969  0.1653
 4226SOL    HW124314   3.096   0.273   7.983  1.1586 -1.4282 -0.4912
 4226SOL    HW224315   3.081   0.211   7.844  2.3226 -1.0946  2.1357
 4227SOL     OW24316   1.090   0.552   2.994  0.3979 -0.1055 -0.1896
 4227SOL    HW124317   1.127   0.611   3.060 -1.3723  0.8889 -0.0978
 4227SOL    HW224318   1.057   0.486   3.055  1.7961 -0.0486  0.6234
 4228SOL     OW24319   1.746   1.480   3.634  0.2500 -0.1498 -0.1592
 4228SOL    HW124320   1.815   1.418   3.656  1.7787  1.6664  0.1194
 4228SOL    HW224321   1.715   1.507   3.721 -2.8432 -0.1193 -1.2499
 4229SOL     OW24322   3.065   2.409   2.417  0.1834  0.0986  0.5209
 4229SOL    HW124323   3.134   2.348   2.392 -0.1796 -0.5044  0.9686
 4229SOL    HW224324   3.100   2.444   2.499 -0.6325 -0.9247  1.3189
 4230SOL     OW24325   4.645   1.634   6.389  0.2596 -0.5774 -0.0655
 4230SOL    HW124326   4.642   1.562   6.451  1.1067  0.0820  0.7329
 4230SOL    HW224327   4.675   1.709   6.441  1.4896 -1.2756  0.2393
 4231SOL     OW24328   4.390   2.916  12.622  0.7169  0.1918  0.2349
 4231SOL    HW124329   4.414   2.888  12.534  0.1427  0.7738 -0.1054
 4231SOL    HW224330   4.370   2.837  12.673 -0.1886  1.9963  2.6555
 4232SOL     OW24331   2.140   4.295   1.299  0.0103 -0.1721 -0.2209
 4232SOL    HW124332   2.109   4.276   1.387 -0.3777  1.7725  0.0547
 4232SOL    HW224333   2.191   4.373   1.320 -1.7010  0.4781  1.5533
 4233SOL     OW24334   4.545   1.643  11.598  0.3403  0.0842 -0.1991
 4233SOL    HW124335   4.555   1.640  11.694  1.6281  2.2142 -0.2553
 4233SOL    HW224336   4.458   1.680  11.586 -0.9612 -2.6526  0.8202
 4234SOL     OW24337   0.680   3.556   0.027 -0.2168  0.2347 -0.2572
 4234SOL    HW124338   0.643   3.587  17.691 -1.2014  0.3090  0.2125
 4234SOL    HW224339   0.719   3.640   0.049  0.3809 -0.6636  2.1401
 4235SOL     OW24340   3.236   0.786   3.699  0.3774  0.0063  0.0027
 4235SOL    HW124341   3.222   0.697   3.729 -1.4982  0.2320 -0.2322
 4235SOL    HW224342   3.151   0.804   3.660 -0.0338 -1.2797  0.3246
 4236SOL     OW24343   3.454   1.019   8.558  0.8143 -0.6101 -0.0133
 4236SOL    HW124344   3.405   1.090   8.600 -0.7953  0.0986 -3.1295
 4236SOL    HW224345   3.547   1.041   8.562 -0.0325  3.1110 -0.4978
 4237SOL     OW24346   1.720   4.538  12.564 -0.2727  0.2215 -0.3261
 4237SOL    HW124347   1.690   4.602  12.499 -1.3669  1.8033  1.7418
 4237SOL    HW224348   1.777   4.493  12.501 -1.2994 -0.2809 -0.8895
 4238SOL     OW24349   0.809   0.978  12.230 -0.6212 -0.1101  0.0417
 4238SOL    HW124350   0.809   0.908  12.295 -1.2579 -0.2570 -0.1117
 4238SOL    HW224351   0.791   1.053  12.287  0.8252 -0.6899  1.2669
 4239SOL     OW24352   0.090   0.578   5.926  0.3845  0.1130  0.0984
 4239SOL    HW124353   0.098   0.512   5.857 -1.8713 -0.7070  0.6057
 4239SOL    HW224354   0.169   0.629   5.909  2.0821 -2.5485  0.1088
 4240SOL     OW24355   0.533   2.632  16.108 -0.1468 -0.5697 -0.2068
 4240SOL    HW124356   0.500   2.556  16.061 -0.2522 -0.4012 -0.4068
 4240SOL    HW224357   0.521   2.620  16.202 -1.7712 -1.5905 -0.5485
 4241SOL     OW24358   3.439   2.734   4.589 -0.4843 -0.9362  0.2960
 4241SOL    HW124359   3.505   2.739   4.521  0.4107 -0.3854  1.2055
 4241SOL    HW224360   3.503   2.704   4.654 -0.1751  0.8747  0.8303
 4242SOL     OW24361   3.085   3.818   0.276 -0.1196  0.3084 -0.0328
 4242SOL    HW124362   3.097   3.851   0.187  1.5933  0.3518  0.2179
 4242SOL    HW224363   3.147   3.872   0.325  1.0505 -0.1872 -0.9823
 4243SOL     OW24364   4.509   2.414  15.700 -1.1411  0.5896 -0.4146
 4243SOL    HW124365   4.565   2.477  15.655  0.2311 -0.4094 -0.0902
 4243SOL    HW224366   4.439   2.407  15.635  0.8302  0.0225 -2.4857
 4244SOL     OW24367   3.644   2.123   4.172 -0.4971 -0.1245  0.5080
 4244SOL    HW124368   3.639   2.027   4.179  0.7456 -0.2039  0.1931
 4244SOL    HW224369   3.731   2.137   4.209 -0.8709 -1.0558  1.7745
 4245SOL     OW24370   2.544   0.195   3.883 -0.8394 -0.0838  0.2112
 4245SOL    HW124371   2.448   0.199   3.880 -0.9583 -0.8191  3.4026
 4245SOL    HW224372   2.566   0.281   3.846  2.2708 -1.4104 -0.9891
 4246SOL     OW24373   3.335   1.227   7.934  0.1140  0.2602 -0.1871
 4246SOL    HW124374   3.308   1.263   8.018 -0.8587  0.9290 -0.7851
 4246SOL    HW224375   3.252   1.231   7.887 -1.4552  1.3280  2.6750
 4247SOL     OW24376   4.432   2.694   6.865  0.3113  0.3392  0.2666
 4247SOL    HW124377   4.423   2.662   6.775  0.7102  1.2914 -0.1040
 4247SOL    HW224378   4.508   2.641   6.890  1.0009  2.7016  3.1024
 4248SOL     OW24379   3.521   1.836   6.011 -0.2796  0.8289  0.2564
 4248SOL    HW124380   3.472   1.915   6.032 -0.4541  0.3764  1.5682
 4248SOL    HW224381   3.546   1.869   5.925  2.4306  1.2000  1.1930
 4249SOL     OW24382   1.120   4.319   5.851 -0.1774  0.0584  0.0397
 4249SOL    HW124383   1.174   4.332   5.929 -0.7515 -1.6339  0.7094
 4249SOL    HW224384   1.163   4.383   5.795 -0.7288  0.0072 -0.4436
 4250SOL     OW24385   4.391   4.587   2.679  0.0359  0.0470  0.1312
 4250SOL    HW124386   4.358   4.668   2.639  0.7314 -0.7250 -1.9849
 4250SOL    HW224387   4.337   4.523   2.634 -0.5876  0.7312 -0.0920
 4251SOL     OW24388   3.099   0.243   9.367  0.3432 -0.0968  0.5248
 4251SOL    HW124389   3.098   0.321   9.422  0.4076  0.6160 -0.4794
 4251SOL    HW224390   3.048   0.285   9.297 -1.9011 -0.9329  1.6580
 4252SOL     OW24391   2.148   2.279   4.940  0.3497 -0.4657 -0.2984
 4252SOL    HW124392   2.236   2.278   4.903  1.3733 -0.2074  2.1911
 4252SOL    HW224393   2.163   2.249   5.029 -0.5530 -1.5652 -0.5138
 4253SOL     OW24394   4.460   1.276   4.665 -0.8269 -0.3150  0.0175
 4253SOL    HW124395   4.552   1.255   4.649 -0.4613  0.8464  0.5716
 4253SOL    HW224396   4.414   1.224   4.600  0.4708 -2.0122  0.4718
 4254SOL     OW24397   1.935   3.103   3.899 -0.1452  0.5601  0.0747
 4254SOL    HW124398   1.937   3.020   3.851 -2.2030  1.1957 -1.1097
 4254SOL    HW224399   1.854   3.082   3.944 -1.3809  2.1398 -1.3938
 4255SOL     OW24400   1.787   1.537  13.594 -0.7156  0.5898  0.2393
 4255SOL    HW124401   1.730   1.570  13.525  0.3450 -0.0528 -0.9361
 4255SOL    HW224402   1.744   1.577  13.670 -0.7515  0.2383  0.4052
 4256SOL     OW24403   3.812   0.146   6.474  0.7606 -0.3352 -0.1095
 4256SOL    HW124404   3.845   0.056   6.475  1.6361 -0.0498 -3.1090
 4256SOL    HW224405   3.897   0.190   6.467  0.6128 -0.1431 -0.7146
 4257SOL     OW24406   3.807   4.396   2.282 -0.5358 -0.1435  0.5690
 4257SOL    HW124407   3.861   4.365   2.210  0.8643  2.2532  0.5955
 4257SOL    HW224408   3.793   4.315   2.330 -0.0281 -0.1011  0.7942
 4258SOL     OW24409   3.272   2.322   2.118 -0.1196 -0.0286  0.0659
 4258SOL    HW124410   3.301   2.308   2.209  1.4144  0.0314 -0.4121
 4258SOL    HW224411   3.353   2.295   2.074  0.2954 -0.4051  1.0431
 4259SOL     OW24412   0.094   4.637   2.786 -0.2214 -0.1432 -0.3698
 4259SOL    HW124413   0.131   4.582   2.856  2.3775  1.5735 -0.4220
 4259SOL    HW224414   0.100   4.564   2.724  0.0878  2.1163 -2.9471
 4260SOL     OW24415   2.206   0.505   1.540  0.0526  0.9133 -0.7124
 4260SOL    HW124416   2.171   0.488   1.628 -1.5141  1.9099 -1.1348
 4260SOL    HW224417   2.267   0.431   1.547 -3.1701 -1.7933 -1.0592
 4261SOL     OW24418   0.347   2.187   3.082 -0.2443 -0.1855  0.4550
 4261SOL    HW124419   0.276   2.213   3.023 -0.0939  1.3043  0.9254
 4261SOL    HW224420   0.305   2.120   3.137 -0.9318 -0.5179 -0.4810
 4262SOL     OW24421   2.919   1.901  11.455 -0.4507 -0.4011 -0.2248
 4262SOL    HW124422   2.838   1.927  11.410  1.0592  0.9847 -2.1232
 4262SOL    HW224423   2.909   1.968  11.523  1.4108 -0.0062 -0.3444
 4263SOL     OW24424   0.393   1.064   5.973 -0.5335 -0.4015  0.1274
 4263SOL    HW124425   0.465   1.003   5.958 -0.2147 -0.0628  0.2464
 4263SOL    HW224426   0.449   1.127   6.020 -1.5937  0.5312  0.1442
 4264SOL     OW24427   2.656   4.212  13.947  0.5983  0.1951 -0.2463
 4264SOL    HW124428   2.647   4.272  14.020 -0.5533 -0.5613  0.2280
 4264SOL    HW224429   2.683   4.269  13.875  0.1562  1.4803  0.6116
 4265SOL     OW24430   3.064   0.873   5.323 -0.2608  0.1210  0.1308
 4265SOL    HW124431   3.089   0.905   5.410 -2.6814  0.6491  0.6339
 4265SOL    HW224432   2.979   0.916   5.310  0.5897  2.3440  1.9582
 4266SOL     OW24433   3.027   3.956   4.955  0.2325  0.3565 -0.9547
 4266SOL    HW124434   3.041   4.050   4.938  0.3097  0.2370 -1.5482
 4266SOL    HW224435   3.117   3.922   4.956 -0.1141 -0.5909 -2.3481
 4267SOL     OW24436   4.671   2.266  12.327 -0.2512  0.0415  0.2249
 4267SOL    HW124437   4.716   2.349  12.342  0.4459  0.0756 -2.0842
 4267SOL    HW224438   4.608   2.292  12.260  0.1169 -0.2594 -0.2447
 4268SOL     OW24439   3.909   3.553   9.595 -0.6717  0.6563  0.1892
 4268SOL    HW124440   3.881   3.630   9.644 -1.4891  2.1453 -2.5852
 4268SOL    HW224441   3.844   3.542   9.525  1.4626  0.1108 -1.7213
 4269SOL     OW24442   2.414   3.533   7.302 -0.4207  0.0020  0.5423
 4269SOL    HW124443   2.356   3.607   7.319 -1.0895 -0.1404 -1.0861
 4269SOL    HW224444   2.454   3.561   7.219  0.6545  0.9618  1.3852
 4270SOL     OW24445   1.438   1.363   1.540  0.0640 -0.1744  0.2155
 4270SOL    HW124446   1.469   1.274   1.557 -0.8710  0.1835  3.8946
 4270SOL    HW224447   1.363   1.367   1.600 -0.0552 -1.2814  0.1429
 4271SOL     OW24448   1.666   4.051   8.301 -0.1563 -0.4771 -0.0433
 4271SOL    HW124449   1.626   4.000   8.231 -1.6486 -0.9084  1.1315
 4271SOL    HW224450   1.597   4.054   8.368 -0.0456  0.7556  0.0306
 4272SOL     OW24451   1.263   2.422   5.962  0.1612  0.4801 -0.0940
 4272SOL    HW124452   1.288   2.495   5.906 -0.8678 -0.4183 -1.7054
 4272SOL    HW224453   1.183   2.466   5.991 -1.0326 -1.7508 -0.0768
 4273SOL     OW24454   2.022   1.316  16.169  0.4928  0.0753 -0.0796
 4273SOL    HW124455   1.958   1.290  16.103  0.7793  2.2657 -1.2101
 4273SOL    HW224456   1.997   1.247  16.231 -0.8702 -0.6088 -1.3871
 4274SOL     OW24457   2.210   1.726   2.350  0.0099 -0.0643  0.2926
 4274SOL    HW124458   2.166   1.761   2.272 -0.1005 -0.3659  0.2198
 4274SOL    HW224459   2.287   1.782   2.341 -0.6583  0.2054 -3.8697
 4275SOL     OW24460   1.856   2.427   1.890 -0.2040  0.1882 -0.3822
 4275SOL    HW124461   1.883   2.512   1.856  0.5952 -0.7377 -2.0299
 4275SOL    HW224462   1.797   2.451   1.961  1.1926 -1.7176  1.4085
 4276SOL     OW24463   3.702   3.848  12.463 -0.2217  0.5645  0.4537
 4276SOL    HW124464   3.709   3.775  12.402 -0.6574  0.6181  0.3418
 4276SOL    HW224465   3.768   3.915  12.442  0.5412  0.0909  1.3716
 4277SOL     OW24466   0.703   1.459   8.974  0.4254 -0.1706  0.2667
 4277SOL    HW124467   0.692   1.549   9.005  0.1165 -0.2068  0.2551
 4277SOL    HW224468   0.615   1.423   8.982  0.2882  0.3658  1.0677
 4278SOL     OW24469   3.410   1.526   8.782 -0.1543 -0.0274 -0.2644
 4278SOL    HW124470   3.483   1.474   8.746 -0.4799  0.1841 -1.2422
 4278SOL    HW224471   3.406   1.592   8.713 -0.2138  1.3231  1.0381
 4279SOL     OW24472   1.950   4.464  16.636  0.5391  0.0045 -0.3517
 4279SOL    HW124473   2.027   4.458  16.693 -0.6307  0.3546  1.2635
 4279SOL    HW224474   1.903   4.539  16.672  0.1439  0.3975 -1.7090
 4280SOL     OW24475   1.352   0.630   8.964 -0.5238 -0.0930 -0.2016
 4280SOL    HW124476   1.414   0.569   9.005 -1.5590 -2.4268 -2.1359
 4280SOL    HW224477   1.304   0.562   8.918  0.8519  0.0284 -1.8241
 4281SOL     OW24478   0.765   3.660   7.647  0.5048  0.7596  0.5614
 4281SOL    HW124479   0.813   3.644   7.565  1.1543  0.2860  1.0363
 4281SOL    HW224480   0.705   3.724   7.609  0.5533 -0.1215 -1.0124
 4282SOL     OW24481   4.281   0.975   3.395 -0.6155 -0.2267  0.0327
 4282SOL    HW124482   4.355   0.927   3.430 -0.3782 -1.7083 -2.4761
 4282SOL    HW224483   4.263   1.037   3.466 -1.0160 -3.1114  2.4518
 4283SOL     OW24484   1.451   2.894   1.675 -0.3433  0.3293  0.5180
 4283SOL    HW124485   1.518   2.832   1.702  0.1102  0.9743  0.8741
 4283SOL    HW224486   1.505   2.962   1.635  1.1638 -0.2914  1.5162
 4284SOL     OW24487   2.069   0.054   3.669 -0.4332 -0.4157  0.4655
 4284SOL    HW124488   2.137   0.063   3.601  0.2928  0.7503  1.3430
 4284SOL    HW224489   2.098   4.719   3.724 -0.3247  0.5653  1.6772
 4285SOL     OW24490   2.747   3.021  10.841  0.2034  0.7589 -0.1016
 4285SOL    HW124491   2.698   2.953  10.886 -2.5289  1.0446 -2.7008
 4285SOL    HW224492   2.834   2.981  10.851 -0.2716 -0.5297 -1.1910
 4286SOL     OW24493   1.873   0.296   3.341  0.1303 -0.4245 -0.6892
 4286SOL    HW124494   1.853   0.386   3.318 -0.4394 -0.9546 -2.2915
 4286SOL    HW224495   1.913   0.271   3.258  0.7528  0.5997 -0.6978
 4287SOL     OW24496   3.440   2.261  15.003 -0.0762 -0.1885  0.5794
 4287SOL    HW124497   3.499   2.280  14.930 -0.9906 -1.9335 -0.6346
 4287SOL    HW224498   3.487   2.273  15.085 -0.2933 -1.8849  0.9645
 4288SOL     OW24499   4.272   3.328  16.140  0.1831 -0.4909  0.2290
 4288SOL    HW124500   4.249   3.235  16.134 -1.2568 -0.0144 -1.3268
 4288SOL    HW224501   4.346   3.334  16.080  0.5331 -0.2178  0.6829
 4289SOL     OW24502   4.067   0.530   1.188 -0.0788 -0.2950  0.1313
 4289SOL    HW124503   4.082   0.625   1.183 -1.3235 -0.0796  0.4908
 4289SOL    HW224504   4.131   0.500   1.252  0.4504  1.5159  0.4560
 4290SOL     OW24505   0.570   2.363  14.286 -0.3738  0.5667 -0.5352
 4290SOL    HW124506   0.596   2.443  14.331  1.3780 -0.2387 -0.1233
 4290SOL    HW224507   0.497   2.350  14.346  2.2732 -1.6092  2.1946
 4291SOL     OW24508   0.251   2.226   7.658  0.0259 -0.0642 -0.1116
 4291SOL    HW124509   0.279   2.134   7.663  1.0527  0.3816  2.2491
 4291SOL    HW224510   0.245   2.239   7.753  1.0228  1.6133 -0.2747
 4292SOL     OW24511   1.174   4.720  15.721 -0.3191  0.1227  0.1573
 4292SOL    HW124512   1.165   0.055  15.659  0.2886  0.1923  0.1488
 4292SOL    HW224513   1.126   0.013  15.797 -0.4716 -0.3287  0.2421
 4293SOL     OW24514   3.652   0.177   8.456 -0.1272  0.1222 -0.0036
 4293SOL    HW124515   3.568   0.191   8.413  0.8748  0.7314 -1.7599
 4293SOL    HW224516   3.694   0.262   8.470 -0.6281  0.4654 -0.5617
 4294SOL     OW24517   1.480   1.216   6.549 -1.0402 -0.4128 -0.3154
 4294SOL    HW124518   1.471   1.311   6.546 -0.6629 -0.3663  0.0261
 4294SOL    HW224519   1.482   1.198   6.643  1.9508  0.3018 -0.2571
 4295SOL     OW24520   1.065   2.213   3.555  0.0191 -0.1379  0.4641
 4295SOL    HW124521   0.980   2.258   3.558  1.1074  2.1767 -3.0645
 4295SOL    HW224522   1.080   2.232   3.647 -1.4696 -0.9495  0.8830
 4296SOL     OW24523   2.996   3.448  16.649  0.3839 -0.2374  0.6019
 4296SOL    HW124524   3.061   3.472  16.583 -0.7002  1.3466  0.1026
 4296SOL    HW224525   3.058   3.432  16.720  0.7891  2.9805  0.9714
 4297SOL     OW24526   1.207   1.434   0.843  0.2589  0.6301 -0.5635
 4297SOL    HW124527   1.164   1.423   0.928  0.8014  0.1801 -0.3435
 4297SOL    HW224528   1.232   1.525   0.856 -0.6994  0.8705 -0.4590
 4298SOL     OW24529   1.767   3.553   8.753 -0.0474 -0.1919 -0.9134
 4298SOL    HW124530   1.678   3.525   8.735  0.3564 -0.2851 -2.8231
 4298SOL    HW224531   1.799   3.499   8.680  2.1040 -0.5338  0.2691
 4299SOL     OW24532   0.374   0.765   1.905  0.0752 -0.5223 -0.0506
 4299SOL    HW124533   0.434   0.807   1.844 -0.4777  0.9343  0.3876
 4299SOL    HW224534   0.423   0.758   1.987  1.5806  1.3778 -0.7809
 4300SOL     OW24535   0.986   2.817   7.024  0.0341 -0.3932  0.6654
 4300SOL    HW124536   0.935   2.825   7.104 -1.2054  1.6331 -0.3085
 4300SOL    HW224537   1.059   2.768   7.061  1.4789  0.7246 -0.6868
 4301SOL     OW24538   1.017   2.839   8.528  0.0727 -0.1434  0.1881
 4301SOL    HW124539   1.078   2.877   8.464  0.1069 -2.8210 -1.3568
 4301SOL    HW224540   0.990   2.920   8.572  0.0976 -1.0699  1.8984
 4302SOL     OW24541   3.451   4.156  11.883 -0.0924 -0.1290  0.0414
 4302SOL    HW124542   3.481   4.246  11.871 -0.7639 -0.0910 -1.3279
 4302SOL    HW224543   3.358   4.172  11.870 -0.2075  1.2676  2.8346
 4303SOL     OW24544   3.478   2.678   4.975  0.0111  0.7136  0.5233
 4303SOL    HW124545   3.509   2.768   4.965  0.4288  0.4863 -0.2803
 4303SOL    HW224546   3.512   2.648   4.890  0.7977  0.5757  0.8816
 4304SOL     OW24547   0.374   0.302   1.144  0.5825  0.7173 -0.4732
 4304SOL    HW124548   0.438   0.246   1.187  0.8316  1.8808  0.6838
 4304SOL    HW224549   0.411   0.389   1.159  2.3860  0.1682 -1.8972
 4305SOL     OW24550   1.511   0.579   5.257  0.3448 -0.4574 -0.4927
 4305SOL    HW124551   1.491   0.502   5.309 -1.2415  0.1136 -0.2530
 4305SOL    HW224552   1.542   0.638   5.326  1.5538 -1.0007 -0.5752
 4306SOL     OW24553   0.824   0.170  16.691  0.2664 -0.4301  0.2381
 4306SOL    HW124554   0.771   0.248  16.676  1.4943  0.7436  1.8666
 4306SOL    HW224555   0.903   0.200  16.644  0.3847  0.4610  1.0052
 4307SOL     OW24556   0.993   1.558   5.136 -0.1853  0.5206 -0.0364
 4307SOL    HW124557   1.086   1.579   5.146 -0.3005  0.4222  1.2729
 4307SOL    HW224558   0.974   1.526   5.224 -0.3671  0.1585 -0.2061
 4308SOL     OW24559   1.640   0.020   1.568 -0.1328  0.7947  0.1738
 4308SOL    HW124560   1.681   0.074   1.635 -1.0898  1.2345  0.4095
 4308SOL    HW224561   1.703   4.692   1.538 -3.7121 -2.2032 -0.9315
 4309SOL     OW24562   2.869   1.319  10.111  0.3595 -0.2805  0.6263
 4309SOL    HW124563   2.856   1.231  10.077  3.8793 -1.0575  1.2695
 4309SOL    HW224564   2.815   1.311  10.190  0.6317  2.4603  1.1018
 4310SOL     OW24565   0.803   2.946   5.024 -0.1035  0.1758  0.3409
 4310SOL    HW124566   0.834   2.857   5.007  2.7622  0.8883  1.8724
 4310SOL    HW224567   0.733   2.926   5.086 -0.9439  3.0878  0.3004
 4311SOL     OW24568   1.452   4.152   6.042  0.1911 -0.1919 -0.7255
 4311SOL    HW124569   1.450   4.088   5.971  1.0924 -0.3643 -0.5983
 4311SOL    HW224570   1.427   4.232   5.995  1.0538  1.0222  0.8851
 4312SOL     OW24571   2.387   2.518   0.769  0.1813 -0.0276 -0.5242
 4312SOL    HW124572   2.441   2.441   0.788  0.6592  0.1224 -1.2971
 4312SOL    HW224573   2.307   2.492   0.814  1.3138 -2.1313  0.2973
 4313SOL     OW24574   4.519   2.685   4.300 -0.9034 -0.0397  0.2516
 4313SOL    HW124575   4.541   2.742   4.374 -1.5444 -1.3386  1.4360
 4313SOL    HW224576   4.569   2.728   4.231  1.5531  0.0651  2.1028
 4314SOL     OW24577   2.702   1.467  15.842 -0.5259  0.4688 -0.0229
 4314SOL    HW124578   2.701   1.398  15.776 -0.1372  0.2348  0.2156
 4314SOL    HW224579   2.661   1.424  15.917  1.5912 -0.3700  0.6638
 4315SOL     OW24580   3.646   3.968   4.581  0.3352  0.2117 -0.2451
 4315SOL    HW124581   3.657   3.923   4.665 -0.1340 -3.5571 -2.2587
 4315SOL    HW224582   3.560   3.933   4.559  0.1211  1.9500 -2.2011
 4316SOL     OW24583   2.142   1.219   7.631  0.5745 -0.4343 -0.0865
 4316SOL    HW124584   2.188   1.244   7.551 -1.1181  0.4398 -0.8032
 4316SOL    HW224585   2.198   1.251   7.702  1.1507 -0.8198 -0.3684
 4317SOL     OW24586   0.561   1.936   9.048  0.2161  0.4955  0.5282
 4317SOL    HW124587   0.633   1.973   8.997 -0.4580  2.1062  0.7595
 4317SOL    HW224588   0.494   2.001   9.031 -1.7461 -2.4788 -3.2049
 4318SOL     OW24589   2.430   0.379   2.005  0.0080  0.5803 -0.6532
 4318SOL    HW124590   2.378   0.337   2.074 -0.5647 -0.6700 -1.8496
 4318SOL    HW224591   2.520   0.374   2.038 -0.2916  0.3377  0.1178
 4319SOL     OW24592   2.253   3.755  16.177  0.1204  0.1890 -0.2397
 4319SOL    HW124593   2.243   3.706  16.258  2.5345  0.8032  0.4257
 4319SOL    HW224594   2.339   3.726  16.146 -0.1985  0.8333 -1.7154
 4320SOL     OW24595   0.080   4.381   2.738  0.5485 -0.0757 -0.5806
 4320SOL    HW124596   0.142   4.325   2.692 -0.7007 -2.1713  0.3186
 4320SOL    HW224597   0.112   4.387   2.828  1.1753 -1.4680 -0.7272
 4321SOL     OW24598   2.902   3.058   5.084  0.0379 -0.6169 -0.0067
 4321SOL    HW124599   2.993   3.088   5.085 -0.7641  1.8232  0.4578
 4321SOL    HW224600   2.881   3.059   4.991 -1.9962 -1.8855  0.4281
 4322SOL     OW24601   2.865   1.589   4.441  0.1186  0.1426 -0.1615
 4322SOL    HW124602   2.947   1.624   4.406 -0.7677  1.5870 -0.8033
 4322SOL    HW224603   2.829   1.528   4.377  0.3995 -1.7838  1.5080
 4323SOL     OW24604   1.873   3.374  15.634 -0.1741  0.5838  0.4755
 4323SOL    HW124605   1.830   3.449  15.593 -1.1428 -0.3148 -0.1296
 4323SOL    HW224606   1.805   3.311  15.609  2.7720 -2.8391  1.0441
 4324SOL     OW24607   3.454   0.970   6.448  0.1083  0.5063 -0.6032
 4324SOL    HW124608   3.383   1.018   6.490 -1.1782  1.5393 -3.9125
 4324SOL    HW224609   3.512   0.946   6.520  2.4769  1.5180 -2.1972
 4325SOL     OW24610   0.209   2.759  13.180 -0.0580  0.1684 -0.2089
 4325SOL    HW124611   0.264   2.748  13.257  0.9835 -0.3988 -1.0408
 4325SOL    HW224612   0.181   2.850  13.190 -0.1984  0.2667 -1.5172
 4326SOL     OW24613   1.925   0.372   4.573 -0.2908  0.2676  0.3367
 4326SOL    HW124614   1.965   0.432   4.511  0.2359 -0.8207 -0.3680
 4326SOL    HW224615   1.853   0.419   4.615 -0.8410 -0.8684  0.6856
 4327SOL     OW24616   0.614   4.661   8.992  0.4490  0.0769  0.3212
 4327SOL    HW124617   0.603   4.598   9.063 -1.1681  0.6584  0.5835
 4327SOL    HW224618   0.576   0.002   9.033  1.1607  0.7281 -0.2671
 4328SOL     OW24619   1.209   0.805   5.616 -0.0289 -0.7453  0.4586
 4328SOL    HW124620   1.175   0.851   5.693 -1.1174  0.5167 -0.7723
 4328SOL    HW224621   1.130   0.810   5.561  0.0365 -1.7831  0.2807
 4329SOL     OW24622   3.674   1.666  12.275  0.2170  0.1359 -0.4434
 4329SOL    HW124623   3.759   1.710  12.266 -0.8264  2.8260  2.7190
 4329SOL    HW224624   3.695   1.591  12.220 -1.9781 -1.2660  0.6363
 4330SOL     OW24625   0.228   1.680   6.615 -0.5854 -0.0639 -0.0550
 4330SOL    HW124626   0.143   1.636   6.629 -0.7397 -0.2262 -1.4875
 4330SOL    HW224627   0.287   1.612   6.648 -3.9598 -3.5670 -1.2231
 4331SOL     OW24628   3.070   4.447   9.333 -0.4836  0.0396  0.3000
 4331SOL    HW124629   2.992   4.404   9.369 -0.6160 -0.5631 -0.7084
 4331SOL    HW224630   3.044   4.539   9.341 -2.0913 -0.1948 -2.5129
 4332SOL     OW24631   1.256   4.474  14.746 -0.5335  0.1867 -0.1860
 4332SOL    HW124632   1.336   4.462  14.797 -2.2031 -1.3914  2.0659
 4332SOL    HW224633   1.291   4.499  14.661 -1.8906  0.4996 -0.6453
 4333SOL     OW24634   3.351   3.987   2.533  0.1983  0.5451 -0.3846
 4333SOL    HW124635   3.386   4.070   2.500 -0.7813  0.5611 -1.4224
 4333SOL    HW224636   3.428   3.932   2.524 -0.4528 -0.5531  0.8768
 4334SOL     OW24637   0.596   3.614   7.946 -0.8399  0.6577 -0.0014
 4334SOL    HW124638   0.657   3.583   7.879 -1.7694 -0.1180 -0.4805
 4334SOL    HW224639   0.626   3.701   7.973 -3.0410  1.3800  0.0830
 4335SOL     OW24640   0.586   3.646   6.877  0.4201 -0.0407 -0.1263
 4335SOL    HW124641   0.620   3.707   6.811  1.3751  1.7805  2.0518
 4335SOL    HW224642   0.493   3.638   6.857  0.4674 -1.7770  0.2948
 4336SOL     OW24643   2.849   2.092   5.650  0.8646 -0.7519 -0.4925
 4336SOL    HW124644   2.839   1.999   5.628 -0.9048  0.0474 -3.1417
 4336SOL    HW224645   2.766   2.101   5.696  0.3587 -1.7519 -1.2255
 4337SOL     OW24646   4.009   1.250   3.057 -0.2858 -0.6735 -0.3542
 4337SOL    HW124647   4.104   1.250   3.065 -0.3521 -0.2283  0.3762
 4337SOL    HW224648   3.992   1.156   3.044  1.0230 -1.0652  0.7758
 4338SOL     OW24649   2.256   0.460   3.969 -0.1320 -0.5750  0.7527
 4338SOL    HW124650   2.248   0.449   4.063 -0.2534  0.0761  0.8177
 4338SOL    HW224651   2.178   0.513   3.954  0.2746 -0.0228  0.6094
 4339SOL     OW24652   0.904   1.528  16.357  0.0225  0.4198 -0.4666
 4339SOL    HW124653   0.955   1.553  16.435 -0.0056 -0.3778 -0.2002
 4339SOL    HW224654   0.893   1.610  16.309 -0.5210 -0.2015 -1.3976
 4340SOL     OW24655   3.827   0.448  14.848 -0.0958  0.0758  0.2949
 4340SOL    HW124656   3.766   0.436  14.921 -0.4288 -0.7994 -0.1237
 4340SOL    HW224657   3.885   0.517  14.879  1.6534 -0.2197 -2.3377
 4341SOL     OW24658   0.388   0.139   5.172  0.6898 -0.8557  0.1746
 4341SOL    HW124659   0.363   0.083   5.245 -2.2862 -0.0496 -0.2641
 4341SOL    HW224660   0.312   0.121   5.116 -0.2794  0.8747  0.9384
 4342SOL     OW24661   3.132   4.407   4.002  0.3914 -0.4708 -0.0200
 4342SOL    HW124662   3.041   4.421   3.977 -0.1194 -0.3128  1.9717
 4342SOL    HW224663   3.122   4.329   4.056  2.2618 -0.7779 -0.1212
 4343SOL     OW24664   3.476   0.702   8.315  0.0972 -0.7343  0.2449
 4343SOL    HW124665   3.456   0.721   8.224  1.5555  4.6296  1.0679
 4343SOL    HW224666   3.572   0.705   8.311  0.1494  0.1335  1.8939
 4344SOL     OW24667   2.668   0.587   2.495  0.1681 -0.8749 -0.3236
 4344SOL    HW124668   2.590   0.631   2.463 -0.2002 -0.3536  1.3387
 4344SOL    HW224669   2.682   0.623   2.582 -0.1928  1.9918 -1.4580
 4345SOL     OW24670   0.596   2.942   6.332  0.0174  0.9373  0.0493
 4345SOL    HW124671   0.633   2.912   6.415  0.0958  0.1812 -0.2663
 4345SOL    HW224672   0.617   2.873   6.270  2.4810  0.4262  1.4527
 4346SOL     OW24673   2.129   4.681   5.094 -0.2128 -0.1750  0.4204
 4346SOL    HW124674   2.038   4.689   5.124 -0.4165 -0.9433  0.0240
 4346SOL    HW224675   2.162   0.026   5.129 -0.8254  0.0629  0.4439
 4347SOL     OW24676   1.165   2.825   5.367 -0.7098 -0.5856 -0.8670
 4347SOL    HW124677   1.214   2.874   5.434 -0.3930 -0.9662 -0.8128
 4347SOL    HW224678   1.077   2.830   5.403 -0.1947 -2.9147  0.7884
 4348SOL     OW24679   2.823   3.450   3.100  0.5090  0.1464  0.4566
 4348SOL    HW124680   2.829   3.458   3.196  3.6448 -2.1101  0.4212
 4348SOL    HW224681   2.872   3.527   3.073 -0.8934  1.1881  0.8318
 4349SOL     OW24682   3.757   0.973   5.056 -0.1337 -0.4604  0.4884
 4349SOL    HW124683   3.704   0.906   5.012  0.7319 -0.1992 -0.9738
 4349SOL    HW224684   3.689   1.026   5.098 -0.7784 -2.0005  1.3958
 4350SOL     OW24685   0.374   3.713  16.901  0.1125 -0.4158 -0.1004
 4350SOL    HW124686   0.394   3.769  16.825  0.3036  0.3576  0.5252
 4350SOL    HW224687   0.366   3.632  16.850 -1.2345  1.1940 -2.4500
 4351SOL     OW24688   4.478   2.960   6.891  0.8174  0.0737 -0.1296
 4351SOL    HW124689   4.488   2.865   6.886  0.9275  0.1700 -1.5663
 4351SOL    HW224690   4.567   2.987   6.914  0.6215 -0.2335  0.9873
 4352SOL     OW24691   0.902   1.954   8.750 -0.3986 -0.3045  0.0493
 4352SOL    HW124692   0.885   1.888   8.817  0.2412 -1.1084 -0.5739
 4352SOL    HW224693   0.987   1.926   8.715  0.0151 -0.1396  0.9055
 4353SOL     OW24694   3.513   1.686   0.391 -0.6369  0.0329  0.6874
 4353SOL    HW124695   3.604   1.694   0.420 -0.3428  1.8610 -0.6951
 4353SOL    HW224696   3.474   1.753   0.448  1.1557  1.6600  0.0259
 4354SOL     OW24697   0.959   4.167   6.445 -0.6836  0.4080  0.5885
 4354SOL    HW124698   0.982   4.166   6.538  0.7894 -2.6845  0.1948
 4354SOL    HW224699   1.047   4.176   6.409 -0.0065 -2.0034  1.6442
 4355SOL     OW24700   4.198   2.491   6.439 -0.4353  0.3831 -0.3046
 4355SOL    HW124701   4.168   2.557   6.501 -0.4045  1.8971 -1.8926
 4355SOL    HW224702   4.122   2.433   6.439  1.6204 -2.2828 -1.1196
 4356SOL     OW24703   3.609   3.074   7.178  0.2479  0.4706  0.1697
 4356SOL    HW124704   3.690   3.119   7.201  0.5108  0.7075 -1.2402
 4356SOL    HW224705   3.638   2.983   7.168  0.8571  0.6699  0.1296
 4357SOL     OW24706   0.743   1.721  12.205  0.0796 -0.1350  0.4357
 4357SOL    HW124707   0.792   1.793  12.245 -0.2669  0.5688 -0.4191
 4357SOL    HW224708   0.676   1.712  12.273 -1.4028  0.6651 -0.9215
 4358SOL     OW24709   4.437   3.835  16.352 -0.1227 -0.1687 -0.1499
 4358SOL    HW124710   4.353   3.880  16.349  0.4836  0.8343 -1.7674
 4358SOL    HW224711   4.407   3.756  16.397  1.0400 -0.9357 -0.7098
 4359SOL     OW24712   3.851   1.966   5.266  0.5651  0.7241  0.5761
 4359SOL    HW124713   3.839   1.933   5.177 -0.9028 -1.2043  1.5060
 4359SOL    HW224714   3.897   2.050   5.257 -1.9290  1.6749 -3.5742
 4360SOL     OW24715   2.713   2.668   4.766  0.7553 -0.0884 -0.3213
 4360SOL    HW124716   2.639   2.608   4.769 -0.8797  1.9176 -0.2856
 4360SOL    HW224717   2.749   2.655   4.854  2.7787 -1.8437 -1.4244
 4361SOL     OW24718   2.219   0.039   3.011  0.0962  0.7247 -0.0799
 4361SOL    HW124719   2.187   4.687   2.999  2.9831 -0.0432 -1.9775
 4361SOL    HW224720   2.296   0.022   3.065 -0.3850 -0.2432  0.3098
 4362SOL     OW24721   2.553   4.676  12.940 -0.0100  0.2070  0.2043
 4362SOL    HW124722   2.542   4.720  12.855 -0.7220  1.2873  0.8576
 4362SOL    HW224723   2.573   0.009  13.003 -2.0030  1.1619 -0.2303
 4363SOL     OW24724   0.728   4.221   7.937  0.5522  0.1671 -0.0083
 4363SOL    HW124725   0.822   4.203   7.935  0.0360 -2.5654 -0.5789
 4363SOL    HW224726   0.717   4.243   7.844 -2.1624 -0.7187  0.0967
 4364SOL     OW24727   2.174   2.625  17.310  0.5771  0.7176  0.2118
 4364SOL    HW124728   2.117   2.695  17.341  1.1205  0.3559  2.0316
 4364SOL    HW224729   2.111   2.573  17.261 -0.5587  0.9314  1.4572
 4365SOL     OW24730   0.343   2.648   8.081  0.5441 -0.2796  0.1766
 4365SOL    HW124731   0.437   2.660   8.067  0.1669  2.0985 -0.3127
 4365SOL    HW224732   0.347   2.575   8.143 -2.4074 -0.5745  0.0108
 4366SOL     OW24733   0.532   3.986   6.447  0.4288 -0.1290 -0.0210
 4366SOL    HW124734   0.595   3.914   6.439 -0.9686 -1.2931 -0.4911
 4366SOL    HW224735   0.585   4.052   6.403  0.3443  0.7539  1.1856
 4367SOL     OW24736   3.361   3.064  12.868 -0.9225 -0.6332  0.6849
 4367SOL    HW124737   3.348   3.104  12.782  1.1867 -0.9470  0.2132
 4367SOL    HW224738   3.275   3.025  12.880  0.0069 -2.2174  2.2954
 4368SOL     OW24739   1.637   0.167   6.577 -0.3060 -0.0904  0.0170
 4368SOL    HW124740   1.697   0.143   6.648 -0.5394 -0.4508  0.0956
 4368SOL    HW224741   1.618   0.260   6.589 -2.1629 -0.2733 -1.5925
 4369SOL     OW24742   4.301   1.726   6.727  0.6978 -0.3302  0.6460
 4369SOL    HW124743   4.254   1.693   6.804 -0.9830  0.3540 -0.0927
 4369SOL    HW224744   4.230   1.780   6.694 -0.1166 -2.3590 -0.8862
 4370SOL     OW24745   1.261   3.326   7.453  0.0292  0.1813 -0.1099
 4370SOL    HW124746   1.356   3.320   7.442  0.1784  3.1023 -0.4410
 4370SOL    HW224747   1.243   3.400   7.511  0.5931  0.7053 -0.5991
 4371SOL     OW24748   0.063   2.391   1.010 -0.3025  0.8284  0.7486
 4371SOL    HW124749   0.097   2.411   1.097  2.5408  0.6361 -0.2908
 4371SOL    HW224750   0.072   2.296   1.000 -0.7949  0.6484  2.0664
 4372SOL     OW24751   1.243   4.187  14.744 -0.1645 -0.2439  0.4061
 4372SOL    HW124752   1.219   4.279  14.750 -1.8590 -0.7844  1.9614
 4372SOL    HW224753   1.216   4.175  14.653  2.5306 -1.4557 -0.2348
 4373SOL     OW24754   0.855   0.552  11.019 -0.1879 -0.2935  0.2223
 4373SOL    HW124755   0.945   0.579  11.034  0.1287  0.3184 -2.8237
 4373SOL    HW224756   0.866   0.459  11.041  2.6935  0.4203  1.7422
 4374SOL     OW24757   2.631   4.353   4.161 -0.7189 -0.0029  0.1655
 4374SOL    HW124758   2.615   4.374   4.253 -0.8885 -0.3251  0.2078
 4374SOL    HW224759   2.586   4.427   4.120 -0.9153  0.3992  1.1268
 4375SOL     OW24760   4.707   3.879   3.001  0.0656 -0.8546  0.3711
 4375SOL    HW124761   0.026   3.802   3.003 -0.8198 -1.4462  1.7319
 4375SOL    HW224762   4.644   3.851   2.935  1.2358  1.5392 -1.7797
 4376SOL     OW24763   1.339   1.593   0.296  0.1460  0.2890 -0.1802
 4376SOL    HW124764   1.303   1.594   0.385  0.2989  0.1076 -0.1174
 4376SOL    HW224765   1.314   1.681   0.267  0.3316 -0.0215 -1.2605
 4377SOL     OW24766   2.124   3.408   2.787 -0.4095  0.0126 -0.1497
 4377SOL    HW124767   2.181   3.482   2.808 -1.6411  0.4570  1.6432
 4377SOL    HW224768   2.156   3.336   2.840  1.0732 -0.0371 -1.1092
 4378SOL     OW24769   1.004   2.547   6.009 -0.1290 -0.2603  0.2470
 4378SOL    HW124770   0.991   2.613   6.077 -0.2887 -0.3519  0.3062
 4378SOL    HW224771   0.920   2.503   5.992  0.3321 -1.2699  0.5877
 4379SOL     OW24772   2.113   3.327   3.403  0.1576  0.1248 -0.0770
 4379SOL    HW124773   2.071   3.322   3.489 -2.1475 -0.4454 -1.2430
 4379SOL    HW224774   2.087   3.239   3.375 -0.5341 -0.2939  1.8898
 4380SOL     OW24775   2.750   1.835   3.528  0.2741  0.1774 -0.1798
 4380SOL    HW124776   2.763   1.740   3.524  0.0874  0.0868  1.2358
 4380SOL    HW224777   2.715   1.847   3.440  1.1205 -0.2405 -0.5780
 4381SOL     OW24778   2.736   0.504   3.039 -0.2684  0.5483 -0.3550
 4381SOL    HW124779   2.796   0.577   3.019 -0.4052  0.7415 -0.0695
 4381SOL    HW224780   2.757   0.481   3.130  1.6140  2.6249 -0.2524
 4382SOL     OW24781   1.528   2.813   3.100  0.2688  0.6479  0.3168
 4382SOL    HW124782   1.578   2.815   3.018  0.5756 -0.4702  0.4806
 4382SOL    HW224783   1.595   2.773   3.154  0.4727 -0.4287 -0.7408
 4383SOL     OW24784   1.795   4.459   9.451  0.4759 -1.1603 -0.2068
 4383SOL    HW124785   1.738   4.440   9.376  0.5800  0.2769 -0.6362
 4383SOL    HW224786   1.727   4.455   9.519  0.4552 -0.9965 -0.2184
 4384SOL     OW24787   2.987   0.412   1.498 -0.3036 -0.7014 -0.5747
 4384SOL    HW124788   2.943   0.369   1.425 -0.3335 -1.5373 -0.0756
 4384SOL    HW224789   2.912   0.429   1.555 -0.1309 -1.2752 -0.1649
 4385SOL     OW24790   3.700   2.766   7.535 -0.3466 -0.3737 -0.1031
 4385SOL    HW124791   3.787   2.731   7.556  0.8472  1.5757 -1.8649
 4385SOL    HW224792   3.672   2.712   7.462  0.4393 -0.5094 -0.3051
 4386SOL     OW24793   1.520   3.482   3.683  0.2633  0.5408  0.1135
 4386SOL    HW124794   1.502   3.474   3.589  1.6950 -0.4259 -0.0853
 4386SOL    HW224795   1.589   3.546   3.703  0.0484  0.0403  2.4768
 4387SOL     OW24796   2.221   1.356   2.075  0.6268  0.4320  0.2973
 4387SOL    HW124797   2.232   1.390   2.164 -1.7895  0.3267  0.6445
 4387SOL    HW224798   2.296   1.298   2.065 -0.2226 -1.2271  3.3583
 4388SOL     OW24799   3.378   2.632  12.358 -0.0207  0.0659 -0.2112
 4388SOL    HW124800   3.432   2.614  12.281 -2.0951  0.2413 -1.7131
 4388SOL    HW224801   3.307   2.570  12.342  0.1515 -0.2575  0.2943
 4389SOL     OW24802   4.016   1.802   6.076  0.4480 -0.2184  0.1635
 4389SOL    HW124803   4.043   1.720   6.116  0.6950 -0.8800 -1.3646
 4389SOL    HW224804   3.964   1.842   6.146 -3.2081 -1.3998 -1.8662
 4390SOL     OW24805   4.030   3.565   7.083  0.1483  0.3839  0.0132
 4390SOL    HW124806   4.091   3.498   7.051  1.5859  2.1226 -0.9125
 4390SOL    HW224807   3.955   3.541   7.029  2.4745 -1.2196 -2.4960
 4391SOL     OW24808   3.304   4.692   0.498 -0.3973 -0.8544 -0.2212
 4391SOL    HW124809   3.269   4.611   0.533 -0.8818 -2.0240 -3.4010
 4391SOL    HW224810   3.226   0.008   0.514  0.0370  0.1089 -1.2481
 4392SOL     OW24811   4.068   0.577   8.521 -0.1733  0.2856  0.2417
 4392SOL    HW124812   4.136   0.640   8.500 -0.5243  0.9843  1.1939
 4392SOL    HW224813   4.102   0.490   8.500  1.6795  1.1837 -0.5019
 4393SOL     OW24814   2.562   1.507   1.410  0.4614 -0.5766  0.1170
 4393SOL    HW124815   2.625   1.436   1.403  1.3212  0.1144  0.7821
 4393SOL    HW224816   2.478   1.465   1.393  1.0350 -2.1402  1.1806
 4394SOL     OW24817   2.270   4.600  10.216 -0.2721 -0.0593 -0.1448
 4394SOL    HW124818   2.291   4.635  10.303  0.6124  1.2443 -0.8755
 4394SOL    HW224819   2.326   4.656  10.161  0.1398  0.3223  0.6549
 4395SOL     OW24820   0.517   0.034  15.093 -0.5773 -0.3925 -0.1525
 4395SOL    HW124821   0.517   0.127  15.070  0.1321 -0.9397 -2.3833
 4395SOL    HW224822   0.552   4.736  15.010 -2.0643  0.5424 -1.1721
 4396SOL     OW24823   0.501   2.223   9.697  0.4693 -0.3423 -0.6508
 4396SOL    HW124824   0.473   2.159   9.762  1.2745 -1.0026 -0.9428
 4396SOL    HW224825   0.438   2.216   9.625 -0.5874 -0.7494  0.3286
 4397SOL     OW24826   0.373   3.349   6.932 -0.2314 -0.3111 -0.0154
 4397SOL    HW124827   0.355   3.303   7.014 -2.7595  0.1055 -0.3224
 4397SOL    HW224828   0.281   3.340   6.905 -0.0031 -2.6283 -0.0867
 4398SOL     OW24829   1.428   3.908   6.216 -0.0291 -0.0677  0.0554
 4398SOL    HW124830   1.369   3.898   6.291  0.6393 -1.2551  0.4121
 4398SOL    HW224831   1.377   3.979   6.178 -0.1335 -0.0327  0.2572
 4399SOL     OW24832   2.243   4.272   7.766 -0.0020 -0.7780 -0.1108
 4399SOL    HW124833   2.189   4.283   7.688 -2.0666  0.1548  1.4430
 4399SOL    HW224834   2.200   4.191   7.792 -1.1861 -0.6410 -1.6183
 4400SOL     OW24835   4.140   1.615   2.655  0.3721  0.3425  0.0211
 4400SOL    HW124836   4.050   1.587   2.669 -0.3363  1.4714 -2.2110
 4400SOL    HW224837   4.127   1.666   2.575  0.5506  1.6868  0.8694
 4401SOL     OW24838   2.845   3.644  14.921 -0.8351  0.1146 -0.4560
 4401SOL    HW124839   2.866   3.595  15.000 -0.8408  1.0960  0.1587
 4401SOL    HW224840   2.786   3.711  14.956 -0.6146 -0.0023  0.1322
 4402SOL     OW24841   2.099   0.365   3.544 -0.1390  0.0419  0.2914
 4402SOL    HW124842   2.030   0.329   3.488  0.2910  0.1284 -0.2927
 4402SOL    HW224843   2.082   0.459   3.545 -0.6043 -0.0482  0.9000
 4403SOL     OW24844   0.175   0.548  10.948  0.1350 -0.0191 -0.1616
 4403SOL    HW124845   0.266   0.523  10.930 -0.1644 -1.7409  0.7938
 4403SOL    HW224846   0.169   0.534  11.042  0.1759  1.2877  0.0437
 4404SOL     OW24847   1.714   2.169  10.624 -0.0484 -0.5570 -0.1084
 4404SOL    HW124848   1.782   2.161  10.690  0.0983  1.9592  0.0660
 4404SOL    HW224849   1.634   2.183  10.675 -1.0260 -1.8825 -1.2729
 4405SOL     OW24850   0.158   1.796  12.726 -0.5601 -0.4939 -0.4632
 4405SOL    HW124851   0.251   1.792  12.704 -0.6469 -1.0129 -0.7346
 4405SOL    HW224852   0.150   1.757  12.813 -1.2495  0.9270  0.1082
 4406SOL     OW24853   1.742   2.436   5.129  0.5621  0.1916 -0.0197
 4406SOL    HW124854   1.765   2.449   5.037  1.3529 -0.7456  0.0461
 4406SOL    HW224855   1.752   2.519   5.176 -0.8770  0.0659  0.5116
 4407SOL     OW24856   3.176   0.103   7.724  0.1279  0.8313  0.1583
 4407SOL    HW124857   3.120   0.103   7.647 -1.1958  2.4392  1.1165
 4407SOL    HW224858   3.254   0.141   7.685 -0.9503  2.4705 -0.3781
 4408SOL     OW24859   3.421   0.777   8.063 -0.0458 -0.3447  0.3699
 4408SOL    HW124860   3.414   0.836   7.988 -1.0142 -0.5280  0.3059
 4408SOL    HW224861   3.515   0.765   8.069  0.3946  2.2013 -1.2161
 4409SOL     OW24862   0.226   3.995   9.494 -0.2807  0.0928  0.0655
 4409SOL    HW124863   0.167   4.000   9.569  2.0428 -0.2616  1.9345
 4409SOL    HW224864   0.164   3.973   9.425 -1.0703  2.2225  0.0696
 4410SOL     OW24865   0.873   1.117  12.009  0.0843  0.1244  0.0824
 4410SOL    HW124866   0.832   1.070  12.082 -0.7647  1.1884  0.3013
 4410SOL    HW224867   0.961   1.081  12.014 -0.5617 -1.4253  0.4129
 4411SOL     OW24868   4.699   4.270   2.004  0.7573  0.1017 -0.3500
 4411SOL    HW124869   4.725   4.198   1.947  1.0537  0.2375 -0.3861
 4411SOL    HW224870   4.702   4.225   2.087 -2.5044  2.7343  1.1972
 4412SOL     OW24871   1.877   2.850   2.220  0.4345 -0.5659  0.2190
 4412SOL    HW124872   1.811   2.806   2.166 -2.0768  1.3359  1.8049
 4412SOL    HW224873   1.828   2.918   2.266 -0.5585 -1.6710  0.7904
 4413SOL     OW24874   4.354   1.405   3.572 -0.3479 -1.1491 -0.2285
 4413SOL    HW124875   4.310   1.484   3.603  0.4433 -0.4004 -1.0188
 4413SOL    HW224876   4.390   1.437   3.489 -0.5244  0.2953  0.2582
 4414SOL     OW24877   0.361   0.185  11.937  0.4048 -0.3452  0.3524
 4414SOL    HW124878   0.283   0.155  11.890 -1.4288  1.7572  2.0705
 4414SOL    HW224879   0.420   0.200  11.863 -0.4465 -0.4108 -0.3393
 4415SOL     OW24880   0.475   3.966  12.598 -0.0758 -0.5810 -0.2328
 4415SOL    HW124881   0.558   3.969  12.551 -0.3274 -0.1904 -0.6499
 4415SOL    HW224882   0.487   4.032  12.666 -0.2354  0.2317 -0.9919
 4416SOL     OW24883   2.165   3.522   0.520  0.2402 -0.0194  0.3957
 4416SOL    HW124884   2.075   3.541   0.495  0.7809  1.9405 -0.0387
 4416SOL    HW224885   2.157   3.446   0.578 -0.7935 -2.0397 -2.4523
 4417SOL     OW24886   0.871   1.249   3.484  0.0156  0.8634  0.3526
 4417SOL    HW124887   0.953   1.200   3.478 -0.2211  0.7995 -2.4068
 4417SOL    HW224888   0.821   1.180   3.439  0.6789 -0.0569  1.0298
 4418SOL     OW24889   2.999   4.516  11.082 -0.2491 -0.3518  0.3155
 4418SOL    HW124890   3.013   4.559  10.998 -1.3484 -1.5312 -0.4690
 4418SOL    HW224891   3.072   4.548  11.136  0.9194 -1.1941 -0.7655
 4419SOL     OW24892   4.589   0.984   4.414 -0.7580  0.1915  0.0287
 4419SOL    HW124893   4.556   0.903   4.452  1.1072  0.2183  1.6744
 4419SOL    HW224894   4.588   0.960   4.321 -3.6204 -0.7691  0.2819
 4420SOL     OW24895   2.265   4.103   1.986 -0.4991  0.1888 -0.1579
 4420SOL    HW124896   2.244   4.107   2.079 -1.8257  1.2224 -0.4854
 4420SOL    HW224897   2.295   4.193   1.972 -1.5826  0.9907  2.5965
 4421SOL     OW24898   0.474   0.736   8.650 -0.0163 -0.0486 -0.3750
 4421SOL    HW124899   0.482   0.830   8.662 -1.1145 -0.3807  3.1264
 4421SOL    HW224900   0.562   0.707   8.627 -0.0047  1.7882 -2.5604
 4422SOL     OW24901   1.941   0.777   3.517  0.1231 -0.1961 -0.0959
 4422SOL    HW124902   1.892   0.723   3.455  0.4357  1.4297 -1.7254
 4422SOL    HW224903   2.031   0.784   3.483  0.1446  1.2957  0.3036
 4423SOL     OW24904   1.663   0.867  11.146  0.4718  0.0591 -0.5292
 4423SOL    HW124905   1.619   0.946  11.115 -0.4547 -0.0101  0.6024
 4423SOL    HW224906   1.662   0.817  11.064  0.4518 -0.4414 -0.2217
 4424SOL     OW24907   0.633   0.282   9.435 -0.1056 -0.6651 -0.1783
 4424SOL    HW124908   0.549   0.307   9.396  0.9551 -0.1040 -2.0826
 4424SOL    HW224909   0.600   0.240   9.514 -0.8483 -0.6004 -0.4544
 4425SOL     OW24910   0.220   4.047   5.558  0.1524 -0.0291 -0.4554
 4425SOL    HW124911   0.135   4.027   5.518  1.0044 -1.2735 -1.6481
 4425SOL    HW224912   0.223   4.137   5.526  0.7244  0.3308  0.6468
 4426SOL     OW24913   2.387   0.656   8.596  0.3031 -0.0526 -0.5888
 4426SOL    HW124914   2.332   0.724   8.634 -2.8332 -1.1128 -3.2837
 4426SOL    HW224915   2.368   0.659   8.502  1.8434 -1.8359 -0.9508
 4427SOL     OW24916   0.697   3.772   6.253  0.0254 -0.3920 -0.4329
 4427SOL    HW124917   0.770   3.834   6.249  0.4120 -0.8321 -0.1947
 4427SOL    HW224918   0.675   3.752   6.162 -1.2585  0.7393 -0.3751
 4428SOL     OW24919   3.562   0.165   6.604 -0.0963 -1.0849  0.3507
 4428SOL    HW124920   3.653   0.164   6.573 -0.3069  1.6013 -0.3854
 4428SOL    HW224921   3.575   0.118   6.687 -3.2536 -1.9044  0.3675
 4429SOL     OW24922   3.116   4.169   3.317  0.8958  0.7438  0.2748
 4429SOL    HW124923   3.135   4.159   3.411 -1.1244  3.4375  0.9633
 4429SOL    HW224924   3.060   4.246   3.326 -2.2776 -1.4033 -1.0303
 4430SOL     OW24925   0.723   1.410  15.191 -0.3392 -0.1861 -0.4114
 4430SOL    HW124926   0.703   1.390  15.283  1.7694  0.1408  0.1134
 4430SOL    HW224927   0.748   1.324  15.157  2.4160  1.1941 -1.8641
 4431SOL     OW24928   1.364   0.011   0.528  0.2137  0.3728 -0.4537
 4431SOL    HW124929   1.385   0.010   0.621 -2.6237 -2.4817  0.1391
 4431SOL    HW224930   1.386   4.661   0.496 -1.2417  0.0623 -0.6126
 4432SOL     OW24931   3.252   4.543   3.271  0.1203 -0.3862 -0.3902
 4432SOL    HW124932   3.293   4.605   3.210  0.2933  0.0483  0.1659
 4432SOL    HW224933   3.337   4.509   3.300  0.0169 -1.3098 -1.1789
 4433SOL     OW24934   1.859   4.247   2.915 -0.0499 -0.3371  0.7787
 4433SOL    HW124935   1.819   4.296   2.843  0.9277 -2.3792 -1.1580
 4433SOL    HW224936   1.949   4.275   2.901  0.5131 -0.0926  5.1871
 4434SOL     OW24937   4.682   2.947   7.533  0.6793  0.4028  0.0916
 4434SOL    HW124938   4.661   2.908   7.618  0.2909  0.1406 -0.1270
 4434SOL    HW224939   0.020   2.895   7.505 -0.3974 -0.5721 -1.0023
 4435SOL     OW24940   2.041   2.430  13.995 -0.0943  0.1394  0.0019
 4435SOL    HW124941   2.046   2.491  13.922  2.2865  0.6176  0.5567
 4435SOL    HW224942   1.951   2.401  13.985  0.0449 -0.2471 -0.1270
 4436SOL     OW24943   3.187   2.196   2.818  0.2760 -0.1916  0.4321
 4436SOL    HW124944   3.133   2.130   2.776  0.4255  0.1876 -0.3607
 4436SOL    HW224945   3.270   2.150   2.826  0.0726 -0.8822 -1.5564
 4437SOL     OW24946   4.406   1.749   2.638 -0.0712  0.0482 -0.4576
 4437SOL    HW124947   4.339   1.716   2.697  0.7632 -1.0204 -0.1252
 4437SOL    HW224948   4.405   1.686   2.566 -0.4968  2.4994 -2.5959
 4438SOL     OW24949   1.476   1.659   6.749  0.0388 -0.8972  0.4177
 4438SOL    HW124950   1.480   1.613   6.665 -2.5588  1.1005 -0.7868
 4438SOL    HW224951   1.566   1.689   6.759 -0.8068  1.4655  0.8867
 4439SOL     OW24952   3.679   1.804   9.145  0.3008 -0.2642 -0.0296
 4439SOL    HW124953   3.605   1.744   9.159 -1.4143  2.5329  2.7057
 4439SOL    HW224954   3.647   1.888   9.176 -0.2615 -1.1794  1.8801
 4440SOL     OW24955   3.419   0.966   3.713  0.5551 -0.8981 -0.3768
 4440SOL    HW124956   3.358   0.892   3.714  0.7616 -1.0625 -0.0079
 4440SOL    HW224957   3.378   1.026   3.651  0.4880  0.0149  0.5455
 4441SOL     OW24958   3.527   0.229   4.778 -0.3278 -0.2573  0.5964
 4441SOL    HW124959   3.470   0.271   4.842 -2.6734 -1.0784 -0.9725
 4441SOL    HW224960   3.566   0.166   4.839  2.7104  0.5157 -0.5331
 4442SOL     OW24961   3.418   4.006   3.891 -0.7232  0.3079 -0.5348
 4442SOL    HW124962   3.505   4.024   3.855 -0.3726  0.0246  0.1723
 4442SOL    HW224963   3.400   4.085   3.942 -0.9964 -0.8017  1.0685
 4443SOL     OW24964   3.363   3.792  11.113  0.0027 -0.0448  0.6714
 4443SOL    HW124965   3.379   3.800  11.207 -0.0259  0.6772  0.6149
 4443SOL    HW224966   3.436   3.830  11.064  0.3265  1.1606  2.0623
 4444SOL     OW24967   2.369   2.729   8.787  0.3498 -0.2885  0.1969
 4444SOL    HW124968   2.433   2.660   8.768 -0.0275 -0.8861  1.1022
 4444SOL    HW224969   2.421   2.798   8.746  0.5055  0.6212  1.9370
 4445SOL     OW24970   1.619   0.850   3.487 -0.0997 -0.2573 -0.1272
 4445SOL    HW124971   1.555   0.887   3.548  0.0860 -3.6969  2.1974
 4445SOL    HW224972   1.632   0.759   3.514  1.8161  0.3548  1.0290
 4446SOL     OW24973   0.814   3.390   1.064 -0.0389 -0.4035 -0.3523
 4446SOL    HW124974   0.830   3.298   1.045  0.0403 -0.8439  1.8327
 4446SOL    HW224975   0.897   3.429   1.092 -0.9930  0.3804  1.4086
 4447SOL     OW24976   3.589   4.231  14.755  0.6018  0.3761 -0.1229
 4447SOL    HW124977   3.666   4.177  14.736  1.1432  1.5469 -1.2682
 4447SOL    HW224978   3.567   4.269  14.670  0.4602  1.7107  0.5090
 4448SOL     OW24979   2.005   0.561   3.902  0.4214 -0.0662 -0.1205
 4448SOL    HW124980   2.055   0.642   3.910  1.8080 -1.1939  2.5570
 4448SOL    HW224981   1.918   0.601   3.901  0.7399  0.5998 -1.2280
 4449SOL     OW24982   0.016   1.621  13.232 -0.3993 -0.6443 -0.2494
 4449SOL    HW124983   0.006   1.529  13.254 -0.3138 -0.9154 -1.3251
 4449SOL    HW224984   0.028   1.645  13.324 -0.1836 -3.2149  0.3815
 4450SOL     OW24985   3.952   0.126   2.673 -0.6904 -0.2124  0.2615
 4450SOL    HW124986   3.880   0.163   2.724  1.8646  3.5104  1.2295
 4450SOL    HW224987   3.916   0.126   2.585 -0.3185 -2.2966  0.1202
 4451SOL     OW24988   3.702   0.826  13.241  0.6155  0.2573 -0.0047
 4451SOL    HW124989   3.736   0.844  13.153 -0.9603  0.6106 -0.5366
 4451SOL    HW224990   3.698   0.917  13.269  1.3816  0.6040 -1.0141
 4452SOL     OW24991   3.418   0.737   1.756 -0.3113 -0.3440  0.6170
 4452SOL    HW124992   3.442   0.746   1.848 -2.0896 -0.1177  1.0658
 4452SOL    HW224993   3.350   0.805   1.750 -2.1469 -2.2139  0.3309
 4453SOL     OW24994   2.337   1.624   5.110  0.3432 -0.1956 -0.0940
 4453SOL    HW124995   2.295   1.562   5.169 -1.1855  1.8794  0.9761
 4453SOL    HW224996   2.347   1.700   5.167  0.1047  0.0289 -0.3506
 4454SOL     OW24997   1.129   1.668   9.155  0.3404 -0.5640  0.2459
 4454SOL    HW124998   1.170   1.703   9.234 -0.3386 -0.1744  0.4185
 4454SOL    HW224999   1.103   1.578   9.176  0.4295 -0.5095  0.5989
 4455SOL     OW25000   1.865   1.945   8.849  0.0482 -0.5037 -0.4735
 4455SOL    HW125001   1.940   1.898   8.886  0.6576 -1.5613 -3.0399
 4455SOL    HW225002   1.800   1.944   8.919 -1.2163 -0.7625 -1.6542
 4456SOL     OW25003   1.936   3.647  12.625 -0.2029  0.2683 -0.4626
 4456SOL    HW125004   1.870   3.652  12.694  0.2038  1.2425 -0.1503
 4456SOL    HW225005   2.001   3.592  12.668 -0.1777 -0.5462 -1.5474
 4457SOL     OW25006   2.701   1.930   6.300 -0.3550  0.2821  0.4352
 4457SOL    HW125007   2.690   1.840   6.331  0.0128 -0.5778 -1.9726
 4457SOL    HW225008   2.794   1.935   6.282 -0.1586  0.3195  1.4690
 4458SOL     OW25009   2.246   2.886   9.025  0.6631  0.2540 -0.6222
 4458SOL    HW125010   2.289   2.900   8.940 -0.6311  1.5699 -1.0687
 4458SOL    HW225011   2.313   2.925   9.080  1.0887 -0.4599 -0.6263
 4459SOL     OW25012   3.554   0.887   2.811  0.5683 -0.2977 -0.0321
 4459SOL    HW125013   3.548   0.845   2.896  0.3920  0.0863  0.1437
 4459SOL    HW225014   3.464   0.895   2.779  0.8889  2.0894 -0.3444
 4460SOL     OW25015   1.690   4.019   5.462  0.1594 -1.0436 -0.3192
 4460SOL    HW125016   1.667   4.066   5.382  0.8517 -0.2533 -0.0480
 4460SOL    HW225017   1.648   3.933   5.453 -2.4102  0.1297  0.5146
 4461SOL     OW25018   2.573   4.304   9.452 -0.2443  0.4566  0.2607
 4461SOL    HW125019   2.488   4.262   9.439  1.0531 -1.6158 -1.5028
 4461SOL    HW225020   2.635   4.233   9.439 -0.2008  0.7890 -1.3682
 4462SOL     OW25021   3.804   3.016   3.709 -0.1789 -0.0975  0.6892
 4462SOL    HW125022   3.880   3.058   3.669  0.4214 -1.0576  0.8541
 4462SOL    HW225023   3.847   3.010   3.794  1.6246 -1.1967 -0.3141
 4463SOL     OW25024   3.852   2.321  13.548 -0.0042  0.2232  0.0274
 4463SOL    HW125025   3.763   2.290  13.532  0.0076 -0.2052  0.8176
 4463SOL    HW225026   3.849   2.397  13.605 -1.1341  0.5659 -0.4879
 4464SOL     OW25027   2.319   4.641   5.354  0.0346  0.8353  0.0522
 4464SOL    HW125028   2.340   4.734   5.368  1.4469  0.2739  1.5062
 4464SOL    HW225029   2.224   4.645   5.345  0.1789  1.2430 -1.3585
 4465SOL     OW25030   3.594   0.962   4.669  0.1075 -0.2229 -0.0723
 4465SOL    HW125031   3.661   0.946   4.602  1.9050  1.9120  1.1845
 4465SOL    HW225032   3.627   1.050   4.691  2.3368 -1.2327  0.6479
 4466SOL     OW25033   1.713   0.118   5.522 -0.2130  0.7727 -0.9381
 4466SOL    HW125034   1.701   0.188   5.586  0.3711 -1.8132  2.0235
 4466SOL    HW225035   1.629   0.129   5.478 -0.6110 -1.5723 -0.7893
 4467SOL     OW25036   0.646   2.718   4.545  0.0328 -0.5419 -0.0374
 4467SOL    HW125037   0.655   2.735   4.451  0.5686  1.0332  0.2957
 4467SOL    HW225038   0.558   2.751   4.562 -0.9318 -2.4469 -1.3544
 4468SOL     OW25039   0.924   3.057   6.498  0.3061 -0.4506 -0.9043
 4468SOL    HW125040   0.897   3.117   6.428  0.6604 -0.3451 -0.9479
 4468SOL    HW225041   0.947   2.977   6.451 -0.8042 -0.5709 -1.2652
 4469SOL     OW25042   1.588   0.300   6.051 -0.1663 -0.0794 -0.1335
 4469SOL    HW125043   1.575   0.277   6.144 -0.2818 -0.3569 -0.2182
 4469SOL    HW225044   1.671   0.258   6.027  0.2979  0.6728  0.1628
 4470SOL     OW25045   0.262   1.866   6.086 -1.0020  0.1182  0.1664
 4470SOL    HW125046   0.212   1.878   6.167  2.9100 -1.1345  2.7350
 4470SOL    HW225047   0.221   1.786   6.053 -0.8536 -0.9882  2.6876
 4471SOL     OW25048   2.084   3.050   3.380 -0.0584  0.6057 -0.2657
 4471SOL    HW125049   2.171   3.010   3.376  0.3818  1.5349 -0.1504
 4471SOL    HW225050   2.055   3.011   3.463  1.0995 -3.0469 -1.5839
 4472SOL     OW25051   3.505   3.341   7.500  0.1735  0.2306 -0.0412
 4472SOL    HW125052   3.515   3.382   7.414 -0.3606 -0.8690 -0.6125
 4472SOL    HW225053   3.558   3.262   7.497  0.2436  0.3366 -1.4042
 4473SOL     OW25054   3.066   3.422   9.444  0.0278 -0.9801 -0.3845
 4473SOL    HW125055   3.055   3.443   9.351  0.6691 -3.3573 -1.0181
 4473SOL    HW225056   3.161   3.406   9.440  0.0855 -0.0747 -2.8275
 4474SOL     OW25057   1.115   0.602   7.867 -0.5489  0.7723 -0.2750
 4474SOL    HW125058   1.058   0.625   7.794 -1.1676 -1.0502 -0.3629
 4474SOL    HW225059   1.105   0.682   7.918 -0.9383  0.2722  0.4204
 4475SOL     OW25060   3.594   1.403   3.492 -0.0577 -0.0916  0.3062
 4475SOL    HW125061   3.605   1.309   3.502  1.8812  0.1995  1.0044
 4475SOL    HW225062   3.680   1.428   3.457 -1.6118  2.2037 -1.8271
 4476SOL     OW25063   0.153   2.820   6.747  0.3906 -0.0061  0.2491
 4476SOL    HW125064   0.230   2.876   6.750 -1.6633  2.6875  3.6560
 4476SOL    HW225065   0.186   2.744   6.700  1.5142  0.8507 -0.3269
 4477SOL     OW25066   3.493   3.119  16.647  0.4342 -0.4979 -0.0925
 4477SOL    HW125067   3.479   3.205  16.687 -0.8781 -0.7733  0.0072
 4477SOL    HW225068   3.552   3.079  16.711  0.0991  0.4776  0.8174
 4478SOL     OW25069   2.979   1.566   3.886  0.1758  0.2947  0.6449
 4478SOL    HW125070   3.004   1.638   3.943 -1.2271  0.5327  0.9560
 4478SOL    HW225071   2.968   1.495   3.950 -3.6870 -2.0283 -2.5600
 4479SOL     OW25072   2.030   4.164  11.809 -0.1350 -0.5259  0.4834
 4479SOL    HW125073   2.061   4.077  11.833 -0.3464 -0.8363 -0.3564
 4479SOL    HW225074   2.008   4.152  11.716  1.6952 -2.0408  0.2574
 4480SOL     OW25075   0.132   4.659  14.775 -0.1643 -0.4115  0.0297
 4480SOL    HW125076   0.216   4.618  14.754  0.6286  0.8997  0.6808
 4480SOL    HW225077   0.170   4.699  14.853  0.4511  0.3027 -0.6412
 4481SOL     OW25078   3.305   1.939  14.731  0.0701 -0.1736  0.2888
 4481SOL    HW125079   3.337   1.988  14.656  0.1116  0.4253  0.6960
 4481SOL    HW225080   3.319   1.850  14.699  0.7355 -0.3315  0.9990
 4482SOL     OW25081   3.058   0.221   6.476  0.0907 -0.5956 -0.2923
 4482SOL    HW125082   3.148   0.192   6.490 -0.6420 -0.8611  4.0155
 4482SOL    HW225083   3.056   0.304   6.524  0.6979 -0.4470 -0.5317
 4483SOL     OW25084   1.896   4.601  14.213  0.3757 -0.0660  0.0422
 4483SOL    HW125085   1.817   4.549  14.200  0.4314 -1.5103  5.2309
 4483SOL    HW225086   1.864   4.666  14.276 -2.5450 -1.1195 -0.3620
 4484SOL     OW25087   1.367   2.950   4.271  0.7114 -0.3562 -0.0148
 4484SOL    HW125088   1.356   3.002   4.351 -0.0684 -0.7743  0.1500
 4484SOL    HW225089   1.419   2.876   4.303 -0.0440 -0.5223  0.8333
 4485SOL     OW25090   0.661   0.633   8.170  0.1968  0.4059 -0.4478
 4485SOL    HW125091   0.670   0.554   8.117 -0.1691  0.0796 -0.0229
 4485SOL    HW225092   0.571   0.665   8.161  0.0937  0.3036  0.2538
 4486SOL     OW25093   0.816   4.197  15.947  0.2206 -0.0136  0.3989
 4486SOL    HW125094   0.797   4.290  15.962 -3.5987 -0.9592  1.1928
 4486SOL    HW225095   0.743   4.183  15.887  1.1661 -3.0410 -0.0391
 4487SOL     OW25096   2.131   3.768   8.008 -0.2527  0.1270 -0.6319
 4487SOL    HW125097   2.088   3.754   7.924  1.1566  1.3533 -1.5368
 4487SOL    HW225098   2.141   3.677   8.037  3.5715  1.3678  2.0408
 4488SOL     OW25099   4.630   0.277   6.497  0.2777 -0.4918 -0.4320
 4488SOL    HW125100   4.702   0.215   6.503 -0.3687 -1.1187  0.7014
 4488SOL    HW225101   4.616   0.291   6.403  2.5180 -0.6820 -0.7974
 4489SOL     OW25102   3.393   1.467  13.195  0.5955 -0.2110 -1.0875
 4489SOL    HW125103   3.301   1.446  13.179  0.0855  0.5596  0.8850
 4489SOL    HW225104   3.375   1.525  13.269  0.8357 -1.4992 -0.0221
 4490SOL     OW25105   2.393   0.861   2.910  0.2180  0.0461 -0.0273
 4490SOL    HW125106   2.376   0.925   2.842  1.9919 -0.2936 -0.7845
 4490SOL    HW225107   2.350   0.903   2.985 -0.0757  0.6867 -0.5604
 4491SOL     OW25108   1.885   2.176   3.943 -0.4934  0.4534  0.0029
 4491SOL    HW125109   1.836   2.103   3.904  1.4429 -0.5913 -0.4419
 4491SOL    HW225110   1.933   2.200   3.864  0.2899  1.0815  0.6743
 4492SOL     OW25111   4.481   2.917   9.110 -0.5561 -0.1399  0.1825
 4492SOL    HW125112   4.397   2.963   9.108 -1.7997 -2.3507  1.0177
 4492SOL    HW225113   4.467   2.857   9.036  0.3805 -0.9159  0.6342
 4493SOL     OW25114   2.802   4.112  17.274 -0.4430 -0.5096  0.4556
 4493SOL    HW125115   2.801   4.130  17.368 -0.7949 -0.9799  0.5409
 4493SOL    HW225116   2.779   4.194  17.231 -0.0358  0.8528  2.8055
 4494SOL     OW25117   2.542   2.555   5.850 -0.4964 -0.0902  0.1239
 4494SOL    HW125118   2.464   2.539   5.797 -2.0132  2.4416  1.6024
 4494SOL    HW225119   2.498   2.580   5.931 -0.1324 -2.4307  1.0390
 4495SOL     OW25120   4.225   4.344   8.380 -0.0923 -0.4513 -0.0180
 4495SOL    HW125121   4.152   4.404   8.371 -0.6025 -1.1495 -0.5597
 4495SOL    HW225122   4.251   4.325   8.290 -0.2220 -0.1248 -0.1241
 4496SOL     OW25123   4.326   1.107   4.489 -0.3093  0.2444 -0.2106
 4496SOL    HW125124   4.264   1.053   4.539  1.3770 -1.7935 -0.3387
 4496SOL    HW225125   4.351   1.033   4.434 -1.4481  0.3208 -0.8330
 4497SOL     OW25126   1.651   1.318   9.299  0.3749  0.5235 -0.6514
 4497SOL    HW125127   1.717   1.373   9.341 -0.0978  1.9550 -1.7799
 4497SOL    HW225128   1.698   1.235   9.295  1.9257  1.4326 -1.4164
 4498SOL     OW25129   4.133   3.995   4.553 -0.0822  0.1373 -0.7147
 4498SOL    HW125130   4.126   3.969   4.645 -0.0497 -1.1186 -1.0708
 4498SOL    HW225131   4.057   4.053   4.550  0.7208  1.2094 -0.1328
 4499SOL     OW25132   3.374   2.503   3.003  0.3166  0.0483  0.9364
 4499SOL    HW125133   3.370   2.583   2.949  0.2150  0.7518  1.9836
 4499SOL    HW225134   3.427   2.449   2.945  0.6535  0.8898  0.4527
 4500SOL     OW25135   0.307   1.404   0.365 -0.3567  0.3301  0.2574
 4500SOL    HW125136   0.398   1.426   0.384  0.3441 -1.4518 -1.1100
 4500SOL    HW225137   0.258   1.437   0.441  0.0203  1.4905 -0.0088
 4501SOL     OW25138   3.366   1.265   5.549 -0.1656 -0.6838 -0.5337
 4501SOL    HW125139   3.323   1.209   5.614  2.7972 -2.6032 -0.2201
 4501SOL    HW225140   3.439   1.282   5.607  1.4807 -2.1081 -2.1750
 4502SOL     OW25141   2.281   3.741   0.098  0.1244 -0.1740 -0.2299
 4502SOL    HW125142   2.216   3.674   0.078  0.8429 -1.2218  0.9646
 4502SOL    HW225143   2.220   3.815   0.092  1.9566  1.4402  1.0123
 4503SOL     OW25144   2.764   2.053   7.546  0.3158  0.4933 -0.6132
 4503SOL    HW125145   2.838   1.994   7.560 -0.2061  0.4229  1.8373
 4503SOL    HW225146   2.792   2.080   7.458  1.3528 -0.7982 -0.6790
 4504SOL     OW25147   1.315   2.777   3.493 -0.0516 -0.1015 -0.4655
 4504SOL    HW125148   1.279   2.862   3.467 -0.0429 -0.5110 -1.7925
 4504SOL    HW225149   1.242   2.716   3.481  0.6946 -1.0796  0.0279
 4505SOL     OW25150   0.267   0.529   9.733 -0.1036 -0.0102 -0.3662
 4505SOL    HW125151   0.224   0.505   9.651 -1.2956 -0.4891  0.4028
 4505SOL    HW225152   0.188   0.543   9.784 -0.4254  2.4461 -1.5377
 4506SOL     OW25153   2.808   1.511   9.228 -0.1535 -0.0766 -0.1050
 4506SOL    HW125154   2.738   1.479   9.172 -0.2595 -2.0930  1.2102
 4506SOL    HW225155   2.770   1.593   9.261 -1.7414  0.0212 -2.2293
 4507SOL     OW25156   3.122   0.203  10.953 -0.0845 -0.9900  0.2976
 4507SOL    HW125157   3.060   0.271  10.926  0.9660 -0.9963 -2.1677
 4507SOL    HW225158   3.164   0.247  11.027  3.7463 -1.6476 -1.4834
 4508SOL     OW25159   3.895   3.323   5.854 -0.2111  0.4798 -0.0560
 4508SOL    HW125160   3.840   3.383   5.905 -0.0839  2.2993 -2.0586
 4508SOL    HW225161   3.907   3.253   5.919 -0.9257 -0.6176 -1.1152
 4509SOL     OW25162   3.300   2.030   4.430 -0.5175  0.3100 -0.0790
 4509SOL    HW125163   3.262   2.035   4.343  2.2621 -0.3468 -1.3296
 4509SOL    HW225164   3.308   2.122   4.455  0.2194  0.3661 -0.5138
 4510SOL     OW25165   3.691   2.672  10.781 -0.5510 -0.5062  0.6143
 4510SOL    HW125166   3.605   2.645  10.749 -1.0232  1.0107  0.6270
 4510SOL    HW225167   3.685   2.656  10.876 -0.5281 -0.7662  0.5728
 4511SOL     OW25168   0.590   1.542   3.950  0.1524  0.3542 -0.3737
 4511SOL    HW125169   0.534   1.471   3.919  0.3878 -1.2430  2.8765
 4511SOL    HW225170   0.513   1.599   3.947 -0.6058 -0.6178  0.7943
 4512SOL     OW25171   0.722   3.555   4.518  0.0333 -0.2204 -0.3292
 4512SOL    HW125172   0.708   3.635   4.568  0.9107  0.0771 -0.5696
 4512SOL    HW225173   0.816   3.543   4.506 -0.6854 -5.0031 -1.3106
 4513SOL     OW25174   0.622   3.611   9.442  0.1587  0.4053  0.5601
 4513SOL    HW125175   0.557   3.681   9.454  0.5254  1.0105 -0.9700
 4513SOL    HW225176   0.692   3.667   9.476 -1.9439  1.4349  3.2874
 4514SOL     OW25177   4.190   2.964   4.050  0.6757  0.1365 -0.1851
 4514SOL    HW125178   4.228   2.876   4.055  0.2725 -0.1068 -1.2701
 4514SOL    HW225179   4.233   3.002   3.973  2.2638 -0.5062  0.4018
 4515SOL     OW25180   0.649   1.874   2.814 -0.1033  0.4197 -0.2095
 4515SOL    HW125181   0.619   1.950   2.865  1.0856 -0.9030  2.4303
 4515SOL    HW225182   0.587   1.888   2.742  0.4947  0.7429 -0.6520
 4516SOL     OW25183   3.629   2.710   8.297 -0.1056 -0.1794  0.3870
 4516SOL    HW125184   3.681   2.718   8.377  0.2150  0.3455  0.1287
 4516SOL    HW225185   3.679   2.633   8.270 -1.0539 -0.7338  0.2078
 4517SOL     OW25186   1.927   1.885   0.087  0.4528  0.3217 -0.5596
 4517SOL    HW125187   1.979   1.809   0.062  1.1957  0.8888 -0.7217
 4517SOL    HW225188   1.993   1.929   0.141  0.0836 -0.4884  0.5445
 4518SOL     OW25189   4.280   2.778  12.916 -0.2594  0.2105 -0.0608
 4518SOL    HW125190   4.263   2.707  12.977  0.0681  0.5159  0.3858
 4518SOL    HW225191   4.314   2.727  12.842 -1.9267  0.2713 -0.8745
 4519SOL     OW25192   3.197   4.210  17.380 -0.8344  0.6937 -0.1243
 4519SOL    HW125193   3.173   4.300  17.398 -1.6253  0.1327  1.5449
 4519SOL    HW225194   3.180   4.168  17.464  1.9733 -1.1482 -0.4658
 4520SOL     OW25195   0.076   2.064   4.766  0.2479 -0.1491  0.9688
 4520SOL    HW125196   0.143   1.999   4.744  0.3473  0.4751 -0.6222
 4520SOL    HW225197   0.142   2.132   4.777 -0.5205  0.6478  0.5607
 4521SOL     OW25198   1.019   4.493   9.500  0.3256 -0.1366  0.4677
 4521SOL    HW125199   0.963   4.570   9.508 -0.6261 -0.6248 -1.5302
 4521SOL    HW225200   1.076   4.497   9.576  0.3986 -0.9209  0.4563
 4522SOL     OW25201   2.791   0.657   4.056  0.3805  0.1619  0.5785
 4522SOL    HW125202   2.837   0.722   4.110  1.1652  1.0954 -1.2218
 4522SOL    HW225203   2.702   0.657   4.092 -0.5468 -0.9114 -1.6719
 4523SOL     OW25204   2.419   3.326   8.435 -0.3374 -0.0245 -0.0846
 4523SOL    HW125205   2.463   3.378   8.368 -0.4406 -0.9996 -0.9034
 4523SOL    HW225206   2.485   3.306   8.501 -1.2158  0.3415  0.9051
 4524SOL     OW25207   4.437   2.439  11.917 -0.0788  0.1088  0.0161
 4524SOL    HW125208   4.348   2.475  11.909  0.5467  1.9170  1.1595
 4524SOL    HW225209   4.480   2.482  11.843  0.7904 -1.3234 -0.3042
 4525SOL     OW25210   0.956   1.840   7.118 -0.0980 -0.1081 -0.2735
 4525SOL    HW125211   0.952   1.835   7.023 -1.0558  2.0078 -0.3647
 4525SOL    HW225212   0.871   1.876   7.144 -0.2562  0.7779 -2.0486
 4526SOL     OW25213   0.813   0.371  13.041  1.1924 -0.6103  0.4253
 4526SOL    HW125214   0.796   0.349  13.132 -0.7736  2.3692  0.7945
 4526SOL    HW225215   0.753   0.446  13.037  0.2319 -1.4265 -0.4031
 4527SOL     OW25216   3.943   2.950   6.889 -0.8409 -0.4806 -0.4860
 4527SOL    HW125217   3.943   2.920   6.798 -0.5177 -0.2187 -0.5731
 4527SOL    HW225218   3.910   2.870   6.930  0.9924 -0.6146  0.6974
 4528SOL     OW25219   3.382   3.663   4.889  0.1435 -0.6419 -0.3024
 4528SOL    HW125220   3.458   3.694   4.839  0.3670  0.2785  0.6099
 4528SOL    HW225221   3.423   3.603   4.952  0.7509 -1.3453 -1.3618
 4529SOL     OW25222   1.338   0.721   1.233 -0.0230 -0.8530  0.0449
 4529SOL    HW125223   1.380   0.674   1.161  2.1059 -0.3981  0.9849
 4529SOL    HW225224   1.396   0.692   1.304  1.1035  0.1715 -0.4588
 4530SOL     OW25225   2.902   4.320   9.510  0.7206 -0.3828  0.4722
 4530SOL    HW125226   2.840   4.361   9.570 -1.0732 -2.0213 -0.2448
 4530SOL    HW225227   2.867   4.235   9.483 -0.3715  0.3160 -0.3544
 4531SOL     OW25228   4.312   1.299   8.471  0.5824  0.0671 -0.1076
 4531SOL    HW125229   4.296   1.243   8.547 -1.9836 -3.2269 -3.0457
 4531SOL    HW225230   4.366   1.370   8.506  0.7335  1.2589 -2.7733
 4532SOL     OW25231   0.338   2.513   4.255  0.1269 -0.3095  0.4385
 4532SOL    HW125232   0.430   2.507   4.230  0.2446 -0.9907  1.0534
 4532SOL    HW225233   0.315   2.601   4.226  1.5034 -0.6508 -1.7289
 4533SOL     OW25234   2.182   3.326   7.234  0.1945  1.0452  0.2164
 4533SOL    HW125235   2.179   3.422   7.239  0.1129  0.9695  1.6897
 4533SOL    HW225236   2.189   3.317   7.329 -0.9550  0.8701  0.2917
 4534SOL     OW25237   4.178   1.439   6.562  0.4014 -0.3743 -0.3547
 4534SOL    HW125238   4.264   1.482   6.558 -0.3428  1.2522  0.8082
 4534SOL    HW225239   4.179   1.425   6.657  0.7612  2.8582  0.1121
 4535SOL     OW25240   1.437   0.492  15.822  0.1348 -0.3102 -0.3692
 4535SOL    HW125241   1.351   0.468  15.788 -0.8829 -0.0056  1.9636
 4535SOL    HW225242   1.476   0.466  15.739 -0.0355 -0.5481 -0.3765
 4536SOL     OW25243   0.051   3.817   3.271 -0.2911  0.3728 -0.3664
 4536SOL    HW125244   4.726   3.870   3.222 -0.5474 -0.1871 -0.6472
 4536SOL    HW225245   0.080   3.756   3.203  0.7291  0.2805  0.1471
 4537SOL     OW25246   2.318   1.667   5.777  0.1158  0.0155 -0.0300
 4537SOL    HW125247   2.404   1.679   5.735  0.5522 -0.0470  0.8415
 4537SOL    HW225248   2.263   1.734   5.735  1.2462  1.1462  0.2855
 4538SOL     OW25249   1.818   4.437   5.949 -0.5492 -0.5273 -0.3666
 4538SOL    HW125250   1.832   4.460   5.857  4.3050 -0.3654  0.4561
 4538SOL    HW225251   1.734   4.479   5.970  1.8439  2.7558  2.5477
 4539SOL     OW25252   3.558   0.837  14.484  0.0423  0.3113 -0.5335
 4539SOL    HW125253   3.512   0.871  14.407 -0.5449 -1.2005 -0.8540
 4539SOL    HW225254   3.647   0.872  14.475  1.3064 -2.5857  1.0010
 4540SOL     OW25255   2.406   2.990   3.065  0.1358 -0.4466 -0.0772
 4540SOL    HW125256   2.414   2.900   3.034  0.6501 -0.1407 -0.8313
 4540SOL    HW225257   2.361   3.000   3.149  0.4590  3.2815 -0.3271
 4541SOL     OW25258   1.531   3.876   8.133  0.1783 -0.2471  0.2587
 4541SOL    HW125259   1.600   3.810   8.126 -0.6746 -1.0132 -0.8344
 4541SOL    HW225260   1.457   3.816   8.142  0.2722 -0.5427 -0.9825
 4542SOL     OW25261   2.695   4.214   3.177  0.3583  0.3330  0.3135
 4542SOL    HW125262   2.700   4.194   3.270 -0.1204 -0.9393  0.0729
 4542SOL    HW225263   2.769   4.160   3.149 -1.0482 -1.8135  0.7631
 4543SOL     OW25264   1.785   4.434   8.417 -0.3444 -0.5998 -0.2577
 4543SOL    HW125265   1.731   4.397   8.348 -0.8509  0.0383 -0.2099
 4543SOL    HW225266   1.777   4.526   8.390  0.8461 -0.1437  0.9634
 4544SOL     OW25267   2.136   4.262   8.646  0.5525  0.3685 -0.5588
 4544SOL    HW125268   2.119   4.184   8.699 -0.5495  1.6227  0.9282
 4544SOL    HW225269   2.073   4.324   8.683 -0.1130 -0.0826 -0.9485
 4545SOL     OW25270   0.937   3.558   4.178 -0.2809 -0.1748  0.2313
 4545SOL    HW125271   0.898   3.493   4.120 -1.0304 -0.2598  0.8484
 4545SOL    HW225272   0.882   3.632   4.152 -1.8573 -1.4601 -0.0945
 4546SOL     OW25273   2.171   2.426   7.868 -0.0047 -0.4718 -0.4625
 4546SOL    HW125274   2.221   2.449   7.947 -1.0932  1.6376 -0.3859
 4546SOL    HW225275   2.206   2.339   7.847  0.0215 -1.2893  2.9134
 4547SOL     OW25276   0.180   2.711  12.351 -0.2926 -0.9417 -0.4549
 4547SOL    HW125277   0.135   2.752  12.276 -1.8823  1.9498  2.0448
 4547SOL    HW225278   0.228   2.780  12.397  0.3703 -0.9916 -1.0881
 4548SOL     OW25279   4.112   2.013   3.580  0.2221  0.0128  0.3662
 4548SOL    HW125280   4.078   1.978   3.662 -0.4334 -0.3475 -0.0605
 4548SOL    HW225281   4.124   2.107   3.595 -0.4188 -0.3115  2.7547
 4549SOL     OW25282   4.394   3.663   6.890  0.1792 -0.1633 -0.3195
 4549SOL    HW125283   4.351   3.626   6.813  0.1358  0.5159 -0.6188
 4549SOL    HW225284   4.451   3.727   6.847  0.1383 -1.1258 -1.8049
 4550SOL     OW25285   4.251   0.288   9.264 -0.0708  0.1718  0.3453
 4550SOL    HW125286   4.262   0.303   9.170 -0.1977  0.8209  0.4339
 4550SOL    HW225287   4.183   0.350   9.290 -1.5358 -0.1347 -2.6348
 4551SOL     OW25288   3.567   1.074  15.452 -0.0031 -0.0657  0.4633
 4551SOL    HW125289   3.609   1.101  15.534  0.2023  2.7603 -0.6042
 4551SOL    HW225290   3.474   1.082  15.476 -0.0692  1.5052 -0.3388
 4552SOL     OW25291   2.101   0.501  10.272 -0.3520  0.6205 -0.1561
 4552SOL    HW125292   2.017   0.515  10.226 -0.9736 -1.3815  0.3662
 4552SOL    HW225293   2.092   0.551  10.353 -1.4568  0.0723  0.0642
 4553SOL     OW25294   3.466   1.025   0.184 -0.0897 -0.2685  0.0616
 4553SOL    HW125295   3.449   1.075   0.264  0.4631 -0.1233  0.0879
 4553SOL    HW225296   3.376   1.011   0.152  0.3587 -2.2101 -0.3316
 4554SOL     OW25297   2.358   0.591   1.894  0.8420  0.2454 -0.7559
 4554SOL    HW125298   2.382   0.512   1.943  3.1502  1.8296  0.6691
 4554SOL    HW225299   2.431   0.602   1.834 -0.1795  0.2785 -1.9824
 4555SOL     OW25300   2.325   0.201  13.139  0.0923 -0.4456 -0.2527
 4555SOL    HW125301   2.276   0.133  13.093 -1.2536 -0.7905  1.6703
 4555SOL    HW225302   2.260   0.219  13.207 -0.1578 -0.9303 -0.3594
 4556SOL     OW25303   1.365   0.006   9.161 -0.4695 -0.0412 -0.0875
 4556SOL    HW125304   1.328   4.685   9.228 -2.5223  2.0357  0.5925
 4556SOL    HW225305   1.314   0.087   9.174 -0.4675 -0.2549  1.3013
 4557SOL     OW25306   2.024   1.100  17.469  0.2158 -0.4488  0.1287
 4557SOL    HW125307   2.049   1.174  17.414  0.8314  0.2074  1.2917
 4557SOL    HW225308   2.099   1.098  17.529  0.3928  1.3959 -0.0408
 4558SOL     OW25309   2.025   4.416   6.146  1.0325  0.2249  0.0448
 4558SOL    HW125310   2.034   4.327   6.113  0.2023  0.1123  0.1172
 4558SOL    HW225311   1.974   4.452   6.074 -0.7423 -0.5272  0.9179
 4559SOL     OW25312   3.797   1.247  14.147 -0.2906 -0.2929  0.2568
 4559SOL    HW125313   3.723   1.187  14.154 -0.5455  0.1279  1.1067
 4559SOL    HW225314   3.865   1.183  14.124  0.1833 -0.1691  1.3267
 4560SOL     OW25315   1.888   1.050   6.494  0.0311  0.5172  0.0882
 4560SOL    HW125316   1.891   1.074   6.586 -1.1721  0.5012  0.1333
 4560SOL    HW225317   1.982   1.037   6.487  0.3706  3.6417 -1.5861
 4561SOL     OW25318   0.413   3.149  12.713 -0.1756  0.1651  0.3032
 4561SOL    HW125319   0.348   3.194  12.658  0.7510  1.3817  0.1943
 4561SOL    HW225320   0.497   3.162  12.670  0.6505 -2.1846  1.2577
 4562SOL     OW25321   3.647   4.567   6.638 -0.3286  0.1234 -0.4283
 4562SOL    HW125322   3.718   4.504   6.650  0.1857  0.4066 -1.9549
 4562SOL    HW225323   3.608   4.581   6.724  0.3638  0.6776 -0.1981
 4563SOL     OW25324   0.766   4.077  15.193 -0.0641 -0.1106 -0.1171
 4563SOL    HW125325   0.683   4.113  15.225  0.2535  1.4554 -1.0462
 4563SOL    HW225326   0.817   4.156  15.177  0.2103 -0.1376  0.6315
 4564SOL     OW25327   0.547   0.621   5.361 -0.1971  0.2295 -0.5612
 4564SOL    HW125328   0.542   0.564   5.438  1.4543 -1.7237 -1.8739
 4564SOL    HW225329   0.558   0.705   5.405  0.3217  0.1164 -0.4626
 4565SOL     OW25330   1.578   3.764  15.385  0.0623 -0.0205  0.3034
 4565SOL    HW125331   1.635   3.811  15.324  1.3854  1.5357  2.7282
 4565SOL    HW225332   1.506   3.826  15.369 -0.2867 -0.1365  1.4732
 4566SOL     OW25333   3.587   2.563   4.769  0.1894 -0.2830 -0.1087
 4566SOL    HW125334   3.578   2.472   4.796 -0.0250  0.1470  1.2933
 4566SOL    HW225335   3.682   2.567   4.762  0.0979  0.5520 -0.8197
 4567SOL     OW25336   3.799   3.333  13.606  0.2867  0.0034  1.0730
 4567SOL    HW125337   3.814   3.252  13.558 -0.9156 -0.5302  1.5843
 4567SOL    HW225338   3.768   3.400  13.544 -1.0679 -2.0207 -0.4411
 4568SOL     OW25339   4.453   4.317   2.278 -0.0060  0.2240  0.3520
 4568SOL    HW125340   4.514   4.251   2.311 -0.7214 -0.1128  1.0083
 4568SOL    HW225341   4.487   4.395   2.321 -0.6692  0.8459 -0.2549
 4569SOL     OW25342   3.856   4.096  12.165  0.3945 -0.4825  0.3419
 4569SOL    HW125343   3.813   4.108  12.080 -1.5197  0.6867  1.4834
 4569SOL    HW225344   3.884   4.188  12.168 -1.7783  0.2136 -0.3988
 4570SOL     OW25345   3.398   1.502   8.059 -0.5383  0.0095 -0.3769
 4570SOL    HW125346   3.423   1.592   8.083 -0.6818  0.1846 -0.8780
 4570SOL    HW225347   3.484   1.462   8.070 -1.0120 -1.0583 -0.5668
 4571SOL     OW25348   4.267   2.465   7.669  0.1527  0.4779  0.3034
 4571SOL    HW125349   4.296   2.554   7.650 -1.6322  0.7521 -1.2102
 4571SOL    HW225350   4.212   2.444   7.593  0.7410 -0.1472  0.0505
 4572SOL     OW25351   2.683   0.625  12.660  0.3676 -0.2261 -0.3273
 4572SOL    HW125352   2.685   0.715  12.628  0.6205  0.6411  2.1288
 4572SOL    HW225353   2.774   0.621  12.691 -0.3435 -4.0002  1.3830
 4573SOL     OW25354   0.214   2.489   5.060 -0.1552  0.1337  0.1576
 4573SOL    HW125355   0.209   2.436   4.980  1.3542 -1.2973  1.0083
 4573SOL    HW225356   0.292   2.540   5.034  1.2915 -1.8446  0.6493
 4574SOL     OW25357   1.256   4.724   9.845  0.4321 -0.1353  0.0936
 4574SOL    HW125358   1.250   4.654   9.779 -1.8634  1.0232 -0.9324
 4574SOL    HW225359   1.325   0.046   9.815 -1.4114  0.2407 -3.4401
 4575SOL     OW25360   0.384   3.191   2.668 -0.6975  0.1129  0.2462
 4575SOL    HW125361   0.356   3.117   2.722 -0.2956  0.2808  0.6810
 4575SOL    HW225362   0.409   3.143   2.589 -3.5953  1.3820 -1.4762
 4576SOL     OW25363   0.443   2.560   0.597 -0.1889 -0.0768 -0.5469
 4576SOL    HW125364   0.381   2.575   0.669  2.9437  1.9513  1.7524
 4576SOL    HW225365   0.504   2.499   0.639 -0.0548  0.1400 -0.4289
 4577SOL     OW25366   4.587   4.682   7.572 -0.3572 -0.3031  0.0065
 4577SOL    HW125367   4.570   4.628   7.650  1.1388  0.5713  0.9522
 4577SOL    HW225368   4.681   4.670   7.561 -0.5226 -0.7027 -0.9364
 4578SOL     OW25369   1.335   0.471   8.552 -0.2332  0.1845 -0.2953
 4578SOL    HW125370   1.346   0.415   8.475  0.0177 -1.0858  0.6655
 4578SOL    HW225371   1.242   0.494   8.554 -0.6401 -1.6920  1.3485
 4579SOL     OW25372   0.650   0.743   5.154  0.2552 -0.2991 -0.4632
 4579SOL    HW125373   0.613   0.692   5.226  0.2439 -3.2148 -2.5591
 4579SOL    HW225374   0.620   0.691   5.080  1.7314  0.4811 -1.6033
 4580SOL     OW25375   0.338   2.556   6.665 -0.5154 -0.7137 -0.0981
 4580SOL    HW125376   0.364   2.479   6.615 -0.5023 -0.9264  0.2334
 4580SOL    HW225377   0.385   2.628   6.623  0.1168 -1.8248 -1.2809
 4581SOL     OW25378   4.110   3.475   6.109 -0.0851 -0.1707 -0.0843
 4581SOL    HW125379   4.019   3.462   6.084 -0.1922  0.4761 -0.0332
 4581SOL    HW225380   4.134   3.388   6.141 -3.2473 -0.9452  0.1829
 4582SOL     OW25381   3.482   0.451   2.019 -0.0672  0.3569  0.4605
 4582SOL    HW125382   3.390   0.462   1.994 -0.0824  0.0411  0.3709
 4582SOL    HW225383   3.471   0.379   2.081 -0.3304 -0.2720 -0.3118
 4583SOL     OW25384   4.649   2.413  15.431 -0.2649  0.4041  0.1532
 4583SOL    HW125385   4.719   2.352  15.455  0.4836  0.4685 -1.8189
 4583SOL    HW225386   4.633   2.382  15.342 -0.1397  1.5122 -0.2494
 4584SOL     OW25387   3.971   0.073   9.008  0.0198  0.0608 -0.2648
 4584SOL    HW125388   4.041   0.017   9.043  1.3975 -0.3192 -3.6589
 4584SOL    HW225389   4.019   0.152   8.984 -0.3302  0.5525  0.6599
 4585SOL     OW25390   3.406   1.590   3.070 -0.6086 -0.1607 -0.4904
 4585SOL    HW125391   3.379   1.537   2.994  0.9230 -3.3825  1.2261
 4585SOL    HW225392   3.492   1.553   3.089 -0.8339  0.6093  2.0080
 4586SOL     OW25393   2.601   0.451   3.705  0.0093  0.4128 -0.6485
 4586SOL    HW125394   2.659   0.521   3.736  0.0422  0.3360 -0.5384
 4586SOL    HW225395   2.517   0.491   3.727  0.9563  0.6636  2.4526
 4587SOL     OW25396   2.829   2.068   3.658 -0.1293 -0.9901  0.0855
 4587SOL    HW125397   2.859   2.018   3.734  2.1530 -0.0517 -0.1724
 4587SOL    HW225398   2.800   1.992   3.609  0.1624 -0.2923 -1.1717
 4588SOL     OW25399   3.489   1.756   8.159 -0.0557  0.0483  0.0281
 4588SOL    HW125400   3.402   1.786   8.188 -0.5817 -0.5867 -0.9002
 4588SOL    HW225401   3.544   1.809   8.217 -0.1632 -0.1748  0.3343
 4589SOL     OW25402   2.339   2.651   9.621  0.2276 -0.5520  1.2388
 4589SOL    HW125403   2.354   2.713   9.692  1.4362 -0.7610  1.1673
 4589SOL    HW225404   2.245   2.666   9.610  0.8717  0.5283 -2.7360
 4590SOL     OW25405   2.780   0.784  16.347  0.2539 -0.1824  0.1669
 4590SOL    HW125406   2.743   0.734  16.419 -2.3214  0.2441 -0.8565
 4590SOL    HW225407   2.871   0.802  16.371 -0.0168  0.7196  0.4982
 4591SOL     OW25408   4.548   2.284   0.942 -0.5474  0.2925  0.5386
 4591SOL    HW125409   4.598   2.365   0.934  0.1322 -0.2052 -0.2684
 4591SOL    HW225410   4.534   2.287   1.036  0.6122  1.0239  0.6892
 4592SOL     OW25411   1.221   3.698   8.683 -0.3498  1.1023  0.2897
 4592SOL    HW125412   1.237   3.604   8.680 -0.0607  1.1487  0.3837
 4592SOL    HW225413   1.136   3.688   8.726  0.4767 -1.1846  1.3783
 4593SOL     OW25414   0.163   3.156  17.564  0.1146 -0.3850  0.6523
 4593SOL    HW125415   0.230   3.225  17.560 -1.8548  1.4966  0.2650
 4593SOL    HW225416   0.213   3.091  17.516  1.8884  1.9148 -0.6335
 4594SOL     OW25417   4.400   3.297  13.310 -0.5257 -0.0991 -0.0262
 4594SOL    HW125418   4.437   3.267  13.227  0.9104  0.2249  0.4969
 4594SOL    HW225419   4.475   3.282  13.367 -2.2259 -0.8919  2.0001
 4595SOL     OW25420   1.202   3.260   0.217  0.2667 -0.1270 -0.2757
 4595SOL    HW125421   1.146   3.337   0.222  0.9953  0.3562  0.3550
 4595SOL    HW225422   1.264   3.262   0.290 -1.0691  0.2700  0.8438
 4596SOL     OW25423   2.459   3.293   8.861  0.1723 -0.1610  0.6428
 4596SOL    HW125424   2.473   3.363   8.925  3.6609 -1.1682  0.9612
 4596SOL    HW225425   2.401   3.335   8.798  1.0079  1.6018  1.0575
 4597SOL     OW25426   2.066   4.486   2.363  0.0830  0.7383 -0.1670
 4597SOL    HW125427   2.013   4.407   2.371 -0.6919  1.2658 -0.0671
 4597SOL    HW225428   2.007   4.535   2.420  0.2471 -0.2481  0.8475
 4598SOL     OW25429   1.926   2.178   7.156  0.0080 -0.3135  0.4229
 4598SOL    HW125430   1.847   2.126   7.172  0.7085 -1.8470 -1.1359
 4598SOL    HW225431   1.937   2.227   7.237  0.4514  0.4366 -0.0889
 4599SOL     OW25432   0.765   1.886   0.948  0.2849  0.7989 -0.2590
 4599SOL    HW125433   0.743   1.803   0.906 -0.5065  0.7053  0.3499
 4599SOL    HW225434   0.804   1.864   1.032 -1.1801  0.2582  0.2712
 4600SOL     OW25435   4.374   4.601  14.907  0.0191  0.4008  0.3004
 4600SOL    HW125436   4.344   4.540  14.840  1.3762 -0.1592  0.2014
 4600SOL    HW225437   4.293   4.651  14.919 -0.8631 -0.9955  0.1002
 4601SOL     OW25438   1.825   1.365   7.100 -0.3058 -0.1261  0.2986
 4601SOL    HW125439   1.919   1.361   7.118  0.0777  0.6913 -1.5062
 4601SOL    HW225440   1.818   1.454   7.067 -0.6667 -0.6871 -1.1469
 4602SOL     OW25441   2.759   4.684  13.227  0.6113  0.6051 -0.0110
 4602SOL    HW125442   2.690   4.618  13.238  2.4190 -1.7246 -2.7084
 4602SOL    HW225443   2.711   0.028  13.217  2.2741  1.6586  0.5077
 4603SOL     OW25444   2.760   0.974   4.445  0.3019  0.8512 -0.8246
 4603SOL    HW125445   2.843   1.014   4.471 -0.1584  1.7848 -0.8011
 4603SOL    HW225446   2.728   0.938   4.528  0.0173  1.0163 -0.8616
 4604SOL     OW25447   1.995   4.274   9.431  0.1959  0.6454 -0.5641
 4604SOL    HW125448   1.941   4.348   9.456  0.4323  0.9561 -0.9694
 4604SOL    HW225449   2.061   4.310   9.372  0.3517 -0.4547 -1.0691
 4605SOL     OW25450   4.165   0.950   8.247 -0.6223  0.2164  0.3622
 4605SOL    HW125451   4.166   1.033   8.200  0.6797 -0.1865 -0.3186
 4605SOL    HW225452   4.145   0.990   8.331 -0.5134  2.6772 -0.8053
 4606SOL     OW25453   3.236   3.167   9.688  0.4630 -0.2872 -0.2676
 4606SOL    HW125454   3.222   3.129   9.775  1.2199 -2.3510 -1.0362
 4606SOL    HW225455   3.279   3.251   9.703 -1.0079  0.1236  1.6417
 4607SOL     OW25456   2.128   1.669  12.686  0.5368  0.0948  0.3292
 4607SOL    HW125457   2.140   1.677  12.780  1.2365 -0.6045  0.2928
 4607SOL    HW225458   2.069   1.593  12.690  1.4420 -0.6867 -0.9190
 4608SOL     OW25459   3.664   1.065  10.772 -0.5064  0.5034  0.0715
 4608SOL    HW125460   3.744   1.107  10.802 -0.5778  1.0724 -0.5415
 4608SOL    HW225461   3.700   0.993  10.719  2.2288  1.4523  0.6352
 4609SOL     OW25462   4.056   1.972  12.514 -0.0575 -0.0609 -0.0181
 4609SOL    HW125463   4.070   1.969  12.419 -3.7618 -0.8292 -0.5560
 4609SOL    HW225464   4.041   2.064  12.532 -0.4673  0.2715 -2.0262
 4610SOL     OW25465   3.734   4.079   0.284  0.1707 -0.0167 -0.1387
 4610SOL    HW125466   3.807   4.022   0.261  0.8545  1.1944 -0.9844
 4610SOL    HW225467   3.778   4.147   0.335 -2.5779 -0.7157  3.1340
 4611SOL     OW25468   3.956   2.371   9.008  0.5267  0.0166 -0.1016
 4611SOL    HW125469   3.887   2.332   8.955 -2.9479  3.2756  1.9627
 4611SOL    HW225470   4.024   2.305   8.995  1.5131  0.5067  2.3782
 4612SOL     OW25471   3.238   3.649   9.229 -0.2412 -0.0755  0.0471
 4612SOL    HW125472   3.173   3.698   9.280  1.8757  1.3290  1.4323
 4612SOL    HW225473   3.213   3.681   9.143  0.9019 -0.7786 -0.5438
 4613SOL     OW25474   1.955   2.210  14.862 -0.0042 -1.0837  0.1885
 4613SOL    HW125475   1.928   2.215  14.954 -0.9631  1.3638 -0.2275
 4613SOL    HW225476   1.869   2.206  14.819 -0.3186 -2.4601  0.9148
 4614SOL     OW25477   2.769   4.171   1.973  0.0637  0.5446  0.2923
 4614SOL    HW125478   2.694   4.114   1.991  0.3973 -0.0924 -0.3177
 4614SOL    HW225479   2.828   4.138   2.040 -0.8114 -0.1053  0.7471
 4615SOL     OW25480   0.295   2.907   2.792  0.4235 -0.2008 -0.1270
 4615SOL    HW125481   0.236   2.952   2.853  1.9103  0.9460  0.4665
 4615SOL    HW225482   0.242   2.828   2.781 -0.1140  0.2793 -1.0420
 4616SOL     OW25483   4.169   4.578  14.725 -0.3425  0.6302 -0.1139
 4616SOL    HW125484   4.098   4.555  14.785 -0.8471 -1.6795 -1.6056
 4616SOL    HW225485   4.117   4.578  14.645  1.1272 -0.6376 -1.0586
 4617SOL     OW25486   0.502   2.408   8.781  0.0143  0.1801  0.1717
 4617SOL    HW125487   0.486   2.502   8.788 -0.1712  0.0387  1.6292
 4617SOL    HW225488   0.423   2.369   8.817  0.3816  0.2868  1.1179
 4618SOL     OW25489   1.535   2.779   7.572 -0.2227 -0.2229 -0.0783
 4618SOL    HW125490   1.469   2.843   7.545  2.3435  1.1630 -3.1312
 4618SOL    HW225491   1.615   2.811   7.529 -1.6036  0.1259 -2.3954
 4619SOL     OW25492   2.214   0.798   4.923  0.4873 -0.2926  0.2075
 4619SOL    HW125493   2.290   0.770   4.974  2.1142  1.8826 -1.0201
 4619SOL    HW225494   2.169   0.844   4.994 -0.4518  0.0556 -0.6081
 4620SOL     OW25495   0.965   1.498  15.356 -0.2302 -0.7520  0.1382
 4620SOL    HW125496   0.982   1.403  15.353  0.0710 -0.7605  1.8448
 4620SOL    HW225497   1.038   1.522  15.299 -0.3050 -1.1431 -0.1206
 4621SOL     OW25498   4.168   0.254   3.452 -0.1185  0.7198 -0.1172
 4621SOL    HW125499   4.173   0.159   3.444  1.1455  0.5830  2.1605
 4621SOL    HW225500   4.073   0.269   3.451 -0.5148 -2.0105 -1.0628
 4622SOL     OW25501   4.335   1.643   5.140  0.1172  0.2957  0.1396
 4622SOL    HW125502   4.244   1.620   5.120  0.2408 -0.1565  0.1022
 4622SOL    HW225503   4.340   1.737   5.123  3.6856 -0.2182 -1.6048
 4623SOL     OW25504   2.156   3.609   6.976 -0.2482  0.3443 -0.0939
 4623SOL    HW125505   2.233   3.561   6.948 -1.6767 -1.7403 -0.4074
 4623SOL    HW225506   2.201   3.694   6.983  2.0663 -0.7923 -1.0967
 4624SOL     OW25507   0.098   1.987   7.912 -0.2470  0.3162  0.1631
 4624SOL    HW125508   0.129   1.937   7.987 -1.1284 -1.9338 -0.9615
 4624SOL    HW225509   0.178   2.036   7.897 -0.6746  1.4338  1.5399
 4625SOL     OW25510   1.612   3.166   6.090 -0.3568 -0.0476 -0.0689
 4625SOL    HW125511   1.668   3.150   6.014 -1.0159  1.3559 -0.8417
 4625SOL    HW225512   1.668   3.230   6.135 -2.2392  1.3413  0.2820
 4626SOL     OW25513   2.743   1.548   3.197  0.0608 -0.4804 -0.2300
 4626SOL    HW125514   2.834   1.562   3.221 -0.8482 -0.8658  3.4538
 4626SOL    HW225515   2.739   1.456   3.223 -0.3703 -0.8492 -1.5967
 4627SOL     OW25516   1.715   4.399   7.744  0.0597 -0.4079 -0.6201
 4627SOL    HW125517   1.641   4.371   7.689 -0.4131 -0.8694  0.2594
 4627SOL    HW225518   1.789   4.344   7.718 -0.8430 -0.8251 -2.3465
 4628SOL     OW25519   3.412   2.685   8.857  0.1687 -0.6441  0.4334
 4628SOL    HW125520   3.409   2.591   8.841  1.4715 -0.6507  0.1923
 4628SOL    HW225521   3.430   2.682   8.951 -1.3631  1.2979  0.7838
 4629SOL     OW25522   0.449   0.740   2.152 -0.2284 -0.2030 -0.1684
 4629SOL    HW125523   0.400   0.773   2.228  0.7177 -0.3020  0.4965
 4629SOL    HW225524   0.520   0.695   2.199  0.3289  0.0898 -0.7484
 4630SOL     OW25525   1.832   1.731  12.162 -0.3712 -0.3654  0.3301
 4630SOL    HW125526   1.917   1.708  12.200 -0.2218 -0.7990 -0.2670
 4630SOL    HW225527   1.828   1.680  12.082  0.5019  0.2071 -0.0784
 4631SOL     OW25528   0.427   0.660  10.220 -0.0441 -0.0009 -0.2673
 4631SOL    HW125529   0.388   0.588  10.269  0.4145  0.4053  0.6920
 4631SOL    HW225530   0.365   0.685  10.152  0.4813  2.1375  0.0401
 4632SOL     OW25531   4.421   0.643  16.167  0.4934 -0.5456  0.3549
 4632SOL    HW125532   4.412   0.738  16.175 -1.1052 -0.8897  2.7580
 4632SOL    HW225533   4.374   0.610  16.244 -0.1391 -0.1636  0.1354
 4633SOL     OW25534   0.000   1.091   4.608 -0.5905 -0.0055 -0.7266
 4633SOL    HW125535   4.690   1.019   4.565  1.7092 -0.8148 -1.9100
 4633SOL    HW225536   0.092   1.065   4.607 -1.5821 -3.6456  1.1758
 4634SOL     OW25537   1.132   1.999  12.463 -0.0651  0.0047 -0.5554
 4634SOL    HW125538   1.083   2.055  12.523  2.2445  0.4247  0.9482
 4634SOL    HW225539   1.064   1.979  12.399 -1.0619 -0.7637  0.7397
 4635SOL     OW25540   1.192   0.614   9.234  0.3051  0.2521  0.4538
 4635SOL    HW125541   1.137   0.654   9.167 -0.3523 -1.2793  0.0833
 4635SOL    HW225542   1.275   0.659   9.218  1.8385 -2.7091  0.1862
 4636SOL     OW25543   2.226   2.666   4.642 -0.3254 -0.3191  0.1767
 4636SOL    HW125544   2.256   2.581   4.610  1.1114 -0.7739  2.6477
 4636SOL    HW225545   2.273   2.722   4.582 -0.4661  1.0310  1.3327
 4637SOL     OW25546   1.798   4.620   1.879 -0.2840  0.4418  0.4248
 4637SOL    HW125547   1.707   4.619   1.906 -1.0022 -1.2101 -2.0202
 4637SOL    HW225548   1.836   4.574   1.954 -0.8353  1.1455  1.1238
 4638SOL     OW25549   0.817   0.785   1.059  0.0286 -0.2619  0.6953
 4638SOL    HW125550   0.860   0.804   0.976  0.2455  0.3274  0.9410
 4638SOL    HW225551   0.732   0.827   1.047 -0.7770 -1.8478  0.8911
 4639SOL     OW25552   1.855   1.762   6.315  0.4479 -0.1497 -0.6943
 4639SOL    HW125553   1.841   1.785   6.223  1.9942  1.8153 -0.4572
 4639SOL    HW225554   1.870   1.668   6.307  0.0224 -0.3504  0.8897
 4640SOL     OW25555   1.178   3.069   6.206  0.5138 -0.0144 -0.4242
 4640SOL    HW125556   1.125   3.145   6.226 -1.4446 -1.2096 -1.0518
 4640SOL    HW225557   1.257   3.111   6.239  0.4021  1.1443 -1.6380
 4641SOL     OW25558   2.880   0.879   8.154 -0.1497  0.2282  0.8124
 4641SOL    HW125559   2.825   0.835   8.219  0.3717 -3.3653 -1.1756
 4641SOL    HW225560   2.943   0.922   8.211 -0.7785 -0.3672  1.9645
 4642SOL     OW25561   0.735   0.326  13.310 -0.2013  0.1589  0.5798
 4642SOL    HW125562   0.706   0.270  13.382  0.8234  1.1383  1.7451
 4642SOL    HW225563   0.695   0.411  13.328  3.3995  2.1982 -0.8592
 4643SOL     OW25564   3.819   2.481   4.482  0.0140 -0.7461 -0.1071
 4643SOL    HW125565   3.791   2.468   4.392 -0.2508  0.9678 -0.2728
 4643SOL    HW225566   3.756   2.552   4.495  0.3759 -0.5284  0.4464
 4644SOL     OW25567   0.059   2.485  12.435 -0.4913  0.4934  0.4166
 4644SOL    HW125568   0.127   2.432  12.476 -0.1861  0.6057  0.0515
 4644SOL    HW225569   0.114   2.556  12.402  0.9923  0.1141  2.0594
 4645SOL     OW25570   2.277   0.698   7.318  0.1483 -0.5425 -0.1096
 4645SOL    HW125571   2.353   0.751   7.296 -0.1976 -0.2679 -0.6542
 4645SOL    HW225572   2.322   0.619   7.347 -2.1479 -1.7627  0.1105
 4646SOL     OW25573   3.617   3.768   7.313 -0.2208 -0.3275  0.4399
 4646SOL    HW125574   3.681   3.794   7.247 -0.6951  2.9321  1.2444
 4646SOL    HW225575   3.539   3.811   7.279  0.8058  1.6971  0.6494
 4647SOL     OW25576   1.241   3.115   5.424  0.3897 -0.2865 -0.1110
 4647SOL    HW125577   1.208   3.154   5.505  0.3181 -2.1762  0.7676
 4647SOL    HW225578   1.281   3.048   5.480 -1.3816  0.3921  1.9776
 4648SOL     OW25579   1.037   0.825   3.101 -0.1336 -1.0403  0.2105
 4648SOL    HW125580   0.967   0.890   3.106  0.2377 -0.6580  0.4048
 4648SOL    HW225581   1.015   0.770   3.026 -0.7242 -2.0619  1.1208
 4649SOL     OW25582   1.287   4.703   7.977 -0.0325 -0.3473  0.3983
 4649SOL    HW125583   1.282   4.645   8.053  0.8026 -1.5481 -0.4628
 4649SOL    HW225584   1.346   4.660   7.915 -0.3920  0.2696 -0.3746
 4650SOL     OW25585   0.813   2.358   6.154 -0.6431  0.3805 -0.4868
 4650SOL    HW125586   0.833   2.430   6.215 -1.8285  0.8443 -0.6381
 4650SOL    HW225587   0.898   2.315   6.147 -0.6517  0.3207 -0.1825
 4651SOL     OW25588   1.589   3.734   7.362  0.1866  0.1029  0.6742
 4651SOL    HW125589   1.507   3.771   7.395  0.0850  1.0551 -0.6322
 4651SOL    HW225590   1.561   3.673   7.294 -2.6996  1.1652  0.9157
 4652SOL     OW25591   4.631   1.204  17.620 -0.0429  0.0341 -0.9276
 4652SOL    HW125592   4.613   1.282  17.672 -2.2960  0.0857 -1.7930
 4652SOL    HW225593   4.546   1.163  17.635  0.9750 -0.9669  2.2554
 4653SOL     OW25594   0.537   0.740  15.535  0.3933 -0.2569  0.1839
 4653SOL    HW125595   0.504   0.782  15.614  0.5963  1.9843 -0.8969
 4653SOL    HW225596   0.492   0.656  15.543 -0.4162  0.0488 -1.0867
 4654SOL     OW25597   3.660   4.211   4.260 -0.6988 -0.2638 -0.4814
 4654SOL    HW125598   3.592   4.274   4.285 -0.1197 -0.4734  1.6726
 4654SOL    HW225599   3.736   4.266   4.276 -0.3552 -0.3765 -1.7743
 4655SOL     OW25600   2.155   3.577  14.462  0.1000  0.1253 -0.5626
 4655SOL    HW125601   2.091   3.507  14.478  0.9101 -0.0471  1.9853
 4655SOL    HW225602   2.110   3.637  14.402 -2.3260  0.6897  1.7895
 4656SOL     OW25603   3.716   3.514   5.171  0.2983 -0.1176  0.7946
 4656SOL    HW125604   3.747   3.586   5.227  1.7538 -2.0668  2.4765
 4656SOL    HW225605   3.733   3.443   5.232  0.1661 -0.5654  0.3027
 4657SOL     OW25606   3.269   3.555   1.118  0.2898 -0.2492  0.2842
 4657SOL    HW125607   3.194   3.599   1.077  0.0925  1.4579  2.5002
 4657SOL    HW225608   3.277   3.606   1.199 -1.6005 -1.1504  1.0513
 4658SOL     OW25609   2.953   1.157   4.499 -0.1673 -0.4859 -0.1662
 4658SOL    HW125610   2.945   1.168   4.594  2.0266 -0.8733  0.0725
 4658SOL    HW225611   3.046   1.135   4.497  0.0581  0.4990 -0.4370
 4659SOL     OW25612   1.845   2.130   8.108  0.0682  0.0054 -0.3337
 4659SOL    HW125613   1.855   2.044   8.150 -0.9208  1.6306  3.1813
 4659SOL    HW225614   1.754   2.149   8.128  0.7150  2.7465  0.0631
 4660SOL     OW25615   0.754   2.619   3.457 -0.3011  0.6575  0.3257
 4660SOL    HW125616   0.662   2.631   3.483 -0.7552  0.7870 -1.3641
 4660SOL    HW225617   0.773   2.713   3.450 -1.2204  0.7161 -1.2815
 4661SOL     OW25618   4.686   0.888   6.144 -0.1425 -0.6420  0.6825
 4661SOL    HW125619   0.036   0.927   6.138 -1.1097  1.2552 -0.9906
 4661SOL    HW225620   4.700   0.800   6.108 -1.1344 -0.2039 -0.7546
 4662SOL     OW25621   2.947   2.750   9.512 -0.4695  0.1032 -0.2166
 4662SOL    HW125622   3.010   2.754   9.585  1.8665  3.6973 -2.4345
 4662SOL    HW225623   2.913   2.839   9.520 -0.2458  0.2035 -0.3803
 4663SOL     OW25624   1.076   4.159   8.823  0.0882  0.1232  0.0462
 4663SOL    HW125625   1.126   4.084   8.790 -0.9090 -0.5445  0.0740
 4663SOL    HW225626   1.137   4.230   8.844 -1.0262  1.9269 -2.7623
 4664SOL     OW25627   3.839   2.417   5.388 -0.2380 -0.1342 -0.5159
 4664SOL    HW125628   3.788   2.372   5.455 -0.5021  2.3769  0.9761
 4664SOL    HW225629   3.787   2.497   5.382 -3.1654 -2.0235 -0.3333
 4665SOL     OW25630   1.566   3.705  10.179 -0.3979  0.0094 -0.1715
 4665SOL    HW125631   1.659   3.727  10.179 -0.3832 -0.2025  3.9526
 4665SOL    HW225632   1.569   3.650  10.257 -0.4025  1.2619  0.7089
 4666SOL     OW25633   0.948   2.796   7.575  0.3233  0.0645 -0.9156
 4666SOL    HW125634   0.914   2.779   7.663  0.0240  0.0241 -1.0381
 4666SOL    HW225635   1.027   2.846   7.592  0.8055 -0.3022 -2.1289
 4667SOL     OW25636   1.828   2.108  13.116  0.1743  0.6185  0.1134
 4667SOL    HW125637   1.775   2.091  13.194  1.9600  2.3510  1.6733
 4667SOL    HW225638   1.887   2.033  13.106 -1.6223 -1.3336  4.3603
 4668SOL     OW25639   3.778   2.889   9.212 -0.1295 -0.2962  0.6224
 4668SOL    HW125640   3.789   2.908   9.119  0.5461 -0.3995  0.6824
 4668SOL    HW225641   3.840   2.817   9.227  2.2504  1.7942  0.8804
 4669SOL     OW25642   4.057   1.375  10.388 -0.5422  0.5177 -0.5674
 4669SOL    HW125643   3.997   1.358  10.315  0.4081 -1.1880 -0.9385
 4669SOL    HW225644   4.003   1.425  10.450  1.4186  0.3895  1.2377
 4670SOL     OW25645   4.678   1.148   5.747  0.2341  0.2659  0.1076
 4670SOL    HW125646   4.647   1.127   5.835 -3.5656  2.2502 -0.7392
 4670SOL    HW225647   4.676   1.063   5.702 -1.4713  0.6359 -0.5283
 4671SOL     OW25648   4.331   3.637   0.561 -0.0005 -0.0144 -0.7357
 4671SOL    HW125649   4.277   3.603   0.633  1.2645  1.7780  1.0677
 4671SOL    HW225650   4.395   3.566   0.555  0.1157  0.0251 -0.0149
 4672SOL     OW25651   1.617   1.619   2.393 -0.4854 -0.0003 -0.4212
 4672SOL    HW125652   1.693   1.594   2.446  0.7672  3.0850 -0.7532
 4672SOL    HW225653   1.553   1.558   2.429 -2.1764  0.4089 -2.7412
 4673SOL     OW25654   1.907   3.084   8.175  0.2955 -0.0783 -0.2921
 4673SOL    HW125655   1.905   3.023   8.101  0.6509  1.6126 -1.6785
 4673SOL    HW225656   1.865   3.025   8.237 -1.7844  1.2543 -0.4527
 4674SOL     OW25657   0.833   0.451   9.971 -0.0529  0.0560  0.3637
 4674SOL    HW125658   0.789   0.532   9.944  0.3950 -0.9814 -3.5281
 4674SOL    HW225659   0.798   0.438  10.059 -0.6240 -0.9405 -0.0072
 4675SOL     OW25660   3.686   0.709   6.730  0.8877 -0.3698  0.1548
 4675SOL    HW125661   3.707   0.673   6.816  1.6488  0.1267  0.1700
 4675SOL    HW225662   3.768   0.706   6.681  1.1084 -0.1074  0.5192
 4676SOL     OW25663   3.920   2.023   9.158  0.3492 -0.3105  0.1438
 4676SOL    HW125664   3.901   2.061   9.244  0.1738 -1.6835  0.7098
 4676SOL    HW225665   3.872   1.940   9.150 -2.5260  1.3765  0.1044
 4677SOL     OW25666   3.527   3.395   8.404 -0.2300 -0.4227  0.3185
 4677SOL    HW125667   3.546   3.321   8.346 -3.8966 -1.5224  0.5155
 4677SOL    HW225668   3.601   3.386   8.464 -0.1558 -4.7646 -0.3875
 4678SOL     OW25669   4.238   0.843   4.501  0.3412 -0.0977  0.1664
 4678SOL    HW125670   4.199   0.768   4.456  0.8418 -0.6307  0.6146
 4678SOL    HW225671   4.168   0.907   4.508 -0.3433 -1.0601  2.2202
 4679SOL     OW25672   4.447   0.439   7.418  0.3529  0.1827 -0.1400
 4679SOL    HW125673   4.459   0.405   7.329 -2.1720  0.6139 -0.6518
 4679SOL    HW225674   4.447   0.354   7.462  1.9435 -0.6289 -1.6965
 4680SOL     OW25675   2.525   1.085   6.564  0.0072  0.3307 -0.2369
 4680SOL    HW125676   2.451   1.048   6.611 -0.0642 -0.9620 -1.3717
 4680SOL    HW225677   2.594   1.057   6.624  0.8141 -0.0925 -1.3568
 4681SOL     OW25678   3.482   0.533   6.626 -0.3711  0.1243 -0.3457
 4681SOL    HW125679   3.410   0.562   6.682  0.4776 -0.3367  0.9659
 4681SOL    HW225680   3.546   0.597   6.656 -0.6912  0.9751 -1.4745
 4682SOL     OW25681   1.917   0.733   5.922  0.0952 -0.0809  0.0436
 4682SOL    HW125682   1.925   0.689   6.006  1.3036 -1.7766 -0.9723
 4682SOL    HW225683   1.853   0.682   5.874  0.0672  2.0687 -2.2062
 4683SOL     OW25684   3.759   1.529   7.729 -0.1457 -0.4934 -0.0236
 4683SOL    HW125685   3.849   1.522   7.759  0.3768  0.9419 -1.2863
 4683SOL    HW225686   3.740   1.613   7.771 -0.8909 -1.6052  1.8418
 4684SOL     OW25687   2.712   2.073   5.363 -1.0253 -0.2705 -0.5898
 4684SOL    HW125688   2.794   2.044   5.323 -0.9005 -0.0335 -0.5057
 4684SOL    HW225689   2.740   2.157   5.400  0.2595 -0.8655 -0.1975
 4685SOL     OW25690   1.522   4.308   7.584 -0.7177 -0.4673 -0.7150
 4685SOL    HW125691   1.477   4.360   7.518 -0.1632 -0.5975 -1.1912
 4685SOL    HW225692   1.444   4.271   7.626 -1.3047 -3.5396 -4.5083
 4686SOL     OW25693   0.532   0.480   8.446 -0.0419  0.2171 -0.0926
 4686SOL    HW125694   0.618   0.456   8.480  0.0711 -0.6639 -1.0127
 4686SOL    HW225695   0.538   0.518   8.358  0.5035 -2.3905 -1.1907
 4687SOL     OW25696   3.206   1.517  10.593  0.2943  0.2940 -0.7148
 4687SOL    HW125697   3.145   1.537  10.522 -0.7748  1.0800  0.4297
 4687SOL    HW225698   3.240   1.604  10.611 -1.2987  0.7504  0.0631
 4688SOL     OW25699   0.584   4.660  11.177  0.3680 -0.3455 -0.3114
 4688SOL    HW125700   0.588   4.677  11.272 -1.8725  0.3933 -0.3368
 4688SOL    HW225701   0.592   4.565  11.176 -1.7607 -0.5381  1.0209
 4689SOL     OW25702   4.053   1.171   4.766  0.2381  0.3003 -0.5199
 4689SOL    HW125703   4.053   1.097   4.704  0.2148 -0.5855  0.5460
 4689SOL    HW225704   4.125   1.141   4.821 -0.7343 -0.3226  0.4141
 4690SOL     OW25705   1.763   3.344   3.387 -0.1441 -0.1240 -0.2852
 4690SOL    HW125706   1.806   3.299   3.460  1.7803 -0.0613 -1.3733
 4690SOL    HW225707   1.777   3.284   3.314  0.6924  0.4858 -0.6297
 4691SOL     OW25708   0.851   3.651  16.731 -0.6600 -0.1862 -0.1226
 4691SOL    HW125709   0.815   3.732  16.695 -0.5514  0.2885  0.8338
 4691SOL    HW225710   0.942   3.660  16.703 -0.8887 -1.5911 -1.3282
 4692SOL     OW25711   1.827   4.418   0.475  0.1026 -0.3131  0.1527
 4692SOL    HW125712   1.883   4.440   0.401 -0.3850  2.5386  0.6175
 4692SOL    HW225713   1.856   4.329   0.496  0.8998 -0.5238 -1.8453
 4693SOL     OW25714   0.990   3.479   4.504 -0.1893  0.4030 -0.0284
 4693SOL    HW125715   0.988   3.430   4.586 -0.0206  0.2320 -0.1286
 4693SOL    HW225716   1.008   3.409   4.441  0.1162 -1.3873  2.0864
 4694SOL     OW25717   2.460   0.888   4.309 -0.1380  0.0248 -0.0310
 4694SOL    HW125718   2.369   0.901   4.284  0.2200  1.0771 -0.7946
 4694SOL    HW225719   2.458   0.907   4.403 -1.2528 -2.3407  0.3939
 4695SOL     OW25720   0.859   1.880   4.496  0.1838  0.5420  0.2223
 4695SOL    HW125721   0.763   1.883   4.490  0.0631  1.1254  2.3160
 4695SOL    HW225722   0.877   1.795   4.537  0.8306  1.5760  2.0635
 4696SOL     OW25723   4.585   4.700   8.765  0.7205  0.3923 -0.9465
 4696SOL    HW125724   4.628   0.035   8.811 -0.4185  0.3417  0.1982
 4696SOL    HW225725   4.520   0.013   8.718  0.1302  1.6878  1.2517
 4697SOL     OW25726   2.957   2.101  16.347  0.0540 -0.3139 -0.5366
 4697SOL    HW125727   3.019   2.167  16.376  0.1908 -0.6209 -0.1278
 4697SOL    HW225728   2.913   2.086  16.431 -0.0710 -3.1390 -1.0786
 4698SOL     OW25729   4.125   1.989   7.667 -0.0398 -0.3928 -0.7352
 4698SOL    HW125730   4.044   2.023   7.703  0.2851 -0.0917 -0.2920
 4698SOL    HW225731   4.093   1.906   7.632 -2.1263  0.4759 -0.8691
 4699SOL     OW25732   0.043   2.791   6.993 -0.0720 -0.0652  0.4670
 4699SOL    HW125733   0.089   2.809   6.910  1.1446 -1.6449  0.7916
 4699SOL    HW225734   0.025   2.880   7.024 -0.0584  0.5021 -1.1479
 4700SOL     OW25735   1.325   3.605   3.803 -0.6053  0.1142  0.1616
 4700SOL    HW125736   1.386   3.554   3.750 -2.5722  2.4794 -4.3186
 4700SOL    HW225737   1.322   3.559   3.887  2.0419 -0.3075  0.0142
 4701SOL     OW25738   1.529   1.421  13.201 -0.3030 -0.7651  0.0290
 4701SOL    HW125739   1.463   1.451  13.138  0.7718 -1.4228 -1.4225
 4701SOL    HW225740   1.474   1.382  13.269 -0.7568 -2.1878 -1.1501
 4702SOL     OW25741   4.610   0.431   4.147  0.7092  0.3209  0.1201
 4702SOL    HW125742   4.564   0.467   4.223  0.3229 -1.7561  0.8712
 4702SOL    HW225743   4.675   0.385   4.200 -0.7976 -1.0008  0.8202
 4703SOL     OW25744   2.203   4.423   9.357 -0.0494 -0.4295 -0.1912
 4703SOL    HW125745   2.198   4.486   9.429  0.9827  0.7881 -1.1896
 4703SOL    HW225746   2.241   4.481   9.291  0.3515 -0.5458 -0.0619
 4704SOL     OW25747   0.338   2.343   5.742  0.3776 -0.6294 -0.2686
 4704SOL    HW125748   0.286   2.415   5.778  0.5638 -0.9987  0.7301
 4704SOL    HW225749   0.322   2.376   5.653  0.2694  0.9215  0.3281
 4705SOL     OW25750   2.851   2.552   7.439  0.0162 -0.1289  0.4797
 4705SOL    HW125751   2.805   2.517   7.515 -2.0283  1.4464 -0.0364
 4705SOL    HW225752   2.774   2.576   7.387  0.7633 -2.5266 -1.7453
 4706SOL     OW25753   4.521   0.837  11.240  0.8950  0.6890  0.1711
 4706SOL    HW125754   4.462   0.831  11.316  1.5890 -2.5858  0.4389
 4706SOL    HW225755   4.546   0.929  11.251  2.7644  0.2547 -0.5394
 4707SOL     OW25756   0.898   0.381   8.263 -0.2550 -0.8055 -0.6212
 4707SOL    HW125757   0.842   0.445   8.219  0.9127 -0.1115 -1.0764
 4707SOL    HW225758   0.967   0.389   8.198 -0.0209 -0.7922 -0.3735
 4708SOL     OW25759   3.717   1.877   3.439 -0.0969 -0.1979  0.1880
 4708SOL    HW125760   3.733   1.971   3.449 -0.6941  0.0232 -0.8667
 4708SOL    HW225761   3.697   1.862   3.346 -2.5375 -0.4026  0.7331
 4709SOL     OW25762   1.259   0.241   2.915 -0.2447  0.2276  0.0093
 4709SOL    HW125763   1.254   0.336   2.919 -1.0723  0.1955 -0.3665
 4709SOL    HW225764   1.341   0.209   2.952 -0.0444  2.4340  1.4657
 4710SOL     OW25765   2.386   2.224   4.804  0.4139 -0.3233 -0.9388
 4710SOL    HW125766   2.429   2.260   4.727 -1.6147  2.4886 -0.7415
 4710SOL    HW225767   2.451   2.169   4.848  0.9275 -0.0868 -1.3962
 4711SOL     OW25768   4.168   2.162   4.750 -0.3072  0.1696  0.2496
 4711SOL    HW125769   4.183   2.110   4.670  2.0660 -1.0308  1.4692
 4711SOL    HW225770   4.073   2.155   4.752 -0.3836  1.6824  1.2700
 4712SOL     OW25771   3.897   0.597   5.983 -0.5714  0.4711 -0.5425
 4712SOL    HW125772   3.930   0.684   5.962 -1.7126  1.2405  0.9267
 4712SOL    HW225773   3.943   0.584   6.065  0.3907  0.3356 -1.0987
 4713SOL     OW25774   2.255   1.831  11.956 -0.1152 -0.1203  0.3488
 4713SOL    HW125775   2.172   1.835  12.005 -0.2858  0.8216 -0.0201
 4713SOL    HW225776   2.234   1.806  11.866  0.1293  0.0236  0.2523
 4714SOL     OW25777   2.683   0.685   9.439  0.2073 -0.1680  0.0610
 4714SOL    HW125778   2.748   0.686   9.508  1.2905  1.6454 -0.9695
 4714SOL    HW225779   2.741   0.688   9.363 -1.1483 -2.2275 -1.0489
 4715SOL     OW25780   1.188   1.194   5.237  0.1135 -0.5131 -0.4902
 4715SOL    HW125781   1.175   1.221   5.328  1.8293  0.1940 -0.4432
 4715SOL    HW225782   1.101   1.163   5.212 -0.1018 -1.5982  1.6022
 4716SOL     OW25783   2.230   2.065   0.863  0.3416  0.1219  0.5585
 4716SOL    HW125784   2.281   2.074   0.944  1.7424 -1.4662 -0.1695
 4716SOL    HW225785   2.241   1.970   0.857  2.0906  0.1809  2.7785
 4717SOL     OW25786   3.767   0.223   5.263 -0.0472 -0.0155  0.3977
 4717SOL    HW125787   3.722   0.264   5.337  1.4712  2.9600 -0.3516
 4717SOL    HW225788   3.850   0.213   5.310  0.3411 -0.7299 -0.4480
 4718SOL     OW25789   1.136   4.724   2.915 -0.2813 -0.5472 -0.5993
 4718SOL    HW125790   1.149   0.082   2.915 -0.6030 -0.5059  2.5960
 4718SOL    HW225791   1.221   4.702   2.877  0.7832 -0.1629  1.5794
 4719SOL     OW25792   4.498   3.752   5.482  0.1123  0.0811  0.2059
 4719SOL    HW125793   4.565   3.696   5.522  0.2612 -0.1204 -0.3339
 4719SOL    HW225794   4.422   3.695   5.493  0.8864 -0.9358  0.2446
 4720SOL     OW25795   3.910   1.660   9.825 -0.1214 -0.4082  0.0748
 4720SOL    HW125796   3.895   1.582   9.879  3.3116 -0.7410  0.5344
 4720SOL    HW225797   3.848   1.726   9.855  2.7333  2.2507  0.1184
 4721SOL     OW25798   4.627   1.726  11.866  0.0902 -0.2777 -0.0134
 4721SOL    HW125799   4.716   1.695  11.850  0.6899  1.5002 -0.1627
 4721SOL    HW225800   4.595   1.650  11.915  1.4560 -0.9309 -0.1641
 4722SOL     OW25801   2.791   2.339   7.143 -0.0384  0.1223  0.3084
 4722SOL    HW125802   2.726   2.341   7.073 -0.7993  1.6655  1.0700
 4722SOL    HW225803   2.738   2.338   7.222 -0.4535  2.5537  0.0581
 4723SOL     OW25804   2.052   0.869   5.726 -0.1464  0.2037  0.3605
 4723SOL    HW125805   2.132   0.822   5.748  0.5564  1.0389 -0.4456
 4723SOL    HW225806   1.989   0.814   5.773  0.0273 -3.1780 -3.4223
 4724SOL     OW25807   4.091   4.322   8.768  0.4009  0.2425 -0.0728
 4724SOL    HW125808   4.099   4.365   8.853 -2.0824 -0.9958  0.7846
 4724SOL    HW225809   4.142   4.241   8.767 -1.1921 -0.7950  2.5733
 4725SOL     OW25810   4.358   2.058   4.137 -0.5950 -0.2011 -0.1986
 4725SOL    HW125811   4.335   2.049   4.045 -0.4836  1.6432 -0.4049
 4725SOL    HW225812   4.311   2.134   4.170 -0.7462  1.0449 -3.2879
 4726SOL     OW25813   2.222   4.628  11.623 -0.9035 -0.2055 -0.0400
 4726SOL    HW125814   2.138   4.589  11.601 -1.6733  1.4014  0.0943
 4726SOL    HW225815   2.243   4.586  11.706  2.0899  2.2694  0.4929
 4727SOL     OW25816   3.755   1.526  14.133  0.7712  0.6412  0.2359
 4727SOL    HW125817   3.662   1.527  14.155  0.7682  1.6820  0.1389
 4727SOL    HW225818   3.766   1.437  14.098 -0.9628  0.5244 -0.0151
 4728SOL     OW25819   3.866   2.418   8.526  0.2438  0.2191 -0.0757
 4728SOL    HW125820   3.802   2.361   8.569 -0.6539  1.8220  0.6929
 4728SOL    HW225821   3.821   2.445   8.446  0.5205 -1.3092 -0.7482
 4729SOL     OW25822   4.093   1.897   1.640  0.2541 -0.0460  0.1826
 4729SOL    HW125823   4.007   1.858   1.625  1.2314 -2.1436  0.0461
 4729SOL    HW225824   4.072   1.936   1.725 -0.5589  0.7023 -0.3644
 4730SOL     OW25825   0.502   1.504   1.103  0.2771 -0.5756 -0.0466
 4730SOL    HW125826   0.491   1.562   1.178 -0.0178  1.4914 -1.6903
 4730SOL    HW225827   0.597   1.502   1.097  0.3532  2.4766  0.1814
 4731SOL     OW25828   2.358   0.106   8.626 -0.4439 -0.1062  0.0421
 4731SOL    HW125829   2.319   0.029   8.584  1.0390 -0.7602 -0.1412
 4731SOL    HW225830   2.332   0.182   8.575  0.2261  1.0537  1.4552
 4732SOL     OW25831   3.186   2.385  13.701 -0.5416  0.1068  0.6106
 4732SOL    HW125832   3.271   2.419  13.730 -0.2895 -0.6591  0.7743
 4732SOL    HW225833   3.141   2.469  13.709 -0.3736  0.3512 -1.1036
 4733SOL     OW25834   3.882   3.130   6.028 -0.5758 -0.2291  0.1045
 4733SOL    HW125835   3.815   3.073   6.068 -0.6333 -1.6160 -1.9590
 4733SOL    HW225836   3.950   3.136   6.095  1.6043 -1.3771 -2.0097
 4734SOL     OW25837   3.791   0.835  14.171  0.2650  0.0207  0.5003
 4734SOL    HW125838   3.768   0.885  14.249  1.7173  1.3628  0.0642
 4734SOL    HW225839   3.856   0.883  14.119  0.0277 -0.3196 -0.1121
 4735SOL     OW25840   2.690   4.704   4.294 -0.1717  0.0819  0.5264
 4735SOL    HW125841   2.645   4.628   4.332 -0.3889 -1.2968 -2.4812
 4735SOL    HW225842   2.616   0.023   4.271 -0.4619 -0.4088  0.2657
 4736SOL     OW25843   4.582   3.463  11.920 -0.1695 -0.0459  0.1518
 4736SOL    HW125844   4.516   3.520  11.960 -0.2966 -2.2253  3.0425
 4736SOL    HW225845   4.570   3.465  11.825 -0.5546 -0.7728  0.1841
 4737SOL     OW25846   4.406   3.558  16.745  0.4611 -0.0238 -0.1361
 4737SOL    HW125847   4.412   3.462  16.741  0.2529 -0.1771  3.2836
 4737SOL    HW225848   4.453   3.589  16.823  2.0768 -1.8657 -0.3724
 4738SOL     OW25849   3.127   2.231  16.493  0.4268 -0.5098  0.0648
 4738SOL    HW125850   3.190   2.274  16.551  2.0027 -1.8028 -0.6521
 4738SOL    HW225851   3.110   2.147  16.536  0.2822 -0.7960 -0.5513
 4739SOL     OW25852   2.939   3.387   2.240  0.0362  0.2882  0.2742
 4739SOL    HW125853   2.942   3.293   2.222 -1.1312  0.5118 -1.0694
 4739SOL    HW225854   2.963   3.419   2.153 -0.9710  1.2651  0.3461
 4740SOL     OW25855   0.551   3.541   1.539  0.1753 -0.2925  0.7327
 4740SOL    HW125856   0.547   3.538   1.634  1.5119 -1.3270  0.7520
 4740SOL    HW225857   0.644   3.519   1.531  0.3689  0.3889  1.1229
 4741SOL     OW25858   3.696   1.329   6.187  0.2635 -0.1870 -0.2221
 4741SOL    HW125859   3.791   1.329   6.177  0.1469  1.0120 -1.2853
 4741SOL    HW225860   3.679   1.406   6.242 -0.9815 -0.8752  0.3688
 4742SOL     OW25861   4.072   1.711   0.579  0.2733 -0.7397  0.3131
 4742SOL    HW125862   4.091   1.790   0.629 -0.6390  1.1782 -2.3720
 4742SOL    HW225863   4.150   1.716   0.524 -0.0272 -0.1663 -0.0640
 4743SOL     OW25864   3.288   1.447   2.289  0.6120  0.1116  0.4331
 4743SOL    HW125865   3.381   1.431   2.304  1.0564  3.8052  1.6395
 4743SOL    HW225866   3.291   1.535   2.251  1.2000  0.4983  1.3814
 4744SOL     OW25867   3.912   4.563   5.532 -0.3799 -0.1235  0.0728
 4744SOL    HW125868   3.995   4.543   5.490 -0.2310  2.1405 -0.7241
 4744SOL    HW225869   3.865   4.483   5.508 -0.6613  0.2214 -0.5116
 4745SOL     OW25870   0.376   4.410   5.993  0.6811  0.3369 -0.1602
 4745SOL    HW125871   0.440   4.347   5.959 -0.7975 -0.7386 -0.9632
 4745SOL    HW225872   0.410   4.421   6.082 -0.2792  1.1504  0.0973
 4746SOL     OW25873   4.324   2.180   6.237 -0.0290  0.0186  0.3718
 4746SOL    HW125874   4.286   2.136   6.313 -0.2402  3.1283  2.0651
 4746SOL    HW225875   4.253   2.165   6.174  1.6294  0.3220 -1.5805
 4747SOL     OW25876   2.564   1.381   9.105  0.4891 -0.1205  0.1445
 4747SOL    HW125877   2.541   1.319   9.175 -0.6366  0.3812  0.2076
 4747SOL    HW225878   2.489   1.441   9.105 -1.0636 -2.0713 -2.5101
 4748SOL     OW25879   0.765   0.969   9.481  0.7427  0.1467  0.3271
 4748SOL    HW125880   0.710   0.944   9.407 -1.4571  2.4100  1.1873
 4748SOL    HW225881   0.716   1.048   9.503 -1.0344 -0.2884 -2.1008
 4749SOL     OW25882   4.401   2.317  12.579  0.3654  0.0153 -0.1231
 4749SOL    HW125883   4.385   2.335  12.672  2.9391  1.6353  0.0062
 4749SOL    HW225884   4.357   2.390  12.537 -2.2277 -1.3345  0.2891
 4750SOL     OW25885   4.344   2.445  10.325 -0.0271  0.1038 -0.2454
 4750SOL    HW125886   4.317   2.369  10.377 -2.2962 -0.2364 -1.8961
 4750SOL    HW225887   4.428   2.420  10.285 -0.6056 -1.8127 -0.2731
 4751SOL     OW25888   0.565   1.621   2.901 -0.0435 -0.5706  0.2414
 4751SOL    HW125889   0.472   1.641   2.907  0.2280  1.5384 -2.4104
 4751SOL    HW225890   0.608   1.699   2.866  0.7225 -0.3139  1.7918
 4752SOL     OW25891   0.077   4.464   7.769 -0.0376 -0.2463  0.1190
 4752SOL    HW125892   0.113   4.516   7.698  2.9314 -1.3313  0.8153
 4752SOL    HW225893   0.027   4.398   7.722  1.5037 -0.0486 -1.7860
 4753SOL     OW25894   1.557   3.852   7.721  0.1844  0.3804 -0.5539
 4753SOL    HW125895   1.628   3.850   7.786 -2.0498  0.1991  1.8942
 4753SOL    HW225896   1.568   3.767   7.679 -3.3702 -0.6439  0.6196
 4754SOL     OW25897   2.662   3.516   5.562  0.3780 -0.0696  0.5312
 4754SOL    HW125898   2.734   3.520   5.500  0.3911 -3.4195  0.3675
 4754SOL    HW225899   2.588   3.521   5.502  1.0463 -0.8109 -0.3448
 4755SOL     OW25900   4.113   1.707  12.070 -0.4077  0.1925  0.0581
 4755SOL    HW125901   4.176   1.643  12.103  0.9783  1.9123  0.7245
 4755SOL    HW225902   4.175   1.776  12.046  0.7199  0.6604  4.3932
 4756SOL     OW25903   0.994   4.223   5.216 -0.2428 -0.6770  0.0144
 4756SOL    HW125904   1.071   4.199   5.164 -0.1100 -0.5334  0.1472
 4756SOL    HW225905   1.043   4.259   5.289 -2.2868  1.2666  0.4134
 4757SOL     OW25906   3.677   3.776   2.513  1.0378  0.2512  0.7864
 4757SOL    HW125907   3.724   3.778   2.596  1.9820  0.8533  0.2416
 4757SOL    HW225908   3.728   3.714   2.462  2.3182  2.4796 -0.6490
 4758SOL     OW25909   2.954   2.409   5.200 -0.0769  0.0764  0.2389
 4758SOL    HW125910   3.026   2.433   5.141 -0.0766  1.0696  0.6499
 4758SOL    HW225911   3.008   2.353   5.256 -1.5363  0.1832  1.7676
 4759SOL     OW25912   3.327   1.241   5.069  0.8476  0.1276  0.6707
 4759SOL    HW125913   3.251   1.278   5.023  0.3005  1.2652  2.5224
 4759SOL    HW225914   3.288   1.225   5.155  1.4714 -1.4888  0.6546
 4760SOL     OW25915   2.507   0.103   8.863  0.0370  0.0044  0.1646
 4760SOL    HW125916   2.481   0.195   8.865 -1.3015 -0.3775 -0.2671
 4760SOL    HW225917   2.458   0.076   8.785 -1.9689 -0.7765  1.7033
 4761SOL     OW25918   2.789   4.475   6.933 -0.7148 -0.3169 -0.4501
 4761SOL    HW125919   2.786   4.391   6.979 -1.2797 -0.8616 -1.4882
 4761SOL    HW225920   2.872   4.459   6.890 -0.2574  2.3293 -0.5926
 4762SOL     OW25921   3.443   3.362  11.683 -0.5187 -0.1313  0.7614
 4762SOL    HW125922   3.506   3.426  11.715  0.8260 -1.1918  0.2563
 4762SOL    HW225923   3.363   3.414  11.687  0.2552  1.0344  0.7717
 4763SOL     OW25924   2.175   2.405   1.718  0.5025  0.1435 -0.8054
 4763SOL    HW125925   2.208   2.459   1.645 -0.6756 -0.0136 -1.4491
 4763SOL    HW225926   2.118   2.473   1.754  1.6559 -0.0255  1.3044
 4764SOL     OW25927   2.301   1.704   3.211  0.9531 -0.3249  1.0502
 4764SOL    HW125928   2.364   1.770   3.240 -0.2863  0.5317  1.7805
 4764SOL    HW225929   2.301   1.716   3.116 -0.3500  0.4637  1.1445
 4765SOL     OW25930   0.478   2.646  13.600 -0.0859 -0.2773 -0.1740
 4765SOL    HW125931   0.403   2.636  13.658 -1.5684 -0.5893 -2.1130
 4765SOL    HW225932   0.434   2.679  13.521 -1.0191 -1.0408  0.0143
 4766SOL     OW25933   4.147   3.365   7.699  0.0589  0.1129  0.5221
 4766SOL    HW125934   4.052   3.360   7.698  0.0139  0.8697  1.3367
 4766SOL    HW225935   4.167   3.310   7.774  2.1619  0.9949  0.6290
 4767SOL     OW25936   3.440   4.708  12.754  0.2516 -0.2226 -0.2450
 4767SOL    HW125937   3.536   4.710  12.750  0.1841  0.5315 -1.3330
 4767SOL    HW225938   3.431   0.065  12.744 -1.4487 -0.5390 -1.5364
 4768SOL     OW25939   0.449   0.779  10.827  0.1000 -0.3882  0.3144
 4768SOL    HW125940   0.512   0.758  10.758  0.2393 -0.5845  0.5005
 4768SOL    HW225941   0.495   0.726  10.893  0.7123  0.3547  0.4861
 4769SOL     OW25942   2.645   2.267   8.005  0.1222  0.1309 -0.7496
 4769SOL    HW125943   2.674   2.341   8.060  1.5535  0.6887 -2.2547
 4769SOL    HW225944   2.557   2.258   8.041 -0.1968  1.7193 -1.1199
 4770SOL     OW25945   0.804   4.090   8.370 -0.4468 -0.4998  0.1009
 4770SOL    HW125946   0.884   4.044   8.345 -0.4560 -0.2831 -0.3197
 4770SOL    HW225947   0.799   4.161   8.306 -0.4604 -0.3313  0.2906
 4771SOL     OW25948   0.152   1.330  17.488 -0.3349 -0.0399  0.2067
 4771SOL    HW125949   0.124   1.268  17.555 -0.2923  1.4715  1.6564
 4771SOL    HW225950   0.124   1.412  17.529  1.3203  0.7247 -0.1488
 4772SOL     OW25951   0.152   1.875   9.145 -0.0055  0.6284 -0.1962
 4772SOL    HW125952   0.223   1.812   9.153 -0.6342  0.3630  3.4737
 4772SOL    HW225953   0.157   1.929   9.224 -0.0378  0.3725 -0.0196
 4773SOL     OW25954   3.682   3.610   2.989 -0.0321  0.8007 -0.5177
 4773SOL    HW125955   3.592   3.607   2.955 -0.0853 -1.5153 -0.1910
 4773SOL    HW225956   3.737   3.586   2.914  0.4945 -0.6083  0.3304
 4774SOL     OW25957   3.393   1.935   0.537 -0.5967 -0.0056  0.1800
 4774SOL    HW125958   3.401   2.024   0.503 -1.0570 -0.6338 -1.5623
 4774SOL    HW225959   3.319   1.902   0.486 -1.0522  0.9418  0.2426
 4775SOL     OW25960   3.608   4.360  16.282 -0.2455 -0.1957  0.8446
 4775SOL    HW125961   3.551   4.302  16.332  1.6331 -2.0627  0.7775
 4775SOL    HW225962   3.671   4.395  16.345 -0.9756  1.5957  0.5804
 4776SOL     OW25963   1.364   0.379  11.217 -0.0231  0.2925 -0.3639
 4776SOL    HW125964   1.272   0.355  11.221  0.4203 -1.3667 -0.3116
 4776SOL    HW225965   1.370   0.447  11.284  2.5989  0.1201 -0.4385
 4777SOL     OW25966   4.286   3.398  14.613  0.1580  0.1156 -0.6242
 4777SOL    HW125967   4.317   3.425  14.699  0.7334 -0.6455 -0.5882
 4777SOL    HW225968   4.375   3.385  14.580  1.2666  0.7747  2.1258
 4778SOL     OW25969   0.849   1.948  15.619 -0.1033 -0.2813  0.0806
 4778SOL    HW125970   0.868   1.880  15.555 -3.7724  0.9150 -2.2635
 4778SOL    HW225971   0.753   1.954  15.620 -0.0851  0.0684 -0.8221
 4779SOL     OW25972   3.160   3.750   8.340 -0.1218  0.5147 -0.1822
 4779SOL    HW125973   3.240   3.715   8.380 -0.4381  0.7815  0.6701
 4779SOL    HW225974   3.183   3.756   8.247 -0.0424 -0.6214 -0.2397
 4780SOL     OW25975   1.110   3.762   2.607 -0.4778 -0.2759  0.0828
 4780SOL    HW125976   1.105   3.856   2.585 -0.0004 -0.0935  0.7611
 4780SOL    HW225977   1.081   3.721   2.526  1.2650 -0.5654 -0.4094
 4781SOL     OW25978   2.473   3.909   5.169  0.3747  0.2394 -0.0459
 4781SOL    HW125979   2.399   3.952   5.127  0.2821  0.7094  0.5935
 4781SOL    HW225980   2.432   3.860   5.240  0.4725  0.9342  0.4923
 4782SOL     OW25981   0.845   0.883   4.919  0.1160  0.0795 -0.4038
 4782SOL    HW125982   0.891   0.889   5.003 -4.2952  0.0421  2.0038
 4782SOL    HW225983   0.822   0.974   4.900  2.2094  0.6702 -0.0548
 4783SOL     OW25984   4.197   2.687   9.003  0.0729  0.3622  0.0804
 4783SOL    HW125985   4.258   2.625   9.043  0.4107 -0.2459 -1.3562
 4783SOL    HW225986   4.220   2.741   9.078 -0.3369 -0.4339  0.7859
 4784SOL     OW25987   0.739   4.442   8.319  0.2206  0.3290 -0.7550
 4784SOL    HW125988   0.798   4.381   8.275  0.7919  1.8733 -2.1800
 4784SOL    HW225989   0.782   4.449   8.404 -0.0161  1.4763 -0.7305
 4785SOL     OW25990   4.484   1.037  16.838 -0.3140 -0.0048  0.1270
 4785SOL    HW125991   4.445   0.959  16.876 -1.3565  1.2888  1.7111
 4785SOL    HW225992   4.552   1.066  16.898 -0.0795  1.5572 -0.8618
 4786SOL     OW25993   0.677   1.541   6.538 -0.0380 -0.2293 -0.1652
 4786SOL    HW125994   0.708   1.546   6.629  2.5698  2.1518 -1.1743
 4786SOL    HW225995   0.668   1.632   6.509 -0.2880  0.2973  1.5656
 4787SOL     OW25996   3.008   3.039  14.205 -0.5287  0.4658  0.0133
 4787SOL    HW125997   3.077   3.038  14.271  1.5454  0.1067 -2.1463
 4787SOL    HW225998   2.956   2.974  14.252 -0.0351  0.3584  0.4117
 4788SOL     OW25999   2.287   4.453  13.108 -0.7269  0.8823  0.1235
 4788SOL    HW126000   2.357   4.468  13.173 -0.8547 -2.4241  1.0140
 4788SOL    HW226001   2.234   4.386  13.151  1.3164 -1.7793 -1.4882
 4789SOL     OW26002   4.615   3.977  14.545  0.2318  0.0052  0.6308
 4789SOL    HW126003   4.615   4.030  14.465 -0.3908 -1.4813 -0.3440
 4789SOL    HW226004   4.543   3.917  14.527  0.9085 -1.7562  3.8065
 4790SOL     OW26005   2.249   0.089   9.767 -0.2283 -0.6471 -0.0191
 4790SOL    HW126006   2.318   0.152   9.748 -1.4955  0.6446 -0.3070
 4790SOL    HW226007   2.185   0.137   9.819 -1.5448 -3.7387  1.2108
 4791SOL     OW26008   3.707   2.002   7.453  0.3346 -0.2684  0.1654
 4791SOL    HW126009   3.633   2.062   7.458 -0.3941 -1.3307  1.9951
 4791SOL    HW226010   3.719   1.985   7.546 -0.9826 -2.4101 -0.0351
 4792SOL     OW26011   3.725   0.473   4.657 -0.4806  0.2631 -0.2153
 4792SOL    HW126012   3.719   0.507   4.747  0.9932 -0.8561  0.3078
 4792SOL    HW226013   3.665   0.399   4.655 -1.2331  0.8895 -0.7584
 4793SOL     OW26014   0.726   4.397   5.720 -0.1395 -0.2516  0.0342
 4793SOL    HW126015   0.653   4.438   5.674 -1.6677 -2.4243  0.5611
 4793SOL    HW226016   0.800   4.415   5.661  1.0067  0.0283  1.5587
 4794SOL     OW26017   2.030   2.326   6.679 -0.0034 -0.0051  0.5280
 4794SOL    HW126018   2.032   2.240   6.721 -2.7508 -1.9374 -3.3325
 4794SOL    HW226019   2.056   2.378   6.755 -1.8130 -1.4151  2.1196
 4795SOL     OW26020   1.143   3.666   8.311 -0.4031  0.0327 -0.0216
 4795SOL    HW126021   1.143   3.594   8.374 -0.4809  0.3195  0.3078
 4795SOL    HW226022   1.056   3.698   8.337  0.0655 -0.1300  1.7642
 4796SOL     OW26023   1.052   0.821   4.733  0.3852 -0.7569  0.2037
 4796SOL    HW126024   1.077   0.731   4.753 -2.1347 -1.4411  0.2695
 4796SOL    HW226025   0.987   0.843   4.799  1.6222  0.9662  0.8369
 4797SOL     OW26026   3.873   1.993   0.187  0.0323 -0.0462 -0.1816
 4797SOL    HW126027   3.890   1.928   0.119 -1.7806 -0.5368 -0.1649
 4797SOL    HW226028   3.947   2.052   0.177  0.3440 -0.4846 -0.4861
 4798SOL     OW26029   2.549   4.209  15.149 -0.0517 -0.6518 -0.5993
 4798SOL    HW126030   2.625   4.233  15.097 -0.0638  0.6282 -0.0310
 4798SOL    HW226031   2.592   4.149  15.210 -0.1508  0.2541  0.3760
 4799SOL     OW26032   2.036   1.776   2.087 -0.6528  0.6097  0.1730
 4799SOL    HW126033   2.000   1.698   2.130 -0.3389 -1.2050 -2.8792
 4799SOL    HW226034   1.956   1.825   2.070 -1.9002 -1.5572 -0.2790
 4800SOL     OW26035   2.369   0.857   9.547 -0.4115  0.4356  0.1699
 4800SOL    HW126036   2.305   0.926   9.565 -0.4915  0.2311  0.6656
 4800SOL    HW226037   2.310   0.782   9.545 -0.4224  0.4129  1.1891
 4801SOL     OW26038   2.078   1.228  12.708 -0.5391  0.0292  0.3467
 4801SOL    HW126039   2.041   1.308  12.669  2.4237  1.7547  1.0812
 4801SOL    HW226040   2.115   1.267  12.787 -0.9293  0.3157  0.3896
 4802SOL     OW26041   1.425   2.825   6.816 -0.0285  1.0524 -0.1596
 4802SOL    HW126042   1.463   2.858   6.735 -1.5516  3.0972 -0.0474
 4802SOL    HW226043   1.501   2.831   6.875  0.1744  0.4938 -0.3630
 4803SOL     OW26044   3.326   4.291   8.646  0.0771 -0.6113  0.6962
 4803SOL    HW126045   3.247   4.254   8.686  0.4389 -0.9829  1.0545
 4803SOL    HW226046   3.353   4.332   8.727  0.7591 -0.0628  0.1899
 4804SOL     OW26047   1.634   0.482   9.857 -0.3999 -0.0091 -0.2871
 4804SOL    HW126048   1.600   0.461   9.770 -1.2079 -1.8657  0.4853
 4804SOL    HW226049   1.554   0.459   9.903 -0.8913 -0.7428 -1.5032
 4805SOL     OW26050   0.110   3.260  13.488  0.4594 -0.0397  0.3658
 4805SOL    HW126051   0.163   3.326  13.444  0.8233 -1.3931 -1.2157
 4805SOL    HW226052   0.077   3.304  13.567 -2.4556  0.0932 -0.9306
 4806SOL     OW26053   3.857   0.740   5.365 -0.6594  0.1045  0.0008
 4806SOL    HW126054   3.931   0.766   5.420  0.4948 -0.0229 -1.5057
 4806SOL    HW226055   3.794   0.811   5.377 -3.3966 -2.1932 -0.9257
 4807SOL     OW26056   3.634   3.021   6.496 -0.3437  0.3445 -0.0146
 4807SOL    HW126057   3.676   2.935   6.490  1.1953  1.1247 -0.1929
 4807SOL    HW226058   3.668   3.061   6.417 -2.5977  2.0844 -0.1103
 4808SOL     OW26059   3.138   2.891  12.567  0.0543 -0.2888 -0.5194
 4808SOL    HW126060   3.095   2.831  12.628 -0.9598 -1.9919 -2.9132
 4808SOL    HW226061   3.084   2.873  12.490 -1.9833 -0.0695  0.8782
 4809SOL     OW26062   0.936   4.594   5.744 -0.0796  0.0237  0.5350
 4809SOL    HW126063   0.908   4.685   5.737  2.4621  0.8164  0.6582
 4809SOL    HW226064   0.904   4.562   5.829 -1.5453 -0.9094 -0.3805
 4810SOL     OW26065   3.254   0.604  13.322 -0.1650 -0.9607  0.4462
 4810SOL    HW126066   3.310   0.657  13.265  0.7436 -1.1826  1.1482
 4810SOL    HW226067   3.317   0.541  13.357  2.2217 -0.1215 -2.3478
 4811SOL     OW26068   3.048   2.766   9.780 -0.0057 -0.1759  0.0053
 4811SOL    HW126069   2.999   2.812   9.849  0.5336 -0.2547  0.4395
 4811SOL    HW226070   3.042   2.678   9.818  0.1239 -1.0038 -1.9193
 4812SOL     OW26071   4.095   0.151   4.489 -0.2871 -0.0464  0.2197
 4812SOL    HW126072   4.032   0.123   4.555 -0.3573 -0.8814 -0.2031
 4812SOL    HW226073   4.167   0.131   4.549  0.3043  0.6712 -0.2610
 4813SOL     OW26074   4.140   1.668   9.688  0.1840  0.2531 -0.7262
 4813SOL    HW126075   4.110   1.600   9.628 -1.1941  0.8267 -0.6991
 4813SOL    HW226076   4.062   1.679   9.743 -0.6162  0.5691 -1.9205
 4814SOL     OW26077   3.980   1.279   6.232 -0.5147 -0.1862  0.9268
 4814SOL    HW126078   3.987   1.262   6.326  1.8354  1.1879  0.9905
 4814SOL    HW226079   4.015   1.198   6.195  1.2875  0.6292  0.8486
 4815SOL     OW26080   3.582   1.110  14.108  0.3347  0.1908  0.2990
 4815SOL    HW126081   3.564   1.024  14.145 -0.9216  0.3590  0.0635
 4815SOL    HW226082   3.563   1.097  14.015 -0.6664 -0.2072  0.5620
 4816SOL     OW26083   4.244   0.115   2.648 -0.1140 -0.2058 -0.3858
 4816SOL    HW126084   4.324   0.157   2.680 -0.3836 -0.0087  0.0277
 4816SOL    HW226085   4.172   0.138   2.706  0.2166  1.2286 -0.5322
 4817SOL     OW26086   0.082   0.935   1.413 -0.0337 -0.2860  0.2415
 4817SOL    HW126087   0.058   0.949   1.322  2.1858  0.7295 -0.1866
 4817SOL    HW226088   0.169   0.975   1.421  0.7935 -2.3403  1.5831
 4818SOL     OW26089   2.542   1.676   7.047  0.7826 -0.3162 -0.2841
 4818SOL    HW126090   2.610   1.630   6.998 -0.4302 -1.0826 -1.2795
 4818SOL    HW226091   2.550   1.761   7.004 -0.7681 -1.1435 -2.2402
 4819SOL     OW26092   3.422   3.382  16.709 -0.1767  1.0144  0.0541
 4819SOL    HW126093   3.517   3.369  16.714 -0.1773  0.9903 -0.0093
 4819SOL    HW226094   3.413   3.424  16.624  0.0653 -1.5613 -1.2176
 4820SOL     OW26095   4.239   1.823   9.001  0.3367 -0.0866 -0.0525
 4820SOL    HW126096   4.190   1.843   8.921 -1.4479 -1.3106  0.7254
 4820SOL    HW226097   4.188   1.858   9.073  0.3254 -0.3254  0.0574
 4821SOL     OW26098   3.800   3.162   7.638  0.1385  0.0168  0.3399
 4821SOL    HW126099   3.766   3.177   7.726 -0.7216 -1.5649  0.2887
 4821SOL    HW226100   3.812   3.253   7.612 -6.6073  1.1592  1.0331
 4822SOL     OW26101   1.169   3.986   7.318  0.0110 -0.4770  0.0756
 4822SOL    HW126102   1.200   3.910   7.367 -0.0346 -0.1721  0.5850
 4822SOL    HW226103   1.176   3.961   7.226  2.0658 -0.1962  0.1465
 4823SOL     OW26104   1.860   4.124   6.457  0.0724 -0.4165 -0.1216
 4823SOL    HW126105   1.955   4.115   6.461  0.2234  1.7870  1.0716
 4823SOL    HW226106   1.855   4.152   6.365 -0.4570 -0.1388 -0.0027
 4824SOL     OW26107   3.902   0.161  15.143  0.3478 -0.2230  0.1022
 4824SOL    HW126108   3.920   0.255  15.135 -1.8200  0.2118  0.3273
 4824SOL    HW226109   3.839   0.162  15.215 -0.9799 -3.2360 -1.0255
 4825SOL     OW26110   2.819   0.388   3.292  0.3061  0.4400  0.0718
 4825SOL    HW126111   2.784   0.471   3.326  0.1810  0.7254 -0.7589
 4825SOL    HW226112   2.816   0.330   3.368 -1.2762  1.5618  0.8842
 4826SOL     OW26113   0.368   2.196  14.883  0.2962 -0.0019  0.2477
 4826SOL    HW126114   0.459   2.173  14.904  0.6504  0.5088 -0.7107
 4826SOL    HW226115   0.342   2.209  14.974 -1.1238  2.0083 -0.4342
 4827SOL     OW26116   3.076   2.187   7.400 -0.5909  0.4172 -0.7611
 4827SOL    HW126117   3.168   2.201   7.379  0.0782 -0.6524  1.3740
 4827SOL    HW226118   3.072   2.220   7.490 -2.5172 -0.6856 -0.4283
 4828SOL     OW26119   2.606   1.553   0.076 -0.2413  0.4292  0.3144
 4828SOL    HW126120   2.644   1.629   0.032  1.5919 -0.7397 -0.1179
 4828SOL    HW226121   2.517   1.566   0.042 -0.8498 -1.4267  1.1923
 4829SOL     OW26122   2.023   3.594   9.581  0.1680  0.0841 -0.4383
 4829SOL    HW126123   1.933   3.601   9.551 -0.8216 -1.3220  2.2375
 4829SOL    HW226124   2.014   3.525   9.647 -1.6513  1.5468  0.8279
 4830SOL     OW26125   0.269   1.081   8.926  0.3456  0.1005 -0.8517
 4830SOL    HW126126   0.222   1.093   9.008  0.6274 -1.3465 -0.4826
 4830SOL    HW226127   0.197   1.054   8.869  1.5404 -2.2622 -1.2195
 4831SOL     OW26128   0.435   1.130   0.833  0.1779 -0.3360  0.0939
 4831SOL    HW126129   0.495   1.202   0.848 -1.5772  1.2386 -0.4767
 4831SOL    HW226130   0.399   1.143   0.745 -1.6023 -1.4427  0.6443
 4832SOL     OW26131   2.551   2.153  16.702 -0.0706  0.0858 -0.4856
 4832SOL    HW126132   2.552   2.247  16.683 -0.9905  0.3944  1.0291
 4832SOL    HW226133   2.471   2.130  16.655 -0.8216 -0.9169  1.3012
 4833SOL     OW26134   2.277   1.731   4.024 -0.3427  0.2063 -0.1539
 4833SOL    HW126135   2.280   1.770   3.937  0.2766 -0.5175 -0.4542
 4833SOL    HW226136   2.183   1.723   4.039 -0.2617 -0.4297 -0.0252
 4834SOL     OW26137   1.080   1.843   6.171  0.0024  0.2248 -0.2254
 4834SOL    HW126138   1.168   1.813   6.150  0.3639  0.9898  0.1896
 4834SOL    HW226139   1.041   1.757   6.186 -1.1250  0.1447 -3.6855
 4835SOL     OW26140   4.088   0.738  17.733 -0.1221  0.0946  0.3973
 4835SOL    HW126141   4.000   0.774  17.721  0.5912  2.3401  1.9368
 4835SOL    HW226142   4.100   0.757   0.079  1.0895  2.1747 -0.1664
 4836SOL     OW26143   4.318   2.863   6.557  0.4393  0.0535  0.4761
 4836SOL    HW126144   4.394   2.918   6.574  2.1130 -2.3038  0.6363
 4836SOL    HW226145   4.260   2.884   6.630 -0.3613  2.1132 -0.7552
 4837SOL     OW26146   4.308   0.222   1.033 -0.2479  0.1523  0.7856
 4837SOL    HW126147   4.233   0.267   0.994  1.3936  0.7445 -1.6447
 4837SOL    HW226148   4.370   0.294   1.029 -1.7008  1.3171 -0.7300
 4838SOL     OW26149   0.127   2.001  16.219  0.0354  0.4785 -0.2756
 4838SOL    HW126150   0.134   1.911  16.250  0.9769  0.9030  0.7409
 4838SOL    HW226151   0.049   1.985  16.166 -0.5696 -1.9044  1.3539
 4839SOL     OW26152   2.063   3.398   8.849  0.3915  0.2484 -0.0911
 4839SOL    HW126153   2.022   3.414   8.765  2.5514 -2.7812 -1.7072
 4839SOL    HW226154   2.014   3.323   8.882  0.9750 -0.4234 -0.7641
 4840SOL     OW26155   3.095   2.052  14.568 -0.4383  0.4711 -0.2431
 4840SOL    HW126156   3.167   2.017  14.516  1.1590 -0.8894  2.8319
 4840SOL    HW226157   3.138   2.086  14.647  1.0682 -1.5318 -0.1640
 4841SOL     OW26158   4.210   2.299   9.325 -0.3371  0.0246 -0.8863
 4841SOL    HW126159   4.119   2.308   9.352  0.2902  0.4453  1.0524
 4841SOL    HW226160   4.256   2.340   9.398 -1.0848 -0.2163 -0.2813
 4842SOL     OW26161   0.379   2.826   4.573  0.6640  0.1445 -0.4511
 4842SOL    HW126162   0.305   2.839   4.632  0.3210 -0.6819 -0.6892
 4842SOL    HW226163   0.390   2.910   4.528  1.1509 -0.5912 -1.7215
 4843SOL     OW26164   0.147   3.120   2.883  0.3690 -0.5842  0.3190
 4843SOL    HW126165   0.119   3.129   2.974  0.4109 -0.5552  0.3291
 4843SOL    HW226166   0.062   3.129   2.840 -0.2157 -2.3180  1.0846
 4844SOL     OW26167   3.645   4.680   4.959 -0.4451  0.4617  0.1547
 4844SOL    HW126168   3.619   4.648   4.873 -1.5375 -0.3524  0.7985
 4844SOL    HW226169   3.619   4.612   5.021  1.2422  0.8311  1.2834
 4845SOL     OW26170   4.595   3.702   8.142 -0.2937  0.3631 -0.1601
 4845SOL    HW126171   4.631   3.630   8.090  0.3166  0.3618  0.2646
 4845SOL    HW226172   4.502   3.683   8.127 -0.6296  1.5580  0.4123
 4846SOL     OW26173   2.216   0.544   0.761  0.3675 -0.2707 -0.2145
 4846SOL    HW126174   2.303   0.503   0.762  0.7094  0.5614  3.1855
 4846SOL    HW226175   2.155   0.482   0.800  1.6567 -2.2350 -1.3047
 4847SOL     OW26176   3.872   0.399   8.747 -0.2976  0.0578 -0.6006
 4847SOL    HW126177   3.847   0.362   8.831 -0.6456  1.2270 -0.1953
 4847SOL    HW226178   3.964   0.416   8.767  0.1671  0.5696 -3.0998
 4848SOL     OW26179   4.314   4.283   7.837 -0.2266 -0.5855  1.0533
 4848SOL    HW126180   4.278   4.319   7.756  3.3860  0.6414 -0.0052
 4848SOL    HW226181   4.329   4.194   7.805  2.2108  0.8316 -1.7068
 4849SOL     OW26182   2.534   0.248  14.056  0.3174  0.1227 -0.4745
 4849SOL    HW126183   2.584   0.312  14.006  0.4242  0.5186  0.1459
 4849SOL    HW226184   2.451   0.263  14.011  0.5315  1.4019 -0.4312
 4850SOL     OW26185   0.455   1.056  16.228  0.0446 -0.1913  0.0065
 4850SOL    HW126186   0.386   1.114  16.196 -1.0333 -0.9990  0.8731
 4850SOL    HW226187   0.510   1.050  16.150 -1.2688  0.2549 -0.9503
 4851SOL     OW26188   4.677   0.165  16.104  0.0859 -0.8614 -0.3869
 4851SOL    HW126189   4.648   0.242  16.152  2.7220  1.7521 -2.9099
 4851SOL    HW226190   4.629   0.164  16.021 -0.1395  0.2208 -0.2631
 4852SOL     OW26191   2.081   4.329  12.421  0.4634  0.5583  0.7058
 4852SOL    HW126192   2.155   4.389  12.412  2.2549 -1.9155 -0.9999
 4852SOL    HW226193   2.005   4.371  12.380 -0.4505 -1.7790  0.0219
 4853SOL     OW26194   1.974   4.230   1.533  0.4223  0.3620  0.1420
 4853SOL    HW126195   2.018   4.191   1.608  1.0933 -3.9954 -2.5319
 4853SOL    HW226196   1.970   4.322   1.559 -1.8540  0.2045  0.3314
 4854SOL     OW26197   4.720   4.146   3.057 -0.1586  0.0253 -0.3758
 4854SOL    HW126198   4.665   4.173   2.984  1.0896  1.2388 -0.8561
 4854SOL    HW226199   4.721   4.052   3.038  1.9678  0.2068 -1.2139
 4855SOL     OW26200   1.581   1.616   0.156 -0.0118  0.1236  0.2612
 4855SOL    HW126201   1.612   1.596   0.245 -0.7115  0.2031  0.5254
 4855SOL    HW226202   1.490   1.594   0.177  0.1378  0.7795  1.5736
 4856SOL     OW26203   0.332   0.732   4.921 -0.0279  0.3391 -0.3451
 4856SOL    HW126204   0.282   0.716   4.841 -1.5108  2.6636  0.1243
 4856SOL    HW226205   0.261   0.749   4.982  0.3699 -0.9985  0.4765
 4857SOL     OW26206   1.643   4.666   0.452  0.2831 -0.0491 -0.3295
 4857SOL    HW126207   1.703   4.592   0.443  0.8052 -0.0299  2.8898
 4857SOL    HW226208   1.560   4.619   0.459  0.8298 -1.1374 -1.1517
 4858SOL     OW26209   3.707   4.600  11.929 -0.3700 -0.3871  0.3564
 4858SOL    HW126210   3.727   4.681  11.882 -1.2902 -1.1412 -1.3246
 4858SOL    HW226211   3.714   4.615  12.024 -0.2264  0.3228  0.2293
 4859SOL     OW26212   2.064   0.743  12.410 -0.0886 -0.2701  0.6197
 4859SOL    HW126213   1.981   0.742  12.458  0.0383 -0.4873  0.8341
 4859SOL    HW226214   2.134   0.761  12.472 -0.0949  0.7222  0.3477
 4860SOL     OW26215   2.298   0.509   7.766 -0.1103  0.6168  0.5081
 4860SOL    HW126216   2.358   0.452   7.814  0.0698 -0.2343 -0.7236
 4860SOL    HW226217   2.217   0.467   7.795 -0.9295  1.8911  0.0223
 4861SOL     OW26218   3.319   4.514   7.654  0.4401 -0.3151 -0.6180
 4861SOL    HW126219   3.350   4.566   7.729  0.9850 -0.8178 -0.5002
 4861SOL    HW226220   3.279   4.436   7.694  1.6528 -0.4789  0.2701
 4862SOL     OW26221   0.076   1.651   5.993  0.2646  0.2370 -0.3740
 4862SOL    HW126222   0.062   1.730   5.940 -0.3222 -0.0470 -0.6372
 4862SOL    HW226223   4.735   1.602   5.968  0.7858 -0.1242 -1.2854
 4863SOL     OW26224   2.078   0.446   8.554  0.1029  0.3633  0.5114
 4863SOL    HW126225   2.158   0.398   8.532  0.9696  1.2265  1.7566
 4863SOL    HW226226   2.009   0.391   8.517  0.1406  0.9226 -0.3855
 4864SOL     OW26227   2.659   4.184   4.560 -0.1715  0.0545  0.4613
 4864SOL    HW126228   2.649   4.092   4.583 -0.8686 -0.6965 -2.8069
 4864SOL    HW226229   2.707   4.220   4.635  0.1503  3.0759 -1.1815
 4865SOL     OW26230   2.903   2.744  13.162  0.0990 -0.1875  0.3326
 4865SOL    HW126231   2.842   2.786  13.223 -1.4537 -0.4060 -1.0941
 4865SOL    HW226232   2.871   2.787  13.083 -0.8730  0.2785  0.9825
 4866SOL     OW26233   4.654   2.190   8.042  0.5319  0.2654 -0.4045
 4866SOL    HW126234   0.005   2.205   8.007  1.5286 -2.5921  0.8989
 4866SOL    HW226235   4.653   2.269   8.097  0.9842 -1.2117  1.7511
 4867SOL     OW26236   2.884   3.488   1.762 -0.0386  0.1197  0.2122
 4867SOL    HW126237   2.950   3.492   1.831  1.4353 -1.2338 -1.1117
 4867SOL    HW226238   2.891   3.580   1.738 -0.8698  0.5109  1.5143
 4868SOL     OW26239   0.278   1.215  16.098  0.1463 -0.2663  0.2279
 4868SOL    HW126240   0.186   1.204  16.119 -0.1145  1.0442 -0.2012
 4868SOL    HW226241   0.285   1.303  16.136 -0.3945 -0.0657 -0.1374
 4869SOL     OW26242   1.898   2.140   4.613  0.5193  0.0933  0.0504
 4869SOL    HW126243   1.906   2.054   4.572 -0.7195 -0.4416  0.9166
 4869SOL    HW226244   1.857   2.114   4.696  1.5179 -0.8393  0.2510
 4870SOL     OW26245   3.337   0.709   1.159 -0.2228 -0.3955  0.0423
 4870SOL    HW126246   3.420   0.662   1.161 -0.4460 -0.8902 -1.6859
 4870SOL    HW226247   3.351   0.743   1.070  3.7019 -0.7166  0.5669
 4871SOL     OW26248   0.098   2.340   3.811 -0.1328 -0.0025 -0.6214
 4871SOL    HW126249   0.037   2.268   3.826  0.1058 -0.4834 -1.9527
 4871SOL    HW226250   0.159   2.331   3.884 -2.1791 -0.5825  0.9964
 4872SOL     OW26251   1.927   2.369  14.441 -0.0212  0.0540  0.0978
 4872SOL    HW126252   1.972   2.384  14.524 -2.4310  0.3169  1.3654
 4872SOL    HW226253   1.962   2.282  14.420 -0.8215 -0.2545  0.0332
 4873SOL     OW26254   0.562   2.504   9.683 -0.0152  0.0298  0.1738
 4873SOL    HW126255   0.532   2.420   9.650  0.3858 -0.3209  0.6979
 4873SOL    HW226256   0.575   2.489   9.776  1.1767  1.2311  0.2048
 4874SOL     OW26257   4.614   2.488   5.348 -0.4984  0.1585 -0.2547
 4874SOL    HW126258   4.631   2.546   5.275 -2.5055 -2.2136 -2.6004
 4874SOL    HW226259   4.626   2.551   5.419  0.9356  1.0059 -1.2583
 4875SOL     OW26260   3.302   3.915   4.952 -0.2953 -0.0206  0.0037
 4875SOL    HW126261   3.322   3.822   4.947  0.0125 -0.0829  2.6608
 4875SOL    HW226262   3.344   3.933   5.036  0.3340  0.1678 -0.3502
 4876SOL     OW26263   3.653   0.819   9.488 -0.0152 -0.4971 -0.4656
 4876SOL    HW126264   3.592   0.772   9.546 -1.0510  0.1155 -1.0691
 4876SOL    HW226265   3.723   0.838   9.550 -2.2477  1.6177  1.3738
 4877SOL     OW26266   3.853   0.897  13.024  0.9273  0.3392 -0.0264
 4877SOL    HW126267   3.945   0.923  13.037  0.7171  1.2541 -0.3577
 4877SOL    HW226268   3.819   0.985  13.008  0.3520  0.5205  2.1934
 4878SOL     OW26269   2.008   0.176   2.071  0.7572  0.2051  0.0635
 4878SOL    HW126270   1.960   0.172   1.988  1.2176  1.0741 -0.2423
 4878SOL    HW226271   2.095   0.142   2.048 -0.9469 -3.3088 -1.2527
 4879SOL     OW26272   2.696   3.150  12.201 -0.3689 -0.1455  0.0134
 4879SOL    HW126273   2.647   3.228  12.227 -1.8900 -0.8973 -0.6014
 4879SOL    HW226274   2.758   3.196  12.145 -1.3952 -0.2733 -1.2130
 4880SOL     OW26275   1.729   1.725   6.753 -0.0222  0.1129 -0.1014
 4880SOL    HW126276   1.762   1.741   6.841  0.1547 -1.0971  0.0482
 4880SOL    HW226277   1.775   1.792   6.702 -0.4520  1.6258  1.5036
 4881SOL     OW26278   2.135   1.101   6.065 -0.2411 -0.1287 -0.2733
 4881SOL    HW126279   2.126   1.182   6.115 -0.3018 -0.7495  0.7079
 4881SOL    HW226280   2.040   1.091   6.052 -0.7308  1.8912  1.6737
 4882SOL     OW26281   4.103   2.097   9.607  0.0910 -0.0699 -0.0490
 4882SOL    HW126282   4.066   2.184   9.602  0.8690  0.3272  0.9150
 4882SOL    HW226283   4.027   2.060   9.651 -0.5030  0.8545 -0.3087
 4883SOL     OW26284   0.720   2.574   2.648  0.4748 -1.2409 -0.6815
 4883SOL    HW126285   0.796   2.625   2.618 -0.1314 -1.4219 -2.4987
 4883SOL    HW226286   0.710   2.622   2.730  2.1773 -0.5111 -0.8906
 4884SOL     OW26287   1.843   2.821   4.957  0.4222 -0.2886  0.0637
 4884SOL    HW126288   1.840   2.912   4.987 -0.2791  0.5805 -2.5749
 4884SOL    HW226289   1.902   2.831   4.882 -0.2124 -1.1394 -0.5459
 4885SOL     OW26290   1.996   3.678   4.020  0.0488  0.3871  0.0462
 4885SOL    HW126291   2.040   3.600   4.054 -1.8577 -0.1162  1.4112
 4885SOL    HW226292   1.913   3.634   4.002 -0.0006 -0.4666  2.3744
 4886SOL     OW26293   4.095   1.230   5.444  0.2336  0.6738  0.0314
 4886SOL    HW126294   4.087   1.293   5.372  0.4373 -1.7090 -2.0625
 4886SOL    HW226295   4.188   1.242   5.464  0.5566 -1.7289 -0.1046
 4887SOL     OW26296   0.893   1.433  16.098  0.7294 -0.6626 -0.0665
 4887SOL    HW126297   0.984   1.458  16.082  0.7699 -0.5459  0.3607
 4887SOL    HW226298   0.882   1.466  16.187 -0.5398 -2.1109  0.3171
 4888SOL     OW26299   0.076   0.309   5.090 -0.3611  0.3969  0.3281
 4888SOL    HW126300   0.121   0.254   5.025  2.1143  0.2356  2.1832
 4888SOL    HW226301   0.143   0.376   5.103  1.2144 -1.3506  1.3474
 4889SOL     OW26302   0.835   1.716  15.434  0.1158  0.1827 -0.3767
 4889SOL    HW126303   0.759   1.697  15.380  1.9010 -0.1116 -2.8175
 4889SOL    HW226304   0.870   1.627  15.429  0.1236  0.1090  0.8894
 4890SOL     OW26305   1.502   1.977   0.711 -0.9282  0.2816  0.7377
 4890SOL    HW126306   1.527   1.943   0.797 -0.8960 -0.4986  0.4180
 4890SOL    HW226307   1.503   2.070   0.732  2.3544  1.1425 -3.3334
 4891SOL     OW26308   0.227   2.234   6.656  0.3914 -0.2620  0.7006
 4891SOL    HW126309   0.234   2.141   6.679  0.0463 -0.6277 -0.6802
 4891SOL    HW226310   0.320   2.256   6.645  0.1468  0.4394  0.0822
 4892SOL     OW26311   2.096   2.810   8.728  0.1767 -0.7452 -0.6986
 4892SOL    HW126312   2.180   2.790   8.770  1.3918  2.3000 -1.6754
 4892SOL    HW226313   2.130   2.875   8.667 -0.1706 -0.5333 -0.6669
 4893SOL     OW26314   2.745   2.650  16.954 -0.6204 -0.1001 -0.0131
 4893SOL    HW126315   2.773   2.730  16.997 -0.5518 -0.6341  0.9431
 4893SOL    HW226316   2.708   2.696  16.879 -0.8639  0.3314  0.3750
 4894SOL     OW26317   0.107   2.258  10.784  0.6888 -0.0332  0.3522
 4894SOL    HW126318   0.093   2.189  10.849  0.9080  0.6863  1.1701
 4894SOL    HW226319   0.052   2.325  10.823  0.2233  0.5287 -1.2979
 4895SOL     OW26320   2.917   4.165  12.099  0.6903  0.2255 -0.9514
 4895SOL    HW126321   2.912   4.141  12.007 -1.0228  0.2060 -0.8471
 4895SOL    HW226322   2.905   4.258  12.083  0.4736  0.6026  1.4306
 4896SOL     OW26323   4.390   3.378  14.055  0.3747  0.4299  0.6074
 4896SOL    HW126324   4.444   3.306  14.087 -0.9771  0.6333  3.3936
 4896SOL    HW226325   4.360   3.407  14.142  2.0714  0.0314  1.3184
 4897SOL     OW26326   4.166   1.430   1.653  0.3609  0.0223 -0.1254
 4897SOL    HW126327   4.137   1.421   1.743  0.7848  1.6881  0.1586
 4897SOL    HW226328   4.100   1.381   1.603  1.3681 -0.1170 -1.3250
 4898SOL     OW26329   1.217   3.113  17.731  0.0287  0.3606 -0.5032
 4898SOL    HW126330   1.183   3.182   0.041  2.3446 -2.0407  3.8498
 4898SOL    HW226331   1.301   3.089   0.024  1.2295  0.3400 -3.0692
 4899SOL     OW26332   0.939   2.510   7.505  0.0018  0.1903  0.0506
 4899SOL    HW126333   0.957   2.597   7.541  0.7983  0.4255 -0.9082
 4899SOL    HW226334   0.844   2.500   7.518 -0.1748  1.3418 -0.3631
 4900SOL     OW26335   2.224   2.215   8.306 -0.2257  0.0836  0.0497
 4900SOL    HW126336   2.194   2.169   8.384 -2.2160  0.5169 -0.4622
 4900SOL    HW226337   2.160   2.286   8.313 -0.0370  0.4398 -1.9480
 4901SOL     OW26338   3.145   3.833  10.768 -0.6045  0.1911  0.1573
 4901SOL    HW126339   3.196   3.818  10.688 -0.9515 -0.1515 -0.0017
 4901SOL    HW226340   3.153   3.928  10.772 -1.6486  0.1966  1.9447
 4902SOL     OW26341   2.004   3.979  10.150  0.3510 -0.7702 -0.0769
 4902SOL    HW126342   2.062   3.931  10.090 -1.0033 -2.5970  0.0903
 4902SOL    HW226343   2.056   4.059  10.166 -1.5373  0.8176 -1.8794
 4903SOL     OW26344   3.220   1.753  10.437  0.6822 -0.4620  0.1823
 4903SOL    HW126345   3.125   1.757  10.427  0.6848 -0.1602  0.2923
 4903SOL    HW226346   3.256   1.769  10.350 -0.7575 -1.0996 -0.5383
 4904SOL     OW26347   0.868   0.918   3.837 -0.5087  0.1919  0.3638
 4904SOL    HW126348   0.857   0.930   3.931  1.3227 -0.9844  0.7292
 4904SOL    HW226349   0.915   1.000   3.823 -0.1046  0.0484  0.8787
 4905SOL     OW26350   0.799   0.586  16.340 -0.4287 -1.2103 -0.4774
 4905SOL    HW126351   0.755   0.631  16.412  0.1894  0.1806 -0.9719
 4905SOL    HW226352   0.743   0.605  16.264 -0.9040 -2.3341 -0.4026
 4906SOL     OW26353   0.621   4.632  12.357 -0.1890 -0.8287 -0.3809
 4906SOL    HW126354   0.605   4.713  12.407 -1.6688 -2.2608  1.4708
 4906SOL    HW226355   0.533   4.603  12.335 -1.7689  2.8368  1.0374
 4907SOL     OW26356   1.905   2.753   1.499 -0.4947  0.2656 -0.1932
 4907SOL    HW126357   1.919   2.765   1.592  1.1385 -0.0166 -0.4083
 4907SOL    HW226358   1.986   2.795   1.472  0.6113 -0.4339  2.0858
 4908SOL     OW26359   0.494   3.257  12.086 -0.1552 -0.4562 -0.1415
 4908SOL    HW126360   0.419   3.292  12.136 -0.0304 -1.9603  1.0864
 4908SOL    HW226361   0.552   3.237  12.159  0.6624  2.4778  0.0261
 4909SOL     OW26362   4.520   3.993   8.404  0.4366  0.0975 -0.0102
 4909SOL    HW126363   4.486   4.078   8.433 -1.7254 -0.8216  0.1397
 4909SOL    HW226364   4.474   3.973   8.322  0.4463 -1.1511  0.2907
 4910SOL     OW26365   0.275   2.181   1.969  0.3952  0.1084  0.4001
 4910SOL    HW126366   0.329   2.229   2.033 -0.0020 -0.7216  1.3659
 4910SOL    HW226367   0.193   2.231   1.970 -0.1505 -0.7736 -0.6442
 4911SOL     OW26368   3.204   1.967   5.620 -0.7464  0.4872 -0.4783
 4911SOL    HW126369   3.156   2.016   5.687  1.2594  2.0959 -0.2213
 4911SOL    HW226370   3.177   1.878   5.644 -0.9708  1.2468  2.1020
 4912SOL     OW26371   0.103   0.983   8.159 -0.1911  0.1976 -0.0078
 4912SOL    HW126372   0.050   1.050   8.116  1.2160  0.8409 -0.7502
 4912SOL    HW226373   0.071   0.905   8.114  0.6670  0.0744 -0.4179
 4913SOL     OW26374   4.704   3.010   4.343  0.4335 -0.0189  0.2694
 4913SOL    HW126375   4.610   2.993   4.352  0.5797 -1.2187 -0.4392
 4913SOL    HW226376   0.002   2.996   4.431 -1.1965 -0.1003  0.9225
 4914SOL     OW26377   4.572   1.739   4.234 -0.0315  0.1941  0.2884
 4914SOL    HW126378   4.618   1.819   4.211  0.6662 -0.6387 -1.2461
 4914SOL    HW226379   4.640   1.673   4.217 -1.6795 -1.4980  0.3146
 4915SOL     OW26380   1.721   4.421  17.706  0.1917  0.0653  0.0562
 4915SOL    HW126381   1.807   4.381  17.722  1.1087  2.7134  1.8000
 4915SOL    HW226382   1.685   4.357  17.645 -0.6617  0.1248  0.5005
 4916SOL     OW26383   1.130   4.537   4.419  0.5930 -0.4074 -0.2538
 4916SOL    HW126384   1.076   4.611   4.446  1.2924 -0.5605  1.6111
 4916SOL    HW226385   1.156   4.569   4.333  0.3518 -1.7792 -0.8315
 4917SOL     OW26386   3.722   3.465   1.781 -0.4584  0.0587  0.1582
 4917SOL    HW126387   3.805   3.477   1.826 -0.8681  0.9138  0.6986
 4917SOL    HW226388   3.728   3.522   1.704  0.3421 -2.7851 -1.8684
 4918SOL     OW26389   0.340   4.293   6.536  0.5126  0.1144 -0.6521
 4918SOL    HW126390   0.310   4.205   6.514 -1.5531  1.3426 -2.7674
 4918SOL    HW226391   0.414   4.282   6.594 -1.3806 -1.3934  1.4811
 4919SOL     OW26392   0.942   3.727  13.999  0.2041  0.7368  0.3902
 4919SOL    HW126393   0.893   3.809  13.991  0.4140  0.8331  0.0941
 4919SOL    HW226394   0.881   3.654  13.992 -0.4163  1.3313 -0.4210
 4920SOL     OW26395   0.469   4.051   7.936 -0.2631 -0.5715  0.1622
 4920SOL    HW126396   0.551   4.095   7.962  0.4604 -2.0278  0.3406
 4920SOL    HW226397   0.483   4.052   7.841  2.3425 -3.3101  0.5082
 4921SOL     OW26398   0.785   3.870   3.416  0.3406 -0.2404  0.2465
 4921SOL    HW126399   0.734   3.947   3.392  0.6991  0.4727  1.7164
 4921SOL    HW226400   0.728   3.808   3.372  2.4800 -1.3399 -1.0070
 4922SOL     OW26401   0.961   0.242   8.918 -0.0792  0.3570 -0.3357
 4922SOL    HW126402   0.965   0.236   9.013 -0.7049 -0.2465 -0.3453
 4922SOL    HW226403   0.994   0.156   8.895 -1.4216 -0.4156  0.6633
 4923SOL     OW26404   1.253   3.413   3.582  0.4521  0.1775  0.0987
 4923SOL    HW126405   1.230   3.503   3.559  0.9139  0.9611  2.7131
 4923SOL    HW226406   1.306   3.386   3.507 -0.0266  1.1786 -0.6021
 4924SOL     OW26407   0.658   4.487   4.984 -0.1478  0.2422 -0.2619
 4924SOL    HW126408   0.689   4.451   5.067  1.4820  0.3528 -0.8280
 4924SOL    HW226409   0.714   4.445   4.919  0.0612  0.4778 -0.2314
 4925SOL     OW26410   1.036   3.167   3.266  0.8224  0.3781  0.1819
 4925SOL    HW126411   1.017   3.254   3.230 -0.1081  0.6161  1.2493
 4925SOL    HW226412   0.980   3.161   3.344 -0.2907 -0.9817 -0.7325
 4926SOL     OW26413   3.988   0.856   5.136  0.7163  0.3504  0.2925
 4926SOL    HW126414   3.905   0.891   5.103  0.1437 -0.5661  0.7625
 4926SOL    HW226415   3.959   0.795   5.204  3.0721 -0.2709  0.7225
 4927SOL     OW26416   3.427   2.984   2.153 -0.4333  0.2919  0.5941
 4927SOL    HW126417   3.476   3.064   2.171  0.5076  0.1682 -1.4632
 4927SOL    HW226418   3.363   3.016   2.089  1.7537  2.0370 -0.6931
 4928SOL     OW26419   3.237   1.105  16.586  0.1286 -0.4749  0.7624
 4928SOL    HW126420   3.196   1.128  16.503  0.0644 -1.1377  0.6125
 4928SOL    HW226421   3.215   1.014  16.605 -0.0195 -0.5463  0.2498
 4929SOL     OW26422   0.357   3.572   6.423  0.2960 -0.5428  0.5168
 4929SOL    HW126423   0.435   3.567   6.479  2.8714  0.0853 -3.0192
 4929SOL    HW226424   0.388   3.605   6.339  1.3441 -0.7113  0.8279
 4930SOL     OW26425   1.788   0.876   6.777  0.0169  0.1993 -0.2056
 4930SOL    HW126426   1.753   0.952   6.824  2.7807  0.6879  1.0745
 4930SOL    HW226427   1.746   0.893   6.693  0.4580  1.9124 -0.0802
 4931SOL     OW26428   0.844   1.644   4.040  0.1756  0.2303  0.4915
 4931SOL    HW126429   0.761   1.612   4.005  1.3226 -1.5722 -0.5616
 4931SOL    HW226430   0.894   1.590   3.979 -1.1302 -2.7356  1.9968
 4932SOL     OW26431   3.686   1.210   4.723 -0.5653 -0.6077  0.2932
 4932SOL    HW126432   3.771   1.242   4.693 -2.3355  2.6909 -1.1183
 4932SOL    HW226433   3.645   1.280   4.774  0.1629 -0.0075  0.0634
 4933SOL     OW26434   1.266   0.719   4.908  0.2107 -1.2024 -0.2240
 4933SOL    HW126435   1.310   0.636   4.928  0.8786 -0.2972  2.0515
 4933SOL    HW226436   1.209   0.744   4.981  0.9339  0.1165 -0.1123
 4934SOL     OW26437   3.709   4.475   7.786  0.0846 -0.8312  0.4305
 4934SOL    HW126438   3.677   4.524   7.710  1.2785  0.3152  0.6652
 4934SOL    HW226439   3.654   4.503   7.859 -0.2724 -2.5004  0.8076
 4935SOL     OW26440   1.555   3.089   2.636  0.0264 -0.1182  0.2796
 4935SOL    HW126441   1.541   3.132   2.720 -0.7475 -0.7001  0.4555
 4935SOL    HW226442   1.570   3.158   2.571  1.8737 -2.2549 -1.5309
 4936SOL     OW26443   3.258   2.755   6.804  0.5020  0.2905  0.8333
 4936SOL    HW126444   3.237   2.724   6.892  1.0841  1.6482  1.4623
 4936SOL    HW226445   3.252   2.850   6.812  0.9256  0.2383  1.8574
 4937SOL     OW26446   0.183   1.578   3.193 -0.0399 -0.2901  0.2124
 4937SOL    HW126447   0.264   1.628   3.204 -0.5034  0.7419 -0.9243
 4937SOL    HW226448   0.216   1.490   3.209 -0.8090 -0.7449 -0.6479
 4938SOL     OW26449   0.323   0.505   5.627  0.0097  0.1194 -0.2921
 4938SOL    HW126450   0.378   0.444   5.578 -1.2766  0.2758 -1.9421
 4938SOL    HW226451   0.256   0.446   5.662 -0.8802  0.4568 -1.4294
 4939SOL     OW26452   2.051   2.803   9.198 -0.0667 -0.5812 -0.5583
 4939SOL    HW126453   2.133   2.820   9.152 -0.1944 -1.8646 -1.2545
 4939SOL    HW226454   2.020   2.893   9.209  0.2591 -0.5805  0.3448
 4940SOL     OW26455   1.097   2.146  15.226  0.1114  0.5990 -0.5079
 4940SOL    HW126456   1.015   2.125  15.271  0.6650 -1.7579 -0.5563
 4940SOL    HW226457   1.127   2.060  15.196 -0.9110 -0.9211  2.8028
 4941SOL     OW26458   0.418   3.759   8.642  0.0483 -0.0557  0.3047
 4941SOL    HW126459   0.375   3.736   8.724 -0.0295  1.9090  0.8018
 4941SOL    HW226460   0.346   3.743   8.580 -0.0580  0.6853  0.2354
 4942SOL     OW26461   0.734   0.833  11.215  0.1266  0.4269  0.4059
 4942SOL    HW126462   0.712   0.897  11.283 -1.3858 -0.3098  0.6240
 4942SOL    HW226463   0.828   0.817  11.224  0.1785 -0.8540 -2.1201
 4943SOL     OW26464   0.546   2.850   7.554 -0.1395 -0.2725  0.3547
 4943SOL    HW126465   0.485   2.788   7.593 -0.4389  0.7409  1.4677
 4943SOL    HW226466   0.554   2.907   7.630 -0.1095 -1.5588  1.3082
 4944SOL     OW26467   0.807   2.121  15.321 -0.1762  0.1685 -0.0519
 4944SOL    HW126468   0.787   2.201  15.369 -2.5491  0.3195 -1.3305
 4944SOL    HW226469   0.720   2.089  15.298 -0.2442 -0.1816  0.6888
 4945SOL     OW26470   3.211   3.191  10.311  0.3578 -0.8135 -0.4629
 4945SOL    HW126471   3.149   3.189  10.384 -0.2861  0.7481 -0.9648
 4945SOL    HW226472   3.266   3.124  10.352  0.2014 -0.9596 -0.4949
 4946SOL     OW26473   2.391   0.888   4.601  0.0479  0.1622 -0.3049
 4946SOL    HW126474   2.361   0.935   4.679  1.8154  2.1577 -0.8303
 4946SOL    HW226475   2.485   0.882   4.618  0.3360  0.7806 -1.7133
 4947SOL     OW26476   1.934   3.035   3.140 -0.1960 -0.1860  0.0949
 4947SOL    HW126477   1.916   2.946   3.107  1.6925 -0.6518  0.3225
 4947SOL    HW226478   1.965   3.025   3.230  0.3951 -1.8597 -0.2818
 4948SOL     OW26479   1.574   3.239   5.601  0.1264  0.0797 -0.2076
 4948SOL    HW126480   1.597   3.150   5.575  3.4276  0.0051  2.9834
 4948SOL    HW226481   1.570   3.233   5.697 -1.4488  0.0901 -0.2638
 4949SOL     OW26482   2.627   4.430   2.715  0.1032  0.2024 -0.4140
 4949SOL    HW126483   2.587   4.362   2.662  2.5397 -2.2931  0.9671
 4949SOL    HW226484   2.623   4.380   2.796  1.6500  1.0968  0.2210
 4950SOL     OW26485   0.285   3.780   5.781  0.1014  0.0209  0.8052
 4950SOL    HW126486   0.356   3.775   5.717  0.6957  2.5986  1.2427
 4950SOL    HW226487   0.327   3.767   5.866 -1.3121  1.0984  1.6630
 4951SOL     OW26488   2.233   3.064   9.384 -0.6667  0.6097 -0.2335
 4951SOL    HW126489   2.228   3.140   9.442  2.4795  0.7062 -0.1106
 4951SOL    HW226490   2.266   3.108   9.305 -0.0538  1.2939  0.4078
 4952SOL     OW26491   1.722   4.127   6.937  0.1213  0.1289  0.3509
 4952SOL    HW126492   1.644   4.122   6.882  0.6628  0.5708 -0.4543
 4952SOL    HW226493   1.784   4.065   6.897 -0.9321 -1.4786  1.1836
 4953SOL     OW26494   1.331   0.290   7.532 -0.1864  0.5386  0.0641
 4953SOL    HW126495   1.357   0.364   7.478 -0.3587  0.8504  0.4143
 4953SOL    HW226496   1.303   0.328   7.615 -0.1963  4.5389 -1.8003
 4954SOL     OW26497   4.353   0.881   0.676 -0.0593 -0.0601  0.3687
 4954SOL    HW126498   4.280   0.935   0.646  1.5416  1.0046 -1.6540
 4954SOL    HW226499   4.378   0.848   0.589  0.1863  0.4301  0.2517
 4955SOL     OW26500   4.667   0.818   3.139  0.0024  0.1471  0.2844
 4955SOL    HW126501   4.623   0.754   3.083  2.9828 -1.8644  0.1871
 4955SOL    HW226502   0.013   0.773   3.155  0.3831  0.1847 -1.5702
 4956SOL     OW26503   1.006   4.172   7.618 -0.6091  0.3428  0.1739
 4956SOL    HW126504   0.993   4.150   7.526  1.4242 -0.5175  0.0902
 4956SOL    HW226505   0.952   4.250   7.626 -0.6003  0.1157  2.4435
 4957SOL     OW26506   2.234   4.372   7.388 -0.0797  0.0850 -0.9374
 4957SOL    HW126507   2.227   4.461   7.354  0.6335  0.3923 -0.2919
 4957SOL    HW226508   2.261   4.327   7.308  1.7221  2.1847 -1.5130
 4958SOL     OW26509   2.576   0.514   7.128 -0.2708 -0.0330  0.4808
 4958SOL    HW126510   2.550   0.451   7.196 -0.5172  0.5921  0.9697
 4958SOL    HW226511   2.517   0.499   7.054  1.7560  0.6145 -1.2834
 4959SOL     OW26512   1.267   0.296  10.254 -0.0701  0.0082  0.2454
 4959SOL    HW126513   1.235   0.263  10.338  0.7437 -0.6490  0.2941
 4959SOL    HW226514   1.212   0.250  10.191  1.5261  1.7016 -2.4001
 4960SOL     OW26515   3.154   3.437  12.918 -0.0458  0.3861 -0.0346
 4960SOL    HW126516   3.225   3.394  12.967 -0.6982  0.1690  0.7239
 4960SOL    HW226517   3.149   3.521  12.962  0.5565 -0.0782  0.9091
 4961SOL     OW26518   0.422   1.828   5.206 -0.4226 -0.0927  0.3395
 4961SOL    HW126519   0.482   1.760   5.237 -1.1489 -1.7644 -1.9225
 4961SOL    HW226520   0.352   1.810   5.268 -1.0622  2.3902  0.3082
 4962SOL     OW26521   3.878   4.251  11.816  0.1248 -0.0962  0.3999
 4962SOL    HW126522   3.837   4.211  11.893  0.2948  0.5528  0.8328
 4962SOL    HW226523   3.956   4.197  11.809 -0.8911 -1.6036  0.7915
 4963SOL     OW26524   4.164   3.503   0.738  0.1405 -0.3980 -0.7642
 4963SOL    HW126525   4.127   3.500   0.826  0.1318  0.8178 -0.7175
 4963SOL    HW226526   4.167   3.410   0.717  0.0865 -0.6785  0.5075
 4964SOL     OW26527   0.749   4.295   7.694  0.4615 -0.1836  0.3869
 4964SOL    HW126528   0.673   4.257   7.651  0.0309  2.7282 -1.4553
 4964SOL    HW226529   0.778   4.350   7.622  1.5464 -1.0160  0.1912
 4965SOL     OW26530   2.984   0.681   2.212  0.2368 -0.3041 -0.2093
 4965SOL    HW126531   3.079   0.671   2.213  0.0945 -1.2044  2.8493
 4965SOL    HW226532   2.935   0.598   2.214 -0.9933  0.3986 -1.3221
 4966SOL     OW26533   4.508   0.147   4.808 -0.1791 -0.0059  0.3111
 4966SOL    HW126534   4.497   0.205   4.883 -1.9127  0.2622 -0.1526
 4966SOL    HW226535   4.544   0.069   4.850  0.3300  0.2425  0.3335
 4967SOL     OW26536   2.974   0.465   9.213  0.3592  0.1480 -0.1877
 4967SOL    HW126537   3.044   0.485   9.151 -0.3963  0.8922 -0.8124
 4967SOL    HW226538   2.938   0.552   9.231  1.2657 -0.0365  2.4998
 4968SOL     OW26539   1.618   1.654  13.804 -0.3995  0.2268 -0.2565
 4968SOL    HW126540   1.626   1.636  13.897  0.6457 -0.1221 -0.4188
 4968SOL    HW226541   1.526   1.636  13.784 -0.9134  1.9418  0.5151
 4969SOL     OW26542   1.694   0.033   8.049 -0.0914  0.2400 -0.0741
 4969SOL    HW126543   1.662   0.057   7.962 -0.6099  1.8233  0.5442
 4969SOL    HW226544   1.699   4.675   8.045 -1.7187  0.0887  1.3419
 4970SOL     OW26545   1.825   1.145  16.831 -0.2930 -0.3248  0.5058
 4970SOL    HW126546   1.899   1.176  16.778  0.1055 -0.0571  1.2167
 4970SOL    HW226547   1.867   1.155  16.916 -0.6251  1.1295  0.5067
 4971SOL     OW26548   2.723   1.761  15.843  0.1139  0.4720 -0.0100
 4971SOL    HW126549   2.687   1.675  15.823 -1.3875  0.7005  1.6933
 4971SOL    HW226550   2.756   1.743  15.931 -0.8717 -1.3833 -0.0094
 4972SOL     OW26551   3.311   4.242  16.585 -0.0359  0.4732  0.2520
 4972SOL    HW126552   3.346   4.273  16.669 -0.4566  0.6577  0.3581
 4972SOL    HW226553   3.310   4.151  16.613  0.8110  0.5702  0.6015
 4973SOL     OW26554   4.165   0.876  16.032 -0.1834 -0.1014  0.1721
 4973SOL    HW126555   4.093   0.935  16.009  0.1171 -0.2461 -1.1668
 4973SOL    HW226556   4.242   0.914  15.989 -0.6400  2.4066  1.5749
 4974SOL     OW26557   4.380   3.632   8.450  0.2345  0.2274  0.0012
 4974SOL    HW126558   4.351   3.703   8.393  0.7654  1.2087  0.9659
 4974SOL    HW226559   4.416   3.679   8.525 -1.4480  2.2718 -0.4772
 4975SOL     OW26560   3.310   1.481   2.820 -0.2121  0.2281 -0.2612
 4975SOL    HW126561   3.390   1.523   2.789 -0.1766 -0.5238 -1.2103
 4975SOL    HW226562   3.312   1.411   2.755  0.5163 -0.6595  0.7193
 4976SOL     OW26563   4.267   0.393   4.496 -0.8593 -0.1219  1.0559
 4976SOL    HW126564   4.249   0.434   4.581 -1.9559  0.7397  0.4085
 4976SOL    HW226565   4.181   0.356   4.476 -1.1093  1.8771 -1.4595
 4977SOL     OW26566   1.205   4.449   9.698 -0.2237  0.2490  0.0258
 4977SOL    HW126567   1.177   4.358   9.710 -1.1346  0.7275  1.4689
 4977SOL    HW226568   1.293   4.446   9.735 -0.6583 -0.9982  0.9736
 4978SOL     OW26569   2.228   2.299   2.828 -0.0719  0.5307 -0.4632
 4978SOL    HW126570   2.294   2.359   2.794  1.7035 -0.0217  2.0270
 4978SOL    HW226571   2.158   2.361   2.809 -0.1649  0.3139 -0.8259
 4979SOL     OW26572   0.077   1.057   9.114  0.5446 -0.2112 -0.7512
 4979SOL    HW126573   0.025   0.984   9.081 -0.3717  0.6451 -1.2117
 4979SOL    HW226574   0.126   1.021   9.188 -0.4953 -1.9884 -0.9341
 4980SOL     OW26575   1.197   4.600   5.257 -0.4125 -0.1042 -0.4833
 4980SOL    HW126576   1.197   4.520   5.204  1.5166 -0.0017 -0.6237
 4980SOL    HW226577   1.255   4.582   5.331 -0.7958 -1.3791 -0.5031
 4981SOL     OW26578   2.764   0.291   9.317 -0.0802 -0.3514 -0.3054
 4981SOL    HW126579   2.827   0.341   9.267 -0.9450  2.2344  1.1764
 4981SOL    HW226580   2.774   0.198   9.295  2.5292  0.2089 -1.4058
 4982SOL     OW26581   1.639   1.156   4.865  0.3018 -0.1360 -0.1296
 4982SOL    HW126582   1.573   1.192   4.924 -0.1858 -1.9810  0.4483
 4982SOL    HW226583   1.607   1.195   4.783 -2.5951 -2.0727  0.0910
 4983SOL     OW26584   2.700   1.632  15.570 -0.1457  0.6880  0.5689
 4983SOL    HW126585   2.650   1.571  15.624  0.6496 -3.0984 -2.9241
 4983SOL    HW226586   2.792   1.623  15.596 -0.3626  1.8903  1.7618
 4984SOL     OW26587   1.457   0.886   2.956  0.2005  0.3966 -0.3627
 4984SOL    HW126588   1.367   0.906   2.930 -0.6094 -0.7587  1.5102
 4984SOL    HW226589   1.507   0.959   2.920  0.5900  0.8670  1.1157
 4985SOL     OW26590   0.335   1.094   0.052  0.2419  0.5755 -0.2976
 4985SOL    HW126591   0.274   1.092  17.726  0.0520 -0.3118 -0.1124
 4985SOL    HW226592   0.353   1.001   0.061  1.7713  0.8953  0.0584
 4986SOL     OW26593   4.557   0.446   5.724 -0.0834  0.4144  0.5263
 4986SOL    HW126594   4.509   0.517   5.682  1.6545  1.8041  0.9086
 4986SOL    HW226595   4.523   0.370   5.676 -1.6252  0.8846  0.8565
 4987SOL     OW26596   1.565   2.137   8.091  0.5540  0.3094 -0.1095
 4987SOL    HW126597   1.490   2.195   8.105 -0.2023 -0.2392 -1.9105
 4987SOL    HW226598   1.529   2.081   8.023  0.6374  0.9123 -0.6502
 4988SOL     OW26599   2.511   0.772   6.964  0.3017  0.2402  0.2415
 4988SOL    HW126600   2.575   0.817   6.910 -0.8955 -0.5005 -1.7847
 4988SOL    HW226601   2.577   0.714   7.002 -0.3229 -1.0268 -0.6297
 4989SOL     OW26602   3.639   2.495   8.730  0.5532  0.4561 -0.2092
 4989SOL    HW126603   3.692   2.575   8.733 -1.4274  1.7250  0.7249
 4989SOL    HW226604   3.670   2.455   8.812 -1.9448  1.6665  1.3498
 4990SOL     OW26605   1.001   1.994  16.127 -0.3829 -0.0886  0.1579
 4990SOL    HW126606   0.967   1.970  16.040 -0.4666  0.8568 -0.0724
 4990SOL    HW226607   1.094   2.002  16.103 -0.3426 -0.1015  0.3143
 4991SOL     OW26608   0.639   0.422   8.008 -0.1767 -0.3035  0.3998
 4991SOL    HW126609   0.650   0.342   8.060  0.3120 -0.1657  0.5043
 4991SOL    HW226610   0.612   0.383   7.925 -1.6890  0.5708  0.4842
 4992SOL     OW26611   2.174   0.536   8.095  0.4566  0.4870  0.0850
 4992SOL    HW126612   2.126   0.580   8.164 -3.3163  0.4313 -2.5315
 4992SOL    HW226613   2.142   0.582   8.017  0.5855  3.3390  1.7397
 4993SOL     OW26614   1.717   4.693   7.407 -0.3814 -0.2792  0.3170
 4993SOL    HW126615   1.771   4.633   7.357  0.8459 -1.1995  2.7786
 4993SOL    HW226616   1.637   4.640   7.403 -2.0793  2.2669  0.3939
 4994SOL     OW26617   2.346   4.642   6.227  0.3601 -0.4728 -0.3382
 4994SOL    HW126618   2.272   4.620   6.283  0.4370 -0.1741 -0.1190
 4994SOL    HW226619   2.424   4.643   6.283 -1.1943 -2.4965  1.8590
 4995SOL     OW26620   3.437   1.901  10.483 -0.8561 -0.2165 -0.2855
 4995SOL    HW126621   3.353   1.856  10.477 -0.3231 -1.0979 -1.1586
 4995SOL    HW226622   3.481   1.857  10.556 -1.5402 -0.6547 -0.1356
 4996SOL     OW26623   2.080   2.542   5.515  0.3158  0.2089  0.2779
 4996SOL    HW126624   2.025   2.553   5.593  0.1522  0.5022  0.1227
 4996SOL    HW226625   2.015   2.510   5.452  0.4986 -1.9497  1.1951
 4997SOL     OW26626   2.285   0.175   3.892  0.2595 -0.1767 -0.2434
 4997SOL    HW126627   2.193   0.164   3.872  0.1268  1.0330 -0.2804
 4997SOL    HW226628   2.279   0.265   3.923 -2.7251 -0.1238 -1.0752
 4998SOL     OW26629   2.499   1.665   6.076 -0.5815 -0.0258 -0.1891
 4998SOL    HW126630   2.425   1.605   6.083 -0.1886 -0.4733  0.1786
 4998SOL    HW226631   2.519   1.652   5.983  0.9203  2.9404 -0.2857
 4999SOL     OW26632   2.865   1.073   1.005 -0.9061 -0.1777 -0.1614
 4999SOL    HW126633   2.898   0.994   1.047 -1.8400 -1.4029 -1.6909
 4999SOL    HW226634   2.888   1.055   0.914  0.4925  2.9483 -0.4301
 5000SOL     OW26635   3.312   0.230   6.532  0.6935 -0.1799 -0.3007
 5000SOL    HW126636   3.311   0.323   6.557  1.4903  0.4503 -2.5493
 5000SOL    HW226637   3.405   0.213   6.547  0.8265 -0.9736 -1.9369
 5001SOL     OW26638   0.286   3.174   7.135 -0.0652  0.0345 -0.0084
 5001SOL    HW126639   0.240   3.257   7.149 -0.1827 -0.1398  0.6344
 5001SOL    HW226640   0.286   3.140   7.225 -1.0288 -0.6240 -0.2601
 5002SOL     OW26641   3.547   3.428   1.462 -0.3838 -0.8814 -0.0068
 5002SOL    HW126642   3.626   3.477   1.484 -1.0141  0.3521 -0.4946
 5002SOL    HW226643   3.540   3.454   1.370 -0.1903 -1.2672 -0.1279
 5003SOL     OW26644   3.049   2.537   6.868 -0.1207 -0.4966 -0.4687
 5003SOL    HW126645   3.060   2.548   6.963 -2.8674 -0.5889 -0.1194
 5003SOL    HW226646   2.993   2.459   6.869 -0.4929 -0.2274  0.5768
 5004SOL     OW26647   4.135   2.014   4.511  0.4364  0.3014  0.7249
 5004SOL    HW126648   4.051   1.972   4.494  0.5987  0.2684  0.0124
 5004SOL    HW226649   4.196   1.977   4.448  1.4839  2.7731  0.2843
 5005SOL     OW26650   1.732   1.900   1.588  0.5368  0.3648  0.2535
 5005SOL    HW126651   1.806   1.934   1.639  1.5967 -1.6853  0.1086
 5005SOL    HW226652   1.718   1.816   1.632  0.2227  0.6887  0.7738
 5006SOL     OW26653   3.896   1.846   2.653  0.0125 -0.2921  0.2754
 5006SOL    HW126654   3.967   1.873   2.710 -0.0903 -0.1339  0.3266
 5006SOL    HW226655   3.847   1.806   2.725 -1.4948 -1.3496 -1.3444
 5007SOL     OW26656   2.178   3.821   8.286 -0.5906 -0.6090 -0.2815
 5007SOL    HW126657   2.182   3.726   8.274 -1.3707 -0.9453  2.1709
 5007SOL    HW226658   2.172   3.852   8.195 -0.5395 -0.9937 -0.4195
 5008SOL     OW26659   2.403   2.219   0.407 -0.1513 -0.0691 -0.3010
 5008SOL    HW126660   2.367   2.222   0.496 -1.0522 -0.4357 -0.6581
 5008SOL    HW226661   2.437   2.308   0.404  0.7551 -0.3754  0.6217
 5009SOL     OW26662   3.822   2.836   8.531 -0.2107  0.3242  0.5859
 5009SOL    HW126663   3.796   2.925   8.554  1.8532  0.6272  1.7274
 5009SOL    HW226664   3.858   2.808   8.615 -3.1658 -2.3514  0.9875
 5010SOL     OW26665   3.248   0.434   1.429 -0.4181  0.5312 -0.4539
 5010SOL    HW126666   3.158   0.450   1.456 -0.2826 -1.6719  1.2344
 5010SOL    HW226667   3.294   0.449   1.511 -1.2435  1.4543 -0.1528
 5011SOL     OW26668   4.462   4.338   6.355 -0.2620  0.4256 -0.2201
 5011SOL    HW126669   4.538   4.283   6.337 -1.3629 -0.8638 -0.9711
 5011SOL    HW226670   4.441   4.334   6.448  0.4807  0.6728 -0.0453
 5012SOL     OW26671   4.448   2.979   2.437 -0.3668  0.1582 -0.2801
 5012SOL    HW126672   4.397   3.010   2.512 -0.4249 -0.1733 -0.1835
 5012SOL    HW226673   4.403   2.895   2.428 -1.8239  0.9957 -0.8952
 5013SOL     OW26674   3.339   4.595   3.599 -0.4036  0.1077  0.0059
 5013SOL    HW126675   3.380   4.658   3.659  0.6621 -0.4362 -0.1523
 5013SOL    HW226676   3.415   4.546   3.567  0.1936  1.3049 -0.3984
 5014SOL     OW26677   1.283   4.465   0.448 -0.2264 -0.3964  0.8158
 5014SOL    HW126678   1.358   4.445   0.504  1.9472  0.2100 -1.8883
 5014SOL    HW226679   1.236   4.381   0.444  0.5250 -0.8092  0.7254
 5015SOL     OW26680   2.825   0.651   7.735  0.2488  0.0081 -0.6802
 5015SOL    HW126681   2.794   0.620   7.650 -3.2502  0.7893  0.2830
 5015SOL    HW226682   2.839   0.573   7.789 -0.6066  0.5858  0.3727
 5016SOL     OW26683   1.410   0.005  17.021 -0.2345  0.0375 -0.1240
 5016SOL    HW126684   1.340   0.065  17.047  0.1076 -0.5919  2.2516
 5016SOL    HW226685   1.484   0.063  17.040 -0.9929 -0.2296  3.6258
 5017SOL     OW26686   4.662   1.848   8.989  0.0906  0.2378 -0.7244
 5017SOL    HW126687   0.009   1.862   9.033 -1.5944  0.4883  2.4019
 5017SOL    HW226688   4.642   1.766   9.034 -1.5072  1.0971  0.0930
 5018SOL     OW26689   1.596   4.064   7.298 -0.3406 -0.1251  0.0828
 5018SOL    HW126690   1.565   4.026   7.215 -0.0160 -0.0421 -0.0781
 5018SOL    HW226691   1.634   4.149   7.276 -1.4089 -0.2036 -2.1293
 5019SOL     OW26692   0.354   1.114  17.414  0.6720  0.0032 -0.1311
 5019SOL    HW126693   0.304   1.183  17.457 -1.3601 -0.4647 -1.7325
 5019SOL    HW226694   0.350   1.046  17.482 -0.9241 -0.2671 -0.4824
 5020SOL     OW26695   1.611   0.718   6.264  0.1688  0.0221 -0.0172
 5020SOL    HW126696   1.693   0.729   6.310 -0.6534  1.8678  0.9648
 5020SOL    HW226697   1.606   0.804   6.223  1.1319  0.1038  0.0593
 5021SOL     OW26698   2.431   0.450   8.130  0.2688 -0.1350  0.2264
 5021SOL    HW126699   2.344   0.491   8.128  0.6838  0.7597  0.4499
 5021SOL    HW226700   2.456   0.469   8.220 -1.7355  0.9540  0.5590
 5022SOL     OW26701   0.453   0.311   4.041  0.2104  0.6007  0.7299
 5022SOL    HW126702   0.519   0.267   4.095  1.5501  0.3695 -1.1050
 5022SOL    HW226703   0.503   0.383   4.004 -0.4068 -0.5352 -2.3260
 5023SOL     OW26704   2.047   2.424   4.724  0.8557  0.6340 -0.5852
 5023SOL    HW126705   2.057   2.366   4.800 -0.5616 -0.1076 -0.9723
 5023SOL    HW226706   2.106   2.498   4.740  0.6597  0.7646 -0.4636
 5024SOL     OW26707   1.036   2.981  12.567  0.3999  0.3301  0.6699
 5024SOL    HW126708   1.020   3.035  12.490  0.1355  0.8109  1.0623
 5024SOL    HW226709   0.943   2.962  12.583 -0.2955  0.4006 -3.3448
 5025SOL     OW26710   4.528   4.586   3.752 -0.7487 -0.2162  0.1267
 5025SOL    HW126711   4.445   4.554   3.716 -1.0615  1.6632 -0.7830
 5025SOL    HW226712   4.518   4.677   3.727  0.0864  1.1232  4.6009
 5026SOL     OW26713   3.808   1.492   4.360  0.6388  0.3605 -0.5411
 5026SOL    HW126714   3.800   1.398   4.347  0.6016  0.1367  1.1012
 5026SOL    HW226715   3.785   1.536   4.277 -3.6883 -0.1393  0.3609
 5027SOL     OW26716   2.616   0.664   1.624  0.0303 -0.4701  0.3823
 5027SOL    HW126717   2.637   0.655   1.718  0.2984  2.8965  0.6260
 5027SOL    HW226718   2.571   0.748   1.622 -0.4373 -0.6669  2.1525
 5028SOL     OW26719   2.870   1.330   0.557 -0.8871  0.0787 -0.6781
 5028SOL    HW126720   2.879   1.400   0.492  0.4888 -0.9923 -1.6546
 5028SOL    HW226721   2.775   1.328   0.563 -0.8845  1.3035 -0.3290
 5029SOL     OW26722   2.209   3.856   6.702  0.5524  0.5065  0.3576
 5029SOL    HW126723   2.191   3.769   6.668 -1.1770  0.6928  0.8228
 5029SOL    HW226724   2.244   3.835   6.788  0.7980  1.4114  0.4874
 5030SOL     OW26725   3.332   4.281  16.155 -0.0778 -0.2113 -0.1498
 5030SOL    HW126726   3.428   4.280  16.158 -0.1575 -2.1188  1.8205
 5030SOL    HW226727   3.322   4.306  16.247  1.2579 -0.4147  0.0564
 5031SOL     OW26728   1.757   0.088  14.352  0.8337 -0.3194 -0.4301
 5031SOL    HW126729   1.842   0.107  14.393  0.5400 -1.6010  0.7829
 5031SOL    HW226730   1.766   0.131  14.268  0.8026  1.5678  0.5405
 5032SOL     OW26731   3.673   2.604   3.692  0.1729  0.7692 -0.0007
 5032SOL    HW126732   3.663   2.564   3.606 -0.2383  1.2291 -0.1672
 5032SOL    HW226733   3.733   2.675   3.671 -0.2477  0.8602 -0.8656
 5033SOL     OW26734   0.495   1.774  17.400  0.0675  0.6297 -0.4125
 5033SOL    HW126735   0.482   1.691  17.353 -1.3897  0.0076  1.1133
 5033SOL    HW226736   0.481   1.747  17.490  1.0803  2.3475  0.2478
 5034SOL     OW26737   2.101   1.819   7.135 -0.0747 -0.0940 -0.2093
 5034SOL    HW126738   2.008   1.801   7.144 -0.3723  1.0113 -1.1992
 5034SOL    HW226739   2.141   1.761   7.200  1.7933  2.1824  0.7035
 5035SOL     OW26740   0.010   3.303  15.819  0.1286  0.5010 -0.4487
 5035SOL    HW126741   0.017   3.223  15.768  1.1335 -1.6769  3.1425
 5035SOL    HW226742   4.680   3.342  15.764  0.0157  0.0658 -0.6167
 5036SOL     OW26743   3.742   3.259   5.279  0.2354 -0.7420  0.2765
 5036SOL    HW126744   3.789   3.298   5.353  1.3548  2.8176 -2.3302
 5036SOL    HW226745   3.665   3.249   5.336 -0.1730  2.0530  0.2349
 5037SOL     OW26746   3.311   3.352   1.595  0.2578 -0.0342 -0.3849
 5037SOL    HW126747   3.386   3.360   1.535 -0.7068  1.8264 -1.3333
 5037SOL    HW226748   3.349   3.385   1.676  0.1706  0.2817 -0.4714
 5038SOL     OW26749   2.871   3.507   5.356 -0.5026  1.3276 -0.4276
 5038SOL    HW126750   2.904   3.442   5.294  0.4288  0.1390  1.3321
 5038SOL    HW226751   2.868   3.581   5.295  0.1873  1.6853 -0.0279
 5039SOL     OW26752   4.575   0.595   8.673 -0.0022  0.3746  0.2479
 5039SOL    HW126753   4.661   0.558   8.652  0.3648  2.1569 -1.3360
 5039SOL    HW226754   4.521   0.518   8.654  0.4217 -0.1637  1.2034
 5040SOL     OW26755   2.138   1.188   1.763 -0.3027 -0.2608 -0.1349
 5040SOL    HW126756   2.096   1.267   1.797  0.1214  0.3105 -0.9508
 5040SOL    HW226757   2.156   1.222   1.676  1.6071  1.3354  0.8840
 5041SOL     OW26758   1.266   3.336   7.980 -0.2790  0.2556 -0.0239
 5041SOL    HW126759   1.355   3.317   7.951  0.3786 -0.7856  2.6663
 5041SOL    HW226760   1.263   3.299   8.069 -1.0872 -0.9963 -0.5740
 5042SOL     OW26761   2.884   1.815  16.857 -0.8726  0.2304 -0.0426
 5042SOL    HW126762   2.960   1.870  16.875 -1.2062  1.4426 -2.3351
 5042SOL    HW226763   2.928   1.757  16.795 -0.0292  0.7785  0.0553
 5043SOL     OW26764   3.799   1.050   6.532  0.6107  0.1500 -0.0312
 5043SOL    HW126765   3.869   1.111   6.558 -1.2326  0.8136  3.3366
 5043SOL    HW226766   3.814   1.036   6.439 -2.4010 -0.0478 -0.4840
 5044SOL     OW26767   4.087   1.578   4.964 -0.5340  0.4624 -0.1146
 5044SOL    HW126768   4.001   1.538   4.948  0.3686 -1.6807  0.3754
 5044SOL    HW226769   4.103   1.630   4.886 -0.1219  1.2829  0.5197
 5045SOL     OW26770   2.061   0.290   5.970 -0.4224 -0.5998  0.5692
 5045SOL    HW126771   2.124   0.242   6.024 -1.7504 -1.5965  1.2344
 5045SOL    HW226772   2.090   0.381   5.970 -1.5358 -0.2498 -0.6461
 5046SOL     OW26773   0.135   1.053  17.617 -0.3077 -0.8538 -0.0639
 5046SOL    HW126774   0.102   0.979  17.668 -1.7092 -0.0439  0.2012
 5046SOL    HW226775   0.052   1.100  17.606  0.1658  0.1004  0.3489
 5047SOL     OW26776   0.466   4.679   3.255  0.3431  0.0624  0.6571
 5047SOL    HW126777   0.482   4.604   3.199 -0.8236 -1.6314  2.5913
 5047SOL    HW226778   0.469   4.645   3.345 -2.0018  0.0401  0.7338
 5048SOL     OW26779   3.094   0.260   4.543  0.6323 -0.6283  0.1925
 5048SOL    HW126780   3.079   0.349   4.574  1.9442  0.0021 -0.9301
 5048SOL    HW226781   3.009   0.257   4.499  0.8996 -0.6785 -0.3241
 5049SOL     OW26782   1.677   4.031  14.080 -0.4567  0.3855 -0.5530
 5049SOL    HW126783   1.623   4.087  14.024 -0.6151 -0.4084 -1.1952
 5049SOL    HW226784   1.622   4.019  14.157  1.8346 -0.5995  0.9407
 5050SOL     OW26785   4.698   1.668   8.768  0.2578  0.0840 -0.1176
 5050SOL    HW126786   0.049   1.631   8.761  0.4221  0.0815  1.9159
 5050SOL    HW226787   4.707   1.746   8.823  3.7248 -0.0590 -0.4991
 5051SOL     OW26788   0.202   1.775   0.563 -0.4422 -0.9746  0.2090
 5051SOL    HW126789   0.186   1.827   0.642  3.4362  1.3518 -0.5361
 5051SOL    HW226790   0.290   1.798   0.534 -0.7571  0.8454  0.7459
 5052SOL     OW26791   2.372   0.088  17.360 -0.0243  0.5262  0.0156
 5052SOL    HW126792   2.281   0.117  17.350  0.6712  2.1368 -1.3951
 5052SOL    HW226793   2.355   0.015  17.421  0.7347 -0.2113 -0.6531
 5053SOL     OW26794   0.640   2.411  17.340 -0.1520  0.0222 -0.3409
 5053SOL    HW126795   0.630   2.327  17.295 -0.4317 -0.1224 -0.0042
 5053SOL    HW226796   0.639   2.477  17.271 -3.9781  1.5389  1.1742
 5054SOL     OW26797   1.980   2.769   2.634 -0.2681 -0.2891  0.5765
 5054SOL    HW126798   1.992   2.812   2.549 -0.3173 -2.7640 -0.7007
 5054SOL    HW226799   2.024   2.829   2.693  0.6734  0.4914 -0.9086
 5055SOL     OW26800   4.398   2.327   0.688 -0.3798  0.3709  0.0588
 5055SOL    HW126801   4.380   2.240   0.652  0.9740  0.6776 -1.3532
 5055SOL    HW226802   4.426   2.300   0.776  1.6698 -0.9011 -0.9810
 5056SOL     OW26803   4.376   1.819  11.971  0.4581  0.2995 -0.6276
 5056SOL    HW126804   4.459   1.812  11.923 -0.1024 -1.5277 -1.3302
 5056SOL    HW226805   4.411   1.831  12.059 -3.3342  2.4626  0.5764
 5057SOL     OW26806   1.124   3.311   4.999 -0.3638 -0.4793  0.1233
 5057SOL    HW126807   1.202   3.317   4.944  0.8065 -1.2691  1.6906
 5057SOL    HW226808   1.163   3.257   5.068  1.1770  0.6203  0.1144
 5058SOL     OW26809   0.417   3.395  14.415 -0.0792  0.1864  0.1179
 5058SOL    HW126810   0.424   3.398  14.511  1.6475 -0.7516  0.0072
 5058SOL    HW226811   0.483   3.330  14.396  0.8608  1.0099  0.5704
 5059SOL     OW26812   3.642   0.838   7.019  0.0833 -0.1279  0.1714
 5059SOL    HW126813   3.733   0.812   7.030 -0.4003 -1.3553  1.3272
 5059SOL    HW226814   3.659   0.929   6.993 -0.2621 -0.0451  0.2301
 5060SOL     OW26815   2.131   0.274   0.304  0.0154  0.5147 -0.1788
 5060SOL    HW126816   2.080   0.355   0.302 -0.9795 -0.1148 -0.4238
 5060SOL    HW226817   2.193   0.291   0.374 -0.2150 -1.6322  0.5540
 5061SOL     OW26818   2.842   2.473   3.948 -0.2478  0.0839 -0.2595
 5061SOL    HW126819   2.893   2.453   3.869  0.0492 -0.3100  0.0291
 5061SOL    HW226820   2.761   2.480   3.897 -0.1421 -0.0312 -0.4429
 5062SOL     OW26821   4.077   1.732   2.412 -0.4837  0.6962  0.1109
 5062SOL    HW126822   3.989   1.754   2.443 -1.2085  1.4885 -2.5645
 5062SOL    HW226823   4.113   1.816   2.384 -0.7410  0.8227  0.1609
 5063SOL     OW26824   3.451   0.209   7.942  0.3869 -0.1347 -0.1574
 5063SOL    HW126825   3.371   0.239   7.986 -0.4058 -2.1085 -0.2271
 5063SOL    HW226826   3.488   0.296   7.928 -0.2058  0.0541 -0.5348
 5064SOL     OW26827   0.242   3.883  16.048  0.2110  0.0311  0.7008
 5064SOL    HW126828   0.267   3.858  16.137  0.2418  0.6424  0.8600
 5064SOL    HW226829   0.164   3.937  16.057 -1.4268 -1.8651 -2.0872
 5065SOL     OW26830   3.988   4.676   7.813  0.4839 -0.6353  0.1976
 5065SOL    HW126831   4.072   4.691   7.856  1.8256 -1.8736 -1.9848
 5065SOL    HW226832   3.953   4.608   7.871  1.2244  0.5683  2.0506
 5066SOL     OW26833   3.881   3.241   4.860  0.4913 -0.5977  0.1585
 5066SOL    HW126834   3.951   3.304   4.878 -0.7513  0.4470  1.2497
 5066SOL    HW226835   3.946   3.183   4.821  2.7602  2.2636 -0.3279
 5067SOL     OW26836   1.709   3.020   2.367  0.1342  0.1835  0.5875
 5067SOL    HW126837   1.620   3.029   2.402 -0.5871 -0.0628 -1.1424
 5067SOL    HW226838   1.740   3.111   2.374  0.5071  0.1289 -0.3719
 5068SOL     OW26839   3.794   1.609   1.250 -0.7466 -0.6514 -0.3956
 5068SOL    HW126840   3.787   1.519   1.217 -1.6819 -0.5126 -0.5661
 5068SOL    HW226841   3.885   1.619   1.222 -0.4487 -0.2412  0.7080
 5069SOL     OW26842   3.243   1.790   7.426  0.2448  0.5218  0.0875
 5069SOL    HW126843   3.257   1.851   7.498  1.4694  0.2366  0.0851
 5069SOL    HW226844   3.253   1.711   7.479 -3.2269 -0.8191 -1.2536
 5070SOL     OW26845   4.068   1.062   8.499  0.1366 -0.2058  0.3723
 5070SOL    HW126846   4.029   1.123   8.562 -0.9818 -1.8929  1.3359
 5070SOL    HW226847   4.134   1.018   8.553  0.1857  1.2313  1.4726
 5071SOL     OW26848   2.769   0.290  15.056  0.0752 -0.5897 -0.1911
 5071SOL    HW126849   2.674   0.291  15.059  0.1431  2.5137  0.7305
 5071SOL    HW226850   2.781   0.349  15.131 -0.5941 -0.4935 -0.1658
 5072SOL     OW26851   0.761   4.489   3.935  0.4390 -0.5615 -0.3395
 5072SOL    HW126852   0.821   4.454   4.000 -0.6892  0.5390  1.3010
 5072SOL    HW226853   0.821   4.484   3.860 -0.2796  3.8903 -1.2407
 5073SOL     OW26854   0.600   1.001  17.512 -0.6839  0.1168 -0.1078
 5073SOL    HW126855   0.687   0.969  17.488 -1.1077 -0.9084 -0.2974
 5073SOL    HW226856   0.550   0.920  17.521  1.0309 -0.9766 -0.6134
 5074SOL     OW26857   3.829   4.384  13.434  0.3338  0.0221  0.4743
 5074SOL    HW126858   3.818   4.463  13.382 -1.4086 -0.9074 -0.5679
 5074SOL    HW226859   3.754   4.391  13.493  1.6078 -0.2687  2.1301
 5075SOL     OW26860   2.981   1.716   2.383 -0.9468 -0.2394  0.2060
 5075SOL    HW126861   2.986   1.652   2.311 -0.5663 -0.7799  0.7088
 5075SOL    HW226862   2.975   1.797   2.333 -0.1610 -0.5714 -0.4463
 5076SOL     OW26863   4.580   1.607   3.678  0.0024  0.6994  0.9160
 5076SOL    HW126864   4.649   1.569   3.624 -1.5129 -0.5103 -0.1828
 5076SOL    HW226865   4.583   1.539   3.744 -0.1619  0.9593  1.1922
 5077SOL     OW26866   2.017   2.136  14.575  0.1645  0.4198 -0.0651
 5077SOL    HW126867   1.932   2.128  14.619 -0.7464 -2.3987 -2.4175
 5077SOL    HW226868   2.074   2.150  14.651 -0.8681  1.6502  0.4837
 5078SOL     OW26869   1.529   1.602   7.117  0.7744 -0.6144 -1.1084
 5078SOL    HW126870   1.528   1.516   7.076 -0.5377 -0.8258 -0.6473
 5078SOL    HW226871   1.549   1.587   7.209 -1.7945 -1.8097 -0.7294
 5079SOL     OW26872   0.304   1.130   8.572  0.0795 -0.2543  0.0610
 5079SOL    HW126873   0.385   1.095   8.608 -0.8939 -2.5904  0.0255
 5079SOL    HW226874   0.277   1.055   8.520  0.9313 -1.1513  0.9131
 5080SOL     OW26875   3.146   2.425  11.610  0.4422  0.4253 -1.1043
 5080SOL    HW126876   3.187   2.347  11.573  0.1403 -0.7346  1.0371
 5080SOL    HW226877   3.137   2.475  11.529  1.2576  0.4767 -1.1554
 5081SOL     OW26878   0.621   0.444   7.486  0.2068 -0.4983  0.8631
 5081SOL    HW126879   0.673   0.520   7.462  0.7441 -1.1230  0.0674
 5081SOL    HW226880   0.621   0.380   7.415  0.0643 -3.3296  3.3944
 5082SOL     OW26881   2.597   3.254  15.891  0.7252  0.5015  0.1691
 5082SOL    HW126882   2.544   3.235  15.968 -0.1874 -1.1875 -0.8675
 5082SOL    HW226883   2.653   3.324  15.924  1.3659 -0.7297  1.6752
 5083SOL     OW26884   1.458   4.633   5.894 -0.1047  0.2771  0.1020
 5083SOL    HW126885   1.390   4.608   5.957 -0.2936 -1.4552 -0.7924
 5083SOL    HW226886   1.525   4.656   5.959 -0.3061  1.0090  0.0426
 5084SOL     OW26887   1.897   3.251  15.293 -0.0355 -0.0200 -0.1697
 5084SOL    HW126888   1.861   3.339  15.298  0.2418  0.2875 -3.3074
 5084SOL    HW226889   1.819   3.196  15.282  0.1449 -0.2211 -0.4431
 5085SOL     OW26890   4.724   0.072   9.372 -0.0404  0.2049 -0.3621
 5085SOL    HW126891   4.703   4.721   9.342 -1.0456  0.1408  0.5637
 5085SOL    HW226892   4.640   0.103   9.406  0.9689 -1.0704  3.2589
 5086SOL     OW26893   3.854   1.374   3.420 -0.1901  0.1220 -0.1692
 5086SOL    HW126894   3.889   1.284   3.420  1.7499  0.8778 -1.6332
 5086SOL    HW226895   3.929   1.430   3.401  1.6484 -2.2129  0.1330
 5087SOL     OW26896   1.008   2.422   4.052  0.6564 -0.4841 -0.1393
 5087SOL    HW126897   0.986   2.514   4.064 -0.1318 -0.9778  2.2218
 5087SOL    HW226898   1.009   2.374   4.135 -1.4905 -0.4354 -0.0828
 5088SOL     OW26899   4.286   1.921   6.985  0.7079  0.4012  0.3679
 5088SOL    HW126900   4.194   1.941   7.001  1.3356  2.7542  0.9722
 5088SOL    HW226901   4.298   1.980   6.911  3.0289  0.4235  0.7435
 5089SOL     OW26902   2.321   2.663   0.562 -0.2509 -0.0908 -0.3263
 5089SOL    HW126903   2.348   2.741   0.611 -0.8758  1.0029 -1.7464
 5089SOL    HW226904   2.333   2.599   0.632  1.3664 -0.3394 -0.8436
 5090SOL     OW26905   0.404   0.309   2.438  0.0279  0.7279 -0.1981
 5090SOL    HW126906   0.417   0.316   2.343 -0.4579  2.0078 -0.1728
 5090SOL    HW226907   0.311   0.285   2.443  0.5551 -1.1519  0.4818
 5091SOL     OW26908   4.639   4.616   5.893 -0.7512 -0.4534 -0.1105
 5091SOL    HW126909   4.657   4.561   5.969  2.4447 -0.4100 -0.8540
 5091SOL    HW226910   4.566   4.566   5.857 -2.3762  2.3934 -0.8332
 5092SOL     OW26911   0.099   3.802   4.207  0.5742 -0.1624 -0.2930
 5092SOL    HW126912   0.049   3.811   4.126  1.2750  1.2136 -0.5675
 5092SOL    HW226913   0.143   3.718   4.195 -0.5789 -1.2336  2.8938
 5093SOL     OW26914   2.091   0.765   7.811 -0.2103  0.4265 -0.2615
 5093SOL    HW126915   2.000   0.765   7.840  0.4212  1.1983  1.7004
 5093SOL    HW226916   2.098   0.713   7.731 -0.2562  0.1582 -0.0915
 5094SOL     OW26917   4.418   0.452   9.579  0.2991  0.4779  0.3500
 5094SOL    HW126918   4.408   0.389   9.651 -3.4245 -1.0584 -1.5623
 5094SOL    HW226919   4.500   0.500   9.592  0.1530  0.6553  0.6206
 5095SOL     OW26920   2.520   3.303   3.745  0.0298 -0.5069  0.0325
 5095SOL    HW126921   2.513   3.336   3.656 -1.8656  1.2834  0.8473
 5095SOL    HW226922   2.600   3.251   3.735 -1.1252 -2.2725  0.0461
 5096SOL     OW26923   3.988   1.434   7.261 -0.2723  0.5501 -0.5221
 5096SOL    HW126924   3.915   1.462   7.317 -1.0172 -0.5200 -0.9744
 5096SOL    HW226925   4.041   1.399   7.333  0.1045  0.2629 -0.9422
 5097SOL     OW26926   0.931   0.602   6.611  0.0517  0.6889  0.2572
 5097SOL    HW126927   0.872   0.639   6.545  1.4415  0.4602 -1.1111
 5097SOL    HW226928   0.953   0.519   6.568 -0.0223  1.4220 -1.1998
 5098SOL     OW26929   0.812   2.263  14.731 -0.3777  0.6824  0.3259
 5098SOL    HW126930   0.873   2.202  14.773 -0.1583  0.8956  0.3170
 5098SOL    HW226931   0.802   2.223  14.645  1.0086  0.1345  0.4169
 5099SOL     OW26932   4.534   4.316   4.269  0.1664  0.5595  0.5414
 5099SOL    HW126933   4.462   4.321   4.206 -0.4145  0.9122  1.2305
 5099SOL    HW226934   4.482   4.344   4.345 -2.9116 -2.1361 -0.5439
 5100SOL     OW26935   1.304   4.674   6.134 -0.2643  0.0215 -0.1978
 5100SOL    HW126936   1.265   0.017   6.099  0.0767  0.7329  1.0454
 5100SOL    HW226937   1.231   4.626   6.171 -1.4741  0.2922 -2.2262
 5101SOL     OW26938   4.284   2.781   2.357 -0.2661 -0.5910  0.5866
 5101SOL    HW126939   4.202   2.765   2.404 -0.1865  0.9909  1.2678
 5101SOL    HW226940   4.329   2.696   2.360  0.0958 -0.4918 -2.2035
 5102SOL     OW26941   4.125   1.686  10.601 -0.8700 -0.0952  0.2029
 5102SOL    HW126942   4.185   1.697  10.527 -0.0799  0.0416  0.8645
 5102SOL    HW226943   4.073   1.767  10.599  0.3610  0.6711 -0.4648
 5103SOL     OW26944   2.234   0.240   5.760 -0.0661 -0.1280 -0.0796
 5103SOL    HW126945   2.257   0.148   5.777  1.6187  0.7544  2.4522
 5103SOL    HW226946   2.158   0.249   5.818 -1.0294  2.7563 -1.8163
 5104SOL     OW26947   1.802   1.275  17.273  0.7487 -0.5357 -0.4892
 5104SOL    HW126948   1.815   1.336  17.345 -1.8764  0.5730 -0.9426
 5104SOL    HW226949   1.801   1.334  17.197 -2.4152  1.1705  0.8972
 5105SOL     OW26950   1.895   1.862   4.442 -0.5383 -0.3302 -0.7808
 5105SOL    HW126951   1.874   1.931   4.379 -1.0074 -1.4940 -1.9057
 5105SOL    HW226952   1.989   1.869   4.427 -0.9170  1.3466 -2.3483
 5106SOL     OW26953   2.346   1.519   0.782  1.0337 -0.0360 -0.1450
 5106SOL    HW126954   2.278   1.466   0.822  2.5289 -1.8293  0.0176
 5106SOL    HW226955   2.300   1.595   0.745  0.0011 -0.3371  0.5282
 5107SOL     OW26956   2.964   1.637  13.999 -0.3721  0.1396  0.3586
 5107SOL    HW126957   3.004   1.550  14.007  1.1519  0.8735  0.8324
 5107SOL    HW226958   3.033   1.679  13.947 -2.2939  0.7035 -1.7400
 5108SOL     OW26959   2.640   0.710   7.341  0.2047 -0.9625  0.2727
 5108SOL    HW126960   2.732   0.685   7.343  0.6464  0.5257 -1.4024
 5108SOL    HW226961   2.617   0.658   7.264  0.8513 -1.2690  0.2899
 5109SOL     OW26962   4.484   4.246  16.157  0.5927 -0.2295 -0.0702
 5109SOL    HW126963   4.403   4.220  16.114  0.3993  0.1916  0.0368
 5109SOL    HW226964   4.468   4.234  16.251  2.9423  0.6137  0.4474
 5110SOL     OW26965   1.378   1.239   5.745  0.2002  0.5793  0.0460
 5110SOL    HW126966   1.469   1.246   5.774  0.4235  2.0978 -1.0266
 5110SOL    HW226967   1.331   1.299   5.803  1.1466 -0.5294  1.9507
 5111SOL     OW26968   1.230   0.434  11.531 -0.3731  0.1652  0.2830
 5111SOL    HW126969   1.147   0.477  11.507 -1.2553 -2.7755 -2.0145
 5111SOL    HW226970   1.290   0.509  11.525  1.4687 -1.3003  0.5755
 5112SOL     OW26971   0.227   1.683   2.763  0.7671  0.2476  0.0610
 5112SOL    HW126972   0.204   1.753   2.824 -0.4035 -1.3260  1.4175
 5112SOL    HW226973   0.263   1.737   2.693  1.1686  0.1441  0.1907
 5113SOL     OW26974   3.832   1.605   5.243 -0.0948  0.0011  0.2715
 5113SOL    HW126975   3.763   1.626   5.306 -1.6980 -3.8186 -0.2319
 5113SOL    HW226976   3.905   1.587   5.303 -0.6761  1.0945  1.3040
 5114SOL     OW26977   3.227   2.218   8.220  0.4991 -0.1093  0.1089
 5114SOL    HW126978   3.282   2.285   8.180 -0.2320 -0.0452 -0.7914
 5114SOL    HW226979   3.146   2.240   8.174  0.5047  1.3977  0.8050
 5115SOL     OW26980   0.184   0.789   5.153 -0.3370  0.4716  0.2262
 5115SOL    HW126981   0.251   0.843   5.195  0.0720  0.0088  0.1703
 5115SOL    HW226982   0.106   0.832   5.188 -0.6028  0.6588 -0.5831
 5116SOL     OW26983   2.539   2.927   4.288 -0.0287 -0.7013  0.4078
 5116SOL    HW126984   2.582   2.850   4.250  1.0954 -1.2821  2.9226
 5116SOL    HW226985   2.611   2.989   4.278 -0.5865  0.0906  1.3749
 5117SOL     OW26986   3.396   4.424  11.603  0.0004 -0.6336 -0.4224
 5117SOL    HW126987   3.429   4.430  11.693  0.6654 -1.0036 -0.6387
 5117SOL    HW226988   3.458   4.478  11.554 -1.0480 -1.2917 -2.4664
 5118SOL     OW26989   2.314   0.826   6.181 -0.0274  0.2676  0.2075
 5118SOL    HW126990   2.380   0.856   6.244  1.6398  1.4432 -2.1179
 5118SOL    HW226991   2.358   0.822   6.096  1.8754 -0.7255  1.2378
 5119SOL     OW26992   4.535   4.273   3.258 -0.4196 -0.6149 -0.1025
 5119SOL    HW126993   4.611   4.264   3.202  0.3663 -0.5438  0.9446
 5119SOL    HW226994   4.464   4.236   3.205  0.5056  1.1844 -2.5785
 5120SOL     OW26995   4.507   0.544   2.056  0.0341 -0.0665 -0.3184
 5120SOL    HW126996   4.505   0.546   2.152  1.5654  0.8599 -0.3077
 5120SOL    HW226997   4.494   0.450   2.042  0.4704  0.0890 -1.7389
 5121SOL     OW26998   1.624   2.675   3.775  0.4610 -0.2544  0.0863
 5121SOL    HW126999   1.681   2.601   3.755  0.0904 -0.3794 -0.5124
 5121SOL    HW227000   1.592   2.695   3.687  2.3833  0.4763 -0.4275
 5122SOL     OW27001   0.889   4.656   2.820 -0.0311  0.1488  0.7526
 5122SOL    HW127002   0.977   4.691   2.837  0.8048 -1.6202  0.0345
 5122SOL    HW227003   0.855   4.714   2.752 -0.7538 -0.3613  0.6835
 5123SOL     OW27004   4.369   1.036   6.245 -0.6860 -0.0013  0.1920
 5123SOL    HW127005   4.361   1.072   6.157 -0.2957 -0.5153 -0.0525
 5123SOL    HW227006   4.339   1.111   6.297 -1.9971 -0.1980 -0.2615
 5124SOL     OW27007   1.401   0.677   9.596  0.0106  0.0637  0.8486
 5124SOL    HW127008   1.319   0.707   9.557 -1.2074 -4.3280  0.0600
 5124SOL    HW227009   1.448   0.638   9.522 -3.1056 -1.7862 -0.1485
 5125SOL     OW27010   0.214   1.845  13.405  0.4243 -0.0121 -0.4525
 5125SOL    HW127011   0.295   1.860  13.454 -0.6289  1.5036  0.8284
 5125SOL    HW227012   0.202   1.751  13.423 -3.9780  0.2996 -1.6851
 5126SOL     OW27013   1.458   0.597  11.374 -0.5465 -0.4430 -0.0131
 5126SOL    HW127014   1.546   0.578  11.407 -1.3234 -1.1702  1.6098
 5126SOL    HW227015   1.481   0.640  11.291 -1.1972 -0.9041 -0.4361
 5127SOL     OW27016   0.994   2.889   1.180 -0.1970 -0.1553  0.4306
 5127SOL    HW127017   0.975   2.982   1.193 -0.6044 -0.2275  0.3623
 5127SOL    HW227018   0.954   2.867   1.097  1.2455 -2.0598  0.2623
 5128SOL     OW27019   2.460   3.143   5.590 -0.1430 -0.1208 -0.0938
 5128SOL    HW127020   2.503   3.220   5.629 -1.4235  0.4416  0.2065
 5128SOL    HW227021   2.522   3.115   5.523 -1.7590  0.2615 -1.7519
 5129SOL     OW27022   4.354   3.627   7.187 -0.1891  0.0436 -0.3650
 5129SOL    HW127023   4.364   3.700   7.125  2.1149  0.8736  0.9595
 5129SOL    HW227024   4.298   3.574   7.131  0.4073 -0.9885  0.0129
 5130SOL     OW27025   0.295   0.770   5.940 -0.2863 -0.3738  0.4927
 5130SOL    HW127026   0.384   0.805   5.935 -0.9380  1.3498  0.8954
 5130SOL    HW227027   0.253   0.840   5.991 -1.6365 -2.1722  1.8697
 5131SOL     OW27028   0.119   0.120  11.845  0.1534  0.4774  0.7397
 5131SOL    HW127029   0.144   0.130  11.753  0.4074 -1.6365  0.5679
 5131SOL    HW227030   0.040   0.070  11.823  1.8980 -2.0024  0.2061
 5132SOL     OW27031   0.548   0.386   6.473 -0.3995 -0.0485  0.6284
 5132SOL    HW127032   0.472   0.401   6.418  0.1415  0.3199 -0.0147
 5132SOL    HW227033   0.516   0.377   6.563  0.3329  0.8444  0.9757
 5133SOL     OW27034   0.397   0.368   2.703  0.0285 -0.2535  0.2979
 5133SOL    HW127035   0.386   0.345   2.611  0.6975  0.2824  0.0801
 5133SOL    HW227036   0.364   0.286   2.740 -0.6028  0.3277  1.0317
 5134SOL     OW27037   3.369   0.652   0.867  0.4964 -0.2241 -0.4074
 5134SOL    HW127038   3.377   0.566   0.909  0.5905 -0.0687 -0.1055
 5134SOL    HW227039   3.457   0.663   0.830  0.0103  2.2644 -0.7833
 5135SOL     OW27040   4.676   0.085   0.682  0.7841  0.0274  0.1660
 5135SOL    HW127041   4.727   0.090   0.763 -0.3122  2.1344  0.7248
 5135SOL    HW227042   4.605   0.026   0.704  1.8106 -0.0201  3.3503
 5136SOL     OW27043   4.660   2.716   4.774 -0.6797 -0.4277  0.4440
 5136SOL    HW127044   4.707   2.677   4.700  1.4589 -2.2430  2.7443
 5136SOL    HW227045   4.575   2.673   4.776 -1.8260  1.8328  0.0223
 5137SOL     OW27046   0.845   4.087  17.089  1.0678 -0.2446 -0.2983
 5137SOL    HW127047   0.870   4.116  17.177  1.7087  1.1823 -0.9580
 5137SOL    HW227048   0.908   4.128  17.030  1.4401 -0.0333  0.2481
 5138SOL     OW27049   2.690   4.114  12.808 -0.4784 -0.2420 -0.0928
 5138SOL    HW127050   2.704   4.063  12.729 -0.3541 -1.0004  0.4239
 5138SOL    HW227051   2.744   4.066  12.871  0.1475 -1.5800 -1.6768
 5139SOL     OW27052   3.950   1.480   8.566  0.2592  0.4292 -0.0116
 5139SOL    HW127053   3.975   1.499   8.475 -1.1891  0.8055 -0.3265
 5139SOL    HW227054   4.027   1.521   8.606  0.3416 -1.5581  1.8464
 5140SOL     OW27055   0.909   0.288  13.821  0.1012 -0.6424 -0.0374
 5140SOL    HW127056   0.951   0.343  13.887  0.1753 -1.6991  0.7863
 5140SOL    HW227057   0.982   0.246  13.774 -0.6797 -0.5505 -1.3537
 5141SOL     OW27058   2.303   2.065   2.757  0.0987 -0.2898 -0.6473
 5141SOL    HW127059   2.257   2.140   2.795  2.3999  0.9576 -0.3378
 5141SOL    HW227060   2.349   2.100   2.681 -1.3022 -0.5258 -1.6059
 5142SOL     OW27061   3.469   4.274   5.044  0.6487 -0.1921 -0.4256
 5142SOL    HW127062   3.503   4.341   5.103 -1.7921  0.3525  0.3924
 5142SOL    HW227063   3.511   4.306   4.964 -0.3537 -1.5079 -1.4873
 5143SOL     OW27064   2.161   3.319   6.473 -0.3182 -0.0563  0.1522
 5143SOL    HW127065   2.084   3.312   6.530  1.6025  0.6918  2.8795
 5143SOL    HW227066   2.133   3.332   6.383  1.4819  2.5094 -0.0091
 5144SOL     OW27067   2.143   1.295  13.166 -0.4075 -0.6140 -0.2982
 5144SOL    HW127068   2.112   1.379  13.200 -1.3671 -0.5752 -1.2553
 5144SOL    HW227069   2.065   1.245  13.189 -1.2706  0.2475 -1.3395
 5145SOL     OW27070   4.239   3.385   4.904 -0.2018  0.4922  0.0340
 5145SOL    HW127071   4.196   3.371   4.989  0.4850 -1.9418 -0.0285
 5145SOL    HW227072   4.331   3.367   4.924 -0.0148  0.6124 -0.7529
 5146SOL     OW27073   3.753   0.180  16.806 -0.3123 -0.4358 -0.5290
 5146SOL    HW127074   3.719   0.159  16.893 -1.3627 -1.8331 -1.2723
 5146SOL    HW227075   3.671   0.169  16.758 -0.8420  1.8976 -0.1703
 5147SOL     OW27076   4.121   4.706   8.110 -0.4044  0.2161  0.1037
 5147SOL    HW127077   4.077   0.050   8.135 -0.6298  0.3986 -0.8841
 5147SOL    HW227078   4.112   4.653   8.189 -0.0137  0.1628  0.1110
 5148SOL     OW27079   4.189   2.010  14.053  0.3564  0.6100  0.0568
 5148SOL    HW127080   4.151   2.056  14.128 -0.2956  0.7624 -0.3688
 5148SOL    HW227081   4.109   1.962  14.031  2.3724 -1.8871 -1.8269
 5149SOL     OW27082   0.186   2.349   4.814  0.3545  0.1655  0.0487
 5149SOL    HW127083   0.157   2.393   4.734  0.7923  1.3130  0.5191
 5149SOL    HW227084   0.280   2.337   4.806 -0.0931 -2.1222 -1.9605
 5150SOL     OW27085   1.312   1.268  15.063 -0.4526  0.1005 -0.0330
 5150SOL    HW127086   1.218   1.254  15.052 -1.2686  3.2384  3.0451
 5150SOL    HW227087   1.353   1.181  15.063  0.4294  0.5225 -1.6364
 5151SOL     OW27088   3.054   2.360  11.336 -0.3881 -0.2874 -0.0524
 5151SOL    HW127089   3.126   2.310  11.374 -0.1801 -0.4589 -0.6599
 5151SOL    HW227090   3.079   2.382  11.246 -1.4273 -1.0653 -0.5269
 5152SOL     OW27091   3.189   2.980   8.330  0.6592  0.2930  0.1148
 5152SOL    HW127092   3.196   2.999   8.423  0.2700  1.4795 -0.1020
 5152SOL    HW227093   3.279   2.963   8.304  0.6254  0.2751  0.0059
 5153SOL     OW27094   3.428   2.402   3.419  0.0743 -0.2705  0.0290
 5153SOL    HW127095   3.514   2.434   3.447 -0.4183  0.3569  0.8338
 5153SOL    HW227096   3.413   2.472   3.355 -0.5029 -0.0336  0.4248
 5154SOL     OW27097   1.495   3.886  16.743  0.2284 -0.1759 -0.4147
 5154SOL    HW127098   1.551   3.924  16.811 -0.9234  2.7635 -1.1591
 5154SOL    HW227099   1.419   3.940  16.763  1.0812  0.6706  0.5286
 5155SOL     OW27100   0.546   0.472   3.840 -0.1835  0.3832  0.0180
 5155SOL    HW127101   0.565   0.486   3.747 -0.0301 -0.1916 -0.0370
 5155SOL    HW227102   0.486   0.546   3.849 -0.9685 -0.2388 -0.1195
 5156SOL     OW27103   1.767   1.689   4.921 -0.1894  0.2224 -0.1700
 5156SOL    HW127104   1.746   1.751   4.852  0.0738 -0.3364 -0.7516
 5156SOL    HW227105   1.748   1.605   4.880  0.7071  0.7612 -1.6669
 5157SOL     OW27106   1.853   2.441   8.104 -0.2638 -0.1073  0.1221
 5157SOL    HW127107   1.860   2.346   8.112  1.4653  0.0270  0.0620
 5157SOL    HW227108   1.940   2.474   8.083 -0.8570  0.1992 -1.9432
 5158SOL     OW27109   3.564   3.888  17.677  0.0737 -0.5314  0.0164
 5158SOL    HW127110   3.565   3.919  17.586  0.2696  0.1723  0.2557
 5158SOL    HW227111   3.506   3.813  17.664  0.8627 -0.9187 -1.1938
 5159SOL     OW27112   0.911   1.130   6.255  0.0841 -0.4894 -0.1127
 5159SOL    HW127113   0.854   1.164   6.324  0.8230  0.2889  0.1134
 5159SOL    HW227114   0.999   1.158   6.283  0.4718 -1.8465  0.0215
 5160SOL     OW27115   3.607   1.422  11.620  0.3761 -0.2071  0.1387
 5160SOL    HW127116   3.553   1.498  11.597  2.9539  0.9748 -2.0523
 5160SOL    HW227117   3.689   1.436  11.572  0.0435  1.6785  0.1014
 5161SOL     OW27118   3.838   0.209  14.200 -0.1985  0.0221  0.5423
 5161SOL    HW127119   3.852   0.256  14.118 -1.1457  0.2603  0.5172
 5161SOL    HW227120   3.769   0.267  14.232 -0.9997  1.4880 -3.8680
 5162SOL     OW27121   1.738   3.168   9.518  0.3457 -0.3290 -0.5865
 5162SOL    HW127122   1.796   3.244   9.522  0.1296 -0.1570 -0.6813
 5162SOL    HW227123   1.672   3.219   9.471  1.2888  0.8077 -0.6629
 5163SOL     OW27124   1.952   2.091   5.386  0.7272 -0.1420  0.4412
 5163SOL    HW127125   1.991   2.026   5.328 -1.0228  1.1757 -2.2059
 5163SOL    HW227126   2.020   2.098   5.454  0.4831 -0.8485  0.7531
 5164SOL     OW27127   3.576   0.135  14.844 -0.0712  0.2673  0.1536
 5164SOL    HW127128   3.566   0.054  14.794 -2.4836  0.4578  0.3394
 5164SOL    HW227129   3.660   0.171  14.816 -1.3115  1.5760 -1.9085
 5165SOL     OW27130   0.928   3.351   8.219 -0.1764  0.4321 -0.4635
 5165SOL    HW127131   0.864   3.403   8.267  2.5444  0.2054  3.4327
 5165SOL    HW227132   0.993   3.324   8.284  0.6604  1.5546 -0.8222
 5166SOL     OW27133   0.541   4.535  12.086 -0.1307 -0.4548 -0.0507
 5166SOL    HW127134   0.614   4.475  12.071  0.9461  0.9549 -0.4764
 5166SOL    HW227135   0.590   4.612  12.116  1.2928 -0.6021 -1.9800
 5167SOL     OW27136   0.666   3.690   3.266 -0.0331  0.2666  0.2259
 5167SOL    HW127137   0.732   3.634   3.225  1.2630  2.0427 -0.1060
 5167SOL    HW227138   0.590   3.632   3.272  0.7522 -0.9670 -1.6771
 5168SOL     OW27139   0.181   1.568  13.452 -0.5802 -0.1402 -0.1303
 5168SOL    HW127140   0.197   1.549  13.545 -0.1231 -1.9325 -0.5790
 5168SOL    HW227141   0.177   1.476  13.428 -0.9851 -0.0144 -0.5375
 5169SOL     OW27142   0.460   3.626   2.427  0.4143  0.4107 -0.1573
 5169SOL    HW127143   0.393   3.631   2.359 -0.2624 -1.4134  0.3617
 5169SOL    HW227144   0.443   3.689   2.497 -0.2562 -0.9512  0.9185
 5170SOL     OW27145   3.371   2.017  14.464 -0.8855  0.4179  0.4286
 5170SOL    HW127146   3.377   1.922  14.454  2.1133  0.8766 -1.9762
 5170SOL    HW227147   3.437   2.054  14.405  0.4239 -0.4525  1.3646
 5171SOL     OW27148   0.725   2.456   0.354 -0.3771 -0.0842  0.5911
 5171SOL    HW127149   0.768   2.456   0.440 -0.4785 -0.5206  0.6418
 5171SOL    HW227150   0.748   2.375   0.309 -1.3766  0.3050 -0.6189
 5172SOL     OW27151   1.129   3.428   5.361 -0.0363  0.3023 -0.2547
 5172SOL    HW127152   1.059   3.375   5.322 -0.2866 -0.7018  1.5501
 5172SOL    HW227153   1.107   3.427   5.454 -0.3189 -1.9375 -0.3505
 5173SOL     OW27154   4.313   3.636   6.048 -0.0342  0.0781 -0.7153
 5173SOL    HW127155   4.241   3.581   6.078  2.1927 -0.8753  2.9334
 5173SOL    HW227156   4.302   3.718   6.097 -3.1242  0.5522 -2.2551
 5174SOL     OW27157   2.710   3.002   1.338  0.3102  0.5102  0.5469
 5174SOL    HW127158   2.795   3.025   1.301 -0.1824  1.9954  0.3067
 5174SOL    HW227159   2.732   3.024   1.429  0.5055  1.6180  0.2313
 5175SOL     OW27160   4.628   0.491  10.871 -0.2530  0.1384 -0.2682
 5175SOL    HW127161   4.676   0.416  10.907 -0.2253  1.9116  3.4148
 5175SOL    HW227162   4.553   0.496  10.931 -1.2691 -0.8035 -1.4749
 5176SOL     OW27163   4.083   3.528   8.387  0.4727 -0.1947  0.1417
 5176SOL    HW127164   4.105   3.594   8.454 -1.4170 -0.1156  0.6863
 5176SOL    HW227165   4.168   3.486   8.387  0.4187 -0.3136  2.1650
 5177SOL     OW27166   3.402   4.510   4.570  0.0305  0.2768 -0.2964
 5177SOL    HW127167   3.417   4.424   4.611  2.4160 -0.8742 -3.5766
 5177SOL    HW227168   3.322   4.536   4.616  0.7355  0.5150  0.8082
 5178SOL     OW27169   2.581   3.973   9.544 -0.8333  0.8961 -0.0294
 5178SOL    HW127170   2.513   4.017   9.594  0.3138  3.7853 -1.0070
 5178SOL    HW227171   2.590   3.895   9.598  0.2708  0.1090 -1.3432
 5179SOL     OW27172   3.053   4.580   8.156 -0.9395  0.5436 -0.3054
 5179SOL    HW127173   3.007   4.662   8.140 -0.0172  0.9951 -0.6554
 5179SOL    HW227174   2.988   4.518   8.188  1.7590 -2.8923 -1.5383
 5180SOL     OW27175   1.481   4.584  13.276 -0.0586  0.4232 -0.2092
 5180SOL    HW127176   1.512   4.605  13.188 -0.1585  0.7879 -0.1592
 5180SOL    HW227177   1.397   4.541  13.265 -0.5783  0.9830  1.5139
 5181SOL     OW27178   1.828   1.756   5.200  0.4493 -0.2760 -0.2443
 5181SOL    HW127179   1.779   1.696   5.144 -1.7877 -0.3262  1.7714
 5181SOL    HW227180   1.874   1.803   5.131  0.7496  1.2897  1.0300
 5182SOL     OW27181   3.943   1.890  11.053  0.3120  0.6851 -0.8296
 5182SOL    HW127182   3.979   1.809  11.088 -1.1743  0.7495  0.8687
 5182SOL    HW227183   4.015   1.949  11.031  0.2834  1.5072  1.3192
 5183SOL     OW27184   0.866   2.955   8.917  0.4363  0.3561 -0.4076
 5183SOL    HW127185   0.846   2.923   8.829 -0.9302  4.0424 -1.4178
 5183SOL    HW227186   0.940   2.897   8.936 -0.1995 -0.5337 -0.6747
 5184SOL     OW27187   2.375   0.944   8.933 -0.2489 -0.5653 -0.0583
 5184SOL    HW127188   2.368   0.921   9.026 -0.4198  0.4794  0.1943
 5184SOL    HW227189   2.466   0.974   8.936 -0.6328  0.4534  1.3871
 5185SOL     OW27190   2.471   0.754   2.395  0.5027 -0.4610 -0.4106
 5185SOL    HW127191   2.508   0.841   2.406 -0.4063 -0.1692  0.2603
 5185SOL    HW227192   2.383   0.758   2.433  0.2670 -2.4139 -0.7294
 5186SOL     OW27193   2.596   1.640   6.654 -0.3561  0.1258  0.0938
 5186SOL    HW127194   2.602   1.660   6.748 -0.8994 -0.3652  0.2305
 5186SOL    HW227195   2.565   1.551   6.641  1.9239 -0.6324 -0.2675
 5187SOL     OW27196   3.446   3.620   3.369 -0.3877  0.8708  0.0391
 5187SOL    HW127197   3.536   3.589   3.359 -1.3852 -1.3473 -2.2478
 5187SOL    HW227198   3.459   3.690   3.433 -2.2975  1.1536  0.1233
 5188SOL     OW27199   0.904   1.854   3.717  0.4763  0.2769 -1.0752
 5188SOL    HW127200   0.866   1.767   3.729 -0.2395  1.1150  2.7431
 5188SOL    HW227201   0.832   1.908   3.749  1.1800  0.3840  0.3035
 5189SOL     OW27202   0.808   2.486   1.788  0.2898 -0.2722 -0.6634
 5189SOL    HW127203   0.731   2.500   1.842  0.6183  0.4752 -0.3990
 5189SOL    HW227204   0.848   2.410   1.831 -0.5465 -1.1975 -1.5023
 5190SOL     OW27205   1.836   4.247  13.770 -0.1876  0.1765 -0.5095
 5190SOL    HW127206   1.890   4.325  13.758 -0.9987  1.0851  1.6544
 5190SOL    HW227207   1.751   4.289  13.786  1.2325  2.8086  0.1056
 5191SOL     OW27208   0.476   0.282   1.924  0.5257  0.5989  0.0684
 5191SOL    HW127209   0.431   0.222   1.983  2.1006 -0.9761 -0.3285
 5191SOL    HW227210   0.419   0.359   1.921 -0.5957 -0.2273 -0.0341
 5192SOL     OW27211   3.845   2.585   9.470 -0.3817  0.3342 -0.5264
 5192SOL    HW127212   3.864   2.552   9.558 -0.4338 -0.2455 -0.7385
 5192SOL    HW227213   3.888   2.516   9.421  0.1986 -2.3047  3.7154
 5193SOL     OW27214   3.070   3.928   2.382  0.1098  0.0938 -0.2639
 5193SOL    HW127215   3.149   3.962   2.422 -2.5080 -0.3006  5.2248
 5193SOL    HW227216   3.094   3.839   2.355  0.7185 -0.2877  1.5678
 5194SOL     OW27217   3.016   1.390  15.422 -0.4699 -0.9341  0.0028
 5194SOL    HW127218   3.069   1.461  15.458 -1.3453 -0.3541  0.1479
 5194SOL    HW227219   2.965   1.445  15.361 -0.5071  0.7260  1.5337
 5195SOL     OW27220   0.519   1.420   0.847 -0.4911 -0.2040  0.0871
 5195SOL    HW127221   0.448   1.484   0.837 -0.1413  0.0707 -0.6695
 5195SOL    HW227222   0.519   1.421   0.942 -0.2889 -0.5484  0.0896
 5196SOL     OW27223   3.110   4.157   9.636 -0.1169 -0.4448 -0.3608
 5196SOL    HW127224   3.052   4.227   9.606 -0.8840 -0.8433  0.1903
 5196SOL    HW227225   3.149   4.125   9.554 -0.2312 -1.0466 -0.1790
 5197SOL     OW27226   2.079   4.410  15.246  0.2047  0.3372 -0.1442
 5197SOL    HW127227   2.071   4.384  15.338  0.7490  1.2428  0.1639
 5197SOL    HW227228   2.174   4.403  15.239  0.1116 -1.5019  0.4438
 5198SOL     OW27229   4.588   2.088   1.454 -0.4958 -0.4010 -0.3374
 5198SOL    HW127230   4.559   1.997   1.453  0.0935 -0.6108  1.6708
 5198SOL    HW227231   4.513   2.130   1.497  0.9556  1.1156  0.7351
 5199SOL     OW27232   2.706   3.959   5.596 -0.4273 -0.4444 -0.0335
 5199SOL    HW127233   2.739   4.019   5.529  1.1698 -1.4739 -0.1837
 5199SOL    HW227234   2.634   4.007   5.635 -0.1824 -0.6651  0.6977
 5200SOL     OW27235   0.521   1.211   2.105 -0.5104 -0.1461 -0.1265
 5200SOL    HW127236   0.534   1.200   2.011 -0.4921 -0.5238 -0.0766
 5200SOL    HW227237   0.602   1.163   2.123  1.0645  2.5091 -0.1246
 5201SOL     OW27238   1.484   4.230   5.726 -0.1535 -0.0700  0.3718
 5201SOL    HW127239   1.460   4.146   5.764 -2.5488  0.7549  0.6973
 5201SOL    HW227240   1.440   4.210   5.643  0.0357 -0.6603  0.4129
 5202SOL     OW27241   1.295   1.150   9.585  0.0903  0.2525  0.4726
 5202SOL    HW127242   1.208   1.112   9.598  0.9769 -1.5608  1.1562
 5202SOL    HW227243   1.281   1.185   9.497 -0.9337  0.0983  0.5758
 5203SOL     OW27244   0.448   3.121   3.329 -0.1014 -0.4979 -0.0700
 5203SOL    HW127245   0.482   3.193   3.276  0.3129  0.2525  1.2380
 5203SOL    HW227246   0.476   3.054   3.267  1.5424  1.4216 -1.3940
 5204SOL     OW27247   3.592   2.666   1.013  0.1767  0.1262 -0.4710
 5204SOL    HW127248   3.609   2.683   1.105 -1.3618  1.2378 -0.3891
 5204SOL    HW227249   3.506   2.705   0.998 -0.9579 -3.0042 -2.0599
 5205SOL     OW27250   2.127   3.240  14.288 -0.5575  0.4531  0.1446
 5205SOL    HW127251   2.100   3.167  14.233 -3.0397  1.0572  0.5651
 5205SOL    HW227252   2.212   3.251  14.245 -1.5252  1.6759 -1.4415
 5206SOL     OW27253   0.815   3.309  13.272  0.3060 -0.2020 -0.6795
 5206SOL    HW127254   0.826   3.250  13.198 -0.4717  0.3250 -1.2188
 5206SOL    HW227255   0.779   3.385  13.226  1.2069 -0.5919 -2.0272
 5207SOL     OW27256   3.660   2.524   6.358 -0.2868  0.6528  0.2206
 5207SOL    HW127257   3.624   2.483   6.436 -1.1748  0.3736 -0.3384
 5207SOL    HW227258   3.600   2.497   6.289  0.3082 -0.6652  0.2268
 5208SOL     OW27259   4.623   0.492   2.622 -0.1014 -0.2079 -0.2908
 5208SOL    HW127260   4.586   0.579   2.640 -0.5699 -0.6934  1.0398
 5208SOL    HW227261   4.584   0.442   2.693 -0.7480 -3.6924 -3.1252
 5209SOL     OW27262   0.932   2.953   6.046 -0.0923 -0.2519 -0.6250
 5209SOL    HW127263   1.023   2.925   6.061  0.4802  1.9517  0.0581
 5209SOL    HW227264   0.884   2.880   6.085  1.3807 -1.9708 -2.0363
 5210SOL     OW27265   2.074   2.735   6.247  0.3400 -0.2227 -0.5327
 5210SOL    HW127266   2.155   2.722   6.296  1.9331 -1.1396 -3.3792
 5210SOL    HW227267   2.034   2.648   6.248 -1.2312  0.5262  0.9637
 5211SOL     OW27268   2.009   0.277   3.870  0.2161  0.0771  0.5730
 5211SOL    HW127269   2.004   0.244   3.780  0.2969  0.0136  0.5911
 5211SOL    HW227270   1.996   0.371   3.857  1.8451  0.0928 -0.9875
 5212SOL     OW27271   4.596   1.001   2.733 -0.1660  0.1470  0.0124
 5212SOL    HW127272   4.568   1.013   2.643 -0.4630 -0.3826  0.0306
 5212SOL    HW227273   4.514   0.993   2.782  0.0056 -1.2573  0.0688
 5213SOL     OW27274   0.537   1.243  17.630 -0.7086  0.1267 -0.2078
 5213SOL    HW127275   0.472   1.214  17.694 -2.5207  0.3198 -1.9677
 5213SOL    HW227276   0.579   1.162  17.601 -0.2923 -0.8029  2.9902
 5214SOL     OW27277   2.980   1.892   8.942 -0.2730 -0.1113  0.0117
 5214SOL    HW127278   3.003   1.984   8.933 -1.3377  0.1541  0.0794
 5214SOL    HW227279   2.979   1.857   8.852  0.3813 -2.6883  0.9897
 5215SOL     OW27280   1.197   1.241   5.561 -0.0899  0.2435  0.8148
 5215SOL    HW127281   1.180   1.334   5.572  0.2530  0.2972  0.8913
 5215SOL    HW227282   1.255   1.218   5.634 -1.7057  1.2888  2.4257
 5216SOL     OW27283   1.788   2.685   4.418 -0.7703 -0.0134 -0.0294
 5216SOL    HW127284   1.826   2.699   4.332 -0.6310 -1.0811 -0.1479
 5216SOL    HW227285   1.870   2.656   4.458 -0.6579 -1.2295 -1.1203
 5217SOL     OW27286   3.800   1.610   4.607  0.1046  0.0733 -0.8072
 5217SOL    HW127287   3.827   1.525   4.641  0.9019 -0.4468 -2.7424
 5217SOL    HW227288   3.781   1.592   4.514  1.1495  1.0648 -1.2169
 5218SOL     OW27289   2.401   2.212   8.101  0.1069  0.3567  0.0042
 5218SOL    HW127290   2.419   2.125   8.067 -2.6873 -1.0160  2.0477
 5218SOL    HW227291   2.337   2.193   8.170  1.0228  1.8838  1.2750
 5219SOL     OW27292   0.057   3.973   6.985 -0.3097 -0.3174  0.2431
 5219SOL    HW127293   0.117   4.036   6.945  1.4361 -2.0920  0.0837
 5219SOL    HW227294   0.055   3.899   6.925 -1.1079 -0.4688  0.4580
 5220SOL     OW27295   4.716   0.304   7.386 -0.1304  0.5216  0.0154
 5220SOL    HW127296   0.028   0.323   7.306 -0.0896 -2.0423 -0.5711
 5220SOL    HW227297   0.020   0.218   7.398  0.3767  0.5573 -1.4372
 5221SOL     OW27298   4.227   0.594   7.410  0.0893  0.6212  0.1657
 5221SOL    HW127299   4.308   0.546   7.425  1.3211  2.1467 -1.6385
 5221SOL    HW227300   4.215   0.561   7.321  0.3098  1.0543 -0.0261
 5222SOL     OW27301   1.638   4.293   4.538 -0.0468  0.0470 -0.1706
 5222SOL    HW127302   1.604   4.341   4.462  0.7904 -0.6821 -0.9985
 5222SOL    HW227303   1.719   4.339   4.559 -0.6084  0.7016  0.5756
 5223SOL     OW27304   4.204   0.530   5.830 -0.3577  1.1335 -0.5470
 5223SOL    HW127305   4.156   0.541   5.749 -0.4189  1.9457 -0.4017
 5223SOL    HW227306   4.258   0.609   5.819  0.0862  1.0411  0.8487
 5224SOL     OW27307   2.188   3.040   9.986  0.4296 -0.2885  0.2365
 5224SOL    HW127308   2.237   2.964  10.017 -0.3996 -1.4942 -1.4151
 5224SOL    HW227309   2.258   3.098   9.955  0.9544 -0.4273  1.1638
 5225SOL     OW27310   2.584   2.452  14.059  0.5515  1.1448  0.7250
 5225SOL    HW127311   2.679   2.466  14.055  1.0662 -2.0940  1.9120
 5225SOL    HW227312   2.575   2.419  13.970  1.3949  0.2794  0.9648
 5226SOL     OW27313   4.505   0.844   3.498 -0.1479  0.0241 -0.1055
 5226SOL    HW127314   4.577   0.905   3.514  0.4606 -0.1496 -2.2521
 5226SOL    HW227315   4.538   0.771   3.445 -0.0100  0.1194 -0.1514
 5227SOL     OW27316   4.455   2.809   7.252  0.1435  0.0085  0.2371
 5227SOL    HW127317   4.363   2.835   7.245 -0.2251 -1.1040  1.0179
 5227SOL    HW227318   4.497   2.870   7.312 -0.9200  0.2904  0.6908
 5228SOL     OW27319   0.806   0.805  12.412  0.2829 -0.3630  0.4274
 5228SOL    HW127320   0.861   0.837  12.484  2.2032 -0.0754 -1.1721
 5228SOL    HW227321   0.789   0.715  12.437 -3.0307  0.0599 -0.2059
 5229SOL     OW27322   1.816   3.833   5.637  0.5837  0.3280  0.0876
 5229SOL    HW127323   1.908   3.861   5.637  0.9031 -0.7111  1.1728
 5229SOL    HW227324   1.775   3.890   5.572  1.8129  1.4155  0.2772
 5230SOL     OW27325   0.847   0.745   2.546  0.1196 -0.6703  0.3373
 5230SOL    HW127326   0.754   0.747   2.568  0.6605  2.7652  2.2632
 5230SOL    HW227327   0.866   0.653   2.527 -0.5487 -0.7350 -0.0036
 5231SOL     OW27328   3.196   0.854   4.223  0.7811 -0.0930  0.1180
 5231SOL    HW127329   3.259   0.842   4.152  1.4879  0.1662  0.6943
 5231SOL    HW227330   3.252   0.844   4.300  0.6473  0.6810  0.3138
 5232SOL     OW27331   2.406   0.337   9.696 -0.0172 -0.6596 -0.6431
 5232SOL    HW127332   2.461   0.378   9.629 -1.5997 -0.4592 -1.8352
 5232SOL    HW227333   2.474   0.310   9.758 -2.5328 -0.8944  2.0311
 5233SOL     OW27334   0.662   2.045  12.089 -0.4701 -0.1092 -0.3692
 5233SOL    HW127335   0.593   2.005  12.141 -1.0946  1.7275  0.2181
 5233SOL    HW227336   0.683   2.130  12.128 -0.0121 -0.4605  0.1421
 5234SOL     OW27337   2.909   2.060   3.031 -0.1529 -0.4297  0.1570
 5234SOL    HW127338   2.948   1.972   3.035  3.0064  1.0312  1.4693
 5234SOL    HW227339   2.816   2.039   3.030 -0.3600  0.4148  1.1885
 5235SOL     OW27340   4.711   0.211  15.059 -0.1452  0.2074  0.3600
 5235SOL    HW127341   0.066   0.184  15.056  0.5205  2.3606  1.2653
 5235SOL    HW227342   4.676   0.138  15.009  0.4495 -0.6211  1.1571
 5236SOL     OW27343   3.393   2.921   3.999 -0.5792  0.7510 -0.1859
 5236SOL    HW127344   3.446   2.955   3.927 -0.9159  1.3112 -0.1690
 5236SOL    HW227345   3.315   2.975   3.989 -1.1569 -0.0303  0.0874
 5237SOL     OW27346   0.078   2.333   6.329 -0.1942 -0.1241 -0.2166
 5237SOL    HW127347   0.021   2.399   6.369  1.0576  0.8550 -0.0246
 5237SOL    HW227348   0.019   2.259   6.315 -0.1464 -0.1607 -0.2272
 5238SOL     OW27349   4.624   0.339   6.228 -0.1904 -0.0935  0.3793
 5238SOL    HW127350   4.568   0.348   6.151  0.5581  0.4268 -0.1028
 5238SOL    HW227351   4.686   0.410   6.210  1.2879 -0.8258  2.6064
 5239SOL     OW27352   4.663   4.439   7.005  0.4657 -0.4553 -0.4346
 5239SOL    HW127353   4.680   4.501   6.935 -0.6192 -1.3290 -1.4872
 5239SOL    HW227354   4.733   4.453   7.068  0.0030 -2.4667  0.5276
 5240SOL     OW27355   0.580   4.290   8.794  0.0331 -0.2455  0.4726
 5240SOL    HW127356   0.486   4.284   8.773  0.6021 -3.3596 -1.1531
 5240SOL    HW227357   0.588   4.243   8.876  1.8149  1.2421  1.1623
 5241SOL     OW27358   0.498   0.663   9.730  0.0208 -0.5044 -0.1028
 5241SOL    HW127359   0.561   0.624   9.669  1.0724  0.7580  0.1866
 5241SOL    HW227360   0.421   0.607   9.719 -1.2809  1.4433 -0.8093
 5242SOL     OW27361   4.487   3.605   6.610  0.3790 -0.1135 -0.1098
 5242SOL    HW127362   4.518   3.663   6.540 -0.7796 -0.5230 -0.9594
 5242SOL    HW227363   4.561   3.551   6.634  1.9034  0.6323 -3.1051
 5243SOL     OW27364   3.770   0.867  16.009 -0.1037 -0.1426 -0.0079
 5243SOL    HW127365   3.772   0.781  16.051  0.4268  0.2510  0.7905
 5243SOL    HW227366   3.681   0.892  16.034 -0.3444 -0.4090 -0.6163
 5244SOL     OW27367   2.033   0.799  14.869  0.0004 -0.1424 -0.0816
 5244SOL    HW127368   2.125   0.772  14.871 -0.9445 -3.2941  0.9287
 5244SOL    HW227369   2.044   0.881  14.822 -2.7690 -0.1801 -0.7625
 5245SOL     OW27370   0.524   4.122   8.431  0.1669  0.2999  0.1116
 5245SOL    HW127371   0.609   4.085   8.408 -1.8062 -3.0371 -1.7573
 5245SOL    HW227372   0.507   4.085   8.518 -0.0921  1.2861  0.4906
 5246SOL     OW27373   0.177   1.156   0.273  0.0076 -0.1144  0.0048
 5246SOL    HW127374   0.235   1.126   0.203  0.5409  0.6775  0.1002
 5246SOL    HW227375   0.218   1.243   0.273  0.9721 -0.5824  1.8729
 5247SOL     OW27376   2.669   0.916  12.721  0.5462  0.0942 -0.3022
 5247SOL    HW127377   2.629   0.985  12.668 -1.3074 -0.4601  0.3766
 5247SOL    HW227378   2.758   0.909  12.687  0.6096 -1.3767  0.1300
 5248SOL     OW27379   1.758   0.650   3.323  0.0963 -0.5973  0.9031
 5248SOL    HW127380   1.747   0.592   3.248 -2.6611  0.2377  0.6584
 5248SOL    HW227381   1.686   0.709   3.305  0.8095  0.2540  0.8486
 5249SOL     OW27382   1.887   0.519  13.538  0.0226 -0.0448  0.4462
 5249SOL    HW127383   1.916   0.467  13.613  0.9864  0.5291  0.4724
 5249SOL    HW227384   1.872   0.606  13.577  0.8925 -0.1134  0.9412
 5250SOL     OW27385   1.548   3.770   5.451 -0.0361  0.3838 -0.0631
 5250SOL    HW127386   1.588   3.693   5.492  0.3067  0.3076 -0.5350
 5250SOL    HW227387   1.469   3.727   5.418 -1.4586  0.8817  2.7774
 5251SOL     OW27388   1.745   1.743   7.036 -0.0050 -0.2323  0.2297
 5251SOL    HW127389   1.656   1.714   7.054  0.4393 -1.9065 -0.3284
 5251SOL    HW227390   1.791   1.712   7.114  3.8699 -1.4100 -2.5348
 5252SOL     OW27391   2.781   0.168  17.424 -0.0618 -0.7903  0.0307
 5252SOL    HW127392   2.796   0.242  17.365  0.3485 -1.2069 -0.3834
 5252SOL    HW227393   2.866   0.142  17.458  0.5988 -0.6544 -1.5022
 5253SOL     OW27394   3.642   3.840   4.818  0.3299 -0.6001 -0.3248
 5253SOL    HW127395   3.724   3.791   4.806  0.7853 -0.1991  1.2881
 5253SOL    HW227396   3.636   3.854   4.912 -1.5462  0.8210 -0.6517
 5254SOL     OW27397   1.202   3.372   8.761 -0.5422 -0.1374 -0.2179
 5254SOL    HW127398   1.203   3.415   8.847 -0.2471  1.4750 -1.0134
 5254SOL    HW227399   1.158   3.290   8.783 -0.5354 -0.8492 -2.9169
 5255SOL     OW27400   0.171   2.939  10.419  0.2921 -0.0987 -0.2254
 5255SOL    HW127401   0.167   2.847  10.394 -0.2478  0.0863 -0.8329
 5255SOL    HW227402   0.098   2.974  10.368 -0.0305  2.9289  2.3147
 5256SOL     OW27403   0.667   3.036   3.685  0.2223  0.3148  0.3817
 5256SOL    HW127404   0.664   2.993   3.599  1.1900  0.9014  0.0513
 5256SOL    HW227405   0.756   3.071   3.690  0.1646  0.5892 -0.4850
 5257SOL     OW27406   1.799   0.543   2.618  0.3269  0.4044 -0.1467
 5257SOL    HW127407   1.837   0.510   2.537 -2.1429  1.4197 -1.7096
 5257SOL    HW227408   1.800   0.636   2.596 -1.5295  1.0875  2.6411
 5258SOL     OW27409   3.353   2.700   2.845 -0.9169  0.4327  0.2344
 5258SOL    HW127410   3.379   2.792   2.847 -3.2020  1.0093  3.4483
 5258SOL    HW227411   3.387   2.685   2.756  1.3903  2.0034  0.8715
 5259SOL     OW27412   2.871   3.433   7.029  0.3852  0.0756 -0.2163
 5259SOL    HW127413   2.817   3.464   7.101  1.2991  2.0322 -0.3702
 5259SOL    HW227414   2.960   3.452   7.057  0.2734  0.6926 -0.2829
 5260SOL     OW27415   0.482   4.013   8.684  0.3042  0.3431  0.3606
 5260SOL    HW127416   0.402   4.061   8.707  0.5970  1.8082 -1.6554
 5260SOL    HW227417   0.454   3.922   8.672  0.5411  0.3340 -0.1228
 5261SOL     OW27418   1.538   3.357   2.233 -0.5964  0.4794 -0.2201
 5261SOL    HW127419   1.609   3.296   2.213 -1.0822 -0.4760  1.0083
 5261SOL    HW227420   1.555   3.407   2.152 -0.1598 -1.0912 -1.1032
 5262SOL     OW27421   0.087   1.860  11.652 -0.0955 -0.4501 -0.3604
 5262SOL    HW127422   0.018   1.927  11.646 -1.0783 -1.4661 -0.3385
 5262SOL    HW227423   0.104   1.862  11.746  0.9545  2.7384 -0.5938
 5263SOL     OW27424   0.318   3.787   9.233 -0.3645 -0.2636 -0.3539
 5263SOL    HW127425   0.314   3.693   9.249 -1.2146 -0.1716 -0.0114
 5263SOL    HW227426   0.379   3.801   9.305 -1.7112 -0.9624  0.9204
 5264SOL     OW27427   2.317   1.517   6.717 -0.1860  0.3372 -0.1688
 5264SOL    HW127428   2.369   1.564   6.783 -2.9041  1.7221  0.9766
 5264SOL    HW227429   2.386   1.469   6.671  1.0220 -0.0553  2.0652
 5265SOL     OW27430   2.144   3.397   9.133  0.1000  0.0460  0.0305
 5265SOL    HW127431   2.101   3.399   9.048 -0.3511  1.7820  0.2944
 5265SOL    HW227432   2.117   3.486   9.157  1.4961  0.3048  0.6678
 5266SOL     OW27433   3.874   0.555   9.557 -0.5800  0.0809  0.2232
 5266SOL    HW127434   3.937   0.540   9.628  1.2071 -0.6082 -1.4894
 5266SOL    HW227435   3.791   0.549   9.605  0.3751 -0.6963  1.7801
 5267SOL     OW27436   1.714   0.079   6.847 -0.5142 -0.0739  0.1159
 5267SOL    HW127437   1.724   0.048   6.937  0.3755 -0.4838 -0.1240
 5267SOL    HW227438   1.643   0.024   6.813 -0.0016 -1.2421  0.9429
 5268SOL     OW27439   4.682   4.174  15.212  0.0344 -0.0954 -0.3968
 5268SOL    HW127440   4.723   4.225  15.281  0.7778  0.4924 -1.2715
 5268SOL    HW227441   4.600   4.141  15.250 -0.5725  1.7791 -0.0679
 5269SOL     OW27442   4.263   0.920   9.091  0.1512 -0.0245 -0.2757
 5269SOL    HW127443   4.258   0.912   9.186  1.1407 -0.9460 -0.2926
 5269SOL    HW227444   4.201   0.855   9.059 -0.1910  0.0332  0.2670
 5270SOL     OW27445   1.799   0.728   3.862 -0.2023 -0.3552 -0.3917
 5270SOL    HW127446   1.804   0.759   3.771  2.3570 -0.0252 -0.1325
 5270SOL    HW227447   1.705   0.715   3.871 -0.2238  1.2259  1.6121
 5271SOL     OW27448   4.333   3.968   2.969 -0.0687 -0.3940  0.0646
 5271SOL    HW127449   4.370   3.973   2.881 -1.1546  1.2673 -0.3102
 5271SOL    HW227450   4.320   4.062   2.980 -0.2886 -0.3292 -0.7123
 5272SOL     OW27451   3.405   1.971   6.757  0.2208 -0.3496  0.1069
 5272SOL    HW127452   3.370   1.886   6.786  2.2394 -1.3850 -0.4738
 5272SOL    HW227453   3.413   1.961   6.663  2.5719  0.4786  0.2038
 5273SOL     OW27454   2.427   3.503   9.022  0.1345  0.2104 -0.4271
 5273SOL    HW127455   2.512   3.543   9.040 -0.4971  1.6127 -0.5735
 5273SOL    HW227456   2.386   3.522   9.106 -0.0334 -1.2999 -0.1794
 5274SOL     OW27457   3.013   0.055  13.096  0.0158  0.9469 -0.3124
 5274SOL    HW127458   2.949   4.733  13.135  2.6023 -1.1933  0.6015
 5274SOL    HW227459   3.086   4.731  13.099 -0.8075  0.0346  1.1521
 5275SOL     OW27460   4.655   2.044   6.853 -1.2010 -0.3278 -0.9903
 5275SOL    HW127461   4.610   2.121   6.887  0.6751  0.8850 -1.2926
 5275SOL    HW227462   4.587   2.008   6.796 -1.6926 -1.2332  0.1734
 5276SOL     OW27463   0.107   1.602  17.563 -0.1344 -0.3386  0.2352
 5276SOL    HW127464   0.153   1.686  17.565  0.5136 -0.6849 -0.1479
 5276SOL    HW227465   0.046   1.628  17.632  2.3012  2.7220  1.2108
 5277SOL     OW27466   1.704   3.784  12.878  0.3836  0.4641  0.2663
 5277SOL    HW127467   1.786   3.789  12.926  0.9070 -0.8209 -0.4894
 5277SOL    HW227468   1.637   3.805  12.943 -0.0674 -1.7176  0.5092
 5278SOL     OW27469   4.017   2.703   3.297  0.0244  0.0307 -0.1614
 5278SOL    HW127470   3.946   2.641   3.317 -0.4219  0.2580 -1.0382
 5278SOL    HW227471   3.970   2.786   3.296  1.5708  0.8603 -2.7714
 5279SOL     OW27472   3.422   4.378   4.294  0.2413 -0.0644  0.1761
 5279SOL    HW127473   3.359   4.390   4.364  0.0314 -2.6630  0.4042
 5279SOL    HW227474   3.470   4.460   4.306  0.7554 -0.4387  0.6499
 5280SOL     OW27475   1.113   4.245   9.454 -0.0737 -0.2805 -0.3218
 5280SOL    HW127476   1.069   4.326   9.479  5.2317  1.7832  2.3410
 5280SOL    HW227477   1.036   4.188   9.457  0.4250 -0.8380  1.4814
 5281SOL     OW27478   2.911   1.967  15.278 -0.2541 -0.1775 -0.3662
 5281SOL    HW127479   2.951   2.028  15.216  0.0537 -0.5496 -0.5378
 5281SOL    HW227480   2.936   1.881  15.243 -1.9346 -1.0661  0.6335
 5282SOL     OW27481   3.011   2.423   2.144 -0.1951  0.5862 -0.1961
 5282SOL    HW127482   3.040   2.417   2.235  0.1525 -1.2712 -0.4169
 5282SOL    HW227483   3.091   2.409   2.094 -0.2894  0.6025 -0.3513
 5283SOL     OW27484   0.022   4.041  16.150 -0.1985 -0.1950 -0.3228
 5283SOL    HW127485   4.683   4.095  16.128 -0.8986 -1.1627 -0.2859
 5283SOL    HW227486   0.069   4.087  16.220  0.4776 -1.0496 -0.2144
 5284SOL     OW27487   0.932   3.720   4.407  0.1954  0.5458 -0.1226
 5284SOL    HW127488   0.901   3.682   4.325  1.2941  1.0260 -0.7627
 5284SOL    HW227489   0.962   3.638   4.445  3.1425  1.2403 -0.9087
 5285SOL     OW27490   1.439   1.433   5.304  0.3331 -0.0706 -0.1147
 5285SOL    HW127491   1.387   1.357   5.332 -0.1118 -0.4388 -1.9175
 5285SOL    HW227492   1.375   1.497   5.274 -0.7688 -1.3833 -0.6142
 5286SOL     OW27493   1.029   3.148   7.445  0.8527  0.2013 -0.1091
 5286SOL    HW127494   1.034   3.098   7.364 -2.3095 -0.3310  0.0275
 5286SOL    HW227495   1.101   3.211   7.432  1.3350 -0.5560 -1.1192
 5287SOL     OW27496   3.803   2.113   2.585 -0.0662  0.5052 -0.0570
 5287SOL    HW127497   3.783   2.114   2.491 -2.4998 -1.0562  0.4531
 5287SOL    HW227498   3.842   2.027   2.597 -0.2804  0.7646  2.4598
 5288SOL     OW27499   2.776   1.795   7.326 -0.9194  0.2996  0.2649
 5288SOL    HW127500   2.698   1.818   7.276 -0.9090  3.2119  1.6082
 5288SOL    HW227501   2.806   1.883   7.349  0.6069 -0.1046 -0.1836
 5289SOL     OW27502   3.006   3.253   4.402  0.0781  0.7245 -0.0552
 5289SOL    HW127503   2.941   3.306   4.356 -0.5305  1.9978  2.2397
 5289SOL    HW227504   2.995   3.297   4.487 -1.6777 -1.1544  0.6908
 5290SOL     OW27505   3.473   2.943   2.808  0.0708 -0.6493  0.5210
 5290SOL    HW127506   3.427   3.009   2.860  0.2478  1.8323 -2.3929
 5290SOL    HW227507   3.541   2.920   2.871  1.1652 -1.2341 -0.8676
 5291SOL     OW27508   0.087   4.096   7.818  0.1695  0.0347 -0.5249
 5291SOL    HW127509   0.047   4.028   7.764 -0.7930  0.2369 -0.0737
 5291SOL    HW227510   0.023   4.167   7.813 -0.3338 -0.3510  0.4879
 5292SOL     OW27511   4.571   1.480   2.724 -0.1316 -0.1798  0.3163
 5292SOL    HW127512   4.601   1.424   2.795  1.1339  0.1040  0.0132
 5292SOL    HW227513   4.582   1.569   2.758  0.5383 -1.6500  3.8448
 5293SOL     OW27514   2.685   0.587   3.426  0.3141 -0.0932  0.5695
 5293SOL    HW127515   2.625   0.653   3.393  1.6437 -0.3373 -2.3924
 5293SOL    HW227516   2.637   0.547   3.499  0.4428 -2.3342 -0.5685
 5294SOL     OW27517   3.233   3.857  11.741 -0.3553 -0.2807 -0.3370
 5294SOL    HW127518   3.273   3.820  11.820  1.8301  2.3493 -0.2091
 5294SOL    HW227519   3.174   3.793  11.701  1.9962 -0.7277 -3.1039
 5295SOL     OW27520   0.799   1.515   3.420  0.1004 -0.1102 -0.2008
 5295SOL    HW127521   0.836   1.426   3.427 -2.7551 -1.3291 -0.6480
 5295SOL    HW227522   0.862   1.561   3.476  0.9661 -1.3589 -0.1341
 5296SOL     OW27523   1.478   2.641   8.497 -0.7745 -0.2563 -0.0712
 5296SOL    HW127524   1.560   2.600   8.468 -1.0508 -0.8785  0.0278
 5296SOL    HW227525   1.415   2.573   8.475  1.8760 -2.4389 -0.8772
 5297SOL     OW27526   0.853   0.397   5.431  0.2435  0.1286 -0.2305
 5297SOL    HW127527   0.878   0.306   5.416 -1.4297 -0.1537 -1.2515
 5297SOL    HW227528   0.801   0.416   5.353  0.2890  1.8129  0.1600
 5298SOL     OW27529   2.786   0.059  10.006  0.1171 -0.1557  0.4835
 5298SOL    HW127530   2.834   0.078  10.086  0.4715  1.9311 -0.2489
 5298SOL    HW227531   2.859   0.031   9.951 -0.6749 -1.0524 -0.1367
 5299SOL     OW27532   1.327   1.903   1.835  0.1248  0.0772  0.3219
 5299SOL    HW127533   1.305   1.945   1.918 -0.7997 -2.8879  1.5599
 5299SOL    HW227534   1.256   1.926   1.775  0.8309 -0.7265 -0.8022
 5300SOL     OW27535   1.869   2.743   8.580  0.5301 -0.3760 -0.0604
 5300SOL    HW127536   1.847   2.655   8.550 -1.2177  0.0059  0.1148
 5300SOL    HW227537   1.956   2.742   8.620  1.1761  0.7670 -1.4678
 5301SOL     OW27538   1.520   1.568   5.745  1.0139  0.3284  0.5451
 5301SOL    HW127539   1.553   1.535   5.661 -0.2849 -0.6619  0.4343
 5301SOL    HW227540   1.441   1.611   5.713  0.8747  0.7094  1.4046
 5302SOL     OW27541   1.249   0.328   0.867  0.2745 -0.1260  0.1872
 5302SOL    HW127542   1.231   0.234   0.872 -1.8032  0.2918  0.2209
 5302SOL    HW227543   1.217   0.352   0.780 -1.8205  1.9068  1.5466
 5303SOL     OW27544   1.913   0.508  16.647 -0.1183 -0.2135 -0.6463
 5303SOL    HW127545   1.953   0.595  16.650 -0.5260 -0.0829  1.2362
 5303SOL    HW227546   1.944   0.468  16.566 -0.1900 -3.2285  0.8346
 5304SOL     OW27547   1.611   4.529   6.777 -0.0520  0.0661 -0.2053
 5304SOL    HW127548   1.658   4.449   6.799 -0.7805 -0.0482  0.9249
 5304SOL    HW227549   1.653   4.546   6.692 -1.8473  0.8165 -0.9449
 5305SOL     OW27550   2.207   0.222   8.380 -0.4380 -0.2408  0.2755
 5305SOL    HW127551   2.144   0.191   8.315  0.3059  0.5835 -0.8315
 5305SOL    HW227552   2.290   0.201   8.337 -1.0254  1.2009 -1.5880
 5306SOL     OW27553   1.889   0.299  17.038  0.3196  0.4212 -0.5969
 5306SOL    HW127554   1.801   0.334  17.049 -0.5944 -1.3306 -2.4476
 5306SOL    HW227555   1.936   0.319  17.119 -0.6954 -0.7517  0.2767
 5307SOL     OW27556   0.990   1.067   8.875  0.1584 -0.0751 -0.1661
 5307SOL    HW127557   0.977   1.038   8.965 -2.0771 -1.8128 -1.0703
 5307SOL    HW227558   0.976   1.157   8.905 -2.4530 -0.0736 -1.3665
 5308SOL     OW27559   2.342   1.022  12.654  0.1354  0.2588  0.0608
 5308SOL    HW127560   2.431   1.031  12.619  0.6051 -1.0440  0.9418
 5308SOL    HW227561   2.292   0.999  12.576  1.4317  0.3045 -0.7928
 5309SOL     OW27562   2.480   3.788  17.636  0.0444  0.2794  0.0827
 5309SOL    HW127563   2.417   3.798  17.565 -1.3222 -0.6691  1.1502
 5309SOL    HW227564   2.426   3.814  17.710 -0.6473  0.4620 -0.4872
 5310SOL     OW27565   4.271   3.202   6.421  0.0473  0.0328  0.5088
 5310SOL    HW127566   4.252   3.197   6.515  1.5116  0.2540  0.8196
 5310SOL    HW227567   4.323   3.282   6.407  0.4477 -0.5698 -1.4324
 5311SOL     OW27568   2.699   3.127   4.179  0.3843  0.0813  0.4145
 5311SOL    HW127569   2.728   3.216   4.199  0.5201  0.5980 -2.0775
 5311SOL    HW227570   2.630   3.134   4.113 -0.4058 -3.1115  0.9332
 5312SOL     OW27571   3.125   3.595   6.108  0.1348 -0.2377 -0.3649
 5312SOL    HW127572   3.186   3.522   6.098  1.7297  1.0458 -0.0158
 5312SOL    HW227573   3.082   3.588   6.022  2.0041  2.4529 -1.5311
 5313SOL     OW27574   4.371   2.072  17.149 -0.0043  0.0238  0.1608
 5313SOL    HW127575   4.389   2.017  17.073 -2.2079 -0.1229 -0.2595
 5313SOL    HW227576   4.453   2.121  17.154  0.2436 -0.4031  0.2475
 5314SOL     OW27577   4.736   1.770   0.862 -0.2835  0.4105 -0.3757
 5314SOL    HW127578   4.649   1.808   0.878 -0.0176  0.4657  0.9088
 5314SOL    HW227579   0.044   1.851   0.838  2.3859 -0.5024  1.5938
 5315SOL     OW27580   0.362   3.558   5.313 -0.6226  0.5563  0.3255
 5315SOL    HW127581   0.308   3.597   5.381 -1.2337 -1.3007  0.9008
 5315SOL    HW227582   0.359   3.614   5.235  1.7771 -0.4755 -0.5354
 5316SOL     OW27583   2.738   2.034   4.649  0.1681 -0.3012 -0.4770
 5316SOL    HW127584   2.793   2.069   4.579 -3.1595  1.1511 -2.3905
 5316SOL    HW227585   2.690   2.112   4.677  0.5466 -1.0914  2.3572
 5317SOL     OW27586   2.805   0.124  14.140  0.0738 -0.2211 -0.0740
 5317SOL    HW127587   2.764   0.190  14.085  0.8801  0.7718  0.5080
 5317SOL    HW227588   2.867   0.186  14.179  0.5366  0.1303 -1.3761
 5318SOL     OW27589   2.888   2.464   5.524 -0.2372  0.1257  0.0863
 5318SOL    HW127590   2.903   2.439   5.615  2.7930  1.8809  0.0781
 5318SOL    HW227591   2.936   2.390   5.488  0.2708  0.9177 -0.8591
 5319SOL     OW27592   0.558   2.956   8.651  0.0281 -0.4555 -0.1300
 5319SOL    HW127593   0.512   2.949   8.734  0.0245 -0.2812 -0.1171
 5319SOL    HW227594   0.595   2.870   8.635  1.0819  0.1012 -0.6532
 5320SOL     OW27595   2.354   1.373   2.912  0.2914 -0.3288 -0.0048
 5320SOL    HW127596   2.418   1.314   2.874 -1.4736 -1.5455 -1.0556
 5320SOL    HW227597   2.402   1.455   2.900 -0.8175  0.0706 -1.7222
 5321SOL     OW27598   3.548   0.807  15.346 -0.6026  0.4773  0.6806
 5321SOL    HW127599   3.475   0.747  15.334  0.4801 -0.2813 -2.1434
 5321SOL    HW227600   3.549   0.794  15.441  2.7277  0.8078  0.7063
 5322SOL     OW27601   0.552   1.529   8.095 -0.2752  0.0327 -0.2756
 5322SOL    HW127602   0.459   1.539   8.076 -1.3089 -4.2205  2.4414
 5322SOL    HW227603   0.554   1.451   8.150 -0.6237  0.5974  0.5333
 5323SOL     OW27604   3.967   1.375   4.033  0.0883  0.0968  0.3238
 5323SOL    HW127605   3.930   1.424   3.959  0.2953 -1.1367 -0.5870
 5323SOL    HW227606   4.056   1.410   4.039  0.6353 -0.8935 -2.1780
 5324SOL     OW27607   4.703   3.871   7.618  0.3583  0.1574 -0.3713
 5324SOL    HW127608   4.638   3.925   7.574  1.3802  0.0187 -2.0406
 5324SOL    HW227609   4.653   3.835   7.692  1.0508  0.5934  0.3184
 5325SOL     OW27610   4.093   2.629   4.333 -0.0094 -0.5355 -0.1340
 5325SOL    HW127611   4.009   2.597   4.300  0.8615 -0.6911 -2.1827
 5325SOL    HW227612   4.103   2.587   4.419 -0.7926 -1.6474 -0.5836
 5326SOL     OW27613   3.924   1.236   1.476 -0.2164 -0.2450  0.1327
 5326SOL    HW127614   3.984   1.169   1.509 -0.5049 -0.2804  0.5786
 5326SOL    HW227615   3.894   1.196   1.394  1.8308  1.0110 -1.2443
 5327SOL     OW27616   0.426   4.255   2.990  0.0912 -0.3320  0.4251
 5327SOL    HW127617   0.499   4.194   3.004  2.1994  2.3669  1.0074
 5327SOL    HW227618   0.358   4.205   2.944  1.4035 -1.5181 -0.2455
 5328SOL     OW27619   0.218   0.672   9.012 -0.1198  0.2761  0.1526
 5328SOL    HW127620   0.138   0.698   9.057 -0.0772 -0.0853  0.4411
 5328SOL    HW227621   0.207   0.703   8.922 -1.2282  0.2050  0.2648
 5329SOL     OW27622   2.936   0.264   1.946 -0.6876 -0.5276 -0.3559
 5329SOL    HW127623   2.890   0.193   1.901 -0.6893 -0.1844 -0.8877
 5329SOL    HW227624   3.026   0.255   1.915 -0.6828 -0.4312 -0.3700
 5330SOL     OW27625   1.968   4.082   4.478  0.0618 -0.0850  0.4358
 5330SOL    HW127626   2.053   4.108   4.443  0.9188 -2.2088  0.9352
 5330SOL    HW227627   1.946   4.138   4.553 -0.5698 -0.0433  0.2210
 5331SOL     OW27628   0.511   2.007   0.180 -0.2819  0.0199 -0.4756
 5331SOL    HW127629   0.468   1.953   0.113  1.2906  0.8718 -2.1818
 5331SOL    HW227630   0.529   2.088   0.132  0.1325  0.1994 -0.0127
 5332SOL     OW27631   4.534   2.317   6.916 -0.4124  0.2948  0.0501
 5332SOL    HW127632   4.473   2.302   6.844 -1.5326 -2.0971  1.5301
 5332SOL    HW227633   4.559   2.410   6.911  2.5564 -0.5897 -1.5264
 5333SOL     OW27634   2.885   4.132  12.496 -0.4187 -0.3976 -0.1916
 5333SOL    HW127635   2.858   4.218  12.530  0.6686 -0.6461  1.2938
 5333SOL    HW227636   2.979   4.125  12.511 -0.5882 -0.6429  0.7350
 5334SOL     OW27637   3.011   1.669  15.566 -0.0702  0.0924  0.0388
 5334SOL    HW127638   3.067   1.663  15.643 -0.6753  1.0290  0.5479
 5334SOL    HW227639   3.070   1.697  15.496 -1.0474  2.9034  0.3520
 5335SOL     OW27640   4.396   2.032   2.339 -0.0176 -0.4422 -0.1604
 5335SOL    HW127641   4.303   2.012   2.348 -0.1562  0.4120  0.2823
 5335SOL    HW227642   4.451   1.953   2.341 -1.4945 -1.4635 -0.3321
 5336SOL     OW27643   0.910   3.240   3.512 -0.4431 -0.3198  0.2139
 5336SOL    HW127644   0.929   3.187   3.589 -0.5554 -0.0547  0.4250
 5336SOL    HW227645   0.923   3.329   3.547 -0.4327 -0.3572  0.3056
 5337SOL     OW27646   1.008   1.556   6.220  0.3456 -0.3013  0.2671
 5337SOL    HW127647   0.917   1.571   6.248  1.0203 -1.2159  2.9899
 5337SOL    HW227648   0.987   1.489   6.155  0.2462 -0.7877  0.7977
 5338SOL     OW27649   2.944   3.278  10.027  0.0835  0.0887  0.2703
 5338SOL    HW127650   2.972   3.353  10.080  1.5743  0.7839 -1.4744
 5338SOL    HW227651   3.028   3.232  10.032  0.9754  1.5945 -0.7489
 5339SOL     OW27652   3.340   0.749   4.031  0.2650  0.3767 -0.0661
 5339SOL    HW127653   3.345   0.654   4.019 -0.4028  0.0015  2.6286
 5339SOL    HW227654   3.359   0.782   3.943 -1.4959  3.2399  0.6296
 5340SOL     OW27655   2.537   3.368   9.619  0.6584 -0.0078  1.1034
 5340SOL    HW127656   2.467   3.386   9.682  0.3064 -0.2908  0.7895
 5340SOL    HW227657   2.533   3.275   9.600  2.2698  0.4431 -1.3950
 5341SOL     OW27658   4.110   0.913  16.311 -0.0649  0.3360  0.1393
 5341SOL    HW127659   4.151   0.876  16.233 -2.8895 -1.6974 -0.3753
 5341SOL    HW227660   4.020   0.882  16.318  0.2666 -0.5318  0.4848
 5342SOL     OW27661   2.046   0.882   5.168  0.1384 -0.2359 -0.2665
 5342SOL    HW127662   2.091   0.916   5.245  1.5497 -1.0936 -0.7153
 5342SOL    HW227663   1.977   0.947   5.157  0.8643  0.4653 -0.6341
 5343SOL     OW27664   1.159   4.488   9.240  0.1292 -0.1576 -0.0886
 5343SOL    HW127665   1.097   4.508   9.169  0.1841 -0.6376 -0.2687
 5343SOL    HW227666   1.116   4.530   9.314  1.5052  0.4206  0.3684
 5344SOL     OW27667   1.607   1.053   3.299 -0.0261 -0.1649  0.2184
 5344SOL    HW127668   1.663   1.127   3.324  2.7897 -2.0923 -0.4434
 5344SOL    HW227669   1.586   1.007   3.380  1.0249  0.9339  1.1333
 5345SOL     OW27670   1.763   1.927  12.365  0.2893  0.6777 -0.4090
 5345SOL    HW127671   1.798   1.853  12.313 -0.4843 -0.9907  1.4482
 5345SOL    HW227672   1.847   1.958  12.398  0.8870 -1.3733  0.0475
 5346SOL     OW27673   4.298   0.096   5.369  0.0639 -0.3019  0.0636
 5346SOL    HW127674   4.389   0.099   5.340  0.1759 -1.1807  0.3252
 5346SOL    HW227675   4.279   0.007   5.340 -1.3046  0.3503 -1.0399
 5347SOL     OW27676   0.424   0.466  10.936  0.3635 -0.2725  0.3179
 5347SOL    HW127677   0.475   0.532  10.981  0.4266  0.0271 -0.1957
 5347SOL    HW227678   0.493   0.425  10.884 -0.0212  0.9564 -1.1469
 5348SOL     OW27679   0.183   1.814   4.182 -0.5313  0.0056 -0.5967
 5348SOL    HW127680   0.125   1.777   4.116 -0.7606 -0.1726 -0.2988
 5348SOL    HW227681   0.144   1.796   4.268 -0.7393 -0.2947 -0.7530
 5349SOL     OW27682   1.228   3.364   7.172 -0.0788  0.1178  0.1643
 5349SOL    HW127683   1.254   3.326   7.257  1.7802  2.6898  0.7448
 5349SOL    HW227684   1.248   3.293   7.110 -1.2552 -0.0693  0.0000
 5350SOL     OW27685   2.046   2.980   0.613 -0.2148  0.1652 -0.8805
 5350SOL    HW127686   2.063   2.939   0.698  0.3349 -0.3431 -1.2391
 5350SOL    HW227687   1.977   2.918   0.587  0.0462 -0.3040 -0.4784
 5351SOL     OW27688   3.398   3.042   1.365 -0.3808  0.6865 -0.0388
 5351SOL    HW127689   3.449   3.058   1.444  0.6822 -2.2917 -0.1501
 5351SOL    HW227690   3.318   3.084   1.397 -0.1403  1.7101 -0.7480
 5352SOL     OW27691   3.994   0.322   2.955 -0.1866 -0.7126 -0.3098
 5352SOL    HW127692   3.915   0.340   3.007  0.4665 -0.0580  0.4450
 5352SOL    HW227693   3.948   0.281   2.882 -0.5391  1.5430 -1.3513
 5353SOL     OW27694   4.004   4.270   4.178  0.2016  0.3156 -0.2514
 5353SOL    HW127695   3.947   4.347   4.166 -0.4199 -0.0505  0.3989
 5353SOL    HW227696   4.078   4.302   4.229  0.6560 -0.9107 -0.1593
 5354SOL     OW27697   2.501   1.596   2.866  0.3347  0.4614 -0.3892
 5354SOL    HW127698   2.474   1.673   2.817  1.6029  2.1732  1.6152
 5354SOL    HW227699   2.564   1.634   2.928  0.1166  0.4124 -0.1368
 5355SOL     OW27700   0.437   3.422  14.734 -0.0500  0.3503  0.6890
 5355SOL    HW127701   0.392   3.453  14.813 -0.6050  0.2318  0.4203
 5355SOL    HW227702   0.528   3.423  14.763  0.2010  3.6294 -0.2093
 5356SOL     OW27703   0.030   0.436   8.608  0.0364  0.1516 -0.8416
 5356SOL    HW127704   0.121   0.462   8.598  0.5279 -0.0575  3.4187
 5356SOL    HW227705   0.039   0.343   8.630  2.5142  1.2129  2.5374
 5357SOL     OW27706   3.593   1.477   2.326 -0.0936  0.3276  0.3270
 5357SOL    HW127707   3.627   1.559   2.291 -1.5530  0.0695 -1.7363
 5357SOL    HW227708   3.630   1.477   2.414  0.6315  0.9796  0.0198
 5358SOL     OW27709   0.167   0.805   6.630  0.3489  0.1140 -0.2617
 5358SOL    HW127710   0.084   0.758   6.638  1.2441 -1.5917 -0.9249
 5358SOL    HW227711   0.238   0.741   6.618  1.1285  1.4438 -2.8332
 5359SOL     OW27712   0.157   0.927   0.500 -0.1364 -0.0045  0.5071
 5359SOL    HW127713   0.204   1.010   0.509 -1.0116  0.4317  1.0001
 5359SOL    HW227714   0.133   0.923   0.408  0.3351 -2.8706  0.5047
 5360SOL     OW27715   2.509   2.144   9.091  0.2452 -0.1408  0.1602
 5360SOL    HW127716   2.500   2.225   9.142 -1.0172  1.1473 -2.1057
 5360SOL    HW227717   2.497   2.077   9.158 -1.3340 -0.5798 -0.5617
 5361SOL     OW27718   1.025   1.393   6.567 -0.4584  0.1484 -0.2481
 5361SOL    HW127719   1.015   1.485   6.593 -0.1104 -0.2726  1.3648
 5361SOL    HW227720   1.099   1.372   6.624 -0.9989  0.7903  0.6830
 5362SOL     OW27721   0.202   3.698   7.822  0.5652 -0.7134  0.2321
 5362SOL    HW127722   0.249   3.684   7.740  0.1507  2.0664 -0.4600
 5362SOL    HW227723   0.256   3.770   7.853  1.8259 -2.1125  1.2926
 5363SOL     OW27724   3.121   1.059   4.901  0.6418 -0.3292 -0.2425
 5363SOL    HW127725   3.195   1.067   4.840 -0.3953  1.0808 -1.3232
 5363SOL    HW227726   3.173   1.022   4.973  0.2914 -1.0477 -0.3638
 5364SOL     OW27727   4.362   3.286   2.671  0.4599 -0.1837  0.6678
 5364SOL    HW127728   4.322   3.309   2.755 -1.2963 -1.0016  0.0434
 5364SOL    HW227729   4.337   3.352   2.606  0.9556 -0.8279 -0.1827
 5365SOL     OW27730   2.115   1.554   4.514 -0.2984 -0.7604 -0.2182
 5365SOL    HW127731   2.031   1.589   4.544  0.4424  0.9926 -0.1869
 5365SOL    HW227732   2.171   1.612   4.566  0.9201 -2.8396  0.7962
 5366SOL     OW27733   2.560   4.495  12.197  0.2588 -0.4224  0.2741
 5366SOL    HW127734   2.631   4.468  12.138  1.3641 -0.7390  1.7356
 5366SOL    HW227735   2.492   4.464  12.137 -0.0029 -1.4097  1.0836
 5367SOL     OW27736   0.386   3.756   2.917  0.1826 -0.8724 -0.5228
 5367SOL    HW127737   0.441   3.794   2.986  0.5595  1.0955 -1.9091
 5367SOL    HW227738   0.438   3.678   2.897  0.4996 -1.0973  1.1316
 5368SOL     OW27739   1.026   1.714   4.788 -0.4794  0.1149 -0.1080
 5368SOL    HW127740   1.025   1.807   4.812  0.0417  0.4377 -1.3256
 5368SOL    HW227741   1.102   1.685   4.838  0.1474 -0.3089 -1.3159
 5369SOL     OW27742   2.455   0.918  10.758 -0.1708 -0.3252 -0.0239
 5369SOL    HW127743   2.542   0.947  10.782 -0.5158 -0.4036  1.2935
 5369SOL    HW227744   2.397   0.986  10.792 -0.7428 -1.0283  0.4021
 5370SOL     OW27745   1.221   4.242   4.832 -0.5366 -0.0047 -0.4425
 5370SOL    HW127746   1.176   4.312   4.785 -0.6506  0.5441  0.5018
 5370SOL    HW227747   1.304   4.246   4.784  0.1977  0.7513  0.8849
 5371SOL     OW27748   3.531   4.538   6.913  0.3740 -0.1374  1.0399
 5371SOL    HW127749   3.555   4.628   6.934 -0.0643 -0.3044  2.2342
 5371SOL    HW227750   3.471   4.516   6.984  0.1122 -0.2109  0.7967
 5372SOL     OW27751   4.329   2.976   2.155  0.0504  0.3745 -0.6202
 5372SOL    HW127752   4.420   2.988   2.128  0.4409  1.7972  1.3797
 5372SOL    HW227753   4.346   2.911   2.224  0.4941  0.2967 -0.7976
 5373SOL     OW27754   4.229   2.983   6.786 -0.0259  0.3202 -0.4938
 5373SOL    HW127755   4.168   2.975   6.859  0.1580 -1.0820 -0.4880
 5373SOL    HW227756   4.310   2.959   6.830 -2.1112 -0.6651  2.8403
 5374SOL     OW27757   1.909   3.399   9.730 -0.1108  0.1276 -0.1592
 5374SOL    HW127758   1.826   3.439   9.755  0.1839  0.1458  0.8155
 5374SOL    HW227759   1.911   3.317   9.779 -0.5897 -0.9941 -2.0486
 5375SOL     OW27760   3.883   0.092   8.685 -0.2129 -0.3778  0.1998
 5375SOL    HW127761   3.865   0.013   8.736  1.6245 -0.0064  1.4282
 5375SOL    HW227762   3.811   0.147   8.716  0.0915 -0.6094  1.3205
 5376SOL     OW27763   0.669   3.704   5.996  0.5367 -0.7563 -0.1087
 5376SOL    HW127764   0.679   3.611   5.977 -0.7365 -1.6098  3.4910
 5376SOL    HW227765   0.725   3.751   5.934  0.1840 -1.3355 -0.8717
 5377SOL     OW27766   4.634   1.984   5.013 -0.7930  0.4518 -0.3206
 5377SOL    HW127767   4.573   1.926   4.967  2.1939 -0.6995 -2.8151
 5377SOL    HW227768   4.677   2.019   4.936  0.8126 -1.2824 -0.1987
 5378SOL     OW27769   2.710   2.852   4.567  0.2151  0.3282  0.2295
 5378SOL    HW127770   2.655   2.808   4.502  4.0479  0.6900 -3.2464
 5378SOL    HW227771   2.714   2.788   4.639  0.7208  0.2275  0.1118
 5379SOL     OW27772   1.006   0.510   6.093  0.0431  0.4351 -0.5264
 5379SOL    HW127773   1.099   0.499   6.113 -0.3376  1.3989  1.7248
 5379SOL    HW227774   0.968   0.423   6.083  0.3701  0.2801 -0.4128
 5380SOL     OW27775   3.834   1.475   4.895 -0.3132 -0.4760  0.1723
 5380SOL    HW127776   3.742   1.470   4.871 -0.4262  3.8792 -0.2325
 5380SOL    HW227777   3.845   1.403   4.957 -0.5366  1.1146  2.0267
 5381SOL     OW27778   0.011   3.846   6.096 -0.4053  0.1887  0.0071
 5381SOL    HW127779   4.731   3.752   6.086  0.1318  0.0700  0.2077
 5381SOL    HW227780   0.100   3.858   6.130 -0.8452  0.2598  1.1109
 5382SOL     OW27781   1.253   3.287   4.143  0.4221  0.4067 -0.5686
 5382SOL    HW127782   1.335   3.253   4.106 -1.0914  0.5100 -3.9375
 5382SOL    HW227783   1.243   3.227   4.217  0.4580  0.2074 -0.7276
 5383SOL     OW27784   3.082   1.620   6.121  0.2497 -0.2162 -0.0390
 5383SOL    HW127785   3.145   1.572   6.068 -1.8781 -1.6284 -1.3131
 5383SOL    HW227786   3.017   1.637   6.052  0.3065 -0.8942 -0.2647
 5384SOL     OW27787   3.402   2.099   7.803  0.7439 -0.5156  0.4887
 5384SOL    HW127788   3.388   2.054   7.886 -1.2553  0.3970  0.6660
 5384SOL    HW227789   3.471   2.163   7.820  2.4764 -1.9705 -1.0029
 5385SOL     OW27790   1.597   2.379   4.239 -0.1428 -0.1019  0.0810
 5385SOL    HW127791   1.557   2.299   4.205  0.4924  0.2907 -1.6011
 5385SOL    HW227792   1.522   2.437   4.248 -0.0458  0.3935 -2.3122
 5386SOL     OW27793   3.435   0.739   8.654 -0.0533  0.0103 -0.1866
 5386SOL    HW127794   3.521   0.746   8.696 -0.0848  1.6018 -0.4014
 5386SOL    HW227795   3.462   0.720   8.564 -0.6604 -0.8589 -0.1836
 5387SOL     OW27796   1.389   4.198   5.442  0.0376  0.0356 -0.1678
 5387SOL    HW127797   1.417   4.127   5.385 -0.2956 -0.5346  0.3789
 5387SOL    HW227798   1.456   4.259   5.410 -0.0144  0.6936  0.9706
 5388SOL     OW27799   4.042   4.728   9.701 -0.2747  0.3294  0.5794
 5388SOL    HW127800   4.082   4.647   9.669 -0.7738  0.4185 -0.2519
 5388SOL    HW227801   4.094   0.058   9.659 -2.4804  1.9254  0.4179
 5389SOL     OW27802   2.169   2.448  16.880 -0.3955 -0.1612  0.1364
 5389SOL    HW127803   2.259   2.463  16.908  0.1545 -1.0153 -1.1736
 5389SOL    HW227804   2.121   2.503  16.941 -0.0570  0.3715 -0.0740
 5390SOL     OW27805   2.573   1.878   8.227 -0.5555 -0.2713 -0.3618
 5390SOL    HW127806   2.606   1.790   8.248  0.7802  0.6640  1.5033
 5390SOL    HW227807   2.654   1.920   8.256  0.3281 -0.8476 -1.9857
 5391SOL     OW27808   2.878   2.522   0.709  0.3866  0.3764  0.8805
 5391SOL    HW127809   2.856   2.547   0.799 -1.0358 -2.5384  1.3448
 5391SOL    HW227810   2.917   2.437   0.732  1.0050 -0.1621 -2.2466
 5392SOL     OW27811   3.150   1.728   2.727 -0.6509  0.5850  0.0311
 5392SOL    HW127812   3.199   1.669   2.669  0.6054  0.8268  0.8664
 5392SOL    HW227813   3.206   1.718   2.803 -0.7919  1.5573  0.2630
 5393SOL     OW27814   0.375   2.656   2.172 -0.2009  0.2654 -0.2227
 5393SOL    HW127815   0.457   2.691   2.138 -1.3850  2.2133 -1.0626
 5393SOL    HW227816   0.376   2.701   2.257  1.1614 -0.4962  0.1755
 5394SOL     OW27817   2.787   0.604  15.647 -0.4791  0.6548  0.3673
 5394SOL    HW127818   2.798   0.696  15.621 -3.0624  0.8191 -0.0876
 5394SOL    HW227819   2.728   0.614  15.721 -1.1889 -0.5678 -0.0328
 5395SOL     OW27820   2.366   2.135   3.809  0.5996  0.1171  0.2080
 5395SOL    HW127821   2.458   2.141   3.836  1.2398 -1.0562 -1.6633
 5395SOL    HW227822   2.362   2.040   3.813 -1.3091  0.2565  1.1843
 5396SOL     OW27823   3.162   4.259   0.860  0.1794 -0.3676 -0.1888
 5396SOL    HW127824   3.127   4.218   0.781 -0.4012 -0.4624  0.1208
 5396SOL    HW227825   3.144   4.350   0.835 -1.3135  0.0457  2.4253
 5397SOL     OW27826   2.049   2.627   8.926  0.4317  0.0572  0.0003
 5397SOL    HW127827   2.014   2.683   8.857  0.2954  2.9376  2.3928
 5397SOL    HW227828   2.116   2.687   8.958 -0.9544 -0.0211  3.1158
 5398SOL     OW27829   2.041   2.599   3.057 -0.4464 -0.2803  0.3192
 5398SOL    HW127830   1.959   2.631   3.019 -0.1581  0.2905  0.1852
 5398SOL    HW227831   1.986   2.548   3.116 -0.7373 -0.0459  0.2545
 5399SOL     OW27832   0.450   0.046   1.774  0.5216 -0.0848  0.2720
 5399SOL    HW127833   0.462   0.114   1.841  0.5655 -1.3983  1.6025
 5399SOL    HW227834   0.446   0.105   1.699  4.4788  1.7813  1.4992
 5400SOL     OW27835   4.343   0.215   2.400  0.5629 -0.7304  0.7137
 5400SOL    HW127836   4.352   0.149   2.331  1.6229  0.6880 -0.5075
 5400SOL    HW227837   4.283   0.171   2.461 -0.3307 -1.0926 -0.4178
 5401SOL     OW27838   3.704   2.284   8.912 -0.0258 -0.0245 -0.0487
 5401SOL    HW127839   3.704   2.189   8.898 -2.0558 -0.5080  3.1371
 5401SOL    HW227840   3.625   2.306   8.962 -0.9466 -5.0231  0.7214
 5402SOL     OW27841   3.926   0.199  10.126  0.1007 -0.1994  0.0301
 5402SOL    HW127842   3.934   0.154  10.042  0.9587  1.9739 -1.0620
 5402SOL    HW227843   4.020   0.194  10.146 -0.2297  0.0845  1.6180
 5403SOL     OW27844   1.442   1.155   4.654  0.2641  0.5263 -0.5763
 5403SOL    HW127845   1.368   1.180   4.599 -0.6702 -0.4849  0.2229
 5403SOL    HW227846   1.403   1.078   4.696 -0.3569  1.9040  1.4145
 5404SOL     OW27847   0.514   0.853   4.149  0.1465 -0.1562 -0.1790
 5404SOL    HW127848   0.494   0.871   4.057  0.8709  0.6343 -0.1822
 5404SOL    HW227849   0.527   0.758   4.146  2.3760  0.1187  0.5965
 5405SOL     OW27850   4.416   3.481   9.338  0.4638  0.1703  0.1494
 5405SOL    HW127851   4.445   3.397   9.303 -1.3020 -0.3148 -0.1066
 5405SOL    HW227852   4.334   3.460   9.382 -0.5273  1.5479 -1.0322
 5406SOL     OW27853   1.248   2.421  11.267 -0.7168 -0.3842  0.1741
 5406SOL    HW127854   1.242   2.431  11.172 -0.1491 -0.4862  0.1282
 5406SOL    HW227855   1.324   2.364  11.280  1.1252  2.4980  2.1505
 5407SOL     OW27856   4.128   4.049   8.406  0.2526  0.1484 -0.4508
 5407SOL    HW127857   4.144   4.135   8.445 -0.0361 -0.8388  1.8306
 5407SOL    HW227858   4.076   4.001   8.470 -0.5262  2.4172  0.6383
 5408SOL     OW27859   0.257   0.972   4.547  0.1795  0.0810  0.1136
 5408SOL    HW127860   0.304   0.978   4.464  0.9832 -2.7292  0.3652
 5408SOL    HW227861   0.324   1.009   4.605  2.7490 -1.4061 -1.9168
 5409SOL     OW27862   3.001   0.604   6.294  0.1383  0.5000  0.8915
 5409SOL    HW127863   2.998   0.619   6.200  0.8453 -1.7550  0.4942
 5409SOL    HW227864   2.912   0.593   6.327  0.3069 -2.0730  0.4963
 5410SOL     OW27865   1.409   2.473   5.323 -0.0532 -0.0463 -0.6144
 5410SOL    HW127866   1.485   2.482   5.265 -1.2586  1.1554 -2.0015
 5410SOL    HW227867   1.337   2.461   5.260  0.9242 -0.9797 -1.5668
 5411SOL     OW27868   0.402   1.665   4.655  0.0505 -0.5580  0.5704
 5411SOL    HW127869   0.333   1.715   4.698 -0.4753 -0.9739  0.1947
 5411SOL    HW227870   0.358   1.593   4.611 -0.1369 -1.1920  1.8000
 5412SOL     OW27871   1.582   3.631   5.152 -0.0184  0.5949  0.2296
 5412SOL    HW127872   1.556   3.721   5.130  0.7115  0.4408 -1.3129
 5412SOL    HW227873   1.502   3.590   5.183 -0.4758  0.3024 -1.3087
 5413SOL     OW27874   3.469   1.759   3.985  0.4742  0.1381  0.4133
 5413SOL    HW127875   3.453   1.797   3.898 -1.5385 -0.0436  0.7119
 5413SOL    HW227876   3.385   1.724   4.014  0.7288 -0.6672  0.1543
 5414SOL     OW27877   1.645   1.556   7.999 -0.1259 -0.1030  0.1271
 5414SOL    HW127878   1.674   1.474   8.040 -0.1718 -0.8329 -1.2922
 5414SOL    HW227879   1.718   1.608   8.033 -1.3852  0.8728  1.3664
 5415SOL     OW27880   0.682   4.260   5.454  0.0606 -0.4951 -0.3309
 5415SOL    HW127881   0.633   4.179   5.441 -0.6097  0.0931 -1.4170
 5415SOL    HW227882   0.621   4.322   5.494  1.9974  0.7527  0.6812
 5416SOL     OW27883   0.845   2.795  17.136  0.1024 -0.0231 -0.5188
 5416SOL    HW127884   0.936   2.815  17.158  0.1085 -0.2564 -0.3399
 5416SOL    HW227885   0.853   2.702  17.115  0.8065  0.2692 -1.5448
 5417SOL     OW27886   0.412   3.151   0.053  0.3193  0.9336  0.1836
 5417SOL    HW127887   0.421   3.110  17.714 -1.1638  0.5785  0.1993
 5417SOL    HW227888   0.321   3.181   0.049 -0.5006 -1.7467 -1.1025
 5418SOL     OW27889   0.936   0.547   5.837 -0.4236 -0.2529 -0.9993
 5418SOL    HW127890   0.966   0.542   5.928  1.3929  0.1985 -1.5746
 5418SOL    HW227891   1.016   0.522   5.791  2.1916  1.5142  2.6139
 5419SOL     OW27892   1.546   0.441   9.064 -0.3373  0.2081 -0.1714
 5419SOL    HW127893   1.611   0.502   9.098 -0.6917 -0.0371  0.9260
 5419SOL    HW227894   1.608   0.394   9.007 -0.3682 -1.9511  1.6013
 5420SOL     OW27895   1.147   1.954   5.444  0.2156 -0.0506 -0.1247
 5420SOL    HW127896   1.081   2.023   5.450  0.9063  0.4978  1.0899
 5420SOL    HW227897   1.223   2.007   5.420 -0.1459  0.6482  0.2466
 5421SOL     OW27898   1.677   2.274   5.350 -0.3149 -0.0862  0.4960
 5421SOL    HW127899   1.687   2.300   5.259 -4.7491 -0.1724 -0.0286
 5421SOL    HW227900   1.671   2.179   5.337 -2.0203 -0.1778  1.9305
 5422SOL     OW27901   0.263   2.577  17.344  0.1305 -0.0660  0.2963
 5422SOL    HW127902   0.182   2.596  17.296 -0.0540 -1.0413  0.2165
 5422SOL    HW227903   0.242   2.489  17.375  0.4257 -0.1602  0.2285
 5423SOL     OW27904   1.930   3.824   6.160 -0.4670 -0.5474 -0.5864
 5423SOL    HW127905   1.951   3.757   6.094  2.3549 -0.7373  0.4943
 5423SOL    HW227906   2.016   3.861   6.180 -0.2906 -1.3651  0.1634
 5424SOL     OW27907   1.067   2.500   8.610 -0.7618 -0.6825 -0.7527
 5424SOL    HW127908   1.141   2.557   8.629 -1.1807 -0.4037  0.0799
 5424SOL    HW227909   1.100   2.425   8.660 -1.1258 -1.3422 -1.5091
 5425SOL     OW27910   4.408   3.411   6.400 -0.1927  0.7079 -0.0439
 5425SOL    HW127911   4.477   3.437   6.461 -1.2773  2.4243  0.4481
 5425SOL    HW227912   4.441   3.449   6.319  0.5732 -1.1881 -0.6281
 5426SOL     OW27913   0.329   3.026   6.262 -0.7789  0.5178 -0.1845
 5426SOL    HW127914   0.422   3.017   6.284 -0.4821  0.8935 -1.2612
 5426SOL    HW227915   0.297   2.939   6.287 -0.8415  0.8457  0.8744
 5427SOL     OW27916   2.423   2.101   7.573  0.0897 -0.5361  0.2276
 5427SOL    HW127917   2.511   2.064   7.561  0.9408  1.1911  1.1933
 5427SOL    HW227918   2.359   2.043   7.531 -0.3412  1.7752 -2.2527
 5428SOL     OW27919   1.012   1.692   7.854  0.7940  0.3888 -0.8741
 5428SOL    HW127920   1.102   1.686   7.820  1.2217  2.1766 -0.0820
 5428SOL    HW227921   0.981   1.618   7.802 -0.3925 -0.2209  0.7342
 5429SOL     OW27922   1.104   3.889  14.190 -0.3321 -0.1824 -0.2849
 5429SOL    HW127923   1.046   3.830  14.141 -0.5568 -0.6670  0.5550
 5429SOL    HW227924   1.165   3.909  14.119 -0.1900 -1.3820 -0.5012
 5430SOL     OW27925   4.377   0.816  16.899 -0.0675 -0.1600  0.1754
 5430SOL    HW127926   4.281   0.815  16.898 -0.0679  1.8646 -1.1382
 5430SOL    HW227927   4.399   0.746  16.960 -0.8234 -0.8587 -0.3448
 5431SOL     OW27928   0.635   3.753   8.452 -0.0514 -0.1067  0.0443
 5431SOL    HW127929   0.563   3.749   8.515 -0.1526  0.5055 -0.0359
 5431SOL    HW227930   0.615   3.811   8.379 -0.2084  1.6715  1.4950
 5432SOL     OW27931   4.610   0.480  15.997 -0.0386 -0.4056  0.0739
 5432SOL    HW127932   4.666   0.555  16.018  0.2506 -0.9606  1.3146
 5432SOL    HW227933   4.532   0.506  16.047 -0.3463  0.1259 -0.6947
 5433SOL     OW27934   4.100   3.760   6.290  0.3354  0.1460  0.2111
 5433SOL    HW127935   4.144   3.757   6.375 -0.2866  0.8088  0.5592
 5433SOL    HW227936   4.063   3.848   6.283 -1.4728 -0.5751  0.6057
 5434SOL     OW27937   1.537   2.133   0.386 -0.5036  0.1189 -0.1736
 5434SOL    HW127938   1.445   2.114   0.404 -0.3717  0.2212  0.6083
 5434SOL    HW227939   1.540   2.227   0.402  0.7761  0.3736 -1.9088
 5435SOL     OW27940   4.450   4.708   9.217  0.3463  0.3022 -0.4405
 5435SOL    HW127941   4.525   4.667   9.173 -1.8925 -1.6547 -2.4897
 5435SOL    HW227942   4.458   0.057   9.177  0.7721  0.1225 -0.7522
 5436SOL     OW27943   0.048   0.781  17.624 -0.5018 -0.2162  0.1312
 5436SOL    HW127944   0.088   0.696  17.643  0.4249  0.6472  2.1303
 5436SOL    HW227945   4.719   0.779  17.693 -0.7292 -0.6515 -0.1004
 5437SOL     OW27946   2.705   1.595  14.947  0.3957  0.7571  0.8805
 5437SOL    HW127947   2.760   1.670  14.973  0.9289  0.2411  1.2355
 5437SOL    HW227948   2.745   1.566  14.865  1.4327 -1.0003  2.0056
 5438SOL     OW27949   3.525   2.910   6.050 -0.3610  0.0496 -0.1848
 5438SOL    HW127950   3.503   2.854   6.124  1.2710  0.4399  0.5839
 5438SOL    HW227951   3.610   2.870   6.031 -0.2793 -0.4398  1.2099
 5439SOL     OW27952   2.097   3.858  11.384  0.0964  0.3430  0.2315
 5439SOL    HW127953   2.004   3.840  11.366  0.4734 -1.2407 -0.1443
 5439SOL    HW227954   2.126   3.774  11.419  0.2114  0.2387 -0.1155
 5440SOL     OW27955   4.056   0.422   6.883  0.2059  0.2153 -0.3761
 5440SOL    HW127956   4.015   0.388   6.803  1.5110 -0.5138 -0.7338
 5440SOL    HW227957   3.991   0.488   6.907 -0.8210 -0.9414  0.0358
 5441SOL     OW27958   4.123   1.926   6.659  0.6867 -0.5542 -0.2642
 5441SOL    HW127959   4.154   2.007   6.701  0.2012  0.0961 -1.1819
 5441SOL    HW227960   4.046   1.903   6.710  0.8909  1.4100  0.9765
 5442SOL     OW27961   2.014   1.378   6.789  0.6162 -0.2365  0.0339
 5442SOL    HW127962   2.068   1.395   6.866 -1.2633 -1.2313  1.5911
 5442SOL    HW227963   2.035   1.460   6.746  0.8088 -0.0179  0.5408
 5443SOL     OW27964   4.678   3.399   3.234 -0.7287 -0.1521  0.3852
 5443SOL    HW127965   4.626   3.395   3.315  0.1839 -0.2940  0.9644
 5443SOL    HW227966   0.002   3.327   3.245 -0.7573  0.0553  1.9308
 5444SOL     OW27967   2.814   4.005   8.836  0.6859 -0.5968  0.3062
 5444SOL    HW127968   2.851   3.964   8.914  0.5936  1.0582  1.2171
 5444SOL    HW227969   2.730   4.036   8.871 -0.3232 -0.8158 -1.8770
 5445SOL     OW27970   1.888   2.659   4.162 -0.0210 -0.0279  0.1810
 5445SOL    HW127971   1.819   2.705   4.114 -1.3576  0.4728  2.5364
 5445SOL    HW227972   1.872   2.569   4.132  0.7411  0.2214 -0.9569
 5446SOL     OW27973   1.850   1.901   0.734 -0.1629 -0.3321 -0.2342
 5446SOL    HW127974   1.831   1.964   0.804 -0.7628  1.8028 -2.3254
 5446SOL    HW227975   1.810   1.942   0.657 -3.2001  1.2859  2.1974
 5447SOL     OW27976   2.319   4.363   2.019 -0.1634  0.3301  0.0267
 5447SOL    HW127977   2.232   4.393   1.996  0.0840  0.9379 -0.1062
 5447SOL    HW227978   2.349   4.421   2.089  0.9471 -0.0755 -0.0999
 5448SOL     OW27979   0.845   4.344  16.619 -0.6992  0.1914 -0.0003
 5448SOL    HW127980   0.839   4.249  16.634  2.4451  0.1681  1.1192
 5448SOL    HW227981   0.939   4.358  16.620 -0.2050 -3.0458 -2.2926
 5449SOL     OW27982   2.683   3.059   6.626 -0.2363 -0.0681 -0.4364
 5449SOL    HW127983   2.718   3.036   6.540 -0.8002  0.4496 -0.8043
 5449SOL    HW227984   2.765   3.068   6.673 -0.3290 -1.5124  0.0045
 5450SOL     OW27985   1.761   1.188   8.954  0.0068 -0.1115  0.4843
 5450SOL    HW127986   1.763   1.282   8.971  0.0741 -0.3887  1.9623
 5450SOL    HW227987   1.677   1.156   8.988  0.0905 -0.9840 -0.1090
 5451SOL     OW27988   1.210   4.563  10.094 -0.2725  0.2678 -0.0774
 5451SOL    HW127989   1.144   4.625  10.124  1.8460  1.9321  1.1781
 5451SOL    HW227990   1.202   4.574   9.999 -0.6282 -0.4405 -0.1286
 5452SOL     OW27991   4.191   1.669   7.998 -0.1437  0.1899  0.4464
 5452SOL    HW127992   4.249   1.598   8.027 -0.8926 -0.0484  1.3570
 5452SOL    HW227993   4.261   1.732   7.983  2.9674 -2.5571  3.2987
 5453SOL     OW27994   2.720   2.483   8.851  0.5143 -0.1463 -0.0777
 5453SOL    HW127995   2.753   2.464   8.763 -0.3317  0.5655 -0.5616
 5453SOL    HW227996   2.740   2.577   8.856 -0.6419  0.1184 -0.5511
 5454SOL     OW27997   2.037   1.269   3.211 -0.2800  0.3776  0.0161
 5454SOL    HW127998   2.002   1.180   3.215 -1.9478  1.0599  0.3577
 5454SOL    HW227999   2.132   1.261   3.206 -0.3379 -0.0773 -0.3896
 5455SOL     OW28000   4.040   2.436   7.320  0.4700 -0.1633  0.1177
 5455SOL    HW128001   4.097   2.433   7.244  0.2628  0.0662 -0.0493
 5455SOL    HW228002   4.048   2.346   7.351 -1.3892 -0.5854 -0.6119
 5456SOL     OW28003   3.299   3.263   8.860 -0.7272  0.1859 -0.0622
 5456SOL    HW128004   3.369   3.228   8.914  0.1336  0.4432 -1.0220
 5456SOL    HW228005   3.253   3.321   8.922  0.8042  0.6695  0.6352
 5457SOL     OW28006   1.427   1.514  13.643 -0.1059  0.4656  0.2507
 5457SOL    HW128007   1.441   1.451  13.573  2.0682  0.8243  0.3751
 5457SOL    HW228008   1.383   1.461  13.709 -1.5008 -0.7267 -1.6550
 5458SOL     OW28009   0.866   1.230  12.871  0.4771  0.1855  0.3667
 5458SOL    HW128010   0.892   1.192  12.955  1.7223  2.2197  0.8821
 5458SOL    HW228011   0.805   1.160  12.847  0.4400  1.5714 -3.5534
 5459SOL     OW28012   3.827   4.571  14.283  0.7592  0.2360 -0.0768
 5459SOL    HW128013   3.802   4.647  14.336 -0.3724 -1.4722  1.7714
 5459SOL    HW228014   3.741   4.533  14.270  0.6542 -0.1960  1.8627
 5460SOL     OW28015   3.691   1.530   8.659  0.3922 -0.6322 -0.0257
 5460SOL    HW128016   3.772   1.495   8.624 -0.8726 -2.0572 -1.5067
 5460SOL    HW228017   3.731   1.585   8.727  0.6427 -0.5000 -0.2809
 5461SOL     OW28018   0.618   1.965  14.112  0.4235  0.1089 -0.4183
 5461SOL    HW128019   0.641   1.922  14.194 -3.8314 -1.8690 -0.2545
 5461SOL    HW228020   0.700   1.999  14.077  0.0690 -0.3941 -1.7063
 5462SOL     OW28021   4.694   2.322   8.736 -0.6106 -0.0189  0.3719
 5462SOL    HW128022   4.710   2.305   8.829  0.9308  0.6557  0.2320
 5462SOL    HW228023   0.022   2.390   8.723 -0.4357 -0.4689 -1.1386
 5463SOL     OW28024   1.301   2.534   6.394  0.1383 -0.2139  0.1907
 5463SOL    HW128025   1.263   2.556   6.479 -2.7064  1.1795 -1.4807
 5463SOL    HW228026   1.377   2.483   6.425 -0.8312 -1.0090  1.2559
 5464SOL     OW28027   1.016   4.094  10.927 -0.7861  0.1541  0.4849
 5464SOL    HW128028   0.998   4.158  10.859  0.4486  1.7244  1.6355
 5464SOL    HW228029   0.984   4.148  10.999 -0.8257 -0.4614  0.9297
 5465SOL     OW28030   1.405   3.645  16.237 -0.5675  0.7318 -0.0110
 5465SOL    HW128031   1.350   3.581  16.193  0.0725  2.9778 -4.0726
 5465SOL    HW228032   1.341   3.702  16.280 -1.3328  0.0451 -0.2514
 5466SOL     OW28033   3.048   3.302   7.413  0.4196 -0.0327 -0.2092
 5466SOL    HW128034   3.065   3.394   7.393  0.6858 -0.4972 -2.1235
 5466SOL    HW228035   2.974   3.296   7.473  0.2604 -0.7711 -0.4763
 5467SOL     OW28036   4.202   3.480   6.560  0.1325  0.4121  0.3059
 5467SOL    HW128037   4.250   3.468   6.478 -0.5191  0.8269 -0.1316
 5467SOL    HW228038   4.224   3.397   6.603 -1.6883 -0.4654 -0.4418
 5468SOL     OW28039   3.296   1.851  16.604  0.3840  0.4372  0.3422
 5468SOL    HW128040   3.218   1.850  16.549  0.0914  0.5840  0.7519
 5468SOL    HW228041   3.356   1.904  16.551  1.6285 -0.1547  1.1624
 5469SOL     OW28042   3.346   1.669   2.143 -0.3316  0.2708 -0.4299
 5469SOL    HW128043   3.372   1.624   2.062  1.2731  0.7891 -0.1942
 5469SOL    HW228044   3.262   1.711   2.123 -0.7951 -0.0276  0.9084
 5470SOL     OW28045   3.528   2.936   9.480 -0.2229 -0.2824 -0.0587
 5470SOL    HW128046   3.460   2.918   9.545 -1.2307  2.9017 -0.2225
 5470SOL    HW228047   3.525   2.857   9.427  0.1725  0.3151 -0.9709
 5471SOL     OW28048   1.780   0.820   8.638 -0.2492 -0.2602 -0.6195
 5471SOL    HW128049   1.702   0.765   8.646  0.9814 -1.9653 -0.1434
 5471SOL    HW228050   1.842   0.747   8.626  0.6420  0.3351  0.3269
 5472SOL     OW28051   2.984   1.345   9.339 -0.4321  0.2625 -0.6875
 5472SOL    HW128052   2.930   1.405   9.288 -0.9043  0.6999  0.3250
 5472SOL    HW228053   2.915   1.292   9.379 -1.4174  1.4112 -0.9064
 5473SOL     OW28054   4.138   2.256   3.254  0.5309  1.1150  0.2314
 5473SOL    HW128055   4.176   2.170   3.235 -2.5554  0.3634 -2.5274
 5473SOL    HW228056   4.214   2.308   3.232  0.9017  0.0417 -1.0609
 5474SOL     OW28057   2.407   1.941   8.039  0.1795 -0.2253  0.3888
 5474SOL    HW128058   2.398   1.847   8.023 -1.4620 -0.0628  0.3254
 5474SOL    HW228059   2.478   1.938   8.104  0.4487 -1.3808  0.0502
 5475SOL     OW28060   3.014   1.249   3.795 -0.4079  0.2381 -0.1606
 5475SOL    HW128061   2.969   1.244   3.879  1.2355  0.5547  0.7422
 5475SOL    HW228062   2.986   1.169   3.751 -2.0758  0.3437  0.6950
 5476SOL     OW28063   4.235   4.588   8.609  0.3768 -0.3636 -0.9088
 5476SOL    HW128064   4.203   4.520   8.548  1.1876  0.4000 -2.1805
 5476SOL    HW228065   4.180   4.572   8.686  0.1604  0.1452 -0.9601
 5477SOL     OW28066   1.258   0.536   5.517 -0.1598 -0.0461  0.4659
 5477SOL    HW128067   1.226   0.499   5.435 -0.8219  1.4059  0.0683
 5477SOL    HW228068   1.221   0.624   5.510 -1.6895 -0.8059 -0.8060
 5478SOL     OW28069   4.355   1.626  17.593  0.0299 -0.7362  0.0121
 5478SOL    HW128070   4.270   1.670  17.592  0.5252  0.2162  0.6000
 5478SOL    HW228071   4.415   1.697  17.573  1.5848 -1.6351  1.4916
 5479SOL     OW28072   0.643   4.643   7.305 -0.3336  0.2379  0.2727
 5479SOL    HW128073   0.647   4.563   7.252  3.4441 -0.6972  2.0071
 5479SOL    HW228074   0.697   4.709   7.261  1.3150 -0.7941  0.7613
 5480SOL     OW28075   2.465   4.686  12.383  0.1254 -0.0190 -0.6296
 5480SOL    HW128076   2.504   4.620  12.326  2.0001  0.0989  0.5019
 5480SOL    HW228077   2.439   0.016  12.321  1.8816  1.1069 -0.1728
 5481SOL     OW28078   4.239   1.379   3.847  0.2084 -0.3132 -0.4448
 5481SOL    HW128079   4.330   1.359   3.824 -0.0478 -3.2937  1.1108
 5481SOL    HW228080   4.233   1.390   3.942  1.4942  0.8140 -0.4984
 5482SOL     OW28081   1.707   1.435   3.929 -0.3647 -0.3140 -0.2461
 5482SOL    HW128082   1.727   1.520   3.890 -1.8327  0.1192 -0.0898
 5482SOL    HW228083   1.771   1.422   3.998 -0.8253  2.3193  0.6787
 5483SOL     OW28084   0.377   1.986   4.214 -0.3390 -0.1939 -0.0390
 5483SOL    HW128085   0.413   1.921   4.276 -0.3610 -1.3405 -1.2342
 5483SOL    HW228086   0.287   1.956   4.203 -1.3971  3.1136 -0.3555
 5484SOL     OW28087   2.958   2.608  10.904  0.0168 -0.8192 -0.5634
 5484SOL    HW128088   3.025   2.581  10.967  0.5587  0.7929 -0.4297
 5484SOL    HW228089   2.967   2.704  10.902 -0.2192 -0.7049  2.9861
 5485SOL     OW28090   1.472   1.610   3.463 -0.3562  0.0975 -0.5120
 5485SOL    HW128091   1.435   1.662   3.534  0.1855  1.1064 -0.9671
 5485SOL    HW228092   1.408   1.633   3.396 -1.2746  1.0126  0.6805
 5486SOL     OW28093   4.505   0.946   8.979  1.1375  0.2498 -0.1069
 5486SOL    HW128094   4.415   0.945   9.013  2.2041 -1.6185  2.6118
 5486SOL    HW228095   4.521   1.040   8.991 -2.3235  0.9916 -1.1184
 5487SOL     OW28096   0.579   0.013   2.396  0.4607 -0.4263 -0.0791
 5487SOL    HW128097   0.513   4.729   2.330 -0.5125  1.5732  0.2600
 5487SOL    HW228098   0.652   4.694   2.370  0.9664 -0.8874  2.3215
 5488SOL     OW28099   0.725   1.859   2.430 -0.5506 -0.1320 -0.0273
 5488SOL    HW128100   0.706   1.947   2.399 -0.8548  0.0044  0.5489
 5488SOL    HW228101   0.675   1.865   2.512  1.6691 -1.4709  1.4514
 5489SOL     OW28102   0.184   3.492  17.591 -0.2688 -0.5771 -0.6227
 5489SOL    HW128103   0.148   3.548  17.522 -0.4031 -1.0676 -0.9533
 5489SOL    HW228104   0.276   3.508  17.570 -0.9992  3.1291 -0.9862
 5490SOL     OW28105   1.885   2.164   6.543  0.1652 -0.5121  0.3138
 5490SOL    HW128106   1.791   2.175   6.555 -0.0840  1.6767 -3.4898
 5490SOL    HW228107   1.924   2.233   6.597  1.3394 -1.3165  0.4678
 5491SOL     OW28108   1.082   0.312  11.214  1.0657 -0.8925 -0.2952
 5491SOL    HW128109   1.076   0.233  11.268 -1.1588 -1.3649 -1.2716
 5491SOL    HW228110   1.008   0.295  11.157  0.9665 -1.5161  0.0172
 5492SOL     OW28111   4.679   3.021  13.678  0.2536  0.6813  0.1901
 5492SOL    HW128112   0.002   3.095  13.669 -0.5040  1.4929  1.6932
 5492SOL    HW228113   4.733   2.944  13.693  2.2171  2.1977  0.9314
 5493SOL     OW28114   0.766   4.019   6.038  0.0247 -0.3639 -0.3233
 5493SOL    HW128115   0.817   4.074   5.978 -2.0121 -0.5530 -2.2282
 5493SOL    HW228116   0.771   3.941   5.983 -1.1207 -0.8189  0.2368
 5494SOL     OW28117   0.669   3.109   6.677  0.3211 -0.1925 -0.6414
 5494SOL    HW128118   0.704   3.063   6.754 -0.1372  0.5343  0.0062
 5494SOL    HW228119   0.726   3.186   6.685 -1.3498  0.7685  2.4159
 5495SOL     OW28120   1.037   4.181   6.693  0.1544  0.4850 -0.0158
 5495SOL    HW128121   1.122   4.222   6.709 -0.6655  2.3836 -0.5647
 5495SOL    HW228122   1.028   4.128   6.772  0.7996 -3.1206 -2.3848
 5496SOL     OW28123   3.542   0.717   0.626  0.6884  0.0305 -0.7401
 5496SOL    HW128124   3.502   0.650   0.570 -2.1686  2.1290 -1.2655
 5496SOL    HW228125   3.635   0.706   0.608  1.3062  0.0792  2.4128
 5497SOL     OW28126   0.734   2.199  16.060  0.4308  0.4665  0.1462
 5497SOL    HW128127   0.663   2.141  16.032 -0.3547  1.2397  0.5202
 5497SOL    HW228128   0.765   2.231  15.975 -1.1353 -0.9083 -0.9410
 5498SOL     OW28129   3.057   0.647   3.054  0.3427 -0.2251  0.0634
 5498SOL    HW128130   3.073   0.633   2.960  2.5587 -1.1555  0.5809
 5498SOL    HW228131   3.074   0.741   3.059  0.2023 -0.2409  0.7631
 5499SOL     OW28132   3.898   4.336   7.211  0.0918  0.0820 -0.2478
 5499SOL    HW128133   3.926   4.263   7.157  0.2012 -0.3057  0.3372
 5499SOL    HW228134   3.977   4.389   7.222 -0.2238  0.5129 -0.0531
 5500SOL     OW28135   1.901   1.135   6.745 -0.4918  1.0201  0.2132
 5500SOL    HW128136   1.849   1.123   6.825  2.2446 -3.3055  1.3276
 5500SOL    HW228137   1.915   1.229   6.751 -0.5658  1.0022  0.6657
 5501SOL     OW28138   0.114   0.627   3.967 -0.5205  0.0724  0.2236
 5501SOL    HW128139   0.034   0.575   3.963 -1.5983  1.6074  1.9117
 5501SOL    HW228140   0.104   0.667   4.054 -1.6908  1.6716 -0.6506
 5502SOL     OW28141   0.308   0.081   2.847 -0.2510 -0.4003 -0.2222
 5502SOL    HW128142   0.221   0.042   2.853 -1.1343  1.3670 -1.6469
 5502SOL    HW228143   0.351   0.038   2.773  2.8042 -1.4147  2.1125
 5503SOL     OW28144   0.876   0.286  11.036  0.4605 -0.8880  0.3063
 5503SOL    HW128145   0.921   0.267  10.953  0.7390  0.2244  0.1965
 5503SOL    HW228146   0.847   0.202  11.070 -1.3472 -0.4454 -0.1477
 5504SOL     OW28147   1.383   2.414   4.585  0.0712 -0.4093  0.0994
 5504SOL    HW128148   1.462   2.464   4.563 -1.1786  0.9967 -1.2228
 5504SOL    HW228149   1.423   2.333   4.617 -1.7594  0.2990  4.2575
 5505SOL     OW28150   3.998   3.348  14.598 -0.0220  0.8954 -0.0796
 5505SOL    HW128151   4.001   3.431  14.646  2.1635  0.2313  0.9468
 5505SOL    HW228152   4.090   3.336  14.576 -0.2622  0.4642 -0.8187
 5506SOL     OW28153   3.518   2.803   9.218  0.0824 -0.1961  0.5378
 5506SOL    HW128154   3.599   2.855   9.217 -1.0889  1.6198 -1.3766
 5506SOL    HW228155   3.545   2.717   9.186 -0.2752  0.2161 -0.8793
 5507SOL     OW28156   1.555   0.431   6.590 -0.0652  0.1447  0.4621
 5507SOL    HW128157   1.583   0.509   6.637  0.2098  1.6842 -2.2795
 5507SOL    HW228158   1.481   0.480   6.556 -0.1057  2.1858  3.4327
 5508SOL     OW28159   4.620   0.420   6.868  0.4458  0.2373 -0.1561
 5508SOL    HW128160   4.599   0.492   6.928 -0.8080 -1.0096  0.8887
 5508SOL    HW228161   4.554   0.419   6.798  0.1709  0.8655  0.0915
 5509SOL     OW28162   0.464   1.930  12.246  0.5901 -0.2212 -0.3611
 5509SOL    HW128163   0.506   1.865  12.301 -1.8602 -2.3514 -0.9724
 5509SOL    HW228164   0.372   1.929  12.274  0.5230  0.0300 -0.5662
 5510SOL     OW28165   2.542   2.856   1.769 -0.0381  0.0192  0.1797
 5510SOL    HW128166   2.586   2.781   1.810 -0.4794 -1.7409 -2.5536
 5510SOL    HW228167   2.594   2.931   1.798  1.0872 -0.6930  0.0458
 5511SOL     OW28168   1.854   0.008   2.830 -0.2102  0.4523 -0.0880
 5511SOL    HW128169   1.921   4.687   2.867  0.5703  1.0907 -0.4906
 5511SOL    HW228170   1.777   4.703   2.868 -1.4951 -0.4966 -3.7669
 5512SOL     OW28171   2.135   3.581  12.812 -0.4919 -0.0939 -0.3341
 5512SOL    HW128172   2.122   3.676  12.810  1.0843  0.0851 -2.6578
 5512SOL    HW228173   2.145   3.560  12.904 -0.0909 -0.2873 -0.4189
 5513SOL     OW28174   3.460   0.733   2.046 -0.3411  0.6620  0.3802
 5513SOL    HW128175   3.497   0.645   2.034  1.3277  1.6983 -2.1171
 5513SOL    HW228176   3.379   0.715   2.093 -0.5909 -0.0413 -0.3147
 5514SOL     OW28177   4.422   4.138   5.369 -0.2541 -0.2077  0.5195
 5514SOL    HW128178   4.461   4.131   5.456  2.5161  1.0326 -0.6209
 5514SOL    HW228179   4.330   4.135   5.394 -0.7790  1.1945 -1.2494
 5515SOL     OW28180   0.009   2.537   0.323 -0.0198  0.1195 -0.6865
 5515SOL    HW128181   0.063   2.555   0.400 -0.4998  0.5058 -0.4385
 5515SOL    HW228182   0.054   2.454   0.307 -1.6972 -1.1765  1.3668
 5516SOL     OW28183   1.220   2.475   4.387 -0.6359 -0.5151  0.4115
 5516SOL    HW128184   1.271   2.453   4.465 -2.0227  0.1895  1.5269
 5516SOL    HW228185   1.283   2.516   4.328  0.4469 -1.2106  1.1088
 5517SOL     OW28186   3.765   0.760   8.865 -0.3031  0.5723  0.3084
 5517SOL    HW128187   3.797   0.766   8.775 -0.8934  0.2441  0.0740
 5517SOL    HW228188   3.817   0.831   8.903  0.7914  0.0409 -0.1887
 5518SOL     OW28189   4.680   2.889   3.627 -0.5456 -0.1498  0.4087
 5518SOL    HW128190   4.589   2.890   3.596 -0.5052  0.3084  0.2983
 5518SOL    HW228191   4.684   2.799   3.657  0.4176  0.5287  2.3344
 5519SOL     OW28192   4.284   1.488  14.518 -0.0778  0.1589 -0.0942
 5519SOL    HW128193   4.294   1.411  14.574  0.0087 -2.3232 -3.5604
 5519SOL    HW228194   4.361   1.542  14.533 -0.1365  0.2664 -0.1768
 5520SOL     OW28195   3.900   4.701   6.182  0.3450  0.2666 -0.1575
 5520SOL    HW128196   3.876   0.046   6.140 -0.4944  0.2259  0.2482
 5520SOL    HW228197   3.883   4.633   6.116 -1.0169  0.3946  0.0656
 5521SOL     OW28198   0.411   3.112   0.316  0.0775 -0.2175 -0.3042
 5521SOL    HW128199   0.431   3.117   0.222  0.3481 -0.5340 -0.2660
 5521SOL    HW228200   0.334   3.167   0.329  1.0772  1.0831  0.1115
 5522SOL     OW28201   1.703   2.721   2.588 -0.3587  0.0563 -0.1727
 5522SOL    HW128202   1.660   2.721   2.674  1.4578 -1.1929  0.7393
 5522SOL    HW228203   1.793   2.743   2.611 -0.2843 -0.1156 -0.3045
 5523SOL     OW28204   0.437   0.202   3.631  0.0087  0.4280 -0.7686
 5523SOL    HW128205   0.424   0.143   3.706  0.9939 -1.3792 -2.0135
 5523SOL    HW228206   0.527   0.228   3.653 -0.0868 -0.5372  0.7360
 5524SOL     OW28207   1.889   3.345  12.863 -0.9699  0.0288  0.3286
 5524SOL    HW128208   1.886   3.271  12.924 -0.4312  0.8662  1.3840
 5524SOL    HW228209   1.801   3.382  12.870 -0.6862  0.8377 -0.3129
 5525SOL     OW28210   2.551   3.895   8.647  0.0555 -0.1549  0.0735
 5525SOL    HW128211   2.586   3.813   8.680 -0.6227 -0.6782 -0.4811
 5525SOL    HW228212   2.470   3.902   8.697 -1.3792  2.2219 -2.5304
 5526SOL     OW28213   0.698   2.000   5.725 -0.0299 -0.2368 -0.1803
 5526SOL    HW128214   0.665   1.987   5.637  0.0636  1.5560 -0.4931
 5526SOL    HW228215   0.638   2.052   5.778  1.2782  0.9096  0.1856
 5527SOL     OW28216   4.074   0.684   9.392  0.8424  0.3191  0.3877
 5527SOL    HW128217   4.022   0.620   9.441  0.1272 -0.5126 -1.4780
 5527SOL    HW228218   4.012   0.745   9.355  1.0212  1.0055  1.2172
 5528SOL     OW28219   3.126   3.468   7.131  0.0599 -0.2827 -0.4532
 5528SOL    HW128220   3.182   3.422   7.194 -0.0324  1.3753  0.8285
 5528SOL    HW228221   3.191   3.500   7.070 -0.2064 -0.8809 -1.0575
 5529SOL     OW28222   1.085   3.058   2.998 -0.5332 -0.5470 -0.2667
 5529SOL    HW128223   1.108   3.114   3.072 -0.8859 -1.1278  0.2837
 5529SOL    HW228224   1.078   3.112   2.919  1.0095 -0.7678 -0.5602
 5530SOL     OW28225   4.264   0.677   0.853  0.0755  0.5556  0.2646
 5530SOL    HW128226   4.258   0.739   0.925  4.7328  1.0397  0.2648
 5530SOL    HW228227   4.287   0.738   0.783 -0.0959  1.2078  0.7778
 5531SOL     OW28228   1.873   1.265   3.694 -0.1777  0.0387 -0.2397
 5531SOL    HW128229   1.798   1.265   3.753  2.8144 -0.4220  3.5387
 5531SOL    HW228230   1.856   1.179   3.654 -1.5297 -0.0380  0.5073
 5532SOL     OW28231   1.572   0.150   4.367 -0.1309  0.2825  0.4232
 5532SOL    HW128232   1.538   0.084   4.428 -0.6985  0.9568  0.8325
 5532SOL    HW228233   1.508   0.139   4.297 -1.8030 -1.9825  2.2825
 5533SOL     OW28234   3.384   3.015   7.352  0.6204  0.1381 -0.6586
 5533SOL    HW128235   3.452   3.008   7.285 -1.6612 -3.0735 -2.6544
 5533SOL    HW228236   3.438   3.049   7.423 -1.3861 -2.4804  2.1162
 5534SOL     OW28237   3.429   3.839  17.238 -0.7360  0.1916 -0.7346
 5534SOL    HW128238   3.498   3.806  17.181 -1.0132  0.7701 -1.4036
 5534SOL    HW228239   3.448   3.788  17.317  0.6093  0.6608 -0.7653
 5535SOL     OW28240   0.146   0.063  17.374 -0.1205  0.5513 -0.4579
 5535SOL    HW128241   0.093   0.077  17.295 -0.5111  2.3151  0.1183
 5535SOL    HW228242   0.235   0.052  17.341  0.8049  0.4426  2.0938
 5536SOL     OW28243   4.335   3.697   4.647 -0.4846 -0.3324  0.1430
 5536SOL    HW128244   4.355   3.693   4.741 -1.2088 -0.4527  0.2880
 5536SOL    HW228245   4.361   3.787   4.626 -0.2178 -0.5876 -0.6173
 5537SOL     OW28246   1.298   0.695   3.733 -0.2365  0.4345 -0.8977
 5537SOL    HW128247   1.251   0.766   3.689 -2.1572 -0.5643 -0.4892
 5537SOL    HW228248   1.316   0.640   3.658  0.6175  0.6247 -0.8352
 5538SOL     OW28249   2.306   3.932   8.756 -0.4681 -0.0684  0.2826
 5538SOL    HW128250   2.273   3.904   8.671  0.0155 -1.0969  0.4293
 5538SOL    HW228251   2.246   3.895   8.821  0.1727  0.4614  1.1900
 5539SOL     OW28252   3.900   4.128   4.888  0.0730 -0.5974  0.1974
 5539SOL    HW128253   3.822   4.083   4.920 -0.0425 -0.2443  0.4123
 5539SOL    HW228254   3.957   4.057   4.857  2.8571  1.1079  1.4143
 5540SOL     OW28255   1.317   1.526  10.515 -0.3743  0.1896  0.4611
 5540SOL    HW128256   1.327   1.444  10.563  1.6667 -0.9619 -1.9366
 5540SOL    HW228257   1.294   1.494  10.428  1.0377  0.9472 -0.1868
 5541SOL     OW28258   1.098   2.236   6.232  0.1876  0.2657  0.0434
 5541SOL    HW128259   1.123   2.144   6.239  1.6516  0.7323  1.1838
 5541SOL    HW228260   1.188   2.270   6.241  0.2778  0.0731 -0.1369
 5542SOL     OW28261   0.099   3.611  17.029  0.1781 -0.2441  0.0255
 5542SOL    HW128262   0.122   3.540  16.970 -1.9842 -1.8153  1.0677
 5542SOL    HW228263   0.170   3.675  17.028  0.8937 -1.0507 -0.1306
 5543SOL     OW28264   4.266   1.058   4.166  0.4081  0.1258  0.0369
 5543SOL    HW128265   4.214   0.978   4.175 -0.3818  0.4941 -1.2033
 5543SOL    HW228266   4.204   1.121   4.129 -2.0238 -1.2238  1.7531
 5544SOL     OW28267   4.050   0.600   5.573 -0.1322 -0.0641  0.6172
 5544SOL    HW128268   4.052   0.694   5.593  1.3099  0.3987 -1.7035
 5544SOL    HW228269   3.957   0.594   5.595 -0.5731  0.1383 -1.2432
 5545SOL     OW28270   0.387   4.636   4.399  0.3245 -0.8928 -0.2706
 5545SOL    HW128271   0.469   4.669   4.437  0.9838 -3.1104  0.2249
 5545SOL    HW228272   0.421   4.548   4.385 -1.2131 -1.4818 -0.3191
 5546SOL     OW28273   4.300   0.351   4.007 -0.0504  0.2423  0.3578
 5546SOL    HW128274   4.312   0.269   3.959 -1.0160  0.9095 -1.0072
 5546SOL    HW228275   4.327   0.319   4.094  1.1112 -2.0236 -0.8397
 5547SOL     OW28276   4.468   2.164   4.793 -0.1117  0.7340  1.0297
 5547SOL    HW128277   4.441   2.076   4.765  2.3743  0.0532  0.7604
 5547SOL    HW228278   4.390   2.206   4.830 -1.1993 -1.5049  1.3398
 5548SOL     OW28279   4.713   1.650   2.144 -0.0197  0.1686  1.0003
 5548SOL    HW128280   4.677   1.575   2.097  0.8840 -0.8201  1.9196
 5548SOL    HW228281   0.052   1.657   2.087 -0.6248 -0.4343  0.1104
 5549SOL     OW28282   2.992   4.616   2.350 -0.4092  0.1330  0.5517
 5549SOL    HW128283   2.979   4.537   2.297 -0.8353  0.6764 -0.1502
 5549SOL    HW228284   2.952   4.691   2.308  0.3594  0.2311 -0.0038
 5550SOL     OW28285   0.622   2.285   5.595 -0.0532 -0.4625  0.4078
 5550SOL    HW128286   0.612   2.272   5.689 -0.3951 -0.2401  0.4035
 5550SOL    HW228287   0.677   2.363   5.594 -0.0742 -0.4576 -0.3118
 5551SOL     OW28288   1.865   1.006   4.889 -0.4828  0.0902  0.0957
 5551SOL    HW128289   1.793   1.067   4.899 -1.4598 -1.1098  0.3594
 5551SOL    HW228290   1.831   0.928   4.933  0.9714 -0.4057  0.3673
 5552SOL     OW28291   3.842   2.492   2.754 -0.0856 -0.0155  0.6837
 5552SOL    HW128292   3.936   2.480   2.742 -0.3179  1.5107 -2.7480
 5552SOL    HW228293   3.842   2.542   2.835 -0.2295  0.6059  0.2983
 5553SOL     OW28294   0.567   4.100   3.349  0.3545  0.1545 -0.2180
 5553SOL    HW128295   0.536   4.157   3.420 -0.8061 -0.6097 -0.1188
 5553SOL    HW228296   0.486   4.052   3.331  0.8023 -1.1625  1.2691
 5554SOL     OW28297   2.405   4.530   7.221  0.2348 -0.1729  0.2205
 5554SOL    HW128298   2.500   4.520   7.226  0.0892 -0.8447  1.4094
 5554SOL    HW228299   2.387   4.452   7.169  0.1809 -0.6682  0.9900
 5555SOL     OW28300   1.636   3.587   7.665  0.0373  0.2716  0.1513
 5555SOL    HW128301   1.563   3.525   7.674 -0.0088  0.5174  1.3632
 5555SOL    HW228302   1.660   3.570   7.573 -0.0307  1.7062 -0.1258
 5556SOL     OW28303   2.697   1.456   0.825 -0.1759  0.4951 -0.0516
 5556SOL    HW128304   2.767   1.504   0.781 -1.0669  0.5543 -1.4133
 5556SOL    HW228305   2.643   1.434   0.748  1.4613 -1.8285 -0.5376
 5557SOL     OW28306   0.399   2.018   8.832  0.3780  0.2666  0.1905
 5557SOL    HW128307   0.357   2.063   8.759  1.0742  2.0507  0.8913
 5557SOL    HW228308   0.481   2.033   8.786  0.7532 -1.0953  0.4363
 5558SOL     OW28309   0.543   4.172   3.972  0.3127 -0.0892 -0.2270
 5558SOL    HW128310   0.574   4.262   3.961 -0.0426  0.0889  0.1914
 5558SOL    HW228311   0.502   4.177   4.058 -0.5584 -0.3088 -0.6239
 5559SOL     OW28312   2.985   1.535  10.390  0.3060 -0.4779  0.2384
 5559SOL    HW128313   2.970   1.447  10.355  0.2806 -0.3685 -0.0209
 5559SOL    HW228314   2.958   1.594  10.321 -1.2334 -0.4847  0.8337
 5560SOL     OW28315   0.022   2.965  10.055  0.1289  0.2081  0.3512
 5560SOL    HW128316   4.728   2.996  10.141  0.7636 -3.1868  1.8001
 5560SOL    HW228317   0.084   2.895  10.076 -1.0096 -1.7418 -2.8889
 5561SOL     OW28318   3.331   3.420   6.059  0.5672 -0.0229  0.3759
 5561SOL    HW128319   3.334   3.415   6.154  1.9659 -1.2857  0.2541
 5561SOL    HW228320   3.371   3.338   6.032 -0.2953 -0.5609  0.7343
 5562SOL     OW28321   3.828   1.702  11.553 -0.4010  0.0114  0.1087
 5562SOL    HW128322   3.854   1.616  11.585  1.5918  0.5998  0.0454
 5562SOL    HW228323   3.762   1.721  11.620 -0.7390 -2.6205  0.5465
 5563SOL     OW28324   3.437   1.285   8.328  0.1554 -0.2292 -0.2781
 5563SOL    HW128325   3.414   1.251   8.414 -0.8718  0.3390 -0.3281
 5563SOL    HW228326   3.521   1.329   8.345  0.3828 -0.1933 -1.5108
 5564SOL     OW28327   1.809   4.094   2.625 -0.2428 -0.0272 -0.2081
 5564SOL    HW128328   1.731   4.082   2.679  0.0806  1.2833  0.5612
 5564SOL    HW228329   1.813   4.187   2.605  1.0307 -0.5999 -2.5975
 5565SOL     OW28330   1.887   0.745   9.471 -0.3493  0.2575 -0.6253
 5565SOL    HW128331   1.877   0.834   9.506 -1.0243 -1.0626  2.5425
 5565SOL    HW228332   1.798   0.710   9.475  0.5611 -2.1827 -1.9701
 5566SOL     OW28333   4.062   0.134   2.071  0.1559 -0.9440 -0.3334
 5566SOL    HW128334   4.018   0.054   2.100 -0.2645 -0.0286  1.5793
 5566SOL    HW228335   4.000   0.165   2.004 -0.7773 -0.0473  0.9398
 5567SOL     OW28336   4.670   0.536   9.665  0.2121 -0.0908  0.2040
 5567SOL    HW128337   4.690   0.520   9.757  2.2040  2.4001  0.2012
 5567SOL    HW228338   4.709   0.621   9.646 -1.4267  0.7435  0.5782
 5568SOL     OW28339   4.096   2.461   6.101 -0.2449  0.1547 -0.4764
 5568SOL    HW128340   4.045   2.449   6.181  1.4440 -1.2999  0.3780
 5568SOL    HW228341   4.126   2.371   6.091  0.6979  0.5374 -1.0776
 5569SOL     OW28342   2.249   3.782   7.650  0.3965 -0.1010  0.4361
 5569SOL    HW128343   2.159   3.803   7.673  1.1298  1.5487  1.8433
 5569SOL    HW228344   2.251   3.687   7.658 -1.9402 -0.0908  1.0887
 5570SOL     OW28345   1.608   0.841   9.689 -0.0920  0.3547 -0.2424
 5570SOL    HW128346   1.551   0.860   9.764 -1.0199  1.2257 -1.1595
 5570SOL    HW228347   1.549   0.785   9.638  0.1785  0.5039 -0.7138
 5571SOL     OW28348   0.241   4.670   1.110 -0.2474 -0.8905 -0.0702
 5571SOL    HW128349   0.160   4.622   1.124 -0.6717  0.0017  0.5484
 5571SOL    HW228350   0.203   4.736   1.051  1.7366 -0.1637 -0.5326
 5572SOL     OW28351   2.926   3.494   9.800  0.3266 -0.3712  0.0649
 5572SOL    HW128352   2.932   3.429   9.729  0.1806 -0.0207 -0.2662
 5572SOL    HW228353   2.838   3.531   9.789 -0.1650 -1.2440  1.0984
 5573SOL     OW28354   0.176   0.307   8.301  0.2565 -0.3000 -0.1885
 5573SOL    HW128355   0.124   0.229   8.321 -0.2049 -0.1142 -0.6630
 5573SOL    HW228356   0.133   0.382   8.342  0.5382  0.1724 -0.7418
 5574SOL     OW28357   1.031   3.855   8.954  0.1604  0.1403  0.3774
 5574SOL    HW128358   0.986   3.875   8.872 -1.4958  1.3105  1.5704
 5574SOL    HW228359   1.029   3.760   8.954  1.9225  0.0916  0.2551
 5575SOL     OW28360   3.087   2.150   8.900  0.3795 -0.2656 -0.1918
 5575SOL    HW128361   3.080   2.222   8.963 -0.3942  0.1683 -0.7745
 5575SOL    HW228362   3.028   2.184   8.833 -1.4549  1.0409  2.0765
 5576SOL     OW28363   3.766   2.770   0.317  0.7932  0.4875  0.2532
 5576SOL    HW128364   3.694   2.712   0.344  2.5147 -1.9615 -0.4333
 5576SOL    HW228365   3.744   2.771   0.224  0.5303  3.4570  0.3636
 5577SOL     OW28366   0.584   1.107   5.588 -0.0226  0.3135 -0.3714
 5577SOL    HW128367   0.519   1.106   5.658 -2.7454 -0.7428 -2.9462
 5577SOL    HW228368   0.667   1.110   5.635 -0.9790 -0.0621  1.3203
 5578SOL     OW28369   1.215   0.141  17.220 -0.5498 -0.2908 -0.4271
 5578SOL    HW128370   1.182   0.184  17.299  0.0508 -2.2490  0.9199
 5578SOL    HW228371   1.252   0.216  17.173  0.4070 -0.0820  0.6342
 5579SOL     OW28372   2.512   1.151   9.238 -0.2139  0.2516  0.4648
 5579SOL    HW128373   2.435   1.118   9.192 -0.7939  2.7107 -0.3737
 5579SOL    HW228374   2.552   1.079   9.286 -1.5592 -0.4422  0.5574
 5580SOL     OW28375   4.211   4.198  15.965  0.0116 -0.4020  0.2404
 5580SOL    HW128376   4.135   4.200  15.906 -1.0297  2.5661  1.6832
 5580SOL    HW228377   4.156   4.174  16.040  1.4641  1.6589  1.9752
 5581SOL     OW28378   2.270   4.008  11.217  0.2251 -0.0344 -0.4456
 5581SOL    HW128379   2.191   4.028  11.167 -2.2886 -1.9087  2.7847
 5581SOL    HW228380   2.245   3.949  11.288 -2.3420  2.2396  0.5200
 5582SOL     OW28381   3.411   3.202   1.978  0.4052 -0.7489  0.0464
 5582SOL    HW128382   3.434   3.276   1.922 -0.8377 -0.4164 -0.0288
 5582SOL    HW228383   3.318   3.219   1.993  0.3028 -0.6539 -0.7062
 5583SOL     OW28384   2.271   3.001   9.667 -0.5271 -0.5307 -0.1212
 5583SOL    HW128385   2.182   2.984   9.697 -0.5039  2.7803  1.8233
 5583SOL    HW228386   2.262   3.045   9.582  3.4221 -0.8865 -0.7426
 5584SOL     OW28387   4.650   1.091   6.419  0.0982 -0.3745  0.2405
 5584SOL    HW128388   4.613   1.021   6.364  2.0964  1.1170 -3.0177
 5584SOL    HW228389   4.703   1.139   6.355  3.4994 -1.6398  2.1167
 5585SOL     OW28390   3.935   1.697   8.143  0.2093 -0.1040  0.8740
 5585SOL    HW128391   4.009   1.639   8.123 -1.6357 -0.9583 -3.6735
 5585SOL    HW228392   3.984   1.779   8.144 -0.2690  0.2274 -1.0661
 5586SOL     OW28393   4.073   0.125  14.769 -0.7527  0.3697  0.3490
 5586SOL    HW128394   4.162   0.103  14.797 -0.7133  0.0473 -0.0222
 5586SOL    HW228395   4.095   0.216  14.750 -2.5696  1.1589  2.0386
 5587SOL     OW28396   1.884   1.290  13.656 -0.3145  0.0768 -0.2514
 5587SOL    HW128397   1.907   1.263  13.567 -2.6391  0.8005 -1.0726
 5587SOL    HW228398   1.863   1.383  13.647  0.2751  0.1872 -0.4884
 5588SOL     OW28399   3.988   0.164  11.999  0.1717  0.7164 -0.0645
 5588SOL    HW128400   4.043   0.116  12.061  0.0289  0.7402  0.0823
 5588SOL    HW228401   4.001   0.249  12.042 -1.0364  0.7616  0.2081
 5589SOL     OW28402   0.160   1.433   2.857 -0.1417  0.7402  0.1087
 5589SOL    HW128403   0.238   1.382   2.875 -0.8291 -1.0349 -2.0814
 5589SOL    HW228404   0.194   1.520   2.836  0.4787  0.2405 -0.9370
 5590SOL     OW28405   2.658   0.651   1.883 -0.0061  0.2193 -0.6456
 5590SOL    HW128406   2.746   0.676   1.910 -0.0061 -0.0379 -0.4065
 5590SOL    HW228407   2.601   0.672   1.957  0.1474 -0.5061 -0.3245
 5591SOL     OW28408   2.753   1.325   2.462 -0.2801  0.0732 -0.4154
 5591SOL    HW128409   2.729   1.413   2.491  1.2247  1.1437 -2.3680
 5591SOL    HW228410   2.709   1.312   2.378 -1.0342  1.0620 -0.1727
 5592SOL     OW28411   3.328   4.451  14.993  0.4325 -0.3486 -0.6271
 5592SOL    HW128412   3.404   4.508  14.981  1.0586 -1.4810 -2.0651
 5592SOL    HW228413   3.303   4.470  15.084 -1.0776  0.4310 -1.2195
 5593SOL     OW28414   2.807   0.168   6.838 -0.0286 -0.3114  0.3186
 5593SOL    HW128415   2.818   0.112   6.915 -2.9855 -0.7238  0.4380
 5593SOL    HW228416   2.894   0.178   6.798  0.1295  0.0966  0.7689
 5594SOL     OW28417   0.049   0.547   8.087 -0.4449  0.0559 -0.4089
 5594SOL    HW128418   0.016   0.637   8.095 -0.1887  0.1082  0.0958
 5594SOL    HW228419   0.028   0.519   8.176 -0.2184  0.1073 -0.3385
 5595SOL     OW28420   3.660   2.963  15.433 -0.3457  0.4686 -0.2425
 5595SOL    HW128421   3.725   2.911  15.385 -0.6558  0.4547 -0.6497
 5595SOL    HW228422   3.719   3.027  15.473  0.5873  0.8186 -2.1335
 5596SOL     OW28423   2.791   3.966  13.212 -0.3205  0.0205 -0.2100
 5596SOL    HW128424   2.784   3.874  13.188  2.2021 -0.3185  0.3339
 5596SOL    HW228425   2.832   3.995  13.130  0.5589 -1.8530 -0.4408
 5597SOL     OW28426   2.395   4.599   9.854 -0.2622 -0.4455  0.1289
 5597SOL    HW128427   2.462   4.640   9.909 -0.6201 -2.4500  2.0729
 5597SOL    HW228428   2.334   4.671   9.837  1.1832  0.0810 -2.8209
 5598SOL     OW28429   4.574   3.446   2.387  0.1734 -0.1054  0.1124
 5598SOL    HW128430   4.630   3.371   2.407 -0.9651 -0.3826  2.1463
 5598SOL    HW228431   4.595   3.462   2.295 -0.2228  0.0231  0.0447
 5599SOL     OW28432   0.152   2.079   3.453 -0.0062  0.6527 -0.8608
 5599SOL    HW128433   0.119   1.989   3.441  3.0637 -0.5596 -0.0421
 5599SOL    HW228434   0.230   2.066   3.507 -0.1497 -0.6331 -0.9565
 5600SOL     OW28435   1.226   2.367   5.140 -0.3784 -0.0879 -0.5227
 5600SOL    HW128436   1.307   2.375   5.090 -1.1006  0.5513 -1.5876
 5600SOL    HW228437   1.164   2.431   5.106 -0.9565 -1.5428 -2.2328
 5601SOL     OW28438   1.712   2.227   9.598  0.2116 -0.0803 -0.1211
 5601SOL    HW128439   1.621   2.214   9.572  0.4904 -1.1585 -0.5601
 5601SOL    HW228440   1.756   2.283   9.534  1.8260 -0.5342  0.5682
 5602SOL     OW28441   4.213   1.690   1.519  0.1228  0.2246 -0.5413
 5602SOL    HW128442   4.169   1.768   1.552 -0.0489 -0.7162  1.4401
 5602SOL    HW228443   4.158   1.627   1.566 -0.3525 -0.0688 -1.4905
 5603SOL     OW28444   0.939   2.908   8.272 -0.1027  0.5363  0.6664
 5603SOL    HW128445   0.855   2.864   8.285  0.0192  0.3909  0.9663
 5603SOL    HW228446   0.920   2.979   8.211  0.0645 -0.0775 -0.1004
 5604SOL     OW28447   1.739   0.256   8.957 -0.3218  0.2283 -0.1134
 5604SOL    HW128448   1.818   0.277   9.007 -1.4452  0.2571  1.6366
 5604SOL    HW228449   1.774   0.208   8.882  0.1398  0.7504 -0.2299
 5605SOL     OW28450   3.887   0.924   2.481  0.2278 -0.5523  0.8016
 5605SOL    HW128451   3.881   1.019   2.491 -1.6810 -0.5682 -0.1783
 5605SOL    HW228452   3.962   0.902   2.537  1.9447  3.3741  0.0892
 5606SOL     OW28453   3.861   0.814   9.278  0.0674 -0.6954 -0.7688
 5606SOL    HW128454   3.856   0.909   9.268  0.6710 -0.5679  0.1070
 5606SOL    HW228455   3.798   0.789   9.346 -0.9614  0.9490 -1.1207
 5607SOL     OW28456   4.222   4.031  13.447 -0.2291 -0.5085 -0.4389
 5607SOL    HW128457   4.281   4.007  13.518 -3.2156  1.3425  2.6353
 5607SOL    HW228458   4.172   3.950  13.438 -2.9279  0.9043  2.1352
 5608SOL     OW28459   0.363   0.735   3.349  0.4604  0.1830  0.3824
 5608SOL    HW128460   0.288   0.727   3.290  1.8286  2.0742 -1.6199
 5608SOL    HW228461   0.332   0.686   3.425 -1.3490  0.3170 -0.2779
 5609SOL     OW28462   3.529   1.087   6.179 -0.5246  0.3259 -0.2386
 5609SOL    HW128463   3.619   1.117   6.166  0.2715 -0.7740  2.5737
 5609SOL    HW228464   3.542   1.025   6.252 -0.4177 -1.7982 -2.0742
 5610SOL     OW28465   3.071   3.496   0.506 -0.5178  0.6291 -0.4751
 5610SOL    HW128466   3.016   3.434   0.554 -0.7152  0.6641 -0.6544
 5610SOL    HW228467   3.031   3.579   0.532 -2.6410 -0.4829 -0.2341
 5611SOL     OW28468   1.814   2.207   8.720  0.6651  0.2082  0.2392
 5611SOL    HW128469   1.824   2.118   8.755  1.7830  0.1052 -0.3477
 5611SOL    HW228470   1.898   2.248   8.742  1.9026 -2.1174 -0.1565
 5612SOL     OW28471   2.630   1.235   4.709  0.1943  0.1997  0.1598
 5612SOL    HW128472   2.670   1.151   4.684  0.0924  0.2283 -0.0926
 5612SOL    HW228473   2.705   1.294   4.715  0.7231 -0.1885 -2.6512
 5613SOL     OW28474   3.138   3.394   3.903  0.0398  0.4333 -0.0169
 5613SOL    HW128475   3.052   3.427   3.878 -0.1184  0.2354  0.2665
 5613SOL    HW228476   3.136   3.407   3.998 -1.1217 -1.5381  0.2305
 5614SOL     OW28477   3.373   1.987   2.799 -0.0051  0.2029  0.6216
 5614SOL    HW128478   3.464   2.011   2.816  0.2921 -0.3415 -0.2175
 5614SOL    HW228479   3.361   1.913   2.860  0.3047  0.5077  1.0515
 5615SOL     OW28480   1.839   2.393  12.674  0.8240 -0.1313 -0.5295
 5615SOL    HW128481   1.777   2.460  12.702 -0.4259 -1.1800 -0.7647
 5615SOL    HW228482   1.785   2.318  12.650  1.2579  0.1004 -2.2406
 5616SOL     OW28483   2.669   1.594  13.712  0.1875  0.0786 -0.1840
 5616SOL    HW128484   2.675   1.535  13.636 -1.6151 -0.8209  0.3809
 5616SOL    HW228485   2.585   1.575  13.753  0.6638 -2.4719 -0.3490
 5617SOL     OW28486   0.837   0.573   9.363 -0.4539  0.7623 -0.1775
 5617SOL    HW128487   0.776   0.545   9.430  1.4090  0.4155  1.3594
 5617SOL    HW228488   0.838   0.494   9.309  1.7942  2.8159 -3.1485
 5618SOL     OW28489   1.567   3.554  12.777 -0.7796 -0.3454 -0.2592
 5618SOL    HW128490   1.474   3.570  12.793 -0.6110  2.1119 -1.5988
 5618SOL    HW228491   1.604   3.625  12.829 -1.7164  0.9023 -1.2793
 5619SOL     OW28492   0.351   0.713   8.394 -0.5483  0.1725  0.4036
 5619SOL    HW128493   0.388   0.725   8.482 -0.9126  1.9507  0.3004
 5619SOL    HW228494   0.307   0.629   8.407 -1.7825  0.3861 -2.4615
 5620SOL     OW28495   1.108   1.301   2.086  0.1395  0.4651 -0.2304
 5620SOL    HW128496   1.057   1.338   2.014  0.5072  0.9371 -0.2444
 5620SOL    HW228497   1.133   1.217   2.046 -1.0955  1.0187 -2.1525
 5621SOL     OW28498   1.140   0.188   7.964 -0.7930 -0.0729 -0.2587
 5621SOL    HW128499   1.208   0.122   7.978  0.3086  0.8400 -1.3000
 5621SOL    HW228500   1.064   0.142   7.999 -0.3405 -1.0432 -0.5554
 5622SOL     OW28501   2.654   2.549  11.391 -0.3060 -0.3000  0.1630
 5622SOL    HW128502   2.612   2.586  11.469  0.5419 -0.8995  0.9026
 5622SOL    HW228503   2.718   2.492  11.433  0.4378  0.1263 -0.3925
 5623SOL     OW28504   4.626   0.389  15.716 -0.0262  0.1305 -0.2534
 5623SOL    HW128505   4.625   0.335  15.795 -0.7457 -0.0148 -0.3687
 5623SOL    HW228506   4.564   0.453  15.751 -1.3433  0.5096 -3.3261
 5624SOL     OW28507   3.727   1.219   4.240  0.1624 -0.6363 -0.4887
 5624SOL    HW128508   3.685   1.256   4.162  0.0594 -1.3893 -0.7820
 5624SOL    HW228509   3.788   1.156   4.204  1.4872  1.2152 -1.5139
 5625SOL     OW28510   3.137   4.319  15.679 -0.0737 -0.0816  0.2457
 5625SOL    HW128511   3.074   4.312  15.606 -0.4667 -0.8139  0.6540
 5625SOL    HW228512   3.082   4.271  15.741  0.5298 -0.0630  0.7846
 5626SOL     OW28513   2.707   1.261  15.650 -0.3355 -0.6174  0.0833
 5626SOL    HW128514   2.633   1.279  15.591  0.5056  2.7455  0.1076
 5626SOL    HW228515   2.772   1.221  15.591 -0.7466 -0.7027 -0.3190
 5627SOL     OW28516   3.394   0.950   7.140  0.5696 -0.1720  0.4068
 5627SOL    HW128517   3.443   0.872   7.115  0.5090 -0.7220  1.9641
 5627SOL    HW228518   3.422   0.958   7.232  2.2673  0.6558 -0.1825
 5628SOL     OW28519   3.178   3.003   7.702 -0.7048  0.5299  0.4831
 5628SOL    HW128520   3.203   3.085   7.659  1.8131 -0.1503  0.6537
 5628SOL    HW228521   3.093   3.024   7.740 -1.6635 -1.2787 -0.6779
 5629SOL     OW28522   3.090   4.590   8.642  0.3882  0.3658  0.0989
 5629SOL    HW128523   3.118   4.674   8.607 -0.7728  0.3122 -0.9779
 5629SOL    HW228524   3.078   4.533   8.566 -1.1784 -0.9838  1.3294
 5630SOL     OW28525   4.495   1.848   3.634  0.0926 -0.1799 -0.0963
 5630SOL    HW128526   4.509   1.836   3.540 -1.3821 -2.3953 -0.0481
 5630SOL    HW228527   4.490   1.761   3.671 -1.1557  0.0547  0.2977
 5631SOL     OW28528   0.874   1.911   0.025 -0.0442 -0.0919 -0.4506
 5631SOL    HW128529   0.803   1.942  17.716 -1.0428  0.7161  1.2872
 5631SOL    HW228530   0.929   1.859  17.713 -0.6377 -1.0935 -0.1189
 5632SOL     OW28531   2.278   1.887  16.778  0.6610 -0.7146  0.0109
 5632SOL    HW128532   2.236   1.964  16.738 -0.5804  0.4102  3.4300
 5632SOL    HW228533   2.316   1.927  16.856  0.5804 -0.6293  0.0067
 5633SOL     OW28534   2.573   3.355   3.034 -0.1628 -0.2593 -0.4522
 5633SOL    HW128535   2.667   3.351   3.049 -0.5021 -0.0847  1.6791
 5633SOL    HW228536   2.561   3.446   3.061 -1.1003 -1.1216  2.0948
 5634SOL     OW28537   4.204   3.948  16.416 -0.4732  0.5185  0.1961
 5634SOL    HW128538   4.143   3.981  16.349 -1.1281 -3.2982 -1.0742
 5634SOL    HW228539   4.217   4.012  16.486  0.4695  0.8612 -0.3034
 5635SOL     OW28540   1.826   0.168  12.193  0.1348  0.0538  0.2633
 5635SOL    HW128541   1.831   0.075  12.172  0.7081 -0.0060  0.6547
 5635SOL    HW228542   1.852   0.211  12.112  0.4789 -0.1189  0.2823
 5636SOL     OW28543   3.820   4.587   5.894  0.1038  0.1012 -0.4001
 5636SOL    HW128544   3.756   4.633   5.839  0.2569 -0.1886 -0.8263
 5636SOL    HW228545   3.898   4.592   5.838  0.2177 -1.4815 -0.3934
 5637SOL     OW28546   3.802   0.204   9.520  0.8974  0.2348  0.2634
 5637SOL    HW128547   3.711   0.174   9.512  1.1301 -0.0529 -1.5081
 5637SOL    HW228548   3.844   0.126   9.483  0.5010  0.7822 -1.3514
 5638SOL     OW28549   4.049   1.724   4.020  0.2643 -0.5015  0.0959
 5638SOL    HW128550   4.116   1.753   4.081 -0.6929  1.9013  0.0187
 5638SOL    HW228551   4.094   1.706   3.937  0.2592 -1.6811  0.3594
 5639SOL     OW28552   3.026   1.541  15.817  0.3818 -0.0751 -0.0490
 5639SOL    HW128553   3.043   1.635  15.822  0.0799 -0.0218  0.0120
 5639SOL    HW228554   2.946   1.525  15.868  0.2807 -1.3262 -0.5929
 5640SOL     OW28555   3.901   1.299   1.945 -0.1838 -0.0877 -0.7828
 5640SOL    HW128556   3.935   1.213   1.919  0.3201 -0.1502  0.0688
 5640SOL    HW228557   3.818   1.310   1.900  0.6037  2.6664 -1.5674
 5641SOL     OW28558   2.383   3.799   5.415 -0.1026  0.1110  0.2914
 5641SOL    HW128559   2.310   3.774   5.358  0.6480 -1.6241  0.0942
 5641SOL    HW228560   2.443   3.727   5.396  1.7602  1.5547  0.8456
 5642SOL     OW28561   3.120   1.137  16.344  0.1735 -0.1702  0.3204
 5642SOL    HW128562   3.105   1.182  16.261  0.6005 -1.1652 -0.3061
 5642SOL    HW228563   3.116   1.050  16.303  2.1105  0.3789 -1.0164
 5643SOL     OW28564   3.221   1.975  15.186  0.1919  0.0815  0.3728
 5643SOL    HW128565   3.228   1.914  15.113 -1.3740 -1.5867  1.6059
 5643SOL    HW228566   3.170   2.048  15.152 -1.1421 -0.9073  0.2004
 5644SOL     OW28567   0.257   1.890   3.737 -0.2470  0.6780 -0.7209
 5644SOL    HW128568   0.297   1.951   3.798 -0.2951  1.0764 -1.0922
 5644SOL    HW228569   0.164   1.904   3.756 -0.4064  0.6491 -1.4885
 5645SOL     OW28570   0.617   2.980   9.038  0.4242 -0.7355  0.6233
 5645SOL    HW128571   0.626   2.885   9.038  0.6834 -0.7209  2.1297
 5645SOL    HW228572   0.702   3.014   9.010 -1.0983  4.0419  1.8273
 5646SOL     OW28573   4.144   1.635   0.231 -0.2038 -0.2602 -0.1627
 5646SOL    HW128574   4.114   1.556   0.276  4.8417 -2.6750 -1.0418
 5646SOL    HW228575   4.205   1.668   0.297 -0.6435 -0.5698  0.3940
 5647SOL     OW28576   4.406   3.745   3.357  0.0903 -0.1509  0.5206
 5647SOL    HW128577   4.483   3.727   3.411 -1.3823  2.1329  3.4077
 5647SOL    HW228578   4.347   3.678   3.392  0.0778  0.6671  2.0592
 5648SOL     OW28579   3.677   2.886   5.190  0.2340 -0.1648 -0.5012
 5648SOL    HW128580   3.585   2.913   5.193  0.2252 -0.2635  0.1715
 5648SOL    HW228581   3.705   2.924   5.107  1.8468  0.4381  0.3291
 5649SOL     OW28582   0.433   0.373   4.825 -0.0833  0.5143  0.4288
 5649SOL    HW128583   0.429   0.380   4.730  0.6781 -1.5253  0.2541
 5649SOL    HW228584   0.419   0.279   4.835 -0.2148  0.7044  2.0504
 5650SOL     OW28585   1.427   0.979   3.959  0.0136  0.1484  0.0730
 5650SOL    HW128586   1.366   1.014   3.895 -0.4202  1.4373  1.1834
 5650SOL    HW228587   1.375   1.006   4.035 -0.1704  0.3723 -0.1348
 5651SOL     OW28588   0.544   2.945   3.143 -0.3119 -0.3212  0.2399
 5651SOL    HW128589   0.633   2.948   3.107 -1.0069  0.3295 -1.4141
 5651SOL    HW228590   0.487   2.918   3.072  0.3022  2.8913 -1.4467
 5652SOL     OW28591   0.006   4.662   5.206  0.0223 -0.2809 -0.3198
 5652SOL    HW128592   4.698   4.736   5.246  0.5868 -1.1610  1.9367
 5652SOL    HW228593   4.695   4.596   5.255 -0.5361 -0.6853 -1.4070
 5653SOL     OW28594   3.969   3.411   4.046  0.2664 -0.6004 -0.1564
 5653SOL    HW128595   4.004   3.477   4.106 -0.2832 -1.0950  0.7046
 5653SOL    HW228596   4.053   3.389   4.006 -0.4708  0.4982 -2.3670
 5654SOL     OW28597   4.718   4.437   8.886 -0.0944  0.7204 -0.2829
 5654SOL    HW128598   4.687   4.519   8.847  1.8527  1.0769 -1.0486
 5654SOL    HW228599   4.703   4.380   8.811 -1.1335 -2.3160  2.2149
 5655SOL     OW28600   4.690   0.803  10.298  0.4648 -0.0838 -0.7311
 5655SOL    HW128601   0.001   0.769  10.373 -0.9679  0.9743  0.6728
 5655SOL    HW228602   4.620   0.738  10.302 -1.7318  2.3109 -0.0971
 5656SOL     OW28603   0.694   1.927   7.148  0.3093  0.6066  0.3972
 5656SOL    HW128604   0.696   2.014   7.189 -1.0462  1.0548 -0.4891
 5656SOL    HW228605   0.620   1.948   7.090 -0.2972  0.2126  1.0292
 5657SOL     OW28606   4.069   2.616   9.705  0.1297  0.0804 -0.0071
 5657SOL    HW128607   4.106   2.651   9.786  0.0156 -0.4751  0.2855
 5657SOL    HW228608   4.047   2.689   9.647 -0.6055 -1.0439 -1.1255
 5658SOL     OW28609   4.684   0.931   7.782  0.2990  0.5412 -0.2660
 5658SOL    HW128610   4.658   0.849   7.741  2.1023 -0.4423  0.5625
 5658SOL    HW228611   0.043   0.927   7.774  0.4303 -3.0845  3.4604
 5659SOL     OW28612   2.968   0.461   4.002  0.0465  0.3632  0.4799
 5659SOL    HW128613   3.003   0.425   4.084  2.4370  1.8186  0.0907
 5659SOL    HW228614   2.904   0.528   4.027 -0.7503  0.7163 -2.5740
 5660SOL     OW28615   0.882   3.713   6.444 -0.3344  0.1118 -0.3226
 5660SOL    HW128616   0.821   3.727   6.372 -1.0197 -0.1680  0.2061
 5660SOL    HW228617   0.958   3.760   6.412 -0.7579  2.0575  1.5782
 5661SOL     OW28618   3.879   2.293  15.870  0.3356 -0.0099  0.2674
 5661SOL    HW128619   3.923   2.335  15.943  0.4581 -0.1793  0.2920
 5661SOL    HW228620   3.796   2.263  15.906 -0.1302  0.3037 -0.5506
 5662SOL     OW28621   4.624   1.730   4.565 -0.2765  0.4700  0.4308
 5662SOL    HW128622   4.564   1.668   4.524 -1.3432  1.0573  1.1194
 5662SOL    HW228623   4.658   1.666   4.627  0.3441  2.6237  2.2949
 5663SOL     OW28624   1.315   0.239   3.970  0.2468  0.4005 -0.0014
 5663SOL    HW128625   1.219   0.247   3.962  0.1539  0.8390  1.5394
 5663SOL    HW228626   1.346   0.329   3.961 -0.2379  0.7304  1.5580
 5664SOL     OW28627   2.033   3.718   0.893  0.1153 -0.0402 -0.1564
 5664SOL    HW128628   2.051   3.811   0.910 -1.0578  0.3316 -0.9736
 5664SOL    HW228629   2.027   3.729   0.798  0.3005  0.9664 -0.0543
 5665SOL     OW28630   3.802   2.946   8.921 -0.1402 -0.1959  0.4630
 5665SOL    HW128631   3.786   2.950   8.826  0.6157 -0.9965  0.2933
 5665SOL    HW228632   3.897   2.930   8.927  0.1195  1.2624  0.3303
 5666SOL     OW28633   3.441   3.578   8.824 -0.4671 -0.4223 -0.5132
 5666SOL    HW128634   3.503   3.512   8.792  1.4796  1.2947 -0.2895
 5666SOL    HW228635   3.424   3.630   8.745  1.6204  0.0377 -0.6452
 5667SOL     OW28636   2.923   4.307   7.130 -0.7720 -0.1056  0.1088
 5667SOL    HW128637   2.979   4.297   7.053  1.8198  1.5630  1.8173
 5667SOL    HW228638   2.973   4.370   7.182  0.6108  0.3443 -1.7956
 5668SOL     OW28639   4.414   2.752   8.832  0.0842  0.0102  0.3690
 5668SOL    HW128640   4.431   2.658   8.827 -1.3926 -0.3524  2.2848
 5668SOL    HW228641   4.324   2.754   8.864 -0.3854 -0.2912 -0.9174
 5669SOL     OW28642   1.341   4.486   3.909  0.2933  0.0634  0.2384
 5669SOL    HW128643   1.426   4.459   3.874 -0.0660  1.5091 -1.7510
 5669SOL    HW228644   1.372   4.567   3.950 -0.4814  0.4085  0.1357
 5670SOL     OW28645   0.029   3.785   6.768  0.4575  0.4952  0.3391
 5670SOL    HW128646   0.037   3.744   6.682  0.3546  1.3851 -0.0956
 5670SOL    HW228647   4.681   3.828   6.767  0.5913  0.7292 -0.8699
 5671SOL     OW28648   4.148   1.107  13.064  0.3469 -0.0951  0.0905
 5671SOL    HW128649   4.068   1.123  13.114 -0.2499  1.6197 -1.4353
 5671SOL    HW228650   4.216   1.140  13.123  0.3464 -0.0266  0.0521
 5672SOL     OW28651   1.152   1.296   4.956 -0.4871 -0.1338 -0.2550
 5672SOL    HW128652   1.115   1.295   5.044 -1.5595  0.9671 -0.6870
 5672SOL    HW228653   1.101   1.362   4.909  0.4733  0.9820  0.2970
 5673SOL     OW28654   3.500   2.299   2.860 -0.4292 -0.0445 -0.2254
 5673SOL    HW128655   3.554   2.290   2.782  1.2681  1.7872  0.7126
 5673SOL    HW228656   3.550   2.254   2.928 -1.2928 -0.9235 -0.1839
 5674SOL     OW28657   0.624   1.796   6.414  0.3610 -0.1104  0.6275
 5674SOL    HW128658   0.536   1.832   6.401 -0.1353 -0.9412  1.6402
 5674SOL    HW228659   0.663   1.871   6.459 -0.1798  0.2029  0.5668
 5675SOL     OW28660   1.298   3.129   7.046  0.2994 -0.1191  0.0169
 5675SOL    HW128661   1.393   3.117   7.054  0.2206 -0.9538 -0.2264
 5675SOL    HW228662   1.284   3.076   6.967  1.9966 -0.7972  0.1693
 5676SOL     OW28663   3.861   3.694   6.119  0.1420 -0.2634 -0.8435
 5676SOL    HW128664   3.929   3.704   6.187  0.8449  1.4731 -1.7920
 5676SOL    HW228665   3.907   3.737   6.047  3.6065 -0.2330  1.3764
 5677SOL     OW28666   3.272   0.392  12.100  0.6290  0.3152  0.0965
 5677SOL    HW128667   3.207   0.388  12.170  1.0727  0.3834  0.5132
 5677SOL    HW228668   3.308   0.306  12.079  0.2153 -0.6332  3.2186
 5678SOL     OW28669   3.010   0.363   3.113 -0.0379 -0.1456  0.3756
 5678SOL    HW128670   2.936   0.365   3.174  1.1938 -0.3312  1.8691
 5678SOL    HW228671   3.043   0.452   3.119  2.4202 -1.1223  1.2048
 5679SOL     OW28672   0.056   3.257   9.426 -0.6148 -0.4919  0.3480
 5679SOL    HW128673   0.045   3.347   9.395  1.0105 -0.3726  0.1464
 5679SOL    HW228674   0.149   3.235   9.428 -0.7264 -0.9996  0.0767
 5680SOL     OW28675   4.674   0.345  16.318 -0.1170 -0.2971  0.1818
 5680SOL    HW128676   4.668   0.400  16.397 -0.7624  1.4183 -1.0526
 5680SOL    HW228677   0.001   0.397  16.269  0.3882  0.6660  1.8446
 5681SOL     OW28678   3.835   2.981   9.979 -0.7252  0.1774 -0.2505
 5681SOL    HW128679   3.845   2.922  10.054  1.2852  1.0407  0.1284
 5681SOL    HW228680   3.782   2.929   9.918  0.0540 -0.9544  0.0425
 5682SOL     OW28681   0.207   0.514  11.233  0.3497  0.3298  0.2434
 5682SOL    HW128682   0.213   0.529  11.327  1.1877 -2.1986  0.5866
 5682SOL    HW228683   0.212   0.419  11.223  0.7228  0.4225 -0.4702
 5683SOL     OW28684   0.331   0.502   1.920 -0.0285  0.2150 -0.4156
 5683SOL    HW128685   0.245   0.513   1.879 -0.5183 -0.9211  0.3024
 5683SOL    HW228686   0.380   0.582   1.899  1.2356 -0.5281 -0.2635
 5684SOL     OW28687   2.916   2.409  15.718  0.2224 -0.0212 -0.3634
 5684SOL    HW128688   2.883   2.323  15.746 -0.8352  1.0123  1.5440
 5684SOL    HW228689   2.840   2.460  15.744  1.0233  1.1824 -0.3811
 5685SOL     OW28690   3.685   2.206   3.031 -0.3492  0.2521  0.4708
 5685SOL    HW128691   3.780   2.217   3.023 -0.3502 -1.5909 -1.8562
 5685SOL    HW228692   3.662   2.199   3.124  1.5000  0.6915  0.9634
 5686SOL     OW28693   1.538   1.675   2.132  0.2720  0.2072 -0.1643
 5686SOL    HW128694   1.532   1.771   2.133  1.7025  0.2933  2.2416
 5686SOL    HW228695   1.555   1.658   2.225  1.8050 -2.2013 -0.9051
 5687SOL     OW28696   1.425   3.506   8.217 -0.1732 -0.5285 -0.3660
 5687SOL    HW128697   1.462   3.523   8.304 -1.1310  1.1007 -0.2750
 5687SOL    HW228698   1.375   3.426   8.237  0.1109 -0.5177  0.3906
 5688SOL     OW28699   2.251   4.152  16.924  0.5572 -0.1525 -0.2779
 5688SOL    HW128700   2.346   4.149  16.935  0.4358 -0.8718  0.5567
 5688SOL    HW228701   2.231   4.100  17.002  0.6446 -0.4976 -0.4852
 5689SOL     OW28702   1.911   3.594   2.782  0.4295  0.4279 -0.1707
 5689SOL    HW128703   1.983   3.534   2.799 -2.2958 -2.2403  1.8276
 5689SOL    HW228704   1.952   3.680   2.791  1.4486  0.1916 -2.5569
 5690SOL     OW28705   2.301   2.527   7.136 -0.0767 -0.2329 -0.3375
 5690SOL    HW128706   2.261   2.591   7.195 -1.7826  0.0138 -1.7772
 5690SOL    HW228707   2.330   2.591   7.072  2.1817 -0.4023  0.5193
 5691SOL     OW28708   1.929   1.640   8.037 -0.2162  0.2200  0.3713
 5691SOL    HW128709   1.937   1.637   8.133  0.1213  0.0099  0.3359
 5691SOL    HW228710   1.959   1.728   8.013 -0.8034 -0.2686 -2.1314
 5692SOL     OW28711   3.875   4.273  16.131 -0.5158 -0.7174  0.1003
 5692SOL    HW128712   3.788   4.296  16.164 -0.7657 -0.0382 -1.0304
 5692SOL    HW228713   3.920   4.352  16.160 -0.7066 -0.9680  1.0972
 5693SOL     OW28714   4.393   3.318  17.747 -0.6895  0.1184  0.2334
 5693SOL    HW128715   4.415   3.410   0.006  0.1321 -0.0199 -0.6451
 5693SOL    HW228716   4.376   3.285   0.088 -4.6134  2.2613  0.2630
 5694SOL     OW28717   2.521   2.243   2.377  0.4207 -0.2989  0.0699
 5694SOL    HW128718   2.488   2.261   2.289  2.8997  1.3255 -0.5374
 5694SOL    HW228719   2.454   2.178   2.398 -3.5086  3.7837  0.0917
 5695SOL     OW28720   0.678   1.660  17.622 -0.0724  0.4521  0.3098
 5695SOL    HW128721   0.618   1.598  17.662 -1.4014  1.5611  0.0343
 5695SOL    HW228722   0.755   1.605  17.608 -0.0688  0.3393  0.8006
 5696SOL     OW28723   3.683   2.114   7.963 -0.2828 -0.5140  0.3640
 5696SOL    HW128724   3.695   2.188   8.023  0.9522 -0.7242  0.3686
 5696SOL    HW228725   3.756   2.062   7.997  0.5512  1.2436  1.2851
 5697SOL     OW28726   4.632   4.555   9.465  0.5931  0.5670  0.3982
 5697SOL    HW128727   4.562   4.497   9.437 -0.0119  2.3648 -1.8100
 5697SOL    HW228728   4.581   4.619   9.514 -0.2419  1.2419 -1.3708
 5698SOL     OW28729   1.072   1.219  14.508  0.1466  0.4841 -0.6106
 5698SOL    HW128730   1.101   1.143  14.459 -0.2048  0.0091 -0.0739
 5698SOL    HW228731   1.104   1.200  14.596  0.9232  1.3282 -0.7085
 5699SOL     OW28732   4.098   4.433   6.047 -0.1346 -0.0338 -0.4236
 5699SOL    HW128733   4.108   4.490   5.971  3.2900 -1.5557 -1.1094
 5699SOL    HW228734   4.046   4.364   6.005  0.2672 -0.0181 -0.9466
 5700SOL     OW28735   4.265   2.052   1.048 -0.2852  0.8083  0.1061
 5700SOL    HW128736   4.196   2.005   1.094 -0.2085  0.9856  0.3977
 5700SOL    HW228737   4.266   2.128   1.105 -0.4766  0.7751  0.1527
 5701SOL     OW28738   1.875   3.390   3.023 -0.0437  0.0030  0.5989
 5701SOL    HW128739   1.847   3.478   2.999  0.0763 -0.3595 -0.9164
 5701SOL    HW228740   1.948   3.404   3.083  0.2166 -1.2570  0.5719
 5702SOL     OW28741   0.759   4.528   5.947 -1.0150 -0.2190  0.4164
 5702SOL    HW128742   0.722   4.476   5.876  1.0705 -2.6819  1.1609
 5702SOL    HW228743   0.697   4.599   5.961 -1.5593 -0.7759  0.7883
 5703SOL     OW28744   3.524   0.152  16.681  0.3376  0.2947 -0.0463
 5703SOL    HW128745   3.504   0.072  16.632  0.6267 -0.5798  1.2771
 5703SOL    HW228746   3.449   0.149  16.741  0.7552 -1.9432  0.3330
 5704SOL     OW28747   3.524   0.226   2.431  0.4507  0.0778  0.5931
 5704SOL    HW128748   3.549   0.156   2.371  0.1743 -0.2827  0.9022
 5704SOL    HW228749   3.436   0.191   2.442  0.0560  0.9788  0.2917
 5705SOL     OW28750   2.982   1.920   7.598 -0.0479 -0.2114 -0.1000
 5705SOL    HW128751   3.012   1.897   7.686 -0.1583 -0.9136 -0.2419
 5705SOL    HW228752   3.063   1.964   7.570 -1.0781  2.3935  1.0338
 5706SOL     OW28753   1.785   2.461   3.735  0.0691  0.2065 -0.4520
 5706SOL    HW128754   1.797   2.414   3.818 -1.9420 -0.4515 -0.5312
 5706SOL    HW228755   1.766   2.395   3.668  1.9085  0.5247 -1.2650
 5707SOL     OW28756   0.194   3.278   1.892  0.3972  0.0464 -0.0353
 5707SOL    HW128757   0.246   3.286   1.812 -0.2306 -0.3096 -0.4792
 5707SOL    HW228758   0.111   3.319   1.870  1.1794  2.8715  2.2273
 5708SOL     OW28759   3.359   4.142   2.155  0.1020  0.3200 -0.4542
 5708SOL    HW128760   3.405   4.058   2.166  2.2003  1.2918 -1.8562
 5708SOL    HW228761   3.339   4.178   2.241 -0.9849  1.6583 -1.2685
 5709SOL     OW28762   1.802   0.214   4.256  0.2142 -0.3366 -0.4497
 5709SOL    HW128763   1.721   0.176   4.291  1.5386 -1.2381  1.6393
 5709SOL    HW228764   1.795   0.303   4.292 -2.1212 -0.6972 -0.0172
 5710SOL     OW28765   2.666   2.292   4.738 -0.1919  0.0637  0.3996
 5710SOL    HW128766   2.747   2.323   4.697  0.5124  0.7867  2.3497
 5710SOL    HW228767   2.696   2.303   4.829 -0.1892  1.8338  0.1808
 5711SOL     OW28768   0.778   1.842  17.082 -0.3457 -0.3798 -0.3532
 5711SOL    HW128769   0.834   1.830  17.005 -2.2389  0.7242 -1.8874
 5711SOL    HW228770   0.843   1.840  17.153  0.5050  1.2599 -1.0777
 5712SOL     OW28771   3.901   1.216   0.856  0.3569  0.2753 -0.4788
 5712SOL    HW128772   3.896   1.146   0.791  2.3293 -0.7047  0.4485
 5712SOL    HW228773   3.945   1.167   0.926  2.7549  0.6189 -1.7755
 5713SOL     OW28774   1.324   2.610   5.760  0.3099 -0.5628  0.7869
 5713SOL    HW128775   1.337   2.621   5.666 -4.4061  0.1612  0.2192
 5713SOL    HW228776   1.238   2.653   5.758  1.6320  2.0540  0.1169
 5714SOL     OW28777   0.974   0.949   6.934 -0.5457  0.2323  0.5107
 5714SOL    HW128778   0.933   0.913   7.013 -1.0296 -0.4814 -0.0661
 5714SOL    HW228779   0.918   1.027   6.933 -2.2184 -0.9305  1.4263
 5715SOL     OW28780   4.371   4.674  11.599 -0.5351  0.3988 -0.2874
 5715SOL    HW128781   4.374   0.019  11.550 -0.0306  0.5837  0.0541
 5715SOL    HW228782   4.385   4.691  11.692 -0.3706 -0.6290 -0.1243
 5716SOL     OW28783   0.813   1.271   8.368  0.1542 -0.4087 -0.1088
 5716SOL    HW128784   0.749   1.201   8.357 -1.6013  1.4386 -1.5714
 5716SOL    HW228785   0.770   1.332   8.428 -0.4610  0.3138 -1.3069
 5717SOL     OW28786   4.076   4.309  13.312 -0.0711  0.5784 -0.3711
 5717SOL    HW128787   4.150   4.328  13.370 -1.6323  1.3883  1.3384
 5717SOL    HW228788   3.992   4.328  13.353  1.2063 -0.4738  2.7787
 5718SOL     OW28789   0.063   1.210  15.803 -0.4073 -0.0900 -0.5816
 5718SOL    HW128790   0.058   1.273  15.875  0.9199 -1.4415  0.6779
 5718SOL    HW228791   0.155   1.186  15.812 -0.8837 -1.4904  0.4996
 5719SOL     OW28792   3.465   0.356   1.265  0.3063 -0.5011  0.1642
 5719SOL    HW128793   3.512   0.274   1.285  1.2294  0.1937  0.8539
 5719SOL    HW228794   3.396   0.361   1.332  1.1382  1.7057  0.8571
 5720SOL     OW28795   2.590   3.453   4.715 -0.8113 -0.2110  0.4689
 5720SOL    HW128796   2.598   3.405   4.797 -1.2348 -0.6974  0.2299
 5720SOL    HW228797   2.523   3.405   4.665 -3.2150  0.1508  3.3144
 5721SOL     OW28798   0.571   1.876   8.532 -0.3492 -0.0870 -0.2155
 5721SOL    HW128799   0.534   1.937   8.468  0.5062 -0.6716 -1.2685
 5721SOL    HW228800   0.581   1.939   8.604  1.8974  0.1272 -0.7169
 5722SOL     OW28801   4.419   0.023   9.537 -0.0089  0.1072 -0.0240
 5722SOL    HW128802   4.330   0.056   9.552 -0.2137 -1.4357  2.0297
 5722SOL    HW228803   4.410   4.733   9.445 -0.6608  0.1453  0.0225
 5723SOL     OW28804   3.865   0.946   5.975 -0.0192 -0.0259 -0.2146
 5723SOL    HW128805   3.786   0.896   5.955 -1.4366  1.6342  1.2313
 5723SOL    HW228806   3.849   1.035   5.945 -0.3295  0.3372  1.0257
 5724SOL     OW28807   3.223   3.945   5.992  0.1119 -0.2504  0.2300
 5724SOL    HW128808   3.252   4.032   6.022  1.1397 -0.3545 -0.4923
 5724SOL    HW228809   3.130   3.952   6.014  0.1928 -0.8500  0.7466
 5725SOL     OW28810   0.625   4.441   9.828  0.5801  0.7523  0.2902
 5725SOL    HW128811   0.661   4.353   9.839 -1.7566 -0.3261 -0.7450
 5725SOL    HW228812   0.641   4.442   9.734  0.6571  0.9581  0.3051
 5726SOL     OW28813   1.202   4.339   6.375  0.3556  0.1074 -0.2983
 5726SOL    HW128814   1.269   4.286   6.418  0.2637  0.6690  0.5253
 5726SOL    HW228815   1.210   4.421   6.423  4.0551 -0.4383  0.0331
 5727SOL     OW28816   0.791   0.138   7.212 -0.0790 -0.3122  0.0074
 5727SOL    HW128817   0.829   0.177   7.291  0.7602  1.4535 -1.2864
 5727SOL    HW228818   0.872   0.115   7.167 -1.2183 -1.7260 -1.3327
 5728SOL     OW28819   1.206   4.597   6.730 -0.0051 -0.2642 -0.1332
 5728SOL    HW128820   1.281   4.617   6.674 -0.0070  0.9865  0.3129
 5728SOL    HW228821   1.249   4.611   6.814  2.1940  0.4948 -1.3837
 5729SOL     OW28822   4.626   2.080  17.515  0.1872 -0.1365 -0.1615
 5729SOL    HW128823   4.546   2.132  17.525 -0.4087 -0.9130 -0.9026
 5729SOL    HW228824   4.585   1.996  17.493  0.6884 -0.2781 -0.5478
 5730SOL     OW28825   3.403   0.045   5.605 -0.8220  0.0733  0.0802
 5730SOL    HW128826   3.348   4.704   5.601  0.0735 -0.6247  1.2405
 5730SOL    HW228827   3.434   0.040   5.696 -2.9481  1.0720  0.8815
 5731SOL     OW28828   3.873   1.859   6.775 -0.0380  0.1945  0.0771
 5731SOL    HW128829   3.864   1.767   6.797 -1.9732  0.6166  1.0459
 5731SOL    HW228830   3.805   1.899   6.829 -1.1021 -0.2706 -0.9041
 5732SOL     OW28831   3.338   1.000   1.000  0.0028 -0.1885  0.3913
 5732SOL    HW128832   3.256   1.020   1.044  1.3032  1.9578  1.8930
 5732SOL    HW228833   3.386   1.077   1.031  0.0532 -0.5930  1.2949
 5733SOL     OW28834   3.069   0.552  15.872 -1.1632 -0.1847  0.1897
 5733SOL    HW128835   3.095   0.469  15.832 -0.5076  0.6082 -1.0212
 5733SOL    HW228836   2.975   0.540  15.883 -1.4483 -0.1306 -2.3101
 5734SOL     OW28837   3.835   4.314   1.822  0.5168 -0.1345  0.1893
 5734SOL    HW128838   3.818   4.270   1.738 -0.2086  1.5184 -0.5328
 5734SOL    HW228839   3.772   4.273   1.882 -1.1292  1.3935 -0.5054
 5735SOL     OW28840   4.404   2.840   3.556 -0.1563 -0.3348  0.2324
 5735SOL    HW128841   4.362   2.783   3.620  0.1774 -0.2741  0.5054
 5735SOL    HW228842   4.366   2.805   3.475 -1.9551  0.2746  0.8211
 5736SOL     OW28843   4.064   2.359   4.471  0.1398  0.7163 -0.7723
 5736SOL    HW128844   4.129   2.422   4.501 -0.1011  0.5560  0.1125
 5736SOL    HW228845   3.985   2.394   4.512 -0.4154 -1.7848  0.2892
 5737SOL     OW28846   0.588   1.193   1.798  0.3323  0.2737  0.2762
 5737SOL    HW128847   0.502   1.206   1.760 -0.0431  0.3614  1.1430
 5737SOL    HW228848   0.640   1.168   1.722 -3.0734  1.5146 -2.4211
 5738SOL     OW28849   2.353   3.449  10.194  0.3803  0.4897 -0.8104
 5738SOL    HW128850   2.286   3.380  10.190  0.4228  0.4867 -1.5125
 5738SOL    HW228851   2.434   3.399  10.210 -0.3794 -0.6178 -0.3853
 5739SOL     OW28852   1.213   0.629   3.992 -0.7335  0.7245 -0.1125
 5739SOL    HW128853   1.223   0.651   3.899  1.4276  0.0285 -0.0495
 5739SOL    HW228854   1.305   0.627   4.019 -0.6126 -1.0086 -0.6677
 5740SOL     OW28855   1.164   2.008   8.044  0.2505  0.5167 -0.1866
 5740SOL    HW128856   1.155   2.039   7.954  1.7885 -2.9543 -1.5230
 5740SOL    HW228857   1.136   1.917   8.043  0.7596  0.3380  2.1214
 5741SOL     OW28858   0.296   0.158  15.375 -0.1074 -0.1918 -0.9650
 5741SOL    HW128859   0.251   0.233  15.414  2.2533 -0.7771  2.9464
 5741SOL    HW228860   0.222   0.098  15.377 -0.9600  0.9936  3.3063
 5742SOL     OW28861   2.859   1.663  17.684 -0.5123  0.0503 -0.5139
 5742SOL    HW128862   2.908   1.744  17.694 -1.2559  0.5678 -1.0845
 5742SOL    HW228863   2.907   1.596  17.732 -2.6964 -1.2842 -0.1601
 5743SOL     OW28864   4.229   4.106   8.818 -0.6077 -0.4696 -0.5099
 5743SOL    HW128865   4.262   4.044   8.753  0.1153 -0.2329 -0.3703
 5743SOL    HW228866   4.220   4.048   8.894  0.0554  1.3527  0.9685
 5744SOL     OW28867   4.573   1.012   2.249  0.6870 -0.2528 -0.4488
 5744SOL    HW128868   4.488   0.995   2.289  1.3125  0.5471  1.2075
 5744SOL    HW228869   4.564   0.970   2.163 -2.4293  0.9354 -0.7027
 5745SOL     OW28870   4.162   0.284   7.771  0.1743  0.0768  0.3724
 5745SOL    HW128871   4.250   0.253   7.751  0.4055  1.2930 -0.4563
 5745SOL    HW228872   4.118   0.226   7.709 -2.4335  1.6615  0.7384
 5746SOL     OW28873   0.712   2.872   6.554 -0.3430 -0.2217 -0.1410
 5746SOL    HW128874   0.691   2.957   6.594 -0.2643 -1.1462  1.8723
 5746SOL    HW228875   0.788   2.853   6.610 -0.5027  0.4292  0.3012
 5747SOL     OW28876   4.202   0.261   8.956  0.1820 -0.3660  0.0303
 5747SOL    HW128877   4.211   0.355   8.940 -0.0003 -0.0888  1.6220
 5747SOL    HW228878   4.171   0.235   8.869  0.2625  0.2043 -0.1689
 5748SOL     OW28879   1.149   4.315   5.422  0.5358 -0.2784  0.2453
 5748SOL    HW128880   1.224   4.269   5.458  0.6944 -0.2869 -0.0963
 5748SOL    HW228881   1.148   4.393   5.478 -3.8167 -1.0323  1.2358
 5749SOL     OW28882   1.635   3.843  13.780  0.7525 -0.7100 -0.4787
 5749SOL    HW128883   1.687   3.805  13.709  1.0790  0.2324 -0.7377
 5749SOL    HW228884   1.683   3.926  13.785 -1.4218  0.4312  1.1790
 5750SOL     OW28885   0.793   3.995   3.952 -0.0753 -0.0187 -0.7519
 5750SOL    HW128886   0.707   4.031   3.931 -0.6168 -0.9099 -0.0472
 5750SOL    HW228887   0.846   4.071   3.927 -0.3962  0.5514  0.2905
 5751SOL     OW28888   1.470   2.973   4.006  0.0409 -0.3652 -0.4372
 5751SOL    HW128889   1.434   2.969   4.095 -0.3369 -3.3535 -0.7134
 5751SOL    HW228890   1.406   3.022   3.956 -1.7611 -1.1122  1.1418
 5752SOL     OW28891   1.136   4.466   7.687  0.0341  0.2944  0.0437
 5752SOL    HW128892   1.213   4.444   7.739  0.0423  0.1801 -0.0163
 5752SOL    HW228893   1.152   4.423   7.603  1.0512  1.4730 -0.3476
 5753SOL     OW28894   0.688   3.278  12.458 -0.3344 -0.2255  0.4632
 5753SOL    HW128895   0.760   3.331  12.421  0.9459 -0.8312  2.0959
 5753SOL    HW228896   0.712   3.190  12.429  0.7849  1.0105 -2.4703
 5754SOL     OW28897   4.550   1.829   5.485 -0.3233  0.6230 -0.0117
 5754SOL    HW128898   4.542   1.892   5.414 -0.4788  2.0094  1.2456
 5754SOL    HW228899   4.593   1.896   5.538 -1.6151  0.6787  0.9647
 5755SOL     OW28900   3.589   1.278   1.408  0.0611 -0.0403  0.2217
 5755SOL    HW128901   3.652   1.345   1.437 -0.4450  1.1878 -1.5688
 5755SOL    HW228902   3.649   1.226   1.355  1.4685  0.5773  1.1748
 5756SOL     OW28903   4.442   4.518  10.969  0.0760  0.1724  0.7054
 5756SOL    HW128904   4.465   4.531  11.061 -1.4701  1.2482  0.9541
 5756SOL    HW228905   4.358   4.473  10.981  0.6194 -0.9759  0.1562
 5757SOL     OW28906   0.869   0.585  15.653  0.3717 -0.1097 -0.0379
 5757SOL    HW128907   0.889   0.499  15.689 -1.8176 -0.2765  0.8045
 5757SOL    HW228908   0.801   0.616  15.712 -1.0300 -1.9302 -0.7008
 5758SOL     OW28909   0.706   1.440   1.776  0.4964  0.7934 -0.2923
 5758SOL    HW128910   0.667   1.353   1.787  1.1496  0.6134  0.5788
 5758SOL    HW228911   0.630   1.498   1.763  0.9274  1.6697  1.0656
 5759SOL     OW28912   1.474   3.960  14.243  0.3843  0.0309 -0.2703
 5759SOL    HW128913   1.422   3.940  14.164  0.3651  2.9273 -1.0010
 5759SOL    HW228914   1.414   3.950  14.317  0.7034 -1.7586 -0.2632
 5760SOL     OW28915   3.489   3.680   9.716  0.5848  0.0349 -0.3980
 5760SOL    HW128916   3.425   3.751   9.712  0.5234  0.1736  3.2742
 5760SOL    HW228917   3.546   3.710   9.786  2.0630 -2.2791 -0.6053
 5761SOL     OW28918   2.685   3.892   4.605  0.4004 -0.0054 -0.2870
 5761SOL    HW128919   2.682   3.803   4.570 -0.6016 -1.3852  3.2581
 5761SOL    HW228920   2.749   3.878   4.676 -0.2754  2.1502  0.7452
 5762SOL     OW28921   1.620   4.017   4.637 -0.0244  0.1372 -0.5079
 5762SOL    HW128922   1.624   3.948   4.572 -1.2298  1.6994 -2.2303
 5762SOL    HW228923   1.594   4.092   4.583 -2.0487 -1.3000 -1.4816
 5763SOL     OW28924   3.781   2.743  14.656  0.0859 -0.3766 -0.2355
 5763SOL    HW128925   3.763   2.661  14.701  2.7980 -0.2966  0.9766
 5763SOL    HW228926   3.773   2.814  14.720  0.8168 -0.2277 -0.3055
 5764SOL     OW28927   1.361   3.692   5.843 -0.1321 -0.1088  0.3515
 5764SOL    HW128928   1.426   3.695   5.914 -0.4669 -0.9414  0.7000
 5764SOL    HW228929   1.381   3.604   5.811 -1.2747  0.3261 -1.5559
 5765SOL     OW28930   4.130   4.017   2.608 -0.0159  0.2782  0.6291
 5765SOL    HW128931   4.137   4.105   2.574  1.4146  0.4322  1.3268
 5765SOL    HW228932   4.081   3.972   2.539  0.1102 -0.1307  0.8004
 5766SOL     OW28933   3.260   3.268  11.445  0.1444  0.0803 -0.6356
 5766SOL    HW128934   3.339   3.248  11.495 -0.2278 -0.8169 -0.4110
 5766SOL    HW228935   3.271   3.358  11.413 -0.4908  0.6315  0.7279
 5767SOL     OW28936   1.752   0.947   7.176 -0.0206 -0.5248  0.2512
 5767SOL    HW128937   1.801   0.887   7.232  0.8111  0.0170  0.1052
 5767SOL    HW228938   1.755   1.025   7.232  0.3708  0.6510 -1.4045
 5768SOL     OW28939   3.343   3.533   3.731 -0.3551  0.0341  0.1454
 5768SOL    HW128940   3.397   3.469   3.777  0.0528  0.1217 -0.2101
 5768SOL    HW228941   3.261   3.502   3.770 -0.0695 -2.0532 -0.9283
 5769SOL     OW28942   2.180   4.229  13.232 -0.5433 -0.5381  0.0182
 5769SOL    HW128943   2.254   4.177  13.263 -0.4836 -1.0385 -0.9689
 5769SOL    HW228944   2.164   4.193  13.145  2.9604 -1.0836 -0.3954
 5770SOL     OW28945   1.780   0.205   4.944  0.5580 -0.1562 -0.3328
 5770SOL    HW128946   1.789   0.272   5.011 -4.0587 -1.7675  1.9157
 5770SOL    HW228947   1.872   0.199   4.920  0.9697 -0.2156  1.2803
 5771SOL     OW28948   4.381   2.725  11.810  0.3487 -0.6501  0.0350
 5771SOL    HW128949   4.373   2.736  11.715  1.8296 -0.8536 -0.1151
 5771SOL    HW228950   4.302   2.675  11.828 -0.7375  1.5635  1.3782
 5772SOL     OW28951   4.266   1.263   6.367 -0.0722  0.2375  0.2584
 5772SOL    HW128952   4.289   1.285   6.457  1.7057 -1.0397  0.1119
 5772SOL    HW228953   4.284   1.348   6.325 -1.5704 -0.3147 -1.5394
 5773SOL     OW28954   1.086   1.675   6.584  0.1562 -0.1912  0.4640
 5773SOL    HW128955   1.171   1.690   6.541 -0.0565 -0.2333  0.0280
 5773SOL    HW228956   1.023   1.716   6.525 -0.3284  0.9220  1.7832
 5774SOL     OW28957   3.937   3.590   3.256  0.2006  1.1156 -0.1548
 5774SOL    HW128958   4.000   3.519   3.247 -0.0556  0.7311  1.2359
 5774SOL    HW228959   3.974   3.663   3.205  0.5553 -0.0499 -1.5817
 5775SOL     OW28960   0.655   1.201   9.570 -0.2099  0.2368  0.3748
 5775SOL    HW128961   0.607   1.248   9.502 -0.5647 -0.8859 -0.1567
 5775SOL    HW228962   0.671   1.275   9.628 -2.5033 -0.8234  2.3426
 5776SOL     OW28963   1.178   2.063   3.963 -0.1428 -0.1820 -0.4304
 5776SOL    HW128964   1.091   2.031   3.984  0.5344 -0.2475  2.2878
 5776SOL    HW228965   1.247   2.018   4.012 -0.4773  0.6199  0.7795
 5777SOL     OW28966   3.412   0.856   4.446 -0.1349 -0.0041  0.2927
 5777SOL    HW128967   3.480   0.856   4.378 -0.9899 -0.2898 -0.5607
 5777SOL    HW228968   3.475   0.848   4.517 -0.7777  0.9660  0.9599
 5778SOL     OW28969   1.753   4.108   3.349  0.0860  0.0545  0.3829
 5778SOL    HW128970   1.826   4.063   3.391  0.7412  0.9789  0.2299
 5778SOL    HW228971   1.758   4.071   3.260  2.1573  0.7022  0.2233
 5779SOL     OW28972   3.597   4.227  15.831 -0.1440 -0.0316  0.2696
 5779SOL    HW128973   3.508   4.195  15.847 -0.4623  1.1133  0.7859
 5779SOL    HW228974   3.603   4.304  15.888  0.2830  1.0194 -1.2042
 5780SOL     OW28975   2.723   2.716   6.574 -0.5733 -0.1596 -0.5822
 5780SOL    HW128976   2.639   2.758   6.588  0.1156  1.1623 -0.4136
 5780SOL    HW228977   2.690   2.626   6.579  0.7862 -0.5608  1.2764
 5781SOL     OW28978   3.964   4.472  15.431 -0.6868 -0.1631 -0.1031
 5781SOL    HW128979   3.955   4.556  15.476 -2.7092  0.6282 -1.9610
 5781SOL    HW228980   3.926   4.411  15.494 -0.5518  1.0032  1.1132
 5782SOL     OW28981   3.904   0.461  14.413  0.4045  0.0480  0.6554
 5782SOL    HW128982   3.841   0.493  14.478 -0.9442  1.0362 -1.1554
 5782SOL    HW228983   3.846   0.477  14.339  0.3083 -0.8406  0.5284
 5783SOL     OW28984   1.958   1.374   4.069 -0.5099 -0.1237 -0.1252
 5783SOL    HW128985   1.993   1.429   4.139  0.5734 -1.0946  0.0788
 5783SOL    HW228986   2.001   1.293   4.096  0.4374  0.5751  0.4413
 5784SOL     OW28987   0.050   0.877   2.396 -0.1166 -0.1478 -0.7093
 5784SOL    HW128988   4.723   0.931   2.349  0.1119  1.5255  0.9151
 5784SOL    HW228989   4.728   0.811   2.433  0.5315 -0.6793 -0.6301
 5785SOL     OW28990   4.270   2.257   4.319  0.3387 -0.0095 -0.2437
 5785SOL    HW128991   4.187   2.300   4.340  0.1864  0.6099 -2.1191
 5785SOL    HW228992   4.295   2.232   4.408  2.7239 -1.8814 -1.4492
 5786SOL     OW28993   3.057   3.143   4.691  0.6144  0.2682  0.3099
 5786SOL    HW128994   2.968   3.126   4.661  0.8169  1.4876 -0.9897
 5786SOL    HW228995   3.034   3.159   4.783 -3.1011 -1.3808 -0.3474
 5787SOL     OW28996   3.804   2.105   9.795  0.0429 -0.3638  0.5823
 5787SOL    HW128997   3.789   2.150   9.712  0.9623  0.2779  0.7597
 5787SOL    HW228998   3.805   2.168   9.867  2.0371 -0.2536  0.4800
 5788SOL     OW28999   1.122   1.801   7.592  0.0972 -0.3584 -0.6408
 5788SOL    HW129000   1.202   1.767   7.633 -1.0858  1.9507  3.6835
 5788SOL    HW229001   1.128   1.757   7.508  0.2742  1.3204 -1.4908
 5789SOL     OW29002   4.569   3.140   3.348 -0.2561  0.2348 -0.2915
 5789SOL    HW129003   4.650   3.178   3.382 -0.4458  0.1015  0.3237
 5789SOL    HW229004   4.598   3.051   3.326 -1.4362  0.1162 -1.3542
 5790SOL     OW29005   3.405   3.968   7.127 -0.0078 -0.3291 -0.2693
 5790SOL    HW129006   3.331   3.987   7.185  1.3254  1.6171  0.7638
 5790SOL    HW229007   3.365   3.977   7.040 -1.2661  1.1981  0.4782
 5791SOL     OW29008   1.868   2.159   8.393  0.2788  0.2274 -0.1458
 5791SOL    HW129009   1.918   2.190   8.468 -1.5755 -2.1725  2.0376
 5791SOL    HW229010   1.934   2.130   8.329  0.9659 -2.0453  1.6208
 5792SOL     OW29011   1.528   4.493   5.677  0.0397  0.5223 -0.5331
 5792SOL    HW129012   1.509   4.535   5.761 -2.5921 -0.7313 -0.5085
 5792SOL    HW229013   1.511   4.401   5.698  0.4345  0.6095  0.1802
 5793SOL     OW29014   2.099   3.522   8.283  0.2263 -0.2556 -0.1991
 5793SOL    HW129015   2.128   3.481   8.364  0.1359 -1.9828 -1.0502
 5793SOL    HW229016   2.037   3.460   8.245  0.7817 -2.1122  1.9657
 5794SOL     OW29017   0.607   0.887   1.302 -0.2626  0.2775  0.2146
 5794SOL    HW129018   0.648   0.973   1.306  0.6373 -0.1370 -0.0922
 5794SOL    HW229019   0.572   0.883   1.213  3.8495  0.4082 -1.4466
 5795SOL     OW29020   3.915   2.271   1.363 -0.0078 -0.3660 -0.4255
 5795SOL    HW129021   3.968   2.312   1.294  0.1712  0.4075  0.1597
 5795SOL    HW229022   3.973   2.264   1.440 -0.9971  1.0950  0.4545
 5796SOL     OW29023   4.536   3.962   6.197  0.0620 -0.2208 -0.0113
 5796SOL    HW129024   4.602   3.910   6.149 -0.9248 -0.3666 -1.2133
 5796SOL    HW229025   4.584   4.041   6.222  0.7481 -0.3347 -0.9363
 5797SOL     OW29026   2.598   1.121  10.919  0.2570 -1.1086 -0.3272
 5797SOL    HW129027   2.661   1.050  10.933  1.7148 -0.1725 -2.0835
 5797SOL    HW229028   2.604   1.174  10.998  1.7517 -0.8699 -0.5984
 5798SOL     OW29029   1.402   3.462   4.468  0.1848 -0.4885  0.0212
 5798SOL    HW129030   1.369   3.541   4.512 -1.2898 -1.3263  0.3998
 5798SOL    HW229031   1.383   3.485   4.377 -2.0262 -0.9959  0.3692
 5799SOL     OW29032   3.153   1.430   4.997  0.7390  0.3247  0.7671
 5799SOL    HW129033   3.142   1.494   5.068 -4.1635  0.6927 -0.3545
 5799SOL    HW229034   3.202   1.483   4.934  0.8299 -0.3428  0.2801
 5800SOL     OW29035   1.153   3.595   9.166  0.2055 -0.0377 -0.3009
 5800SOL    HW129036   1.087   3.543   9.211  0.3209  0.5296  0.5199
 5800SOL    HW229037   1.175   3.660   9.232  0.5542 -1.3671  0.8844
 5801SOL     OW29038   1.329   2.905   5.585 -0.6151  0.4794  0.3742
 5801SOL    HW129039   1.382   2.910   5.664  0.9508 -0.8937 -0.5856
 5801SOL    HW229040   1.377   2.833   5.544 -1.1841 -0.1530  0.8258
 5802SOL     OW29041   2.808   2.736   8.854 -0.6034 -0.0024  0.0902
 5802SOL    HW129042   2.804   2.803   8.922  1.1506  1.0267 -0.8078
 5802SOL    HW229043   2.902   2.739   8.841 -0.3319 -1.7272  1.7730
 5803SOL     OW29044   1.597   0.239   2.246  0.5702 -0.0547 -0.5372
 5803SOL    HW129045   1.645   0.307   2.198 -1.7005  1.7042 -0.3332
 5803SOL    HW229046   1.630   0.259   2.334  1.7072  0.0254 -0.9811
 5804SOL     OW29047   1.743   3.668   2.977 -0.1397  0.2093  0.0873
 5804SOL    HW129048   1.673   3.731   2.958  1.2949  0.6851 -3.6883
 5804SOL    HW229049   1.768   3.645   2.887 -1.8083 -2.9949  0.4654
 5805SOL     OW29050   0.432   1.357   3.851 -0.0213 -0.0750 -0.7298
 5805SOL    HW129051   0.345   1.318   3.862  0.2919 -0.4494  0.4427
 5805SOL    HW229052   0.444   1.347   3.756 -0.7140  1.8288 -1.0262
 5806SOL     OW29053   2.990   1.879  13.468 -0.2676 -0.6469  0.2287
 5806SOL    HW129054   2.939   1.846  13.394  0.3410  0.8502 -0.8682
 5806SOL    HW229055   3.009   1.969  13.439 -1.9067  0.3523  2.2819
 5807SOL     OW29056   3.486   1.567  14.189 -0.3195 -0.1136 -0.1751
 5807SOL    HW129057   3.415   1.576  14.125  1.4074  0.8892 -1.9592
 5807SOL    HW229058   3.461   1.494  14.246 -1.8713  1.0929  0.7007
 5808SOL     OW29059   2.600   1.060   8.128  0.6384  0.6709 -0.0745
 5808SOL    HW129060   2.651   0.987   8.094  0.9840  0.5723  0.6492
 5808SOL    HW229061   2.582   1.095   8.041 -0.2910  2.8200  0.9898
 5809SOL     OW29062   0.571   0.863   5.969 -0.4642  0.1343  0.5949
 5809SOL    HW129063   0.609   0.781   5.939 -0.0577  0.9058 -1.0187
 5809SOL    HW229064   0.645   0.898   6.020  0.5545 -0.5958 -0.4076
 5810SOL     OW29065   3.417   1.336  14.062 -0.1597  0.3708 -0.3622
 5810SOL    HW129066   3.448   1.407  14.006  1.1273  0.0898 -0.0038
 5810SOL    HW229067   3.495   1.281  14.067 -0.7455 -0.3204  1.2822
 5811SOL     OW29068   2.106   1.514   4.246 -0.3291 -0.0900  0.5703
 5811SOL    HW129069   2.112   1.501   4.341 -2.1353 -2.4766  0.3382
 5811SOL    HW229070   2.200   1.523   4.231 -0.1358 -1.2370  1.0866
 5812SOL     OW29071   4.465   2.254   5.076 -0.4091  0.6991  0.2630
 5812SOL    HW129072   4.511   2.222   4.998  0.5663  0.7530  0.8133
 5812SOL    HW229073   4.530   2.256   5.146  0.9920  0.4370 -1.0141
 5813SOL     OW29074   4.208   3.309   9.643  0.5652  0.4767  0.2132
 5813SOL    HW129075   4.194   3.354   9.559 -1.4821 -0.3850  0.0986
 5813SOL    HW229076   4.277   3.369   9.671 -0.2076  2.2967 -1.7963
 5814SOL     OW29077   3.723   2.226  16.946 -0.1675  0.0060  0.8689
 5814SOL    HW129078   3.640   2.184  16.922  0.7360 -1.3458  0.1152
 5814SOL    HW229079   3.733   2.293  16.879 -0.4932 -0.0049  0.8080
 5815SOL     OW29080   3.630   0.591  15.613  0.3102  0.3220  0.3788
 5815SOL    HW129081   3.572   0.579  15.688  0.3066  1.6801  0.5925
 5815SOL    HW229082   3.689   0.659  15.646  0.1304  0.1862  0.9892
 5816SOL     OW29083   1.686   4.268   7.156  0.0464  0.3123  0.2552
 5816SOL    HW129084   1.773   4.308   7.146 -1.3877  2.7818 -2.3976
 5816SOL    HW229085   1.678   4.221   7.073  0.9513  0.4875  0.0697
 5817SOL     OW29086   3.266   1.974   6.261 -0.2517  0.0350  0.0493
 5817SOL    HW129087   3.179   1.997   6.229 -2.1441 -2.3767  3.5335
 5817SOL    HW229088   3.324   2.043   6.228  1.5777 -0.6063  1.9346
 5818SOL     OW29089   2.544   3.791   9.725 -0.0467  0.2723 -0.1570
 5818SOL    HW129090   2.467   3.820   9.773  0.3186 -1.2913  1.3467
 5818SOL    HW229091   2.600   3.751   9.792  1.0017  0.9534 -0.6197
 5819SOL     OW29092   4.447   0.806   0.417  0.2444  0.5677  0.1891
 5819SOL    HW129093   4.481   0.876   0.361  0.9596 -0.4859 -0.7046
 5819SOL    HW229094   4.529   0.767   0.448 -1.2321 -1.7642  1.1311
 5820SOL     OW29095   3.315   1.393  15.942 -0.6366  0.1208 -0.4087
 5820SOL    HW129096   3.399   1.397  15.989 -1.0465 -0.5948  0.3986
 5820SOL    HW229097   3.287   1.484  15.938  3.0826  1.2583 -1.3181
 5821SOL     OW29098   2.661   4.141   5.116 -0.1127  0.0425 -0.4072
 5821SOL    HW129099   2.703   4.172   5.196  1.7463 -1.7748 -0.6865
 5821SOL    HW229100   2.616   4.062   5.144 -0.0150  0.1206 -0.0363
 5822SOL     OW29101   4.713   3.988   5.448  0.9005  0.0355  0.5426
 5822SOL    HW129102   4.702   3.902   5.407 -0.8934 -0.5304  2.1873
 5822SOL    HW229103   4.648   3.978   5.518  0.8429  0.8697  0.6083
 5823SOL     OW29104   2.384   3.043   7.897  0.4237 -0.0243  0.7510
 5823SOL    HW129105   2.378   3.135   7.870  0.8579 -0.8148 -2.0567
 5823SOL    HW229106   2.292   3.023   7.914 -0.3102  2.0289 -0.8332
 5824SOL     OW29107   3.524   0.033   8.683 -0.0032 -0.2971  0.3769
 5824SOL    HW129108   3.434   0.040   8.651 -0.3144 -1.1968  1.0475
 5824SOL    HW229109   3.573   0.047   8.602 -0.2360  1.5651  0.5463
 5825SOL     OW29110   2.839   3.022   9.314  0.5468  0.1836 -0.5679
 5825SOL    HW129111   2.854   3.011   9.408  1.9685 -1.5240 -0.9778
 5825SOL    HW229112   2.744   3.015   9.309  0.6175 -0.0475 -1.6221
 5826SOL     OW29113   1.099   3.186   8.423  0.4781  0.2469  0.0748
 5826SOL    HW129114   1.147   3.104   8.413  0.2990  0.2183 -0.5498
 5826SOL    HW229115   1.054   3.159   8.502 -1.8298 -0.7170 -1.5857
 5827SOL     OW29116   3.109   2.894   2.664  0.3035  0.2992 -0.1057
 5827SOL    HW129117   3.032   2.947   2.641  1.0670  1.5504  0.2483
 5827SOL    HW229118   3.165   2.892   2.587 -0.7374  1.8414 -0.8898
 5828SOL     OW29119   1.419   0.805   4.494  0.1428  0.0441 -0.7949
 5828SOL    HW129120   1.399   0.848   4.578 -0.0816 -0.3766 -0.6313
 5828SOL    HW229121   1.472   0.728   4.514 -0.8523 -0.5090 -0.2858
 5829SOL     OW29122   0.816   0.686   4.281 -0.2142 -0.8677 -0.4735
 5829SOL    HW129123   0.904   0.652   4.265  0.0427 -0.9216  1.0310
 5829SOL    HW229124   0.823   0.724   4.369 -1.5619 -0.7531 -0.4220
 5830SOL     OW29125   4.101   0.467   0.928  0.4887 -0.3395 -0.0895
 5830SOL    HW129126   4.154   0.541   0.899 -1.2016  0.7693 -0.3993
 5830SOL    HW229127   4.082   0.481   1.020 -0.4135  0.5006 -0.4023
 5831SOL     OW29128   4.683   4.155   2.322  0.8006  0.4572 -0.4058
 5831SOL    HW129129   4.675   4.212   2.399 -0.4118 -0.4269  0.1241
 5831SOL    HW229130   0.032   4.174   2.285  2.2025 -1.5721  1.7787
 5832SOL     OW29131   0.327   3.167   4.692  0.1217 -0.2804  0.2797
 5832SOL    HW129132   0.331   3.090   4.749  1.1929 -2.4762 -2.7880
 5832SOL    HW229133   0.400   3.220   4.723 -1.0552 -0.1793  2.8570
 5833SOL     OW29134   0.872   0.797   8.254 -0.0263 -0.3829  0.1245
 5833SOL    HW129135   0.843   0.837   8.336 -1.3771  0.3249 -0.6951
 5833SOL    HW229136   0.790   0.755   8.227  0.5130 -0.7665 -0.9305
 5834SOL     OW29137   0.649   0.032  12.120 -0.4439  0.3178  0.2301
 5834SOL    HW129138   0.650   0.127  12.119  0.7051  0.3061  0.1348
 5834SOL    HW229139   0.679   0.012  12.209  1.0328  3.2445  0.3957
 5835SOL     OW29140   4.006   1.042   4.510 -0.1731  0.3846  0.2412
 5835SOL    HW129141   4.027   1.122   4.462 -3.5125  0.3423 -1.2575
 5835SOL    HW229142   3.919   1.024   4.475 -0.3608 -0.6093  1.2211
 5836SOL     OW29143   0.400   0.942   5.247 -0.5621  0.3962 -0.4505
 5836SOL    HW129144   0.486   0.932   5.205  0.9724 -2.2097  3.3174
 5836SOL    HW229145   0.372   1.032   5.234  2.5636  1.5025  0.5997
 5837SOL     OW29146   3.251   0.986   0.712 -0.5045 -0.3436 -0.3314
 5837SOL    HW129147   3.289   0.989   0.799  0.5136 -1.3804 -0.7459
 5837SOL    HW229148   3.156   0.993   0.721 -0.4257 -3.5149  2.5558
 5838SOL     OW29149   0.011   2.793   5.922 -0.0426 -0.1924  0.0629
 5838SOL    HW129150   0.022   2.837   6.006  1.3177 -0.1499 -0.1451
 5838SOL    HW229151   4.653   2.799   5.908 -0.3047  0.3181  2.0663
 5839SOL     OW29152   3.679   0.950   5.390 -0.2837  0.0155  0.4773
 5839SOL    HW129153   3.611   0.993   5.339  1.1859  0.0845 -1.4016
 5839SOL    HW229154   3.721   1.028   5.428 -0.3810 -1.4101  3.5522
 5840SOL     OW29155   3.233   4.094  16.925  0.0940 -0.3746 -0.1281
 5840SOL    HW129156   3.154   4.144  16.943  1.3470  0.7745  2.1721
 5840SOL    HW229157   3.256   4.061  17.012  1.1128  3.5751  1.0648
 5841SOL     OW29158   3.206   2.506  10.784 -0.2096  0.1497 -0.5260
 5841SOL    HW129159   3.194   2.479  10.693 -0.7084 -1.7704  0.1066
 5841SOL    HW229160   3.127   2.474  10.827  0.5545 -0.4159  0.4497
 5842SOL     OW29161   3.895   1.340   4.635  0.3378  0.2626 -0.2174
 5842SOL    HW129162   3.912   1.338   4.541 -0.4190 -2.1685 -0.3213
 5842SOL    HW229163   3.959   1.286   4.682 -0.1420 -0.8235 -0.8171
 5843SOL     OW29164   1.016   3.471   0.184  0.0799 -0.1522 -0.3840
 5843SOL    HW129165   0.965   3.524   0.245  1.0414 -1.4888  1.6047
 5843SOL    HW229166   0.956   3.425   0.125  1.2246 -0.6190 -1.1875
 5844SOL     OW29167   3.654   3.346   4.754 -0.1818  0.4943 -0.2738
 5844SOL    HW129168   3.699   3.403   4.692  1.8483  0.9391  1.6375
 5844SOL    HW229169   3.727   3.295   4.789 -0.4587  0.1995 -0.1160
 5845SOL     OW29170   4.577   0.170   8.428 -0.1635  0.3434 -0.0255
 5845SOL    HW129171   4.655   0.172   8.484 -0.5611 -0.1779  0.5486
 5845SOL    HW229172   4.557   0.079   8.404  0.0728  0.5855 -1.1392
 5846SOL     OW29173   2.013   3.972   8.941  0.4618 -0.1526 -0.1937
 5846SOL    HW129174   1.983   4.060   8.918  2.7377  0.6018 -0.2541
 5846SOL    HW229175   1.949   3.913   8.901  0.8572 -0.7073 -0.0055
 5847SOL     OW29176   2.018   3.782   9.234  0.2877  0.4703  0.6621
 5847SOL    HW129177   1.941   3.745   9.192 -0.3288 -0.3904  2.5881
 5847SOL    HW229178   1.979   3.855   9.282 -2.6700 -0.0805 -0.9431
 5848SOL     OW29179   2.426   1.836   8.853 -0.4419  0.0659 -0.1224
 5848SOL    HW129180   2.381   1.909   8.894  0.2750  1.1207 -1.2052
 5848SOL    HW229181   2.396   1.823   8.763 -1.8029  1.5768  0.1198
 5849SOL     OW29182   1.173   2.768   7.825 -0.0789 -0.3448 -0.0876
 5849SOL    HW129183   1.085   2.805   7.826 -0.2768 -0.7687 -1.0926
 5849SOL    HW229184   1.210   2.805   7.744 -0.7786 -0.2701 -0.3729
 5850SOL     OW29185   3.521   2.057  13.602  0.2899  0.1844 -0.7898
 5850SOL    HW129186   3.432   2.046  13.636  1.0962 -0.3580  1.1549
 5850SOL    HW229187   3.530   2.151  13.584 -2.1286  0.9985  2.1890
 5851SOL     OW29188   2.809   3.793   6.220  0.0218  0.3353 -0.5331
 5851SOL    HW129189   2.743   3.851   6.182 -0.0095  0.3264 -0.4927
 5851SOL    HW229190   2.812   3.731   6.147  0.2455  0.5731 -0.7243
 5852SOL     OW29191   3.432   1.606   3.487 -0.1500  0.8728  0.1525
 5852SOL    HW129192   3.350   1.576   3.526  0.3387 -1.2842 -0.5254
 5852SOL    HW229193   3.496   1.537   3.504 -0.8644  0.3842  0.8737
 5853SOL     OW29194   0.802   3.178  15.413  0.2493 -0.1281 -0.7664
 5853SOL    HW129195   0.791   3.142  15.501  0.0612  2.9298  0.4430
 5853SOL    HW229196   0.804   3.273  15.422  2.6470 -0.0271 -2.1975
 5854SOL     OW29197   1.928   1.119  13.233  0.1842 -0.6433 -0.4002
 5854SOL    HW129198   1.855   1.063  13.256 -0.1366 -0.5389 -1.1745
 5854SOL    HW229199   1.962   1.143  13.320 -2.5127  1.1235  0.1771
 5855SOL     OW29200   1.755   3.722   8.171 -0.6640  0.6689  0.7882
 5855SOL    HW129201   1.756   3.725   8.266 -1.8681 -0.0840  0.8292
 5855SOL    HW229202   1.745   3.628   8.161 -1.4139  0.4821  3.3970
 5856SOL     OW29203   1.042   2.156   5.088  0.4199  0.4070  0.4136
 5856SOL    HW129204   1.004   2.128   5.171 -0.0961  0.0855  0.0692
 5856SOL    HW229205   1.110   2.219   5.113  0.5011  0.2463  0.5899
 5857SOL     OW29206   3.706   2.753   6.494 -0.5198  0.1841 -0.1243
 5857SOL    HW129207   3.696   2.674   6.440 -1.1112  0.2329 -0.0814
 5857SOL    HW229208   3.633   2.742   6.555  0.5217  0.6871  1.2175
 5858SOL     OW29209   1.007   2.273   3.188  0.0105 -0.2908  0.2513
 5858SOL    HW129210   0.919   2.299   3.215  0.4520 -0.3980  1.7452
 5858SOL    HW229211   1.016   2.184   3.222 -1.1060 -1.4285 -2.3681
 5859SOL     OW29212   3.901   4.421   8.600  0.3451  0.0282 -0.1969
 5859SOL    HW129213   3.823   4.439   8.653 -0.8410 -0.8736 -1.6607
 5859SOL    HW229214   3.965   4.377   8.656  1.5805 -0.4999 -2.0376
 5860SOL     OW29215   0.824   0.158   2.706  0.0007 -0.4358  0.2900
 5860SOL    HW129216   0.764   0.202   2.645  1.3531  0.6546 -0.2591
 5860SOL    HW229217   0.889   0.125   2.645 -0.9041  0.8745 -1.3830
 5861SOL     OW29218   2.077   2.095  16.716  0.3036 -0.0280 -0.5130
 5861SOL    HW129219   2.081   2.117  16.809 -0.1004  0.9796 -0.7345
 5861SOL    HW229220   1.993   2.131  16.687  0.1823  1.4762  1.7086
 5862SOL     OW29221   3.946   4.132  15.879  0.1912 -0.2258 -0.2477
 5862SOL    HW129222   3.903   4.194  15.821  0.8108  0.4913  0.0689
 5862SOL    HW229223   3.901   4.155  15.960 -2.0119 -0.4978 -1.3935
 5863SOL     OW29224   3.210   3.826   1.765  0.6665 -0.0934 -0.2589
 5863SOL    HW129225   3.281   3.771   1.798  0.0408  0.9864  2.8862
 5863SOL    HW229226   3.207   3.883   1.842  2.4981  0.1391 -0.3612
 5864SOL     OW29227   1.178   3.702  13.894 -0.3503  0.2287 -0.0857
 5864SOL    HW129228   1.158   3.644  13.820  1.1307 -1.7002  1.0438
 5864SOL    HW229229   1.098   3.687  13.944 -0.7423 -0.0596 -0.7823
 5865SOL     OW29230   3.896   1.194   2.627 -0.1900  1.0603  0.3372
 5865SOL    HW129231   3.971   1.200   2.685  1.2057 -0.5598 -1.2939
 5865SOL    HW229232   3.837   1.146   2.685 -0.1561 -1.1822 -1.4573
 5866SOL     OW29233   4.729   1.201   6.670  1.0733 -0.1294  0.7127
 5866SOL    HW129234   4.732   1.125   6.728 -1.1266  0.5451  1.6981
 5866SOL    HW229235   4.729   1.152   6.587  2.1765 -0.7213  1.0705
 5867SOL     OW29236   2.585   4.151   7.411  0.2728  0.3780 -0.1817
 5867SOL    HW129237   2.512   4.209   7.388  2.7506  2.6011 -2.4161
 5867SOL    HW229238   2.607   4.161   7.503  1.5422  1.2936 -0.5784
 5868SOL     OW29239   0.387   2.722  10.335  0.0754  0.0844  0.6444
 5868SOL    HW129240   0.428   2.809  10.332 -1.0557  0.5530 -1.9172
 5868SOL    HW229241   0.395   2.698  10.427 -1.2291  0.8453  0.9467
 5869SOL     OW29242   3.087   2.589   0.555  0.1496  0.3138 -0.2748
 5869SOL    HW129243   3.062   2.532   0.482  1.8126 -1.7037  0.7570
 5869SOL    HW229244   3.026   2.550   0.618 -0.6077 -0.5110 -1.5065
 5870SOL     OW29245   3.190   3.174   9.965  0.3762  0.4053 -0.3055
 5870SOL    HW129246   3.253   3.103   9.977  1.2181  0.9174 -1.6701
 5870SOL    HW229247   3.247   3.234  10.013 -0.0152 -0.5994  1.4049
 5871SOL     OW29248   1.302   1.721   0.005 -0.7863  0.0389  0.1446
 5871SOL    HW129249   1.334   1.754  17.667  0.1119  0.7346  0.7491
 5871SOL    HW229250   1.300   1.805   0.051  0.6262  1.1243 -1.7606
 5872SOL     OW29251   2.421   3.507   0.408  0.4330 -0.4263 -0.0661
 5872SOL    HW129252   2.337   3.533   0.447  0.5898 -2.3165  1.5293
 5872SOL    HW229253   2.417   3.413   0.427 -1.2179 -0.4738 -0.6733
 5873SOL     OW29254   2.292   2.553   3.198  0.2488 -0.1047  0.2702
 5873SOL    HW129255   2.217   2.598   3.160  0.3395  0.4389  0.7357
 5873SOL    HW229256   2.277   2.464   3.165 -3.2504  1.1868 -1.5578
 5874SOL     OW29257   1.872   4.603   2.183 -0.0154  0.5013 -0.1046
 5874SOL    HW129258   1.810   4.622   2.254 -1.2037 -2.3996 -0.3430
 5874SOL    HW229259   1.955   4.612   2.230 -1.1055  0.2796  1.8483
 5875SOL     OW29260   2.277   3.493   5.952  0.5997  0.5421  0.1428
 5875SOL    HW129261   2.366   3.509   5.919  1.1503 -1.6065  0.5768
 5875SOL    HW229262   2.251   3.419   5.896  1.6282  0.8219 -0.7201
 5876SOL     OW29263   4.096   3.229  13.290 -0.3787  0.1820 -0.0713
 5876SOL    HW129264   4.117   3.183  13.209  1.6741  2.0740 -0.6250
 5876SOL    HW229265   4.070   3.158  13.348 -1.9295  1.1397  0.3943
 5877SOL     OW29266   3.056   3.743   6.315  0.2257 -0.4364 -0.1405
 5877SOL    HW129267   2.980   3.792   6.286  0.8398  0.0866 -0.8751
 5877SOL    HW229268   3.070   3.703   6.229 -0.4471  0.8609 -0.8365
 5878SOL     OW29269   0.856   0.770   9.637 -0.2008 -0.2040 -0.3031
 5878SOL    HW129270   0.801   0.783   9.560  0.7896  1.0744 -0.7878
 5878SOL    HW229271   0.916   0.844   9.647 -0.3934 -0.0395 -0.3717
 5879SOL     OW29272   1.562   3.543  10.426 -0.4675 -0.2959  0.0909
 5879SOL    HW129273   1.599   3.486  10.494  0.2935 -0.3966 -0.4005
 5879SOL    HW229274   1.561   3.483  10.351 -1.0284 -2.2715  1.6626
 5880SOL     OW29275   2.399   4.359  12.603  0.0381 -0.5792 -0.2425
 5880SOL    HW129276   2.391   4.390  12.694  1.9424  1.3804 -0.7592
 5880SOL    HW229277   2.417   4.269  12.631 -1.6677 -1.4521 -1.9646
 5881SOL     OW29278   1.218   0.443  15.684  0.0656  0.8922 -0.3116
 5881SOL    HW129279   1.208   0.497  15.605  1.2318  2.3322  0.5167
 5881SOL    HW229280   1.134   0.397  15.686  0.9868 -0.7713 -0.0283
 5882SOL     OW29281   1.244   1.241   4.492 -0.6028  0.4026 -0.1745
 5882SOL    HW129282   1.196   1.196   4.422  1.2940 -1.2494 -0.4167
 5882SOL    HW229283   1.171   1.268   4.548  1.3594  2.4342  1.4040
 5883SOL     OW29284   1.788   2.179   2.472  0.1695  0.4367  0.1467
 5883SOL    HW129285   1.775   2.095   2.429 -0.9699  0.5189  0.3478
 5883SOL    HW229286   1.713   2.180   2.531 -0.3644  1.2740 -0.5512
 5884SOL     OW29287   1.724   1.480   4.779  0.3986 -0.2097 -0.5409
 5884SOL    HW129288   1.753   1.414   4.842 -3.1313 -1.9579 -0.7127
 5884SOL    HW229289   1.710   1.429   4.699  0.2214  0.5468 -0.9864
 5885SOL     OW29290   0.964   1.131   7.250  0.1873 -1.0615 -0.2957
 5885SOL    HW129291   0.926   1.048   7.276 -2.5556 -0.1628 -1.4313
 5885SOL    HW229292   0.922   1.147   7.165 -0.4979  1.0359  0.4482
 5886SOL     OW29293   4.576   0.962   0.240  0.1339 -0.4047 -0.0805
 5886SOL    HW129294   4.669   0.937   0.242  0.3475  0.2672 -1.8125
 5886SOL    HW229295   4.589   1.057   0.234  1.2324 -0.4072  1.9983
 5887SOL     OW29296   4.394   1.971  16.890 -0.0324 -0.0478  0.4037
 5887SOL    HW129297   4.455   2.042  16.872 -0.7886 -0.1808 -2.6878
 5887SOL    HW229298   4.382   1.924  16.807 -3.1330 -0.1913  0.9201
 5888SOL     OW29299   0.219   4.168  17.425 -0.8940  0.1958 -0.5296
 5888SOL    HW129300   0.269   4.152  17.504  0.2815 -1.4872 -1.6125
 5888SOL    HW229301   0.147   4.225  17.451 -1.7848 -0.2690 -1.9271
 5889SOL     OW29302   2.006   4.475  12.044  0.2233 -0.2523  0.4504
 5889SOL    HW129303   1.950   4.416  12.094  0.6260 -0.2694  0.8844
 5889SOL    HW229304   2.062   4.429  11.981  0.4300 -1.4041  1.4569
 5890SOL     OW29305   3.965   4.306  16.825  0.2522 -0.1721  0.2605
 5890SOL    HW129306   4.019   4.384  16.811  0.9191 -0.3090  2.1468
 5890SOL    HW229307   3.902   4.337  16.891 -1.4204 -0.1035 -1.3548
 5891SOL     OW29308   1.623   0.552  11.707  0.4783 -0.6860  0.4755
 5891SOL    HW129309   1.687   0.502  11.757 -0.0554 -0.3990  1.4464
 5891SOL    HW229310   1.668   0.584  11.629  0.0994 -1.9438 -0.2730
 5892SOL     OW29311   0.586   0.638   2.886  0.0924 -0.2966 -0.1031
 5892SOL    HW129312   0.523   0.710   2.890  2.6900  1.8823  1.7617
 5892SOL    HW229313   0.536   0.563   2.920  1.0262  0.4230  2.8692
 5893SOL     OW29314   1.332   3.876  12.714  0.1185  0.5776  0.0375
 5893SOL    HW129315   1.332   3.790  12.756  0.4380 -0.0347 -1.1961
 5893SOL    HW229316   1.373   3.855  12.630 -1.1220 -1.2574 -0.1114
 5894SOL     OW29317   3.696   3.139   5.029  0.1649  0.1657  0.8004
 5894SOL    HW129318   3.759   3.162   4.962  0.4691 -0.1704  0.9746
 5894SOL    HW229319   3.734   3.168   5.112  0.3237  0.7863  0.5132
 5895SOL     OW29320   4.179   3.139   8.852  0.0605 -0.4300  0.4144
 5895SOL    HW129321   4.146   3.051   8.873 -0.5975 -0.7467 -1.9757
 5895SOL    HW229322   4.129   3.193   8.913 -1.7151 -2.0509  0.3990
 5896SOL     OW29323   3.167   2.434  12.396 -0.4177 -0.3275 -0.1292
 5896SOL    HW129324   3.117   2.416  12.476 -1.0358 -0.1122 -0.4681
 5896SOL    HW229325   3.112   2.381  12.338  1.5129 -3.8907  1.3075
 5897SOL     OW29326   2.338   2.410   4.595  0.7944 -0.5620  0.1070
 5897SOL    HW129327   2.397   2.427   4.522 -0.9541  1.9200 -0.7335
 5897SOL    HW229328   2.290   2.336   4.557 -2.6156  1.4892  0.4257
 5898SOL     OW29329   4.137   2.616   3.956 -0.5207  0.5165  0.1417
 5898SOL    HW129330   4.193   2.648   4.027 -0.1502  1.0528 -0.3886
 5898SOL    HW229331   4.110   2.528   3.982  0.6163  0.1064 -0.0323
 5899SOL     OW29332   4.247   3.104   5.133  0.5729 -0.0293 -0.4066
 5899SOL    HW129333   4.210   3.016   5.143 -0.1229  0.4546  1.1562
 5899SOL    HW229334   4.338   3.106   5.162  0.1701  0.0751  0.8276
 5900SOL     OW29335   2.894   3.064  10.259 -0.2309  0.1166 -0.5307
 5900SOL    HW129336   2.822   3.112  10.218 -0.9978 -1.1103 -0.6252
 5900SOL    HW229337   2.927   3.124  10.326  1.9432 -0.6296 -0.9245
 5901SOL     OW29338   2.768   2.367  10.462 -0.4130  0.5494 -0.3832
 5901SOL    HW129339   2.677   2.341  10.447 -0.6591  0.9826  0.3461
 5901SOL    HW229340   2.812   2.314  10.395 -1.9981  0.5075 -1.3918
 5902SOL     OW29341   4.313   3.896  13.150 -0.3667  0.2310 -0.4768
 5902SOL    HW129342   4.316   3.987  13.179  0.4933 -1.1522  3.7284
 5902SOL    HW229343   4.264   3.892  13.068  0.6197  0.1871 -1.0676
 5903SOL     OW29344   1.102   4.457  11.889 -0.5963  0.3763  0.0707
 5903SOL    HW129345   1.105   4.539  11.937  0.0280  1.4208 -1.7328
 5903SOL    HW229346   1.179   4.472  11.834 -1.2470 -1.8870 -1.4591
 5904SOL     OW29347   3.763   2.253  11.235  0.3920  0.2629  0.3855
 5904SOL    HW129348   3.755   2.163  11.205  1.8088 -0.8197  3.2743
 5904SOL    HW229349   3.823   2.235  11.308  0.7982 -2.7574 -0.7245
 5905SOL     OW29350   1.342   0.690   8.308 -0.9695  0.5970 -0.5451
 5905SOL    HW129351   1.284   0.620   8.340 -0.4929  0.6188  0.3813
 5905SOL    HW229352   1.393   0.732   8.378 -1.9379  1.0594 -0.1189
 5906SOL     OW29353   2.598   3.872   7.971 -0.0126 -0.0726 -0.1861
 5906SOL    HW129354   2.548   3.943   7.930  1.7458  0.5709 -1.2097
 5906SOL    HW229355   2.655   3.927   8.025 -1.1069  2.1635 -1.2819
 5907SOL     OW29356   3.332   0.292   3.910 -0.1723 -0.6665 -0.3803
 5907SOL    HW129357   3.408   0.233   3.914 -0.6072 -1.1680  0.7607
 5907SOL    HW229358   3.264   0.224   3.909  0.5035 -1.3834  2.1820
 5908SOL     OW29359   2.548   3.349  15.322 -0.2498 -0.2052  0.1689
 5908SOL    HW129360   2.567   3.441  15.303  0.3392 -0.3167  0.1974
 5908SOL    HW229361   2.491   3.360  15.398 -0.1865 -1.5423  0.4068
 5909SOL     OW29362   0.050   4.673  15.161 -0.8128 -0.3182  0.7506
 5909SOL    HW129363   0.057   4.578  15.153 -0.2994 -0.2712  0.5891
 5909SOL    HW229364   4.729   4.696  15.088 -1.3910 -1.8371  0.7526
 5910SOL     OW29365   1.245   3.715  16.482 -0.2052  0.2435 -0.1091
 5910SOL    HW129366   1.216   3.752  16.566 -1.2289  1.5449 -1.0368
 5910SOL    HW229367   1.307   3.782  16.453 -1.0073  0.5442 -1.1150
 5911SOL     OW29368   2.308   1.336   3.474  0.4223  0.1256  0.2740
 5911SOL    HW129369   2.326   1.361   3.384 -0.4496  2.9698  0.8799
 5911SOL    HW229370   2.250   1.410   3.493  1.0287  0.8540 -0.7127
 5912SOL     OW29371   3.780   0.355   9.274  0.0366  0.1544  0.3983
 5912SOL    HW129372   3.857   0.362   9.330 -0.8890 -0.3105  1.7266
 5912SOL    HW229373   3.743   0.267   9.283  3.0521 -1.2210 -0.6126
 5913SOL     OW29374   1.986   1.937   2.978 -0.4150  0.1697 -0.3060
 5913SOL    HW129375   1.951   2.009   3.031 -1.5349 -0.7815  0.2443
 5913SOL    HW229376   1.966   1.862   3.034  1.2301  2.3107  3.1352
 5914SOL     OW29377   2.612   3.364   9.343 -0.3219  0.1864 -0.0804
 5914SOL    HW129378   2.592   3.387   9.433 -0.2083 -0.9111  0.2288
 5914SOL    HW229379   2.626   3.453   9.311  0.0645 -0.0831 -0.6781
 5915SOL     OW29380   3.210   3.246   3.242 -0.3828  0.3909 -0.2013
 5915SOL    HW129381   3.249   3.319   3.194 -2.4711  0.2981 -2.0475
 5915SOL    HW229382   3.269   3.248   3.317 -1.9309 -0.4542  1.0495
 5916SOL     OW29383   2.396   4.465  12.848  0.0502  0.0144  0.0052
 5916SOL    HW129384   2.316   4.465  12.901  0.2649  3.3361  0.3210
 5916SOL    HW229385   2.445   4.526  12.903  2.3152 -2.6709  0.9641
 5917SOL     OW29386   3.274   1.794   2.977 -0.2595 -0.0211 -0.2908
 5917SOL    HW129387   3.240   1.837   3.055 -0.4178  1.8280 -1.3766
 5917SOL    HW229388   3.323   1.725   3.021 -0.3268 -0.8036 -1.4524
 5918SOL     OW29389   2.688   3.289   5.726 -0.8735 -0.1173  0.5537
 5918SOL    HW129390   2.685   3.378   5.691 -1.5513 -1.0152 -1.6929
 5918SOL    HW229391   2.739   3.245   5.657  0.4127  1.0365  0.7570
 5919SOL     OW29392   3.059   3.039   3.190 -0.6704 -0.4845  0.6443
 5919SOL    HW129393   3.099   2.964   3.233  0.2325 -0.8167 -0.7752
 5919SOL    HW229394   3.130   3.102   3.201  0.3527 -1.5198 -0.0191
 5920SOL     OW29395   3.342   1.579   5.695  0.5973  0.2060 -0.1214
 5920SOL    HW129396   3.417   1.637   5.679  1.8089 -0.7888  1.9513
 5920SOL    HW229397   3.326   1.562   5.603 -0.9728  3.3377 -0.4513
 5921SOL     OW29398   4.253   2.511   4.572 -0.3492  0.3157  0.2812
 5921SOL    HW129399   4.276   2.601   4.591  2.2773 -0.5121  1.0433
 5921SOL    HW229400   4.335   2.495   4.525 -0.5248 -1.5621  0.5810
 5922SOL     OW29401   1.001   0.554   9.765 -0.1189 -0.1223 -0.4173
 5922SOL    HW129402   0.971   0.636   9.726 -3.1843 -0.6399  0.8348
 5922SOL    HW229403   0.928   0.505   9.802 -1.1358  1.3491 -0.5079
 5923SOL     OW29404   3.417   4.465   9.868  0.8465  0.2350 -0.4984
 5923SOL    HW129405   3.448   4.550   9.837 -2.2361  2.1432  1.6422
 5923SOL    HW229406   3.359   4.445   9.795 -0.2045 -2.2362  0.9798
 5924SOL     OW29407   1.091   3.752   5.778 -0.0697  1.3562 -0.3961
 5924SOL    HW129408   1.106   3.846   5.784  0.1469  1.3002 -0.0437
 5924SOL    HW229409   1.179   3.724   5.803 -1.0137 -0.3806  0.9777
 5925SOL     OW29410   0.613   3.238   7.964 -0.6294  0.2001  0.0190
 5925SOL    HW129411   0.531   3.236   7.914  0.1853  0.2887 -1.3058
 5925SOL    HW229412   0.671   3.287   7.906  0.5044  2.2858  2.8661
 5926SOL     OW29413   4.192   0.352  11.683  0.3114  0.0542 -0.2877
 5926SOL    HW129414   4.244   0.291  11.736 -2.5576 -1.0680  1.2160
 5926SOL    HW229415   4.125   0.289  11.658 -0.3786  0.6353  0.1153
 5927SOL     OW29416   2.194   3.859   5.853  0.2329  0.6875 -0.1219
 5927SOL    HW129417   2.286   3.882   5.866 -0.0164  1.9600 -0.6447
 5927SOL    HW229418   2.166   3.946   5.826 -0.9035  0.3276 -0.1202
 5928SOL     OW29419   2.179   3.697   3.792 -0.2190  0.1957  0.0769
 5928SOL    HW129420   2.111   3.632   3.777 -1.4802  1.7347 -0.7306
 5928SOL    HW229421   2.141   3.750   3.862  0.3333 -1.1253  1.3767
 5929SOL     OW29422   0.712   2.664   5.798  0.7219 -0.0592 -0.3374
 5929SOL    HW129423   0.714   2.651   5.703 -0.6864 -2.6189 -0.0081
 5929SOL    HW229424   0.713   2.576   5.836  1.2114  0.3435  0.5936
 5930SOL     OW29425   4.681   0.429   9.204 -0.8515 -0.0900  0.0764
 5930SOL    HW129426   4.653   0.422   9.113 -2.4897  0.2860  0.5537
 5930SOL    HW229427   4.608   0.386   9.249  0.2152 -2.4444 -0.4367
 5931SOL     OW29428   2.925   0.274   3.821 -0.1848  0.6529 -0.0186
 5931SOL    HW129429   2.941   0.193   3.868 -2.8675  1.0720  1.6132
 5931SOL    HW229430   2.946   0.337   3.890  0.1815 -1.8264  2.1294
 5932SOL     OW29431   1.794   4.536   4.884 -0.9637 -0.2920 -0.3967
 5932SOL    HW129432   1.808   4.560   4.976 -1.0328 -0.7216 -0.2740
 5932SOL    HW229433   1.877   4.508   4.845 -0.2868 -0.9601  1.4761
 5933SOL     OW29434   1.228   1.417   5.920 -0.1278 -0.0220 -0.0371
 5933SOL    HW129435   1.164   1.351   5.950  1.4272 -0.7539  1.6643
 5933SOL    HW229436   1.180   1.475   5.861  2.6805  1.7564 -0.5577
 5934SOL     OW29437   4.580   4.570   4.013 -0.5155  0.3445 -0.4645
 5934SOL    HW129438   4.577   4.567   3.918 -1.2267  0.6541 -0.4537
 5934SOL    HW229439   4.599   4.664   4.014 -1.2756  0.4779  5.8199
 5935SOL     OW29440   1.378   1.051   9.317  0.0455  0.2607 -0.3265
 5935SOL    HW129441   1.402   0.958   9.314  0.7136  0.4483 -0.8256
 5935SOL    HW229442   1.413   1.082   9.401 -0.6384 -0.7823  0.3408
 5936SOL     OW29443   2.827   4.455   0.608 -0.3441  0.2662 -0.0914
 5936SOL    HW129444   2.793   4.369   0.585  1.0386 -0.4185  0.4090
 5936SOL    HW229445   2.817   4.465   0.702 -0.9852  0.1948 -0.1523
 5937SOL     OW29446   3.792   0.367   3.182 -0.3097 -0.0551  0.0044
 5937SOL    HW129447   3.713   0.316   3.166  0.0390 -0.1580 -1.3450
 5937SOL    HW229448   3.847   0.298   3.218  0.6258  0.2553 -0.8188
 5938SOL     OW29449   2.745   2.516   9.583  0.1126  0.6338 -0.0763
 5938SOL    HW129450   2.805   2.588   9.599  2.2091 -1.4395  1.3006
 5938SOL    HW229451   2.699   2.547   9.504  0.3988  3.1825  0.7408
 5939SOL     OW29452   4.656   2.840  12.487  0.2074  0.7371 -0.4984
 5939SOL    HW129453   4.730   2.823  12.546  0.4834 -1.5484 -1.4994
 5939SOL    HW229454   4.604   2.760  12.498  0.7014  0.4777 -0.0149
 5940SOL     OW29455   1.132   0.441   6.442 -0.5288 -0.4109  0.0883
 5940SOL    HW129456   1.154   0.534   6.453  0.8683 -0.5353 -1.6870
 5940SOL    HW229457   1.148   0.423   6.350 -1.7285 -0.5814 -0.0760
 5941SOL     OW29458   1.428   2.902   8.497 -0.0987 -0.4407 -0.2360
 5941SOL    HW129459   1.373   2.903   8.419 -0.9927 -0.9793  0.3966
 5941SOL    HW229460   1.469   2.817   8.485  0.1228 -0.3767  0.0475
 5942SOL     OW29461   2.324   3.035   6.767  0.2007 -0.0984 -0.3159
 5942SOL    HW129462   2.279   3.084   6.836 -2.6494  0.1325 -2.3550
 5942SOL    HW229463   2.367   3.116   6.740  0.7564 -0.0596  0.6697
 5943SOL     OW29464   3.070   2.084   5.845  0.5061 -0.1289 -0.0952
 5943SOL    HW129465   3.051   2.105   5.936  0.7247  1.2681 -0.3680
 5943SOL    HW229466   2.984   2.080   5.802  0.7471 -0.5769 -0.5350
 5944SOL     OW29467   3.507   2.630   1.870  0.0855 -0.2076 -0.3293
 5944SOL    HW129468   3.431   2.683   1.849 -0.9682 -1.0036  1.4979
 5944SOL    HW229469   3.514   2.642   1.965  1.7421  1.0879 -0.6095
 5945SOL     OW29470   3.578   0.353  12.539 -0.1514 -0.1220  1.0785
 5945SOL    HW129471   3.661   0.309  12.521 -0.7818 -0.8380 -0.0973
 5945SOL    HW229472   3.549   0.384  12.454  2.3132 -1.1054 -0.1069
 5946SOL     OW29473   4.659   2.164   7.759  0.0392  0.1896  0.2821
 5946SOL    HW129474   4.607   2.232   7.802 -2.1519 -0.9786 -0.5218
 5946SOL    HW229475   4.678   2.108   7.834  1.3782  1.9132  1.2202
 5947SOL     OW29476   4.672   0.640   7.781  0.0220 -0.5691  0.0801
 5947SOL    HW129477   4.704   0.626   7.870  0.2186 -2.7684 -0.3455
 5947SOL    HW229478   4.733   0.585   7.732  1.4658  0.6138  0.5434
 5948SOL     OW29479   2.618   0.088  17.224 -0.1479 -0.2793 -0.1776
 5948SOL    HW129480   2.530   0.075  17.259  0.6993  0.6215  2.3531
 5948SOL    HW229481   2.667   0.112  17.303 -1.2076 -2.2088  1.0665
 5949SOL     OW29482   1.357   3.554   5.310 -0.3006  0.0685 -0.0604
 5949SOL    HW129483   1.390   3.469   5.341  0.1015  0.6325  1.0748
 5949SOL    HW229484   1.265   3.530   5.320 -0.6467  0.5908 -1.9601
 5950SOL     OW29485   2.689   4.042   6.102 -0.6948  0.0910  0.3214
 5950SOL    HW129486   2.694   4.113   6.038 -1.8087 -0.6418 -0.5772
 5950SOL    HW229487   2.625   4.082   6.162  0.1225 -0.9011  1.8554
 5951SOL     OW29488   1.920   4.009   9.337  0.3836 -0.3612 -0.2201
 5951SOL    HW129489   1.947   4.078   9.397 -0.2255 -1.1114  0.9166
 5951SOL    HW229490   1.882   4.062   9.267  0.7533  1.6204  1.0953
 5952SOL     OW29491   2.179   3.953   6.222 -0.5028 -0.3094 -0.0779
 5952SOL    HW129492   2.273   3.938   6.222 -0.7635 -2.0574  1.2818
 5952SOL    HW229493   2.168   4.010   6.298  0.1616  1.3883 -1.2544
 5953SOL     OW29494   0.848   0.273   7.745 -0.4670 -0.8029  0.1576
 5953SOL    HW129495   0.807   0.204   7.797 -0.3058 -1.5986 -0.7615
 5953SOL    HW229496   0.934   0.273   7.786 -0.6170  0.8025  0.4576
 5954SOL     OW29497   4.595   4.046  13.481 -0.1637  0.2312 -0.0003
 5954SOL    HW129498   4.547   3.996  13.547 -0.9151 -0.7121 -1.2663
 5954SOL    HW229499   4.540   4.040  13.403  0.9123  1.0488 -0.8308
 5955SOL     OW29500   1.020   3.595   1.120  0.3706 -0.3985 -0.1660
 5955SOL    HW129501   1.023   3.664   1.053  1.0803  1.3219  1.6522
 5955SOL    HW229502   1.108   3.609   1.153 -0.1450 -2.1288  1.9262
 5956SOL     OW29503   4.662   4.632   4.530  0.4865 -0.3465 -0.1190
 5956SOL    HW129504   4.705   4.551   4.557  0.6679 -0.1779  0.1083
 5956SOL    HW229505   4.648   4.624   4.436 -0.3826 -0.1068 -0.0081
 5957SOL     OW29506   3.998   3.822   9.214  0.3953 -0.1917  0.3118
 5957SOL    HW129507   4.060   3.769   9.264 -0.5233 -0.0472  1.5908
 5957SOL    HW229508   3.916   3.776   9.233  0.4258 -0.6038 -0.5469
 5958SOL     OW29509   3.605   1.233   7.862  0.2865  0.5412  0.0088
 5958SOL    HW129510   3.510   1.241   7.851  0.0556 -1.5432  0.3517
 5958SOL    HW229511   3.628   1.275   7.779 -1.3651  0.2752 -0.5942
 5959SOL     OW29512   3.961   0.150  10.418  0.0162  0.0192 -0.1256
 5959SOL    HW129513   3.997   0.167  10.331  0.2130  2.5295  0.4408
 5959SOL    HW229514   4.001   0.066  10.440  1.3562  0.8498  0.6219
 5960SOL     OW29515   0.630   2.344   9.320  0.6470 -0.9390 -0.3673
 5960SOL    HW129516   0.542   2.381   9.312  0.9584 -0.0422  0.3899
 5960SOL    HW229517   0.656   2.333   9.228 -0.7287  2.5126 -1.1459
 5961SOL     OW29518   1.371   1.387   4.838  0.6849 -0.0769 -0.3343
 5961SOL    HW129519   1.307   1.343   4.894 -0.0661  1.0387 -0.3235
 5961SOL    HW229520   1.384   1.322   4.769  2.1405 -1.8446  1.6103
 5962SOL     OW29521   3.160   1.396   3.020 -0.3698  0.5336 -0.3610
 5962SOL    HW129522   3.207   1.450   2.957  0.7033  1.1497  0.9707
 5962SOL    HW229523   3.088   1.373   2.962 -1.7826  1.9742  0.8102
 5963SOL     OW29524   3.592   3.210   6.712  0.3417  0.0736  0.3020
 5963SOL    HW129525   3.568   3.137   6.655  1.4001 -0.8275  1.0039
 5963SOL    HW229526   3.510   3.239   6.753 -0.0173  0.2470 -0.5408
 5964SOL     OW29527   3.143   2.580   3.275 -0.2843  0.1122 -0.4462
 5964SOL    HW129528   3.075   2.647   3.287  0.6685  0.6719  1.7965
 5964SOL    HW229529   3.110   2.530   3.201 -1.3160  1.6194 -1.0001
 5965SOL     OW29530   2.292   1.213   0.596  0.1330 -0.0017 -0.2287
 5965SOL    HW129531   2.325   1.299   0.622 -0.9707 -0.0755  1.4530
 5965SOL    HW229532   2.363   1.159   0.631  0.4518  0.6071  0.0526
 5966SOL     OW29533   4.276   4.723   7.883 -0.2065  0.1316  0.3528
 5966SOL    HW129534   4.304   0.074   7.909 -0.5621  0.7583 -1.4389
 5966SOL    HW229535   4.243   4.700   7.970 -1.5324  2.0673  0.3685
 5967SOL     OW29536   2.932   4.258  17.720  0.5549 -0.1038 -0.0545
 5967SOL    HW129537   2.870   4.198   0.014 -0.5230  2.3153  1.8850
 5967SOL    HW229538   2.976   4.193  17.666 -0.6454 -1.0410  0.1006
 5968SOL     OW29539   2.047   2.837   4.010  0.7734 -0.4082  0.5848
 5968SOL    HW129540   2.072   2.745   4.000  2.0055  0.3144 -3.0520
 5968SOL    HW229541   1.962   2.834   3.966  1.3294  2.2888 -0.6430
 5969SOL     OW29542   1.186   3.926  14.715 -0.5159 -0.0939  0.0874
 5969SOL    HW129543   1.193   4.019  14.739  0.9198  0.1679 -1.3765
 5969SOL    HW229544   1.121   3.905  14.782  0.5970 -0.3006  1.1046
 5970SOL     OW29545   1.292   1.710   5.419 -0.1533  0.2313 -1.1801
 5970SOL    HW129546   1.281   1.671   5.333 -1.9662 -0.5282 -0.5966
 5970SOL    HW229547   1.234   1.786   5.423 -1.6739 -1.0517  1.1527
 5971SOL     OW29548   1.029   3.874   6.253 -0.2229  0.7400  0.2664
 5971SOL    HW129549   1.053   3.901   6.164 -0.5520 -2.8823 -0.9215
 5971SOL    HW229550   1.103   3.909   6.302  1.6837 -1.3875 -1.0759
 5972SOL     OW29551   3.384   1.519   7.202  0.4114  0.1848 -0.4239
 5972SOL    HW129552   3.462   1.545   7.154 -0.6199  0.1490 -2.1021
 5972SOL    HW229553   3.356   1.606   7.231 -0.4116  0.0153 -0.7226
 5973SOL     OW29554   0.661   1.711   0.772 -0.0348 -0.1580  0.4629
 5973SOL    HW129555   0.686   1.707   0.679  1.0114  1.9997  0.6737
 5973SOL    HW229556   0.569   1.685   0.773 -0.2188  0.5722  1.5462
 5974SOL     OW29557   4.409   1.395   0.525 -0.3967  0.3418 -0.4176
 5974SOL    HW129558   4.461   1.321   0.495 -1.2778  0.7679 -2.9579
 5974SOL    HW229559   4.419   1.460   0.456  2.9790 -0.2975 -0.5203
 5975SOL     OW29560   3.303   0.102   7.091 -0.5233 -0.0870 -0.1175
 5975SOL    HW129561   3.217   0.139   7.109 -0.7089 -0.4963 -0.1791
 5975SOL    HW229562   3.353   0.156   7.153 -0.0703 -0.3525 -0.2497
 5976SOL     OW29563   1.103   1.848   5.114 -0.8452 -0.2814  0.4899
 5976SOL    HW129564   1.052   1.821   5.191  1.1429  0.1110  1.9545
 5976SOL    HW229565   1.060   1.931   5.092  2.2245  1.5724  1.4418
 5977SOL     OW29566   1.403   0.636  16.047  0.4457 -0.7835  0.3194
 5977SOL    HW129567   1.327   0.594  16.087 -0.6481  0.1392 -0.7895
 5977SOL    HW229568   1.417   0.588  15.966 -0.4926 -1.3069  0.4712
 5978SOL     OW29569   1.036   1.404   9.219  0.1161 -0.1868 -0.1316
 5978SOL    HW129570   1.075   1.316   9.220 -2.2987 -1.2460  0.4858
 5978SOL    HW229571   1.002   1.413   9.308 -1.2058  0.4546 -0.7038
 5979SOL     OW29572   3.715   4.463  16.861 -0.4296  0.1217 -0.3371
 5979SOL    HW129573   3.671   4.381  16.885  3.3331 -1.0164  2.6287
 5979SOL    HW229574   3.677   4.519  16.929 -0.9916 -0.0127 -0.5329
 5980SOL     OW29575   3.988   0.840   7.371  0.0562  0.6755 -0.7020
 5980SOL    HW129576   3.903   0.796   7.373  0.8003 -0.7335  0.6775
 5980SOL    HW229577   4.035   0.773   7.422 -1.7123 -2.0166 -2.6334
 5981SOL     OW29578   2.143   2.049   8.600  0.1195  0.3213 -0.0000
 5981SOL    HW129579   2.056   2.019   8.572  0.2417 -0.4478  0.4522
 5981SOL    HW229580   2.197   1.974   8.575 -0.1221 -0.8207  2.9441
 5982SOL     OW29581   1.695   0.852   8.917  0.5348 -0.0843 -0.7406
 5982SOL    HW129582   1.624   0.899   8.873 -3.3062 -1.2897  4.1298
 5982SOL    HW229583   1.753   0.836   8.842 -0.0865 -0.6163 -1.1128
 5983SOL     OW29584   4.298   0.552   1.819 -0.3752  0.4641 -0.1041
 5983SOL    HW129585   4.268   0.563   1.909  0.4848  0.0767  0.2337
 5983SOL    HW229586   4.325   0.642   1.803 -1.2022  0.8629  0.7938
 5984SOL     OW29587   1.001   3.247   5.960  0.6770  0.3116 -0.4274
 5984SOL    HW129588   1.026   3.160   5.927  0.7364 -0.4086  1.5256
 5984SOL    HW229589   1.083   3.297   5.963  0.1467  1.0068  2.6087
 5985SOL     OW29590   0.572   2.181  16.838 -0.1007  0.1805  0.0283
 5985SOL    HW129591   0.562   2.268  16.878 -0.3151 -0.3704  1.1658
 5985SOL    HW229592   0.597   2.136  16.919  1.5271 -0.1367 -0.6626
 5986SOL     OW29593   1.589   2.019   6.689  0.2074 -0.0081 -0.2531
 5986SOL    HW129594   1.622   2.000   6.777  0.8590 -0.0308 -0.4985
 5986SOL    HW229595   1.649   1.974   6.630 -0.7585  1.0557 -2.0512
 5987SOL     OW29596   1.826   2.711   2.928  0.0865 -0.1223  0.5503
 5987SOL    HW129597   1.824   2.792   2.878 -0.3287  0.5124  1.5930
 5987SOL    HW229598   1.757   2.660   2.885 -0.4682  0.9058  0.2289
 5988SOL     OW29599   3.421   4.547   3.000  0.2640 -0.1087 -0.2845
 5988SOL    HW129600   3.386   4.492   2.930  1.5417 -1.2029 -0.0655
 5988SOL    HW229601   3.357   4.619   2.993 -0.9748 -1.1456  0.4669
 5989SOL     OW29602   2.480   1.014   7.101  0.0517  0.0057  0.0319
 5989SOL    HW129603   2.512   0.944   7.043  0.3492  2.3372 -2.6264
 5989SOL    HW229604   2.562   1.062   7.117  0.1381 -0.1305 -0.0016
 5990SOL     OW29605   2.768   4.583  12.583  0.4303  0.5664 -0.5841
 5990SOL    HW129606   2.724   4.507  12.545 -0.2357  1.8563 -2.3879
 5990SOL    HW229607   2.735   4.658  12.533 -0.4364  0.6475  0.0920
 5991SOL     OW29608   1.411   0.192   5.825  0.1128 -0.2282 -0.1446
 5991SOL    HW129609   1.466   0.198   5.903 -0.0976 -0.5473  0.0297
 5991SOL    HW229610   1.467   0.237   5.762  2.6101 -1.5294  1.1421
 5992SOL     OW29611   0.455   0.215   9.655 -1.0367 -0.2090 -0.5550
 5992SOL    HW129612   0.531   0.208   9.713 -1.2645  2.5255  0.0913
 5992SOL    HW229613   0.391   0.264   9.707  0.6746  0.1291  1.2282
 5993SOL     OW29614   0.777   0.946   6.132  0.2254  0.3169 -0.4794
 5993SOL    HW129615   0.835   0.876   6.162  1.1954  1.3060 -0.0517
 5993SOL    HW229616   0.809   1.029   6.169 -1.8240  0.6992  0.4198
 5994SOL     OW29617   3.899   0.464  15.157  0.0667  0.5636  0.5887
 5994SOL    HW129618   3.805   0.483  15.166 -0.1201 -0.9246  1.7096
 5994SOL    HW229619   3.932   0.494  15.241  0.7894  2.2163 -0.2844
 5995SOL     OW29620   4.641   4.189   6.866 -0.4859 -0.3327  0.2634
 5995SOL    HW129621   4.644   4.269   6.918 -0.0552  0.7360 -1.4011
 5995SOL    HW229622   4.655   4.121   6.931 -2.4882 -1.4916 -0.5239
 5996SOL     OW29623   1.284   0.229   2.533 -0.4896  0.4003  0.1876
 5996SOL    HW129624   1.350   0.214   2.601  0.8415  0.7153 -1.0405
 5996SOL    HW229625   1.251   0.317   2.555 -1.0525 -0.0572  1.2095
 5997SOL     OW29626   1.668   0.078   5.172  0.1201 -0.3086  0.1973
 5997SOL    HW129627   1.702   0.082   5.083 -0.2526 -2.1180 -0.0107
 5997SOL    HW229628   1.709   0.157   5.208 -0.1519 -0.1737  0.2109
 5998SOL     OW29629   0.013   1.527   3.466 -0.1137  0.2429  0.4120
 5998SOL    HW129630   0.068   1.458   3.501  2.5432  2.4026  0.5558
 5998SOL    HW229631   0.070   1.569   3.401 -0.5199  1.0715  0.5856
 5999SOL     OW29632   2.625   4.195   7.670 -0.4904 -0.9913 -0.4555
 5999SOL    HW129633   2.689   4.125   7.685  0.6619  0.6714  2.4207
 5999SOL    HW229634   2.580   4.196   7.754 -2.0819 -0.6881 -1.3249
 6000SOL     OW29635   3.305   2.506   9.078 -0.1538 -0.1644  0.0923
 6000SOL    HW129636   3.277   2.593   9.050 -0.6314 -0.2765  0.2196
 6000SOL    HW229637   3.223   2.459   9.099 -1.0413  1.6717  0.7068
 6001SOL     OW29638   3.236   3.476  15.701 -0.2393 -0.2296  0.2139
 6001SOL    HW129639   3.296   3.453  15.629  0.2754 -0.8041  0.8302
 6001SOL    HW229640   3.286   3.542  15.750 -1.2382 -1.5870  3.0510
 6002SOL     OW29641   0.974   0.915   3.416 -0.8288  0.4075 -0.0190
 6002SOL    HW129642   0.993   0.898   3.324 -0.1550  2.6157 -0.2828
 6002SOL    HW229643   0.882   0.942   3.410 -1.1864 -0.3528  1.9577
 6003SOL     OW29644   3.061   4.560  12.765  0.2270  0.5705 -0.2555
 6003SOL    HW129645   2.986   4.620  12.774 -0.8425 -0.8926  0.5843
 6003SOL    HW229646   3.040   4.511  12.845  3.2727 -1.1901 -0.5335
 6004SOL     OW29647   4.696   2.439   9.667  0.2405  0.3141  0.4970
 6004SOL    HW129648   0.033   2.498   9.680  1.4055 -0.8474 -0.9780
 6004SOL    HW229649   4.628   2.490   9.711  0.0417  0.6291 -0.1746
 6005SOL     OW29650   3.691   3.210   5.559 -0.3934  0.5875 -0.3935
 6005SOL    HW129651   3.762   3.161   5.599  0.2284  0.0902 -2.0895
 6005SOL    HW229652   3.641   3.131   5.537 -1.1402  0.2878  2.4642
 6006SOL     OW29653   3.665   3.755   2.052 -0.2188 -0.3173 -0.2221
 6006SOL    HW129654   3.748   3.803   2.048 -0.1444 -0.4008  0.2660
 6006SOL    HW229655   3.704   3.670   2.072  0.7165 -0.1245 -1.2130
 6007SOL     OW29656   2.547   0.642   4.227 -0.1492  0.4482 -0.1184
 6007SOL    HW129657   2.481   0.708   4.250  0.1769  0.0866  1.8947
 6007SOL    HW229658   2.622   0.659   4.284  0.7384  0.8115 -1.3999
 6008SOL     OW29659   0.178   3.525  13.015  0.2839  0.1101 -0.5823
 6008SOL    HW129660   0.205   3.610  12.979 -1.4583  0.2682 -1.5040
 6008SOL    HW229661   0.264   3.484  13.006 -0.0670 -0.6365 -0.5302
 6009SOL     OW29662   2.245   3.286   9.570 -0.3730 -0.0691  0.4484
 6009SOL    HW129663   2.271   3.367   9.526  1.2707 -1.7335 -1.6565
 6009SOL    HW229664   2.280   3.307   9.657  0.3935 -1.0161  0.3639
 6010SOL     OW29665   4.416   1.591   5.485  0.9852 -0.0722 -0.0890
 6010SOL    HW129666   4.363   1.615   5.409  0.8977 -0.1105 -0.0406
 6010SOL    HW229667   4.459   1.675   5.503 -1.3939  1.7600 -2.8764
 6011SOL     OW29668   4.344   1.131   9.362  0.5660  0.1066  0.7886
 6011SOL    HW129669   4.407   1.150   9.431 -0.1325  2.0201  0.8889
 6011SOL    HW229670   4.378   1.045   9.336 -1.1665 -1.4321  3.6558
 6012SOL     OW29671   4.209   1.215   0.067 -0.1737 -0.2975  0.1216
 6012SOL    HW129672   4.267   1.291   0.060  0.5669 -1.0573 -2.1117
 6012SOL    HW229673   4.154   1.240  17.739  0.9447 -4.4016 -2.1114
 6013SOL     OW29674   4.608   2.737   1.557  0.1844 -0.2041  0.2746
 6013SOL    HW129675   4.660   2.662   1.527 -1.8741 -1.0768 -1.1181
 6013SOL    HW229676   4.671   2.789   1.606  0.3916  0.4171 -0.6438
 6014SOL     OW29677   1.147   3.841  15.227 -0.0906 -0.2703 -0.5530
 6014SOL    HW129678   1.235   3.840  15.190  0.3685 -0.4305  0.5297
 6014SOL    HW229679   1.163   3.910  15.291 -0.1231  1.5435 -2.4873
 6015SOL     OW29680   0.344   0.559   4.356  0.0676 -0.4302  0.2669
 6015SOL    HW129681   0.387   0.621   4.416  0.5262 -0.9489  0.4698
 6015SOL    HW229682   0.414   0.561   4.290  0.3008 -0.4333  0.5114
 6016SOL     OW29683   1.532   3.334   9.409 -0.1293  0.1233  0.1840
 6016SOL    HW129684   1.482   3.363   9.332 -2.0747  0.1108  1.4553
 6016SOL    HW229685   1.465   3.280   9.450  1.4006  0.2627  2.8654
 6017SOL     OW29686   2.286   0.343  14.285 -0.4525 -0.0565  0.2271
 6017SOL    HW129687   2.375   0.362  14.256  0.7754 -3.4677  1.8121
 6017SOL    HW229688   2.261   0.259  14.246 -0.2482  0.1465 -0.3345
 6018SOL     OW29689   3.788   1.469  10.800 -0.3465  0.4386 -0.5830
 6018SOL    HW129690   3.880   1.466  10.827 -0.1403 -2.0734 -1.5239
 6018SOL    HW229691   3.765   1.555  10.834  0.3744  0.7918 -0.9906
 6019SOL     OW29692   1.389   2.476   7.348  0.0443 -0.2411  0.2897
 6019SOL    HW129693   1.338   2.395   7.343 -1.7923  0.9715 -0.8166
 6019SOL    HW229694   1.471   2.445   7.385 -2.0409 -4.6297  1.1632
 6020SOL     OW29695   3.566   3.022   3.804  0.2388  0.0797 -0.4366
 6020SOL    HW129696   3.495   3.056   3.750  0.0183 -2.0519 -1.5079
 6020SOL    HW229697   3.645   3.017   3.750  0.9002 -0.0400  0.5356
 6021SOL     OW29698   2.145   4.324   3.071 -0.4307 -0.4789  0.2095
 6021SOL    HW129699   2.189   4.365   3.146 -0.0941 -0.8497  0.2153
 6021SOL    HW229700   2.102   4.254   3.120  0.5201  0.4077  2.3387
 6022SOL     OW29701   3.030   1.704   7.258  0.3701  0.1306  0.1236
 6022SOL    HW129702   2.941   1.737   7.277 -0.3583 -2.7886  1.7519
 6022SOL    HW229703   3.075   1.730   7.338  2.0123  0.6151 -0.9769
 6023SOL     OW29704   2.490   3.890   5.925 -0.2076 -0.2275 -0.2482
 6023SOL    HW129705   2.526   3.973   5.892  0.5727 -0.9732 -1.2439
 6023SOL    HW229706   2.504   3.835   5.849  4.0679 -0.6248  0.8300
 6024SOL     OW29707   0.942   4.187   5.538  0.3165  0.0862  0.4336
 6024SOL    HW129708   0.856   4.206   5.500  0.6781  1.1401  0.1213
 6024SOL    HW229709   0.997   4.251   5.493  0.2933 -0.9328 -1.0282
 6025SOL     OW29710   2.018   1.987   6.396 -0.0930  0.1951  0.5828
 6025SOL    HW129711   1.967   1.928   6.340  0.9777 -0.4462  0.2827
 6025SOL    HW229712   1.954   2.041   6.441 -0.2481 -0.6924  1.4080
 6026SOL     OW29713   4.439   0.435  14.389  0.1374  0.0892  0.4475
 6026SOL    HW129714   4.441   0.504  14.323 -1.9458 -0.0815  0.2071
 6026SOL    HW229715   4.359   0.383  14.380 -0.1783  0.4454  1.2357
 6027SOL     OW29716   4.690   0.332  17.309 -0.2191 -0.5174 -0.5782
 6027SOL    HW129717   0.038   0.352  17.270  0.0010  1.6715  1.0256
 6027SOL    HW229718   4.657   0.293  17.228  0.6841 -1.5278 -0.4537
 6028SOL     OW29719   2.586   1.331   7.599  0.1389 -0.0825  0.2028
 6028SOL    HW129720   2.556   1.330   7.508  2.4365 -0.5493 -0.5461
 6028SOL    HW229721   2.507   1.348   7.651 -2.4580 -2.5514 -2.8943
 6029SOL     OW29722   4.158   0.113   9.460 -0.1090 -0.5495  0.0226
 6029SOL    HW129723   4.078   0.072   9.427 -1.4686  3.5420 -1.7205
 6029SOL    HW229724   4.177   0.183   9.397  0.6855  0.5907  1.5531
 6030SOL     OW29725   0.028   3.284   4.395 -0.0671  0.0872 -0.5547
 6030SOL    HW129726   0.047   3.305   4.303 -0.7146  0.2305 -0.6548
 6030SOL    HW229727   4.713   3.205   4.380 -0.1053  0.1593 -0.7986
 6031SOL     OW29728   0.764   3.156   6.263 -0.1450 -0.5248  0.3921
 6031SOL    HW129729   0.730   3.229   6.315 -2.8653 -0.9197 -0.8318
 6031SOL    HW229730   0.699   3.091   6.290  0.2012 -0.7077  0.7916
 6032SOL     OW29731   3.856   2.904  15.221  0.4406 -0.2862  0.0128
 6032SOL    HW129732   3.940   2.900  15.266 -0.1133  0.3032  1.0909
 6032SOL    HW229733   3.871   2.839  15.152  1.5776 -0.9700  0.8905
 6033SOL     OW29734   1.130   3.762  11.345 -0.1223 -0.4114  0.5951
 6033SOL    HW129735   1.063   3.817  11.386 -1.3098 -0.9409 -0.6287
 6033SOL    HW229736   1.134   3.811  11.263  1.1533 -2.5175 -0.5971
 6034SOL     OW29737   0.293   2.979  15.500 -0.2938  0.1710 -0.0856
 6034SOL    HW129738   0.311   3.073  15.501 -1.5023  0.4145 -1.2536
 6034SOL    HW229739   0.277   2.965  15.593  1.4048  1.5321  0.4031
 6035SOL     OW29740   2.381   0.001   4.623 -0.0597  0.5851 -0.1595
 6035SOL    HW129741   2.367   0.068   4.689 -0.8330 -0.1553  0.4316
 6035SOL    HW229742   2.312   0.021   4.560  1.2302 -1.8470 -2.3613
 6036SOL     OW29743   3.112   1.730   5.683  0.0296  0.0441 -0.0909
 6036SOL    HW129744   3.187   1.672   5.698  0.6389  0.0751 -3.1486
 6036SOL    HW229745   3.051   1.674   5.636 -0.3510  0.8871 -0.5990
 6037SOL     OW29746   3.790   0.840  15.149 -0.1405 -0.2308 -0.7094
 6037SOL    HW129747   3.790   0.902  15.076  0.8557 -0.0480 -0.5658
 6037SOL    HW229748   3.753   0.756  15.122  1.7510 -0.7610 -1.6886
 6038SOL     OW29749   1.711   1.511   6.447 -0.4285 -0.6241  0.0573
 6038SOL    HW129750   1.750   1.436   6.401  0.3944 -0.3995  0.3960
 6038SOL    HW229751   1.791   1.546   6.487 -0.9478 -2.1910  2.5052
 6039SOL     OW29752   4.626   0.855  17.425  0.1441  0.4451 -0.4663
 6039SOL    HW129753   4.594   0.778  17.473 -1.5413  0.9973 -0.7357
 6039SOL    HW229754   4.705   0.860  17.479  1.2865  0.9444 -2.1944
 6040SOL     OW29755   2.723   1.483   5.772  0.3695 -0.7442  0.7654
 6040SOL    HW129756   2.643   1.442   5.738  1.2571 -3.2518  1.7004
 6040SOL    HW229757   2.750   1.398   5.806  0.9749 -1.7960 -2.3322
 6041SOL     OW29758   3.229   3.354   4.850  0.0120 -0.0779 -0.0766
 6041SOL    HW129759   3.314   3.344   4.893  1.1249  0.6901 -2.0980
 6041SOL    HW229760   3.259   3.413   4.781  1.9271  0.0846  0.8940
 6042SOL     OW29761   0.614   3.817   1.434  0.1963  0.2150  0.2729
 6042SOL    HW129762   0.572   3.734   1.458  1.5603 -0.2128  1.1591
 6042SOL    HW229763   0.685   3.802   1.373  1.1639  0.3544  1.3682
 6043SOL     OW29764   0.143   2.689   2.848  0.6103  0.1232 -0.5254
 6043SOL    HW129765   0.161   2.654   2.936  0.5059 -1.4462 -1.1263
 6043SOL    HW229766   0.048   2.704   2.848  1.0426  2.8932  0.4750
 6044SOL     OW29767   4.443   3.579   3.638  0.8040 -0.0698  0.1593
 6044SOL    HW129768   4.450   3.503   3.581 -2.5543 -1.0976  1.1615
 6044SOL    HW229769   4.535   3.602   3.657  0.8779  0.3693 -0.7428
 6045SOL     OW29770   2.868   4.532  12.171  0.5823 -0.3835  0.3027
 6045SOL    HW129771   2.949   4.519  12.220  1.3862  0.9833 -0.6420
 6045SOL    HW229772   2.798   4.549  12.233  0.3658  0.8426 -0.2625
 6046SOL     OW29773   3.038   2.072   3.396 -0.3090 -0.8917  0.1658
 6046SOL    HW129774   2.998   2.023   3.468 -2.3624 -2.4284 -1.9986
 6046SOL    HW229775   2.991   2.154   3.409  1.0959  0.1917 -1.5803
 6047SOL     OW29776   1.274   2.211   8.191 -0.0550 -0.1987 -0.3676
 6047SOL    HW129777   1.241   2.131   8.153 -0.3609  0.2522 -1.0504
 6047SOL    HW229778   1.230   2.271   8.131  0.9275 -0.2010 -1.0861
 6048SOL     OW29779   2.948   0.285  16.446  0.3896 -0.2998  0.1347
 6048SOL    HW129780   2.923   0.297  16.538  0.2530  1.0117 -0.0694
 6048SOL    HW229781   2.876   0.234  16.410  0.1878  0.2799 -0.2883
 6049SOL     OW29782   2.525   1.313   6.070 -0.3125  0.1531 -0.2515
 6049SOL    HW129783   2.464   1.361   6.014 -0.2750  2.3239  1.5736
 6049SOL    HW229784   2.493   1.225   6.053 -1.6194  0.9695 -1.9655
 6050SOL     OW29785   3.033   1.479  16.915 -0.1571 -0.1885 -0.0410
 6050SOL    HW129786   3.088   1.406  16.887  0.5168  0.5152 -0.5338
 6050SOL    HW229787   3.061   1.551  16.858  0.5949 -0.2827  0.2122
 6051SOL     OW29788   4.721   2.938   1.727  0.6314 -0.1795  0.3426
 6051SOL    HW129789   4.726   2.922   1.821 -2.4589 -0.2038  0.5181
 6051SOL    HW229790   4.649   2.997   1.706 -0.7658 -2.3319 -0.9121
 6052SOL     OW29791   4.723   2.659   0.711 -0.6435  0.4768 -0.1643
 6052SOL    HW129792   4.662   2.727   0.683 -0.8324  0.1361 -0.5788
 6052SOL    HW229793   0.064   2.677   0.659 -1.4091  0.1667 -1.4257
 6053SOL     OW29794   0.450   1.568   3.567  0.1082  0.3476  0.5577
 6053SOL    HW129795   0.450   1.644   3.508 -1.5030 -0.0076  0.1051
 6053SOL    HW229796   0.377   1.511   3.543 -0.8946  2.4748 -1.5082
 6054SOL     OW29797   1.255   1.644   7.804 -0.4622 -0.0542 -0.2220
 6054SOL    HW129798   1.332   1.696   7.828 -2.5498  1.4436  3.3241
 6054SOL    HW229799   1.295   1.573   7.755  0.0910  0.4150 -0.4465
 6055SOL     OW29800   1.047   2.005   6.667 -0.5009  0.1890  0.3734
 6055SOL    HW129801   1.130   1.970   6.700  0.1963 -0.2767 -1.8777
 6055SOL    HW229802   1.021   1.956   6.589 -2.2488  1.4735  0.1540
 6056SOL     OW29803   3.039   2.818   1.892  0.2826 -0.2848  0.0037
 6056SOL    HW129804   3.020   2.756   1.962  0.1943 -1.0085 -0.6606
 6056SOL    HW229805   2.978   2.796   1.822  0.4841 -0.2689 -0.1792
 6057SOL     OW29806   0.575   2.372   6.294  0.2213  0.2197 -0.4588
 6057SOL    HW129807   0.601   2.464   6.300  1.8095 -0.1121 -2.3571
 6057SOL    HW229808   0.645   2.328   6.245 -0.8279 -1.5408 -0.3721
 6058SOL     OW29809   1.643   0.530   7.695 -0.4758  1.1442  0.1329
 6058SOL    HW129810   1.691   0.531   7.778  0.8775 -2.0716 -0.5791
 6058SOL    HW229811   1.584   0.455   7.703 -0.1626  0.8993  0.1550
 6059SOL     OW29812   1.337   0.177   6.537 -0.3173 -0.0924 -0.4611
 6059SOL    HW129813   1.351   0.083   6.536 -1.7439 -0.3091 -0.5723
 6059SOL    HW229814   1.420   0.205   6.575 -0.7252  1.4846 -0.7201
 6060SOL     OW29815   2.614   4.103   9.009  0.2700  0.0570 -0.0331
 6060SOL    HW129816   2.552   4.076   9.076  2.2769  1.0053  2.1905
 6060SOL    HW229817   2.604   4.198   9.004 -0.5738 -0.0043  0.5352
 6061SOL     OW29818   3.437   2.493  13.743  0.3512  0.1135  0.0963
 6061SOL    HW129819   3.503   2.493  13.812  0.8625  0.8530 -0.3911
 6061SOL    HW229820   3.481   2.561  13.693 -0.3809 -0.7031 -1.6510
 6062SOL     OW29821   4.244   0.683   3.064 -0.0014  0.1468 -0.6485
 6062SOL    HW129822   4.159   0.644   3.045 -0.1071  0.0838 -0.0467
 6062SOL    HW229823   4.282   0.609   3.110 -0.8445  0.4628  0.5549
 6063SOL     OW29824   3.868   1.182  11.705  0.5938 -0.2877  0.0564
 6063SOL    HW129825   3.783   1.215  11.735  1.4800 -0.1529  2.4525
 6063SOL    HW229826   3.892   1.136  11.786  0.2859  1.0124  0.8808
 6064SOL     OW29827   4.374   3.498   8.055 -0.3606  0.3347 -0.0776
 6064SOL    HW129828   4.287   3.459   8.060  0.3031 -0.9737  1.6806
 6064SOL    HW229829   4.391   3.498   7.961 -1.5178 -0.3061 -0.2848
 6065SOL     OW29830   2.432   1.294   1.713  0.1137 -0.1902  0.5296
 6065SOL    HW129831   2.443   1.388   1.727 -0.1561 -0.0820  0.0093
 6065SOL    HW229832   2.385   1.294   1.629  2.7850  1.0267 -0.9587
 6066SOL     OW29833   4.668   0.134   3.311 -0.3598 -0.0354 -0.2747
 6066SOL    HW129834   4.729   0.063   3.333 -1.5869 -0.3232  2.1958
 6066SOL    HW229835   4.686   0.150   3.218 -2.1651 -0.0752 -0.6420
 6067SOL     OW29836   4.451   2.532   9.768 -0.4497  0.0274  0.2034
 6067SOL    HW129837   4.480   2.622   9.779 -1.1253  0.3341 -0.5596
 6067SOL    HW229838   4.447   2.496   9.857  1.6125 -0.5748  0.0442
 6068SOL     OW29839   0.419   0.998   4.789 -0.1304 -0.5056  0.1550
 6068SOL    HW129840   0.411   0.904   4.805  0.3843 -0.2220  2.1029
 6068SOL    HW229841   0.471   1.024   4.865 -1.3935  0.0798  0.8191
 6069SOL     OW29842   1.941   3.347   5.689  0.1198  0.1280  0.0866
 6069SOL    HW129843   1.948   3.410   5.617 -1.7955 -0.8433 -0.9519
 6069SOL    HW229844   1.921   3.266   5.643  0.4922  0.8747 -1.3886
 6070SOL     OW29845   2.135   2.720   3.454  0.0116  0.7047  0.3772
 6070SOL    HW129846   2.069   2.652   3.441  0.9946 -0.3694  0.8878
 6070SOL    HW229847   2.093   2.769   3.524 -3.3841 -0.1992 -1.0423
 6071SOL     OW29848   2.122   1.830   7.747 -0.2754  0.1185  0.6455
 6071SOL    HW129849   2.120   1.845   7.842  0.9398  0.3805  0.6308
 6071SOL    HW229850   2.158   1.742   7.736 -0.4056  0.3426 -1.4564
 6072SOL     OW29851   3.322   2.385   4.285  0.0773 -0.1275 -0.2474
 6072SOL    HW129852   3.393   2.367   4.224  0.5447 -0.2662  0.3354
 6072SOL    HW229853   3.313   2.480   4.292 -1.7686 -0.1138 -2.7930
 6073SOL     OW29854   1.212   4.088   2.548 -0.5899  0.1082 -0.3686
 6073SOL    HW129855   1.251   4.049   2.470  2.4961  0.1254  1.1691
 6073SOL    HW229856   1.118   4.089   2.532 -0.6779  1.5023  0.2918
 6074SOL     OW29857   4.476   0.328   2.815 -0.0001  0.0026 -0.5243
 6074SOL    HW129858   4.389   0.332   2.853  0.2043 -1.9520  0.1409
 6074SOL    HW229859   4.525   0.281   2.883 -1.1682 -0.3603  0.0550
 6075SOL     OW29860   1.565   4.420  13.486 -0.0138  0.1942 -0.0373
 6075SOL    HW129861   1.519   4.491  13.441  1.0542  0.0843 -1.3169
 6075SOL    HW229862   1.581   4.363  13.411 -1.1756 -0.2234  0.0255
 6076SOL     OW29863   3.937   4.580   2.807  0.0344  0.0307 -0.5139
 6076SOL    HW129864   3.995   4.633   2.753  0.1177 -0.7994 -1.2456
 6076SOL    HW229865   3.854   4.581   2.758  0.2681 -0.4293 -0.9160
 6077SOL     OW29866   4.025   3.475   9.090  0.4155  0.0176  0.5094
 6077SOL    HW129867   4.087   3.528   9.039 -1.7648  2.0456 -0.0190
 6077SOL    HW229868   3.952   3.532   9.115  0.1229 -0.2992  0.3738
 6078SOL     OW29869   1.351   1.904   4.112  0.2995 -0.2380  0.4259
 6078SOL    HW129870   1.389   1.831   4.064  0.6091  0.5916 -0.6015
 6078SOL    HW229871   1.322   1.851   4.186 -0.0169 -0.2922  0.2607
 6079SOL     OW29872   0.293   3.972   3.270  0.3299  0.4627  0.0906
 6079SOL    HW129873   0.348   3.932   3.203  0.9955 -2.4264  2.3787
 6079SOL    HW229874   0.209   3.930   3.255  2.3632 -2.3244 -3.5391
 6080SOL     OW29875   4.546   3.216   2.904  0.1803  0.2018 -0.2084
 6080SOL    HW129876   4.504   3.301   2.917 -2.0419 -0.7109 -1.4044
 6080SOL    HW229877   4.571   3.217   2.811  0.5503  0.1286 -0.1124
 6081SOL     OW29878   0.690   3.845   0.156  0.3294  0.3288 -0.5126
 6081SOL    HW129879   0.684   3.913   0.089 -1.4086  0.7041  0.0377
 6081SOL    HW229880   0.600   3.848   0.188  0.1681 -1.7229 -0.8116
 6082SOL     OW29881   3.160   1.882   3.649  0.0383 -0.5045  0.8294
 6082SOL    HW129882   3.091   1.887   3.714  0.4978  0.2423  1.2644
 6082SOL    HW229883   3.189   1.973   3.659 -1.0242 -0.3276  2.3131
 6083SOL     OW29884   2.938   3.949   7.985 -0.3692 -0.2041  0.0544
 6083SOL    HW129885   2.950   3.890   8.059 -1.7138 -1.6448 -0.8712
 6083SOL    HW229886   2.914   4.026   8.036 -0.4541 -1.3169  1.6988
 6084SOL     OW29887   1.200   4.429   8.832  0.3769 -0.4480 -0.0270
 6084SOL    HW129888   1.271   4.493   8.833 -0.1835  0.1809 -0.0010
 6084SOL    HW229889   1.124   4.468   8.875 -0.1392  0.6125 -1.8522
 6085SOL     OW29890   4.135   0.798  13.078  0.0523  0.1568  0.2137
 6085SOL    HW129891   4.219   0.752  13.081 -0.4150 -0.7486 -0.6872
 6085SOL    HW229892   4.112   0.788  12.986  0.0406  2.7024 -0.0536
 6086SOL     OW29893   2.192   3.999   9.668 -0.0870  0.1441  0.2652
 6086SOL    HW129894   2.279   4.026   9.697  0.2923 -1.1464  0.3153
 6086SOL    HW229895   2.193   3.928   9.604  0.9809  0.5093 -0.1212
 6087SOL     OW29896   2.545   1.278   4.372  0.8880 -1.0318  0.6365
 6087SOL    HW129897   2.464   1.327   4.392 -0.2824 -3.3630  1.5857
 6087SOL    HW229898   2.543   1.200   4.427  2.2949 -1.2594  0.3591
 6088SOL     OW29899   4.053   4.402   6.658  0.5155 -0.5133 -0.0239
 6088SOL    HW129900   4.072   4.479   6.604  0.0194  1.3508  2.4662
 6088SOL    HW229901   4.076   4.326   6.604  0.1723  0.3440 -1.3695
 6089SOL     OW29902   2.902   2.082  14.020 -0.3386 -0.0443  0.1431
 6089SOL    HW129903   2.934   2.150  13.961  0.3321  0.8471  1.5454
 6089SOL    HW229904   2.869   2.017  13.957  0.6279 -0.9378  0.5572
 6090SOL     OW29905   3.846   0.949   3.661 -0.4682  0.5607  0.3667
 6090SOL    HW129906   3.911   0.953   3.591 -1.9119 -1.0083 -1.0531
 6090SOL    HW229907   3.895   0.913   3.734  0.8818  2.5946  0.4703
 6091SOL     OW29908   4.183   1.631   8.675 -0.0987 -0.1153  0.3154
 6091SOL    HW129909   4.275   1.649   8.690  0.0369 -0.1064 -0.4985
 6091SOL    HW229910   4.148   1.713   8.640 -0.2036 -0.3947 -0.2362
 6092SOL     OW29911   2.261   3.131   8.318 -0.7380  0.1120 -0.1146
 6092SOL    HW129912   2.305   3.191   8.378  0.4392 -1.3746  0.4947
 6092SOL    HW229913   2.333   3.081   8.279 -2.9202 -0.8530 -2.9244
 6093SOL     OW29914   0.314   0.127   2.078 -0.2013 -0.3622 -0.1879
 6093SOL    HW129915   0.268   0.056   2.031 -2.3046  0.9544 -0.1210
 6093SOL    HW229916   0.241   0.183   2.105 -0.6740 -1.5810  1.0327
 6094SOL     OW29917   2.415   3.271   1.409 -0.4177 -0.1898  0.1959
 6094SOL    HW129918   2.458   3.195   1.449 -0.2742 -0.3474 -0.2621
 6094SOL    HW229919   2.426   3.333   1.482 -0.1006 -0.6565  0.5490
 6095SOL     OW29920   3.664   3.052   8.142  0.4592 -0.2206 -0.0297
 6095SOL    HW129921   3.737   3.111   8.159  0.2236 -0.6655  2.4259
 6095SOL    HW229922   3.581   3.087   8.173 -0.2728 -0.3678 -1.8178
 6096SOL     OW29923   1.124   4.049   6.071  0.7068 -1.0791 -0.1539
 6096SOL    HW129924   1.055   4.081   6.013  0.3043  1.4605  1.6789
 6096SOL    HW229925   1.170   4.127   6.104  0.4017 -1.6049  1.5075
 6097SOL     OW29926   3.322   0.118  13.198  0.0557 -0.3877  0.4097
 6097SOL    HW129927   3.383   0.187  13.173 -0.9464  0.0676 -0.7929
 6097SOL    HW229928   3.314   0.072  13.114 -0.3965 -0.8852  0.7264
 6098SOL     OW29929   3.171   0.440   5.559 -0.9526 -0.5090 -0.2556
 6098SOL    HW129930   3.250   0.389   5.542  1.2250  2.9690 -0.5140
 6098SOL    HW229931   3.141   0.387   5.633  1.2837  0.8460  1.6486
 6099SOL     OW29932   4.735   3.100  15.623 -0.6364 -0.1781  0.8180
 6099SOL    HW129933   0.030   3.114  15.534 -0.3140  0.7424  1.0808
 6099SOL    HW229934   4.656   3.156  15.618  0.6718  1.4757 -1.4814
 6100SOL     OW29935   2.678   3.074   3.238  0.6925 -0.7487  0.6458
 6100SOL    HW129936   2.645   2.989   3.267 -0.6093 -0.9325 -1.4066
 6100SOL    HW229937   2.615   3.145   3.252  1.2310 -0.0024 -0.7585
 6101SOL     OW29938   1.716   1.649  15.568  0.7899  0.3240  0.3107
 6101SOL    HW129939   1.802   1.669  15.529  0.6691  3.7735  1.8320
 6101SOL    HW229940   1.658   1.650  15.492  0.0733  0.6787  0.8714
 6102SOL     OW29941   1.948   1.654  15.412  0.4918 -0.1775  0.1229
 6102SOL    HW129942   2.028   1.688  15.372  0.1662 -1.2952 -1.4781
 6102SOL    HW229943   1.918   1.595  15.343  0.0350 -0.5132  0.6046
 6103SOL     OW29944   4.279   4.017   7.656  0.2397 -0.0742  1.0494
 6103SOL    HW129945   4.216   4.051   7.592  0.2995  0.2758  1.1745
 6103SOL    HW229946   4.238   3.946   7.707 -1.2735 -1.5705 -2.2755
 6104SOL     OW29947   4.090   2.993   2.026 -0.5214  0.4203 -0.4970
 6104SOL    HW129948   4.043   2.918   2.062  0.2120  0.3944  0.4163
 6104SOL    HW229949   4.172   2.991   2.076 -0.6401 -1.4614 -0.3533
 6105SOL     OW29950   1.557   1.793   4.757 -0.1447 -0.3465  0.1704
 6105SOL    HW129951   1.484   1.816   4.814  1.5674  1.6512  1.5650
 6105SOL    HW229952   1.512   1.758   4.680  1.5582 -0.3919 -0.7994
 6106SOL     OW29953   1.468   0.979  16.786  0.3005  0.3555 -0.4318
 6106SOL    HW129954   1.540   0.929  16.825 -0.3538  0.3218  0.7379
 6106SOL    HW229955   1.460   1.040  16.860  0.8645 -0.6768  0.4980
 6107SOL     OW29956   2.688   1.725   3.017 -0.2096  0.0002  0.1533
 6107SOL    HW129957   2.760   1.703   2.958  1.5402  2.5160  1.3474
 6107SOL    HW229958   2.694   1.661   3.088 -1.9256  0.1268  0.4121
 6108SOL     OW29959   4.090   2.197   0.150  0.8040  0.2334 -0.3749
 6108SOL    HW129960   4.098   2.291   0.133  0.1452  0.0116 -1.9150
 6108SOL    HW229961   4.142   2.191   0.230 -1.2477 -0.7182  0.8962
 6109SOL     OW29962   3.117   2.846  16.202 -0.7269  0.5970  0.0315
 6109SOL    HW129963   3.108   2.769  16.147 -2.0959 -0.1732  1.3495
 6109SOL    HW229964   3.029   2.883  16.207 -0.3500  1.5324 -0.2422
 6110SOL     OW29965   2.607   2.306   7.374  0.4029  0.0241  0.4871
 6110SOL    HW129966   2.532   2.308   7.433 -0.6323 -1.3193 -0.7715
 6110SOL    HW229967   2.604   2.399   7.351 -0.1707 -0.0642  0.2238
 6111SOL     OW29968   2.072   2.859   5.560 -0.2304  0.1849  0.4284
 6111SOL    HW129969   2.054   2.863   5.467  0.8409  2.8693  0.3363
 6111SOL    HW229970   2.105   2.769   5.568 -0.7313 -0.2259 -2.3843
 6112SOL     OW29971   3.290   4.426  10.089  0.0415  0.2940 -0.3562
 6112SOL    HW129972   3.297   4.514  10.127  0.0117  0.0361  0.2447
 6112SOL    HW229973   3.351   4.441  10.016  1.1758  2.8734  1.1058
 6113SOL     OW29974   2.418   1.555   4.171  0.1337  0.4918  0.5177
 6113SOL    HW129975   2.379   1.621   4.114  0.8182  0.0813 -0.4289
 6113SOL    HW229976   2.389   1.479   4.120  2.9030  0.2332 -0.6475
 6114SOL     OW29977   2.043   1.269   4.914  0.0632  0.4067 -0.3227
 6114SOL    HW129978   1.999   1.184   4.915 -0.2719  0.5395 -4.5199
 6114SOL    HW229979   2.073   1.289   4.826 -0.7314 -2.3301 -1.2046
 6115SOL     OW29980   4.183   4.520   0.996  0.1365 -0.3426 -0.1135
 6115SOL    HW129981   4.273   4.542   0.971 -0.2393  0.7468 -0.4945
 6115SOL    HW229982   4.165   4.596   1.052 -0.6528 -1.2121  0.7947
 6116SOL     OW29983   3.252   0.622   8.818  0.3137 -0.0508  0.2094
 6116SOL    HW129984   3.323   0.663   8.768 -0.9619  1.9248 -0.0029
 6116SOL    HW229985   3.176   0.663   8.776  0.1540 -1.0270 -0.4532
 6117SOL     OW29986   0.171   3.401   0.114 -0.1571  0.1741  0.1362
 6117SOL    HW129987   0.155   3.405   0.020  0.9858 -0.8188 -0.1091
 6117SOL    HW229988   0.235   3.471   0.124 -0.9557  0.7492  1.2068
 6118SOL     OW29989   0.118   3.962   8.598 -0.2261  0.0879 -0.1056
 6118SOL    HW129990   0.147   3.945   8.509  0.6985  1.6310 -0.1034
 6118SOL    HW229991   0.044   3.903   8.601  0.0694 -0.1957  1.9223
 6119SOL     OW29992   4.364   2.208   8.026  0.1611 -0.8824  0.6081
 6119SOL    HW129993   4.342   2.236   7.937 -1.1501  0.9531  1.5203
 6119SOL    HW229994   4.459   2.211   8.037  0.3259  1.9153 -1.5986
 6120SOL     OW29995   2.051   0.662   8.348 -0.0823 -0.1337  0.3673
 6120SOL    HW129996   2.092   0.729   8.403 -0.1524 -1.2094  1.7076
 6120SOL    HW229997   2.040   0.594   8.415 -2.9374  1.6039  1.6862
 6121SOL     OW29998   4.422   0.078  13.081 -0.1707 -0.3884 -0.1103
 6121SOL    HW129999   4.404   4.735  13.129  1.6921 -2.0375 -2.1695
 6121SOL    HW230000   4.518   0.075  13.087 -0.2865 -2.0951  0.5403
 6122SOL     OW30001   1.904   0.718  13.289 -0.7486 -0.4943  0.0970
 6122SOL    HW130002   1.992   0.753  13.288 -0.0718 -2.2290 -1.2208
 6122SOL    HW230003   1.890   0.706  13.383 -0.1943  0.6850  0.3254
 6123SOL     OW30004   4.518   3.464   4.534  0.6046 -0.5444  0.0410
 6123SOL    HW130005   4.603   3.479   4.491  0.9002  1.6967  1.4262
 6123SOL    HW230006   4.526   3.472   4.629  1.3134  2.2166 -0.2314
 6124SOL     OW30007   3.149   4.548   4.687 -0.2104 -0.0080 -0.0099
 6124SOL    HW130008   3.101   4.571   4.767  0.9804  0.4730  0.5640
 6124SOL    HW230009   3.075   4.532   4.629 -0.0352  0.4622 -0.3664
 6125SOL     OW30010   0.534   4.212   5.936  0.7867  0.0001  0.5198
 6125SOL    HW130011   0.628   4.217   5.951  1.1528 -2.5115 -0.8858
 6125SOL    HW230012   0.518   4.158   5.859  1.6110  0.2732  0.1528
 6126SOL     OW30013   1.744   0.879   5.183  0.5790  0.4778 -0.5960
 6126SOL    HW130014   1.802   0.954   5.191  1.5563 -0.3056 -0.1971
 6126SOL    HW230015   1.747   0.846   5.273  3.2977 -1.7596 -1.4934
 6127SOL     OW30016   0.465   1.517  17.649  0.1825  0.1288 -0.0007
 6127SOL    HW130017   0.478   1.424  17.663  0.9440  0.5204  1.9368
 6127SOL    HW230018   0.392   1.526  17.711 -0.5667 -0.0733 -0.8498
 6128SOL     OW30019   3.685   4.077   6.370 -0.2861  0.0064 -0.2269
 6128SOL    HW130020   3.730   4.119   6.444 -0.2724  2.0328 -1.3967
 6128SOL    HW230021   3.596   4.077   6.407  0.6027 -0.3835  1.9131
 6129SOL     OW30022   2.830   0.262   4.424 -0.3784 -0.1627 -0.6205
 6129SOL    HW130023   2.736   0.262   4.438 -0.2837 -1.6231 -0.0038
 6129SOL    HW230024   2.827   0.308   4.340  0.2755 -0.2045 -0.6709
 6130SOL     OW30025   4.603   1.437  10.940 -0.0678 -0.1562 -0.0007
 6130SOL    HW130026   4.613   1.342  10.936  2.3352  0.2343 -2.4342
 6130SOL    HW230027   4.685   1.471  10.976  0.7914 -0.3667 -1.7817
 6131SOL     OW30028   0.394   0.659   8.108 -0.3927 -0.3467 -0.2189
 6131SOL    HW130029   0.339   0.680   8.183 -2.9786  0.4599 -2.3377
 6131SOL    HW230030   0.368   0.568   8.093 -1.7196  0.4862 -3.1308
 6132SOL     OW30031   0.672   2.744   1.550  0.6900 -0.3644  0.5140
 6132SOL    HW130032   0.586   2.777   1.524  0.8306  0.0329  0.5561
 6132SOL    HW230033   0.723   2.779   1.477 -0.7982  0.1325 -0.2760
 6133SOL     OW30034   0.327   3.032   5.347 -0.0595  0.3403 -0.2782
 6133SOL    HW130035   0.307   3.123   5.367 -0.0540  0.0979  0.8560
 6133SOL    HW230036   0.327   3.025   5.252 -2.2764 -1.5427 -0.1739
 6134SOL     OW30037   0.216   1.583  15.516  0.3465 -0.3932  0.1753
 6134SOL    HW130038   0.214   1.489  15.500 -0.3347 -0.6369  1.6910
 6134SOL    HW230039   0.189   1.576  15.608  0.7040  0.0219  0.3135
 6135SOL     OW30040   3.811   1.417   5.636  0.3914  0.2001  1.0113
 6135SOL    HW130041   3.854   1.482   5.580 -1.3981 -0.9034 -1.6535
 6135SOL    HW230042   3.828   1.455   5.722 -0.8361  0.9597  0.9180
 6136SOL     OW30043   3.719   2.764   0.796 -0.5512  0.2177  0.3834
 6136SOL    HW130044   3.683   2.737   0.880  1.3294 -1.4577  0.6453
 6136SOL    HW230045   3.734   2.681   0.752 -0.0872  1.0341 -1.0129
 6137SOL     OW30046   2.502   4.698   7.542  0.5286 -0.1090  0.1036
 6137SOL    HW130047   2.595   4.685   7.522  0.1061 -2.3053 -0.4982
 6137SOL    HW230048   2.477   4.607   7.560  1.5319 -0.5995 -0.9714
 6138SOL     OW30049   3.081   1.301   7.818 -0.0520 -0.8715  0.2502
 6138SOL    HW130050   3.035   1.229   7.861 -1.3501 -0.1315  0.0788
 6138SOL    HW230051   3.005   1.356   7.801 -0.8105 -0.5168  4.7839
 6139SOL     OW30052   1.338   3.735   9.723  0.1271  0.4046 -0.6039
 6139SOL    HW130053   1.292   3.793   9.661  1.0500  2.0633  0.2614
 6139SOL    HW230054   1.428   3.759   9.701 -0.2839  1.2768 -1.3349
 6140SOL     OW30055   0.177   4.380   4.368  0.0291  0.1406 -0.1961
 6140SOL    HW130056   0.129   4.351   4.445  0.3629  2.1225  0.7559
 6140SOL    HW230057   0.223   4.459   4.397  0.3581  0.0034 -0.3387
 6141SOL     OW30058   0.791   0.262   2.966 -0.5178  0.0650 -0.7915
 6141SOL    HW130059   0.797   0.204   2.891  0.2006  1.4514 -1.8211
 6141SOL    HW230060   0.751   0.206   3.032  0.0804 -0.1441 -0.6020
 6142SOL     OW30061   1.826   2.170   2.874 -0.5174 -0.2459 -0.3426
 6142SOL    HW130062   1.760   2.114   2.916 -1.4168  0.1941 -1.1667
 6142SOL    HW230063   1.891   2.158   2.943 -1.1248 -2.0069 -0.0666
 6143SOL     OW30064   1.510   3.815   0.606  0.2892 -0.2312  0.7695
 6143SOL    HW130065   1.514   3.738   0.663  0.0383 -1.7414 -1.2789
 6143SOL    HW230066   1.528   3.779   0.520 -0.7784 -1.9379  1.2552
 6144SOL     OW30067   0.153   0.185  17.098 -0.2149  0.4737  0.3057
 6144SOL    HW130068   0.071   0.149  17.067 -0.2293  2.2155 -1.7037
 6144SOL    HW230069   0.188   0.221  17.017 -3.7639 -0.2458 -1.4965
 6145SOL     OW30070   2.318   1.803   1.402 -0.3843 -0.4983 -0.2710
 6145SOL    HW130071   2.344   1.716   1.372  0.5279 -0.3611  0.1415
 6145SOL    HW230072   2.302   1.784   1.495 -0.1211  0.3393 -0.0608
 6146SOL     OW30073   1.574   3.119  13.902  0.1044  0.1819 -0.1962
 6146SOL    HW130074   1.562   3.207  13.868  0.2656 -0.5285 -2.1014
 6146SOL    HW230075   1.516   3.120  13.977 -0.1839  0.0215 -0.4142
 6147SOL     OW30076   2.420   1.284   8.196  0.4919  0.2696 -0.6421
 6147SOL    HW130077   2.461   1.197   8.194 -0.3845 -0.1370 -1.0730
 6147SOL    HW230078   2.337   1.249   8.228  1.5064 -0.7229  0.9112
 6148SOL     OW30079   0.545   1.913   1.668  0.0712  0.2294 -0.0543
 6148SOL    HW130080   0.483   1.985   1.653  0.2881  0.4433  0.0779
 6148SOL    HW230081   0.617   1.952   1.717  0.2809  1.9177 -1.7031
 6149SOL     OW30082   1.680   4.064   3.940  0.2960  0.5251 -0.2040
 6149SOL    HW130083   1.657   4.053   3.848  1.2791  0.6026 -0.4562
 6149SOL    HW230084   1.770   4.093   3.928 -0.2507  2.2907 -0.0425
 6150SOL     OW30085   3.669   2.640   5.364 -0.3331 -0.2296 -0.2313
 6150SOL    HW130086   3.675   2.724   5.318  1.5392 -1.5367 -2.3794
 6150SOL    HW230087   3.581   2.608   5.342 -0.3991  0.8555 -1.5805
 6151SOL     OW30088   3.547   0.134   9.491 -0.1183  0.1764  0.1473
 6151SOL    HW130089   3.507   0.130   9.404 -1.1680 -4.5153  0.8384
 6151SOL    HW230090   3.495   0.206   9.526 -1.2293  0.0764 -1.3031
 6152SOL     OW30091   2.710   4.507   8.605 -0.1153 -0.1769  0.4665
 6152SOL    HW130092   2.751   4.568   8.665 -0.6263 -0.1432  0.7875
 6152SOL    HW230093   2.701   4.429   8.660  0.0372 -1.8686 -1.9123
 6153SOL     OW30094   3.863   2.754   3.594  0.2149  0.2483 -0.0640
 6153SOL    HW130095   3.841   2.833   3.642  2.0309  0.6712  0.0766
 6153SOL    HW230096   3.854   2.795   3.508  0.6145 -1.9508 -1.1613
 6154SOL     OW30097   1.332   0.974  12.899  0.0031 -0.2879 -0.4586
 6154SOL    HW130098   1.359   0.931  12.980 -0.6056 -0.7535 -0.5014
 6154SOL    HW230099   1.396   0.949  12.833  1.1804 -2.8238  1.6443
 6155SOL     OW30100   3.413   2.628   3.256 -0.1699  0.3664  0.3315
 6155SOL    HW130101   3.319   2.624   3.277 -0.1068 -3.7318 -0.1325
 6155SOL    HW230102   3.411   2.573   3.177 -1.0348 -0.4857  0.9459
 6156SOL     OW30103   2.752   4.720   6.526 -0.1361 -0.0487  0.2680
 6156SOL    HW130104   2.832   4.722   6.579  0.3484 -1.5397 -0.4249
 6156SOL    HW230105   2.745   0.073   6.495  1.7207  0.2861  0.7923
 6157SOL     OW30106   0.150   4.694   6.353  0.8835  0.3249  0.1989
 6157SOL    HW130107   0.235   4.691   6.398  1.2558 -2.4642 -0.6816
 6157SOL    HW230108   0.151   0.044   6.314 -1.7879  0.5626  0.6537
 6158SOL     OW30109   4.034   0.361  10.837  0.0089  0.0706  0.1467
 6158SOL    HW130110   4.001   0.404  10.758 -0.3536 -1.2629 -0.4158
 6158SOL    HW230111   4.093   0.421  10.883 -1.7111  0.5281  1.7513
 6159SOL     OW30112   2.637   1.108  10.409  0.0236  0.7275 -0.1173
 6159SOL    HW130113   2.545   1.096  10.434  0.1462  1.5749  0.7554
 6159SOL    HW230114   2.677   1.134  10.492  1.4728 -1.1591 -0.2221
 6160SOL     OW30115   3.921   0.808   2.222 -0.6758 -0.6693  0.3674
 6160SOL    HW130116   3.892   0.892   2.185 -0.0359 -2.5728 -4.4539
 6160SOL    HW230117   3.920   0.840   2.312  1.9835  1.3520 -0.3079
 6161SOL     OW30118   2.910   0.464  15.239 -0.4179  0.5696 -0.2261
 6161SOL    HW130119   2.823   0.483  15.273 -1.5551 -0.0664 -2.8271
 6161SOL    HW230120   2.964   0.484  15.316 -0.4886  0.3227 -0.1097
 6162SOL     OW30121   3.718   1.146   1.205 -0.7733  0.1276  0.0759
 6162SOL    HW130122   3.731   1.053   1.188 -4.7660 -0.2547 -0.6767
 6162SOL    HW230123   3.774   1.182   1.136  0.6199  0.9363  1.6242
 6163SOL     OW30124   0.729   0.046   5.099  0.0800 -0.2488 -0.3751
 6163SOL    HW130125   0.750   0.137   5.078 -2.2973  0.2512 -0.5553
 6163SOL    HW230126   0.754   4.733   5.021  3.2062  1.4521 -0.4464
 6164SOL     OW30127   1.205   1.626   7.376 -0.0703 -0.4476 -0.2637
 6164SOL    HW130128   1.274   1.563   7.395  0.2977 -0.4736 -1.7370
 6164SOL    HW230129   1.129   1.573   7.351  0.6243 -1.4478 -0.2475
 6165SOL     OW30130   0.089   0.700   7.239  0.5808  0.5773 -0.0921
 6165SOL    HW130131   0.159   0.642   7.269 -0.4369  0.1390  1.4296
 6165SOL    HW230132   0.081   0.750   7.320  1.9009  0.1881  0.2722
 6166SOL     OW30133   4.217   3.453   2.033 -0.1478 -0.1809 -0.0430
 6166SOL    HW130134   4.244   3.387   2.097 -0.3359  0.1715  0.3949
 6166SOL    HW230135   4.242   3.529   2.084 -2.9396  0.2019  0.7354
 6167SOL     OW30136   3.060   0.230   6.773  0.7379  0.1699 -0.4859
 6167SOL    HW130137   3.078   0.237   6.867 -1.6545  0.8208 -0.0927
 6167SOL    HW230138   3.088   0.319   6.750 -1.6479  1.0817  0.2067
 6168SOL     OW30139   1.646   4.197   6.600 -0.5224  0.3065 -0.1103
 6168SOL    HW130140   1.723   4.173   6.549 -1.0888 -1.6654 -0.0448
 6168SOL    HW230141   1.631   4.116   6.649  2.8329  0.1126  0.5759
 6169SOL     OW30142   2.751   0.004   1.241 -0.8488 -0.0963  0.2670
 6169SOL    HW130143   2.800   4.713   1.164  0.9457 -1.3679  1.8824
 6169SOL    HW230144   2.797   4.684   1.302  0.8550  2.6818  1.5793
 6170SOL     OW30145   1.113   4.028   5.750  0.2287 -0.0663 -0.2353
 6170SOL    HW130146   1.103   4.118   5.780  0.6699 -0.4218  0.9752
 6170SOL    HW230147   1.083   4.038   5.660 -0.7377  1.7639  0.2947
 6171SOL     OW30148   0.405   4.567  12.709  0.8693  0.2087  0.0004
 6171SOL    HW130149   0.398   4.503  12.639 -0.5147 -0.0124  0.3401
 6171SOL    HW230150   0.495   4.553  12.736  0.6701  0.2402  0.6750
 6172SOL     OW30151   3.429   1.703   9.174 -0.1249  0.1845  0.1655
 6172SOL    HW130152   3.397   1.620   9.210  1.4918 -0.1049  0.9395
 6172SOL    HW230153   3.346   1.750   9.168  0.0492  0.5601  0.6353
 6173SOL     OW30154   3.184   3.067   5.064 -0.0701  0.3154  0.1006
 6173SOL    HW130155   3.222   3.036   4.982  1.2228 -2.6384  1.8229
 6173SOL    HW230156   3.256   3.118   5.103 -1.4685  3.3418 -1.2362
 6174SOL     OW30157   3.928   1.530   3.100  0.5247  0.1079  0.4250
 6174SOL    HW130158   3.965   1.442   3.109 -2.8363 -1.2108  1.4180
 6174SOL    HW230159   3.858   1.519   3.165  2.6453  2.1101  3.0812
 6175SOL     OW30160   2.559   1.770   5.671  0.2917  0.5207  0.0027
 6175SOL    HW130161   2.613   1.737   5.600 -1.3488 -0.3816 -0.8450
 6175SOL    HW230162   2.633   1.803   5.721  0.5296  2.2591 -1.5274
 6176SOL     OW30163   1.999   1.260   5.460  0.3216  0.0104  0.2861
 6176SOL    HW130164   2.042   1.276   5.544 -0.1367  0.3905  0.4509
 6176SOL    HW230165   2.026   1.337   5.411  1.7254  0.2639  1.4702
 6177SOL     OW30166   1.307   0.821  11.501  0.3055 -0.0924 -0.5261
 6177SOL    HW130167   1.324   0.887  11.434 -0.5641  1.4467  0.7504
 6177SOL    HW230168   1.352   0.748  11.459 -0.6710 -0.3703 -1.0848
 6178SOL     OW30169   1.802   3.194   4.641 -0.1262 -0.8035  0.2768
 6178SOL    HW130170   1.762   3.276   4.613  1.1543 -0.7925 -1.5615
 6178SOL    HW230171   1.775   3.209   4.732 -0.1292 -1.4942  0.3857
 6179SOL     OW30172   0.529   2.586   3.622  0.1569  0.0274  0.3571
 6179SOL    HW130173   0.454   2.642   3.643  0.0999 -0.2716  0.9713
 6179SOL    HW230174   0.494   2.500   3.648 -1.4033  0.7251  0.5711
 6180SOL     OW30175   1.420   4.698  14.088  0.2691 -0.0768 -0.5068
 6180SOL    HW130176   1.490   4.641  14.053  0.5747  0.0831 -0.1572
 6180SOL    HW230177   1.433   4.691  14.183  2.1071 -2.0789 -0.8920
 6181SOL     OW30178   0.969   1.400   8.618  0.1293 -0.1398  0.6299
 6181SOL    HW130179   1.035   1.401   8.687  1.7802 -0.5884 -0.9214
 6181SOL    HW230180   1.016   1.440   8.544  0.8751 -2.3389 -0.0819
 6182SOL     OW30181   4.260   0.525   4.739  0.2492  0.1243  0.0703
 6182SOL    HW130182   4.230   0.611   4.770 -0.9364  0.3474 -1.7316
 6182SOL    HW230183   4.190   0.464   4.766  0.1564  0.9256  1.6613
 6183SOL     OW30184   1.580   4.327   5.292  0.3346 -0.0890 -0.8105
 6183SOL    HW130185   1.673   4.309   5.274 -0.0318 -2.0260 -0.8144
 6183SOL    HW230186   1.567   4.408   5.243  0.5297  0.2613 -0.2863
 6184SOL     OW30187   2.656   1.071   0.750  0.2892  0.1232  0.2882
 6184SOL    HW130188   2.677   1.129   0.823  0.7101 -0.9487  1.0157
 6184SOL    HW230189   2.569   1.053   0.784 -0.3475  1.8328 -0.4238
 6185SOL     OW30190   2.508   3.423   4.012  0.4655 -0.1326  0.2956
 6185SOL    HW130191   2.549   3.499   3.973 -1.2990  1.4429  1.4806
 6185SOL    HW230192   2.501   3.368   3.934 -1.0719 -0.1901  0.4810
 6186SOL     OW30193   1.726   4.345   3.156  0.1536 -0.6165 -0.6753
 6186SOL    HW130194   1.702   4.273   3.214  1.1890  0.6292  1.3109
 6186SOL    HW230195   1.764   4.296   3.083 -1.9160 -0.6277 -1.7596
 6187SOL     OW30196   1.604   3.744   9.380 -0.2782  0.7077  0.2622
 6187SOL    HW130197   1.681   3.754   9.325  1.3530  0.1112  2.4220
 6187SOL    HW230198   1.539   3.762   9.313  0.0739 -0.0614 -0.2816
 6188SOL     OW30199   1.633   2.296   7.746 -0.0366 -0.2607  0.1563
 6188SOL    HW130200   1.598   2.234   7.810  0.4753 -0.9873 -0.2643
 6188SOL    HW230201   1.698   2.351   7.789 -1.5147  1.7449 -0.1703
 6189SOL     OW30202   3.783   2.899   4.792  0.0752 -0.2265  0.1122
 6189SOL    HW130203   3.832   2.882   4.712 -1.1107  0.8242 -0.8381
 6189SOL    HW230204   3.849   2.879   4.859  0.2432 -2.1393 -0.6329
 6190SOL     OW30205   2.657   1.958  16.020 -0.7503  0.0784 -0.2720
 6190SOL    HW130206   2.578   1.944  15.968 -1.8969 -1.9595  2.0434
 6190SOL    HW230207   2.722   1.920  15.960 -0.1970 -0.5397  0.7049
 6191SOL     OW30208   0.688   2.199  12.323  0.0072 -0.0978  0.0989
 6191SOL    HW130209   0.604   2.245  12.311  0.9582  1.1468 -1.7436
 6191SOL    HW230210   0.720   2.237  12.405 -3.7248  1.9358  0.6332
 6192SOL     OW30211   0.369   1.294   6.445  0.4591 -0.7633  0.0424
 6192SOL    HW130212   0.400   1.367   6.391  1.4157 -1.5147 -0.4117
 6192SOL    HW230213   0.425   1.223   6.415  0.9742  0.6665 -2.2904
 6193SOL     OW30214   2.390   1.559   5.401  0.0778 -0.4668 -0.5379
 6193SOL    HW130215   2.393   1.484   5.460  0.4048 -0.3664 -0.4245
 6193SOL    HW230216   2.472   1.547   5.353  0.4035  1.9571 -0.5698
 6194SOL     OW30217   3.513   1.369   4.927 -0.4618 -0.7816 -0.0095
 6194SOL    HW130218   3.448   1.316   4.973 -0.3881 -2.7991 -2.2267
 6194SOL    HW230219   3.459   1.432   4.879  0.6215  1.2056  1.3934
 6195SOL     OW30220   2.689   3.807  17.297  0.1920 -0.2222 -0.6876
 6195SOL    HW130221   2.784   3.804  17.286  0.2903 -1.2946  0.4792
 6195SOL    HW230222   2.673   3.719  17.330  0.3146 -0.3087 -0.8645
 6196SOL     OW30223   1.184   1.774  15.935 -0.3624  0.0373  0.3325
 6196SOL    HW130224   1.181   1.813  15.847 -3.9316  0.6464  0.7213
 6196SOL    HW230225   1.228   1.844  15.984  1.4939 -1.6586  1.0994
 6197SOL     OW30226   1.413   2.151   4.197  0.2873  1.1806 -0.2503
 6197SOL    HW130227   1.378   2.139   4.286  0.5533  0.6110 -0.2210
 6197SOL    HW230228   1.409   2.061   4.164  0.6099  1.4003 -0.8937
 6198SOL     OW30229   4.203   0.291  16.013 -0.1538 -0.2488 -0.1797
 6198SOL    HW130230   4.276   0.233  16.035 -1.0581 -1.9844 -1.7456
 6198SOL    HW230231   4.193   0.345  16.091  2.0602 -0.7674  0.4646
 6199SOL     OW30232   0.719   1.365   2.765 -0.3214 -0.3278  0.4908
 6199SOL    HW130233   0.721   1.455   2.733 -0.3295 -0.2267  0.7791
 6199SOL    HW230234   0.654   1.325   2.708 -0.2654 -1.1764  1.0306
 6200SOL     OW30235   3.072   2.731   8.846 -0.3366  0.1813  0.0404
 6200SOL    HW130236   3.074   2.751   8.940 -0.8504  0.0718  0.0713
 6200SOL    HW230237   3.129   2.803   8.817 -0.8182  0.4475 -0.2374
 6201SOL     OW30238   0.556   4.175  10.259 -0.0751  0.3074  0.0650
 6201SOL    HW130239   0.555   4.083  10.233  0.1984 -0.6893  3.5410
 6201SOL    HW230240   0.538   4.169  10.353 -3.4885  4.4026 -0.3159
 6202SOL     OW30241   2.472   4.363   6.986 -0.6555  0.4957  0.0556
 6202SOL    HW130242   2.453   4.302   6.915 -2.8739  0.4901  0.6473
 6202SOL    HW230243   2.518   4.432   6.939  1.2412 -0.3505  0.6643
 6203SOL     OW30244   1.359   4.658   8.916  0.5164  0.0871  0.0184
 6203SOL    HW130245   1.438   4.703   8.885  0.2571 -0.1880 -1.0345
 6203SOL    HW230246   1.363   4.680   9.009  2.4973 -0.4405  0.0537
 6204SOL     OW30247   0.945   2.088   5.576  0.6526  0.3004  0.1517
 6204SOL    HW130248   0.877   2.124   5.633  0.0357  0.6179 -0.7765
 6204SOL    HW230249   1.019   2.120   5.628  1.7947 -1.0149 -0.6792
 6205SOL     OW30250   1.179   2.204   7.061  0.1498 -0.7894  0.5545
 6205SOL    HW130251   1.232   2.126   7.045 -2.0373 -2.0230 -0.6519
 6205SOL    HW230252   1.159   2.229   6.971 -3.3487  2.9735  2.3615
 6206SOL     OW30253   2.473   2.908   1.257  0.6440 -0.5306 -0.1168
 6206SOL    HW130254   2.557   2.951   1.244 -0.3657  1.0034 -1.6540
 6206SOL    HW230255   2.445   2.935   1.345 -0.8173 -2.6075  0.0583
 6207SOL     OW30256   2.335   1.295  12.550 -0.3755 -0.3526 -0.2988
 6207SOL    HW130257   2.417   1.250  12.572 -0.3788 -0.1816  0.0673
 6207SOL    HW230258   2.276   1.249  12.611 -1.3985 -0.6814 -1.5311
 6208SOL     OW30259   2.709   2.303  13.862  0.1739  0.2228 -0.0566
 6208SOL    HW130260   2.684   2.212  13.877 -0.3497  0.4015  0.1786
 6208SOL    HW230261   2.801   2.291  13.840  1.1209  0.5976  3.7142
 6209SOL     OW30262   3.764   0.815  17.097  0.6987 -0.6583  0.2379
 6209SOL    HW130263   3.711   0.879  17.146  2.2849 -1.2971  2.8343
 6209SOL    HW230264   3.691   0.757  17.077 -0.5120  0.8514  0.2635
 6210SOL     OW30265   2.542   1.543   3.547 -0.0543  0.3295  0.4893
 6210SOL    HW130266   2.465   1.496   3.578  0.4190 -1.1446 -0.6121
 6210SOL    HW230267   2.583   1.575   3.628  1.9119  0.6061 -0.6117
 6211SOL     OW30268   0.776   4.588   4.353  0.7609 -0.0371  0.3369
 6211SOL    HW130269   0.782   4.662   4.292 -1.3928 -1.0124 -1.0703
 6211SOL    HW230270   0.818   4.527   4.293  2.3013  0.5385  0.8350
 6212SOL     OW30271   2.756   4.445   2.047  0.6753 -0.8015  0.1136
 6212SOL    HW130272   2.748   4.354   2.020  1.5585 -1.0168  0.5640
 6212SOL    HW230273   2.787   4.437   2.138 -0.3785  1.1533  0.6380
 6213SOL     OW30274   0.147   4.543  16.044 -0.2051 -0.2188 -0.9009
 6213SOL    HW130275   0.242   4.534  16.045 -0.4092 -2.3747 -1.1723
 6213SOL    HW230276   0.128   4.468  16.102  1.4408 -0.3278 -0.4997
 6214SOL     OW30277   2.555   4.600  11.687 -0.0887  0.4082  0.0350
 6214SOL    HW130278   2.582   4.542  11.758  1.1151  0.2559 -0.5330
 6214SOL    HW230279   2.637   4.587  11.638 -0.1004  1.4527 -0.2648
 6215SOL     OW30280   3.288   2.306   5.866  0.1751 -0.0245  0.0418
 6215SOL    HW130281   3.247   2.361   5.933 -0.3592  0.7824 -0.9341
 6215SOL    HW230282   3.219   2.243   5.846 -0.6641  1.0938 -0.6462
 6216SOL     OW30283   4.735   0.550  16.487 -0.7865  0.3601 -0.3336
 6216SOL    HW130284   0.050   0.558  16.567  0.1441 -2.5811 -0.6127
 6216SOL    HW230285   0.044   0.617  16.437  0.9078 -1.1511 -0.8215
 6217SOL     OW30286   4.694   4.285   5.595 -0.4480  0.5691  0.0205
 6217SOL    HW130287   4.620   4.225   5.602  0.7319 -1.2146 -3.0512
 6217SOL    HW230288   4.726   4.270   5.684 -0.5604  2.4993  0.4022
 6218SOL     OW30289   1.179   1.174   0.150  0.4353  0.0879 -0.7921
 6218SOL    HW130290   1.165   1.211   0.237  2.9145 -0.1793 -0.2691
 6218SOL    HW230291   1.149   1.244   0.093  0.5178  1.6558  1.0871
 6219SOL     OW30292   2.606   2.588   7.357  0.1650 -0.1225 -0.1021
 6219SOL    HW130293   2.578   2.634   7.436  1.6237  2.6797 -1.2210
 6219SOL    HW230294   2.608   2.666   7.302  0.1276  1.3788  2.0270
 6220SOL     OW30295   0.109   0.053   5.612  0.2649  0.5887 -0.4592
 6220SOL    HW130296   0.045   0.111   5.569  0.4668 -0.5471 -2.3115
 6220SOL    HW230297   0.055   0.040   5.690 -1.5278 -0.9478 -1.9654
 6221SOL     OW30298   4.310   3.931   5.630  0.3447 -0.3744 -0.2023
 6221SOL    HW130299   4.243   3.868   5.657  1.4402 -2.0549 -1.5028
 6221SOL    HW230300   4.378   3.873   5.597 -0.9901  0.2387 -4.0422
 6222SOL     OW30301   2.537   2.282   0.838 -0.2973 -0.2485  0.9097
 6222SOL    HW130302   2.513   2.196   0.803  0.8117 -0.3715  0.4557
 6222SOL    HW230303   2.628   2.266   0.861  0.7145  1.7554 -1.7461
 6223SOL     OW30304   3.542   2.986  14.759 -0.0511  0.0816 -0.4200
 6223SOL    HW130305   3.468   3.001  14.818 -0.3495 -0.8966 -0.5453
 6223SOL    HW230306   3.583   2.909  14.798  1.5373  0.5414 -1.1735
 6224SOL     OW30307   3.155   0.475   2.013  0.1468  0.1277  0.5102
 6224SOL    HW130308   3.162   0.398   1.957  0.9100 -0.9990  2.1636
 6224SOL    HW230309   3.108   0.534   1.954  2.2715  0.9335 -0.3448
 6225SOL     OW30310   2.706   2.637   8.464 -0.1463 -0.5083 -0.6921
 6225SOL    HW130311   2.713   2.728   8.493 -2.8473 -0.5255 -0.0197
 6225SOL    HW230312   2.793   2.597   8.470 -0.5526 -1.3432 -0.3965
 6226SOL     OW30313   4.495   0.626  12.492  0.2068 -0.1900  0.2950
 6226SOL    HW130314   4.506   0.667  12.406 -1.6386 -0.1520  0.0718
 6226SOL    HW230315   4.583   0.604  12.520 -0.2792 -0.0731  1.9541
 6227SOL     OW30316   3.892   1.095   3.300 -0.5184  0.2438  0.9273
 6227SOL    HW130317   3.952   1.134   3.237 -2.0912  0.4936 -0.4048
 6227SOL    HW230318   3.820   1.058   3.251  0.1292 -0.7195  0.7133
 6228SOL     OW30319   1.673   0.556   0.118  0.4300  0.4048  0.0403
 6228SOL    HW130320   1.594   0.549   0.064  0.6536  1.0147 -0.3703
 6228SOL    HW230321   1.712   0.630   0.071  1.6506 -0.0471  0.3560
 6229SOL     OW30322   4.090   2.907  12.783  0.0026 -0.3067  0.4159
 6229SOL    HW130323   4.065   2.823  12.745 -4.0322  0.7962  0.6483
 6229SOL    HW230324   4.158   2.867  12.837  0.7871  0.6143  0.1104
 6230SOL     OW30325   4.653   4.527  16.683  0.3478  0.0685 -0.7312
 6230SOL    HW130326   4.623   4.584  16.755  0.3122  0.8837 -1.3945
 6230SOL    HW230327   4.723   4.482  16.729  0.0300 -0.6022 -0.9054
 6231SOL     OW30328   3.273   1.159   3.566 -0.5532 -0.6179  0.1756
 6231SOL    HW130329   3.315   1.210   3.496 -2.9497  1.3913  0.1982
 6231SOL    HW230330   3.181   1.180   3.551 -0.4054  0.4172  0.6929
 6232SOL     OW30331   1.643   3.917  16.173  0.1675  1.0897  0.2391
 6232SOL    HW130332   1.707   3.946  16.238 -0.2468 -0.3960  1.3268
 6232SOL    HW230333   1.698   3.845  16.142 -0.5420  1.2279 -1.3591
 6233SOL     OW30334   1.551   3.342   5.027 -0.0452 -0.3734 -0.1868
 6233SOL    HW130335   1.483   3.385   5.079 -1.9789 -2.2215 -1.1835
 6233SOL    HW230336   1.603   3.409   4.983  2.0357 -1.2727  0.9085
 6234SOL     OW30337   2.204   0.793   6.960 -0.1230  0.5638 -0.3592
 6234SOL    HW130338   2.163   0.717   7.000  0.5195 -1.0319 -2.7366
 6234SOL    HW230339   2.288   0.797   7.005  0.6236 -3.3200 -1.3747
 6235SOL     OW30340   0.945   2.198   7.401 -0.6209 -0.7046 -0.1903
 6235SOL    HW130341   0.864   2.225   7.357 -0.9753 -2.4868 -0.6393
 6235SOL    HW230342   0.910   2.144   7.472 -0.4682 -0.8342 -0.2129
 6236SOL     OW30343   3.923   1.825  11.898  0.7676  0.9055 -0.4068
 6236SOL    HW130344   3.838   1.782  11.888  1.8753 -1.1217 -1.0634
 6236SOL    HW230345   3.952   1.804  11.987 -2.4522  2.2635  0.9866
 6237SOL     OW30346   3.262   0.017  10.665  0.1523 -0.7957  0.0555
 6237SOL    HW130347   3.340   4.701  10.653  1.3244  0.8660  0.3639
 6237SOL    HW230348   3.206   4.730  10.591 -1.1270 -1.0970  1.1073
 6238SOL     OW30349   4.412   2.030   0.820 -0.2744  0.5471 -0.0506
 6238SOL    HW130350   4.357   2.015   0.897 -2.3904  1.3051 -1.3976
 6238SOL    HW230351   4.500   2.055   0.847  0.3391  1.5557 -2.9333
 6239SOL     OW30352   0.243   3.236  12.217  0.2896  0.3216 -0.1017
 6239SOL    HW130353   0.245   3.150  12.176  1.6558 -0.5778  1.8452
 6239SOL    HW230354   0.171   3.273  12.165 -1.0343 -2.3384 -0.1671
 6240SOL     OW30355   2.623   1.210   2.664 -0.0970  0.1358  0.2930
 6240SOL    HW130356   2.689   1.238   2.601  0.7988  0.5687  1.4245
 6240SOL    HW230357   2.557   1.278   2.653 -1.2835 -0.5965  2.8959
 6241SOL     OW30358   0.675   0.585   5.947  0.3475 -0.5222 -0.0296
 6241SOL    HW130359   0.627   0.508   5.916 -1.0055  0.0656  0.6285
 6241SOL    HW230360   0.762   0.573   5.910  0.0611  0.3742 -0.9782
 6242SOL     OW30361   0.004   1.455   2.450  0.2858 -0.0877 -0.3374
 6242SOL    HW130362   0.004   1.361   2.431  1.4409 -0.5571  1.9896
 6242SOL    HW230363   4.691   1.458   2.531 -0.1260  0.2132 -0.6060
 6243SOL     OW30364   0.423   3.880   5.539  0.2320  0.0178  0.8965
 6243SOL    HW130365   0.441   3.917   5.452 -2.3814 -0.2506  0.2525
 6243SOL    HW230366   0.360   3.946   5.567 -0.1938 -0.2157  0.4905
 6244SOL     OW30367   0.366   2.578  12.194 -0.4251  0.3080 -0.3479
 6244SOL    HW130368   0.406   2.660  12.165  0.8555 -0.6844 -1.3914
 6244SOL    HW230369   0.309   2.622  12.258  0.3185  0.3570  0.2897
 6245SOL     OW30370   3.825   3.620  16.987  0.8035 -0.2362  0.2563
 6245SOL    HW130371   3.842   3.585  16.899  0.4469  0.1136  0.0494
 6245SOL    HW230372   3.916   3.636  17.015  0.3854  0.9790  0.9139
 6246SOL     OW30373   2.209   1.984   0.227  0.4068 -0.3693 -0.2406
 6246SOL    HW130374   2.236   2.068   0.265  0.3511 -0.1937 -0.5880
 6246SOL    HW230375   2.246   1.992   0.139 -0.7376 -1.2502 -0.7905
 6247SOL     OW30376   3.725   2.208   7.040  0.6155 -0.4128  0.4134
 6247SOL    HW130377   3.697   2.123   7.005  2.7541 -0.0074 -2.3170
 6247SOL    HW230378   3.803   2.186   7.091  1.3375 -0.2068 -0.5920
 6248SOL     OW30379   4.504   2.861   1.004 -0.6867  0.7385  0.1556
 6248SOL    HW130380   4.514   2.769   1.028 -2.7378  0.2976 -0.6634
 6248SOL    HW230381   4.495   2.854   0.909  0.5679  0.6295  0.0416
 6249SOL     OW30382   3.029   3.599   2.627 -0.2182  0.2911 -0.2866
 6249SOL    HW130383   3.077   3.638   2.701 -0.4251  0.3771 -0.1988
 6249SOL    HW230384   2.945   3.602   2.673  0.1508  2.8015  0.2199
 6250SOL     OW30385   4.087   1.577   3.743 -0.0126  0.0039  0.2799
 6250SOL    HW130386   4.145   1.619   3.680 -1.8577 -0.1091 -1.4982
 6250SOL    HW230387   4.126   1.492   3.763  0.5180  0.6374  1.9899
 6251SOL     OW30388   3.227   2.784  13.431  0.3020  0.3419 -0.0717
 6251SOL    HW130389   3.202   2.875  13.448 -2.9876 -0.6484  0.5657
 6251SOL    HW230390   3.182   2.749  13.508  0.6822 -3.6364 -1.6561
 6252SOL     OW30391   2.067   1.055   9.063 -0.2272 -0.1263  0.1331
 6252SOL    HW130392   2.102   0.979   9.015 -1.6184 -0.6754 -0.0076
 6252SOL    HW230393   2.114   1.040   9.145  0.8216 -3.1742 -0.9931
 6253SOL     OW30394   4.592   2.333  15.965  0.2423  0.3031 -0.0379
 6253SOL    HW130395   4.679   2.372  15.953  0.2974  0.0039 -0.5796
 6253SOL    HW230396   4.572   2.335  15.871  2.7371  2.6679 -0.5161
 6254SOL     OW30397   3.453   2.530   2.614  0.2083 -0.1588 -0.7143
 6254SOL    HW130398   3.513   2.455   2.608 -0.8316 -1.3124  2.9522
 6254SOL    HW230399   3.419   2.532   2.525 -0.5500 -4.2847 -0.5580
 6255SOL     OW30400   3.392   3.156   6.078 -0.2625  0.5795  0.3288
 6255SOL    HW130401   3.468   3.184   6.128  0.0071 -0.2570  0.3981
 6255SOL    HW230402   3.413   3.066   6.051 -0.6949  1.0963 -1.7727
 6256SOL     OW30403   2.148   1.709   5.396  0.2728  0.4042 -0.1755
 6256SOL    HW130404   2.120   1.730   5.485  1.7957  0.6189  0.2625
 6256SOL    HW230405   2.233   1.666   5.407  0.0491 -0.0744 -0.3572
 6257SOL     OW30406   1.525   0.616  12.755  0.3719 -0.0313  0.3313
 6257SOL    HW130407   1.563   0.576  12.677 -0.0944  3.1840 -1.5026
 6257SOL    HW230408   1.597   0.599  12.816 -1.2940 -1.9260  1.7701
 6258SOL     OW30409   3.611   0.542   1.643  0.1724  0.7144  0.0887
 6258SOL    HW130410   3.662   0.561   1.722  0.3616  1.0435 -0.1135
 6258SOL    HW230411   3.573   0.629   1.626  0.1646 -0.1195 -4.0439
 6259SOL     OW30412   0.248   4.586  16.348  0.0014  0.3735  0.1588
 6259SOL    HW130413   0.311   4.633  16.403  0.2310 -0.7140  0.8240
 6259SOL    HW230414   0.206   4.653  16.295  2.0660  1.4052 -0.1752
 6260SOL     OW30415   2.526   2.557   3.314 -0.0768 -0.2181 -0.0944
 6260SOL    HW130416   2.569   2.600   3.240  2.3453 -1.0109  0.8542
 6260SOL    HW230417   2.435   2.556   3.284 -0.6895  0.6928  1.6832
 6261SOL     OW30418   0.722   2.619   5.496  0.0062 -0.3814 -0.0772
 6261SOL    HW130419   0.779   2.623   5.420 -0.0688 -0.7549 -0.1537
 6261SOL    HW230420   0.639   2.585   5.461 -0.9252  3.7280 -1.8147
 6262SOL     OW30421   1.823   1.505  15.228  0.6274  0.1993 -0.5603
 6262SOL    HW130422   1.758   1.576  15.227 -0.9393 -1.1229  3.0619
 6262SOL    HW230423   1.776   1.453  15.294  0.6782 -1.4852 -1.8573
 6263SOL     OW30424   3.051   1.501   6.365  0.0232  0.1468 -0.0517
 6263SOL    HW130425   3.023   1.573   6.422 -0.9665  0.1659 -0.5527
 6263SOL    HW230426   3.063   1.545   6.281 -1.3370  2.3635  0.8996
 6264SOL     OW30427   3.462   3.455   2.747  0.3213 -0.8345 -0.0371
 6264SOL    HW130428   3.430   3.540   2.715  0.8761 -0.1166  1.3265
 6264SOL    HW230429   3.402   3.437   2.819  0.2813 -1.4453 -0.2239
 6265SOL     OW30430   4.119   3.963   0.364 -0.5274 -0.2132 -0.6397
 6265SOL    HW130431   4.207   3.942   0.332 -0.7443  0.7260 -1.8765
 6265SOL    HW230432   4.120   4.048   0.320  2.7751  0.5183  0.8377
 6266SOL     OW30433   1.518   4.099   2.351 -0.1778  0.8936  0.1785
 6266SOL    HW130434   1.506   4.154   2.273 -0.6692  0.0422 -0.3377
 6266SOL    HW230435   1.596   4.049   2.330 -1.1427 -1.2915  1.8987
 6267SOL     OW30436   1.521   2.055  12.331  0.1134 -0.2272  0.6359
 6267SOL    HW130437   1.611   2.024  12.347 -0.3110 -1.2658  1.0509
 6267SOL    HW230438   1.483   1.988  12.388 -0.2944 -0.7147 -0.2077
 6268SOL     OW30439   0.280   3.602   6.912 -0.0635 -0.2395  0.4469
 6268SOL    HW130440   0.335   3.535   6.954 -1.7750 -1.9011  0.0175
 6268SOL    HW230441   0.262   3.568   6.824  0.9110 -1.5526  0.7396
 6269SOL     OW30442   1.361   1.873   9.048 -0.1666 -0.3603 -0.3169
 6269SOL    HW130443   1.297   1.808   9.077  1.1278 -0.7898  1.5513
 6269SOL    HW230444   1.323   1.889   8.961 -0.3171 -0.0414 -0.1949
 6270SOL     OW30445   0.359   3.931  17.369 -0.4826  0.0600  0.3715
 6270SOL    HW130446   0.439   3.952  17.322 -1.9105  0.9056 -1.7085
 6270SOL    HW230447   0.311   4.014  17.360 -1.3041 -0.6065 -1.3614
 6271SOL     OW30448   2.871   3.420   3.384 -0.9800 -0.3141  0.0786
 6271SOL    HW130449   2.888   3.327   3.399 -0.0629  0.0938  1.5309
 6271SOL    HW230450   2.781   3.415   3.415 -0.8908 -0.8736  0.2526
 6272SOL     OW30451   4.501   1.960   8.620  0.4735 -0.0761  0.4898
 6272SOL    HW130452   4.593   1.982   8.635  0.3478  0.5376  0.3848
 6272SOL    HW230453   4.511   1.944   8.526  1.6371 -0.6403  0.7086
 6273SOL     OW30454   4.070   0.093   6.572 -0.0984  0.0292  0.8270
 6273SOL    HW130455   4.147   0.137   6.536  0.3601 -0.5660  1.0984
 6273SOL    HW230456   4.063   0.018   6.514  0.0542 -0.1589  1.0552
 6274SOL     OW30457   0.955   1.474  14.830 -0.0461 -0.0692  0.2895
 6274SOL    HW130458   0.938   1.492  14.738 -1.9481 -0.7043  0.5219
 6274SOL    HW230459   0.923   1.550  14.880  0.2398 -0.0482  0.4394
 6275SOL     OW30460   1.605   3.825   4.035  0.0722  0.2105 -0.3118
 6275SOL    HW130461   1.683   3.802   4.085 -0.6987  2.2888  1.8423
 6275SOL    HW230462   1.633   3.905   3.991 -0.1717  0.6463  0.3249
 6276SOL     OW30463   3.147   0.750   7.344 -0.3887 -0.5816  0.4804
 6276SOL    HW130464   3.165   0.789   7.429  0.6207 -0.2407  0.1158
 6276SOL    HW230465   3.119   0.826   7.292  0.9185 -1.1148 -1.0082
 6277SOL     OW30466   3.494   1.648  14.848  0.0702 -0.5484 -0.4005
 6277SOL    HW130467   3.434   1.612  14.782 -0.4022 -0.2960 -0.1129
 6277SOL    HW230468   3.572   1.612  14.805  0.2319  0.2061 -0.7502
 6278SOL     OW30469   1.629   1.797   5.834  0.4512 -0.1969  0.0129
 6278SOL    HW130470   1.609   1.703   5.837 -0.5382  0.0607  1.2810
 6278SOL    HW230471   1.566   1.824   5.768 -0.9152 -0.2446  1.3116
 6279SOL     OW30472   1.014   2.427  12.347 -0.1986  0.2498  0.3653
 6279SOL    HW130473   1.072   2.391  12.280  0.7453  1.6150  0.4550
 6279SOL    HW230474   0.948   2.358  12.351  0.5260 -0.3461  2.1269
 6280SOL     OW30475   4.407   2.536   2.587  0.2064  0.0220  0.1024
 6280SOL    HW130476   4.323   2.496   2.567  0.3304  0.3301 -1.0168
 6280SOL    HW230477   4.447   2.546   2.501  0.6678  0.3633  0.3555
 6281SOL     OW30478   3.061   0.636   4.371 -0.1429 -0.2494  0.1605
 6281SOL    HW130479   3.116   0.695   4.320 -1.1009 -0.9921 -1.7570
 6281SOL    HW230480   3.062   0.558   4.316 -1.0023  0.7675 -1.3006
 6282SOL     OW30481   4.420   3.006   4.529 -0.4974 -0.6433  0.4877
 6282SOL    HW130482   4.337   3.049   4.548 -0.8321 -1.5663  1.0921
 6282SOL    HW230483   4.478   3.079   4.553 -1.1923  0.5732 -1.5835
 6283SOL     OW30484   1.857   2.516  11.528 -0.4806  0.3303 -0.9202
 6283SOL    HW130485   1.948   2.520  11.499  0.2287 -1.8267  1.0042
 6283SOL    HW230486   1.819   2.602  11.508 -2.5286 -0.5346 -0.7441
 6284SOL     OW30487   0.126   1.499   7.145 -0.1880 -0.1376 -0.3262
 6284SOL    HW130488   0.051   1.487   7.087 -1.8274  1.6256  1.4590
 6284SOL    HW230489   0.201   1.467   7.094  0.2068  0.3852 -0.0750
 6285SOL     OW30490   0.683   0.960  10.036 -0.6854 -0.1987 -0.1223
 6285SOL    HW130491   0.689   0.901   9.961 -3.5962 -1.3285  0.5493
 6285SOL    HW230492   0.655   0.896  10.101  0.5836 -0.4358  0.1967
 6286SOL     OW30493   3.338   0.465   1.719 -0.2069 -0.3989 -0.1421
 6286SOL    HW130494   3.422   0.454   1.675 -0.7262 -0.9640 -0.9924
 6286SOL    HW230495   3.348   0.560   1.727 -1.3970 -0.3044  0.2562
 6287SOL     OW30496   3.831   1.352  17.695 -0.4636  0.0498 -0.1963
 6287SOL    HW130497   3.782   1.385   0.023  0.8898  0.9828  0.2742
 6287SOL    HW230498   3.767   1.303  17.642  0.2316 -0.5652 -0.4761
 6288SOL     OW30499   0.062   2.013   8.339  0.2414 -0.0996  0.3917
 6288SOL    HW130500   0.074   2.009   8.434 -1.9556 -0.4069  0.6465
 6288SOL    HW230501   0.059   1.919   8.320  2.2505  0.2582 -1.6375
 6289SOL     OW30502   4.094   2.140   2.678 -0.3445 -0.1609  0.7527
 6289SOL    HW130503   4.029   2.196   2.719 -0.9101 -0.0726 -0.2537
 6289SOL    HW230504   4.100   2.072   2.745 -1.5805 -2.2983 -1.3158
 6290SOL     OW30505   4.011   0.346   5.893  0.3967  0.0993 -0.4274
 6290SOL    HW130506   3.955   0.416   5.927  1.3655 -0.2176  1.7826
 6290SOL    HW230507   4.073   0.397   5.841  0.1901  1.5589  0.7527
 6291SOL     OW30508   1.492   3.212   2.880  0.1298 -0.4433 -0.0081
 6291SOL    HW130509   1.575   3.202   2.926 -0.6313 -0.7242  1.3278
 6291SOL    HW230510   1.497   3.304   2.852  0.5544 -0.5267 -0.2024
 6292SOL     OW30511   2.270   2.252  13.959 -0.2602  0.2384 -0.2491
 6292SOL    HW130512   2.303   2.281  13.874 -0.4257  0.8893 -0.0959
 6292SOL    HW230513   2.190   2.303  13.964 -0.0294  0.5229  0.5346
 6293SOL     OW30514   3.966   2.324  17.423 -0.0826 -0.0245  0.2577
 6293SOL    HW130515   4.029   2.275  17.371  1.6835  1.8377  0.6353
 6293SOL    HW230516   3.942   2.395  17.364 -0.4243 -0.2022  0.1830
 6294SOL     OW30517   4.690   3.556  12.274  0.0785 -0.2464 -0.0485
 6294SOL    HW130518   4.703   3.515  12.360  0.1207 -2.9209 -1.3342
 6294SOL    HW230519   4.602   3.593  12.277  0.2703 -0.0094  2.6812
 6295SOL     OW30520   4.073   1.579  10.854 -0.5936  0.2695  0.2529
 6295SOL    HW130521   4.161   1.606  10.880 -0.0376  0.2286 -1.5835
 6295SOL    HW230522   4.067   1.637  10.778  0.5445 -0.6336 -0.5229
 6296SOL     OW30523   2.663   2.065   8.682  0.1726  0.3570 -0.0075
 6296SOL    HW130524   2.577   2.076   8.723 -0.2528  1.5344 -1.2144
 6296SOL    HW230525   2.672   1.972   8.701  2.8083  0.3975 -1.0449
 6297SOL     OW30526   4.201   1.667   7.486 -0.3190 -0.1451  0.3344
 6297SOL    HW130527   4.107   1.667   7.503 -0.9103 -0.1460 -2.9706
 6297SOL    HW230528   4.212   1.579   7.448 -0.0672 -0.1654  0.4540
 6298SOL     OW30529   1.791   4.615   3.666 -0.2175 -0.4469 -0.1767
 6298SOL    HW130530   1.872   4.655   3.698 -0.0888 -1.9629  1.4010
 6298SOL    HW230531   1.761   4.571   3.746  1.1804  0.9937  1.1467
 6299SOL     OW30532   2.425   2.037   4.448 -0.3741 -0.0453 -0.1719
 6299SOL    HW130533   2.423   2.077   4.361  2.0763  1.1622  0.3266
 6299SOL    HW230534   2.364   2.094   4.495 -0.2818  0.7379 -1.0186
 6300SOL     OW30535   1.997   3.107   7.100 -0.2997 -0.1984 -0.6514
 6300SOL    HW130536   2.007   3.023   7.145 -0.8905  0.5166  0.7922
 6300SOL    HW230537   2.048   3.167   7.154 -0.6258 -0.3989 -0.1261
 6301SOL     OW30538   3.547   3.920   9.873 -0.0361  0.6682  0.2684
 6301SOL    HW130539   3.483   3.928   9.802 -0.5226 -0.7756  0.5420
 6301SOL    HW230540   3.522   3.999   9.920  0.8841 -0.1324  2.1154
 6302SOL     OW30541   0.782   3.099   4.772 -0.3030  0.1638  0.0348
 6302SOL    HW130542   0.801   3.041   4.699 -1.3199 -0.7578  0.4987
 6302SOL    HW230543   0.771   3.040   4.847  1.9268  0.8973  0.9495
 6303SOL     OW30544   4.229   2.892   8.041 -0.5477 -0.1624 -0.0145
 6303SOL    HW130545   4.213   2.845   7.959  2.1864 -0.3085 -0.4440
 6303SOL    HW230546   4.151   2.867   8.091 -1.3965  0.5526 -0.9733
 6304SOL     OW30547   0.334   2.358  14.433  0.3530  0.3105 -0.6801
 6304SOL    HW130548   0.271   2.426  14.413  1.5600  1.6977  0.2483
 6304SOL    HW230549   0.368   2.369  14.521 -2.1143 -1.0349  0.4322
 6305SOL     OW30550   3.048   4.655  11.511  0.5504  0.0991  0.0891
 6305SOL    HW130551   3.042   4.732  11.567  0.3363  0.0494  0.1357
 6305SOL    HW230552   2.996   4.676  11.433  0.1502 -0.2589  0.2581
 6306SOL     OW30553   2.160   0.209   1.403  0.8968  0.1034 -0.0996
 6306SOL    HW130554   2.210   0.256   1.469 -0.0049  0.4349  0.3434
 6306SOL    HW230555   2.075   0.210   1.447  0.1606  1.2759 -1.5290
 6307SOL     OW30556   4.486   2.440   4.475  0.3408  1.3435  0.4623
 6307SOL    HW130557   4.527   2.497   4.409  1.5496  0.0087  0.0398
 6307SOL    HW230558   4.565   2.386   4.483 -0.6522 -0.0597  0.7201
 6308SOL     OW30559   0.672   4.507   9.564  0.7800  0.7391  0.2845
 6308SOL    HW130560   0.601   4.561   9.529  0.1628 -0.4069 -0.2509
 6308SOL    HW230561   0.751   4.556   9.544  0.8856  0.3851 -0.1829
 6309SOL     OW30562   1.819   1.630   5.446  0.7897 -0.4574 -0.5606
 6309SOL    HW130563   1.854   1.543   5.425 -0.0922 -0.3477 -2.4282
 6309SOL    HW230564   1.821   1.674   5.361 -0.0923  0.3879 -0.1403
 6310SOL     OW30565   2.928   4.648   5.985 -0.7386  0.2771  0.4380
 6310SOL    HW130566   2.923   4.709   6.058 -3.3190 -2.0990  2.2661
 6310SOL    HW230567   2.979   4.694   5.918 -0.5828  1.2475  1.2257
 6311SOL     OW30568   1.508   0.154   8.816 -0.4180  0.1185  0.1378
 6311SOL    HW130569   1.451   0.215   8.771  1.3113  1.2118 -0.5746
 6311SOL    HW230570   1.582   0.209   8.841  0.2834  0.3092 -2.3441
 6312SOL     OW30571   0.333   2.580   8.434  0.0881 -0.1579  0.2251
 6312SOL    HW130572   0.415   2.629   8.428  0.0403 -0.1222 -0.1182
 6312SOL    HW230573   0.334   2.557   8.342 -1.1361  0.0540  0.1643
 6313SOL     OW30574   1.481   4.424  14.884  0.4418  0.1267 -0.8844
 6313SOL    HW130575   1.549   4.486  14.908 -0.0478  0.8514 -1.3649
 6313SOL    HW230576   1.545   4.357  14.859  1.0934  0.8682 -1.2207
 6314SOL     OW30577   0.182   3.998   8.338  0.3896 -0.3997  0.0832
 6314SOL    HW130578   0.232   3.940   8.280  1.0118  0.7629 -0.5455
 6314SOL    HW230579   0.152   4.062   8.273  0.3985 -0.4067  0.0722
 6315SOL     OW30580   1.137   1.245   6.381  0.0057  0.1053 -0.6550
 6315SOL    HW130581   1.091   1.295   6.448 -0.3998  1.3506 -1.8657
 6315SOL    HW230582   1.195   1.316   6.355  0.4541 -0.5766 -1.5167
 6316SOL     OW30583   1.840   3.582   7.895  0.0109 -0.2523 -0.0339
 6316SOL    HW130584   1.754   3.574   7.853 -1.3135 -3.1977  3.1939
 6316SOL    HW230585   1.804   3.603   7.981  0.5989 -0.9567  0.3835
 6317SOL     OW30586   1.851   2.471   3.228 -0.0179  0.3685 -0.0989
 6317SOL    HW130587   1.772   2.420   3.247  0.4785 -0.3924 -0.1132
 6317SOL    HW230588   1.911   2.450   3.299  1.9884 -2.9907 -2.8438
 6318SOL     OW30589   0.866   0.498   0.766 -0.3465  0.0809  0.5595
 6318SOL    HW130590   0.846   0.413   0.726  1.3110 -0.0333 -0.0464
 6318SOL    HW230591   0.959   0.496   0.790 -0.1546  0.8016 -0.1370
 6319SOL     OW30592   0.655   4.692   9.328 -0.8509 -0.7001  0.1592
 6319SOL    HW130593   0.584   4.704   9.391  0.5116  2.6712  1.0021
 6319SOL    HW230594   0.628   0.024   9.267 -0.4994  1.0624  2.0314
 6320SOL     OW30595   2.586   4.463   1.175 -0.2849  0.4806 -0.1576
 6320SOL    HW130596   2.491   4.469   1.187 -0.3594 -1.9230  0.4671
 6320SOL    HW230597   2.623   4.479   1.262 -0.6158  1.8132 -0.2644
 6321SOL     OW30598   3.279   0.975   1.830  0.0457 -0.1635 -0.4766
 6321SOL    HW130599   3.360   0.987   1.880 -0.0838 -0.1189 -0.2766
 6321SOL    HW230600   3.256   1.068   1.834 -1.0882 -0.3725 -2.1139
 6322SOL     OW30601   1.300   2.373   4.032 -0.1563 -0.3459  0.1139
 6322SOL    HW130602   1.303   2.286   4.071  1.2085 -0.2929  0.1429
 6322SOL    HW230603   1.206   2.391   4.034 -0.5512 -2.2876 -1.4695
 6323SOL     OW30604   0.087   0.767   3.406 -0.4206  0.2759  0.2669
 6323SOL    HW130605   0.086   0.720   3.322 -1.1307  3.1486 -1.3288
 6323SOL    HW230606   0.072   0.693   3.466  1.5536 -0.4694 -0.1474
 6324SOL     OW30607   3.330   1.728  10.175  0.1452 -0.1661 -0.2311
 6324SOL    HW130608   3.287   1.643  10.185  0.2812 -0.2756 -0.5741
 6324SOL    HW230609   3.260   1.780  10.135 -0.8502  0.2207  1.9994
 6325SOL     OW30610   1.184   2.745  13.602 -0.5485  0.6728 -0.0543
 6325SOL    HW130611   1.145   2.820  13.557 -2.3501 -0.3247 -0.1555
 6325SOL    HW230612   1.139   2.672  13.559  0.0138 -1.3214  2.7827
 6326SOL     OW30613   0.092   0.174   4.494  0.4862  0.5366 -0.2274
 6326SOL    HW130614   0.183   0.185   4.521 -0.0478  1.5015  1.1362
 6326SOL    HW230615   0.090   0.079   4.504  1.6937  0.7424  1.8189
 6327SOL     OW30616   3.540   0.451   8.675 -0.4143 -0.3380 -0.5804
 6327SOL    HW130617   3.538   0.496   8.759  1.7077  1.6070 -1.5687
 6327SOL    HW230618   3.621   0.401   8.671 -1.1620 -1.6530  1.0577
 6328SOL     OW30619   0.889   0.264   7.437 -0.4727  0.0568  0.0098
 6328SOL    HW130620   0.840   0.293   7.513  1.0376  2.2835  0.1355
 6328SOL    HW230621   0.958   0.328   7.421  0.6567 -1.1477  0.0231
 6329SOL     OW30622   4.309   3.583  17.097  0.4622 -0.1378 -0.1893
 6329SOL    HW130623   4.377   3.629  17.048 -0.5539  0.1443 -1.3450
 6329SOL    HW230624   4.357   3.518  17.148  0.8286  0.0715 -0.2736
 6330SOL     OW30625   1.178   3.473   8.492  0.4265  0.0448 -0.1444
 6330SOL    HW130626   1.179   3.439   8.581  1.5578 -0.5913 -0.4026
 6330SOL    HW230627   1.104   3.415   8.473  1.1830 -0.7721 -0.6179
 6331SOL     OW30628   2.775   0.002   9.258  0.1816 -0.0314 -0.3867
 6331SOL    HW130629   2.691   0.014   9.214  0.6873 -0.1286 -1.3983
 6331SOL    HW230630   2.760   4.651   9.292 -0.2659  0.7266  1.3935
 6332SOL     OW30631   4.242   3.029   2.645  0.2676 -0.5740  0.6474
 6332SOL    HW130632   4.263   3.120   2.666  1.4502 -1.1329  1.8483
 6332SOL    HW230633   4.148   3.023   2.661 -0.0325  0.2194 -0.7717
 6333SOL     OW30634   3.740   0.534   1.920 -0.4054 -0.2891  0.1813
 6333SOL    HW130635   3.769   0.527   2.011 -0.0715  0.0706  0.1053
 6333SOL    HW230636   3.653   0.495   1.924 -0.4784 -0.1535 -0.0672
 6334SOL     OW30637   3.345   4.348   7.124 -0.1737  0.0720 -0.0072
 6334SOL    HW130638   3.356   4.441   7.139  0.7735 -0.0506  0.0763
 6334SOL    HW230639   3.284   4.325   7.193  0.3136  0.4326  0.5396
 6335SOL     OW30640   3.616   1.425   9.423  0.2367 -0.0730  0.4353
 6335SOL    HW130641   3.601   1.373   9.344 -0.0572 -0.1967  0.5729
 6335SOL    HW230642   3.554   1.498   9.420  0.4445  0.0845 -0.1727
 6336SOL     OW30643   4.291   2.279   8.798  0.1687 -0.0212 -0.3018
 6336SOL    HW130644   4.314   2.201   8.748 -2.0631 -1.7201  1.3022
 6336SOL    HW230645   4.239   2.243   8.870 -1.7198 -0.4671 -1.8710
 6337SOL     OW30646   2.070   4.323   4.801  0.3306  1.1595  0.1951
 6337SOL    HW130647   2.091   4.416   4.799  0.8409  1.0770  1.6603
 6337SOL    HW230648   2.157   4.288   4.823  0.4820  1.2153 -0.3188
 6338SOL     OW30649   2.995   2.758   7.328  0.0407 -0.3650 -0.7814
 6338SOL    HW130650   2.933   2.803   7.385  0.6815  0.5506 -0.8242
 6338SOL    HW230651   2.962   2.668   7.330 -0.1735 -0.3770 -4.4418
 6339SOL     OW30652   2.211   2.980   8.538 -0.4956 -0.5142  0.2928
 6339SOL    HW130653   2.304   2.959   8.534 -0.6241 -0.8069 -1.0924
 6339SOL    HW230654   2.211   3.040   8.463 -0.0553  0.6439  1.2077
 6340SOL     OW30655   3.777   4.175   1.595  0.3284 -0.1159  0.5406
 6340SOL    HW130656   3.754   4.182   1.503  1.6164  1.0501  0.3054
 6340SOL    HW230657   3.737   4.089   1.609  1.6104 -0.8600 -0.4162
 6341SOL     OW30658   4.175   0.143   1.268 -0.2685  0.5085 -0.0343
 6341SOL    HW130659   4.215   0.184   1.191 -0.7438  2.5107  0.7958
 6341SOL    HW230660   4.083   0.143   1.241 -0.5414  0.8621  0.9161
 6342SOL     OW30661   0.640   4.367  14.198 -0.1426 -0.3673 -0.0311
 6342SOL    HW130662   0.555   4.327  14.178 -1.4322  1.2916  2.1659
 6342SOL    HW230663   0.621   4.454  14.233 -1.8897 -1.1646  1.0243
 6343SOL     OW30664   4.434   3.079   3.945 -0.2577 -0.2878 -0.0484
 6343SOL    HW130665   4.436   3.081   4.040  2.6068 -3.0751 -0.0841
 6343SOL    HW230666   4.524   3.057   3.922 -0.9641 -3.7444  0.4678
 6344SOL     OW30667   2.377   1.078  12.907  0.2404  0.1739  0.1686
 6344SOL    HW130668   2.373   1.045  12.817  1.6682  0.6735 -0.0874
 6344SOL    HW230669   2.288   1.055  12.935 -0.1956  0.4755 -0.9533
 6345SOL     OW30670   3.529   0.162   3.041  0.5253  0.3200 -0.0018
 6345SOL    HW130671   3.485   0.105   3.104  1.8032 -0.1913  0.4263
 6345SOL    HW230672   3.455   0.203   2.997  1.4729  1.0258 -0.9523
 6346SOL     OW30673   0.728   0.673   6.446 -0.4013  0.1595  0.3177
 6346SOL    HW130674   0.668   0.747   6.451  0.2847  0.8878 -2.2947
 6346SOL    HW230675   0.663   0.605   6.430 -0.0324  0.4444 -2.3149
 6347SOL     OW30676   1.729   2.721   3.256 -0.4139 -0.0407  0.2626
 6347SOL    HW130677   1.766   2.632   3.255 -0.5636 -0.1054  0.3710
 6347SOL    HW230678   1.708   2.733   3.349 -0.5126  1.3313  0.0635
 6348SOL     OW30679   1.831   1.002   3.618  0.1748 -0.3306 -0.1501
 6348SOL    HW130680   1.887   0.930   3.588  2.3557  1.6775 -0.9094
 6348SOL    HW230681   1.741   0.981   3.593  0.7269 -0.6099 -1.9211
 6349SOL     OW30682   0.922   0.483   6.873  0.0675  0.5833 -0.2952
 6349SOL    HW130683   1.004   0.434   6.881 -0.8978 -0.9373  0.4233
 6349SOL    HW230684   0.935   0.535   6.794  1.8723  1.5138  0.6099
 6350SOL     OW30685   4.323   0.257   4.269  0.4540 -0.2442  0.2477
 6350SOL    HW130686   4.313   0.324   4.336 -1.0136 -0.5690  0.3453
 6350SOL    HW230687   4.325   0.181   4.327  3.0489  0.0983  0.5977
 6351SOL     OW30688   2.865   2.314   6.873  0.6501  0.0328  0.2914
 6351SOL    HW130689   2.865   2.320   6.968 -1.2568 -2.3338  0.4731
 6351SOL    HW230690   2.789   2.256   6.861  0.4800  0.5646 -1.2771
 6352SOL     OW30691   1.581   2.149   5.834 -0.7360 -0.0342  0.6481
 6352SOL    HW130692   1.526   2.117   5.906  0.4487  0.2131  1.6379
 6352SOL    HW230693   1.524   2.119   5.762  0.1967  0.6836 -0.3774
 6353SOL     OW30694   4.077   2.191   0.577 -0.1014  0.5446 -0.3273
 6353SOL    HW130695   4.088   2.241   0.658  4.2065 -3.6423  1.6528
 6353SOL    HW230696   4.026   2.251   0.522  1.2868 -1.1201 -3.4407
 6354SOL     OW30697   1.721   3.546   5.995 -0.4486 -0.1657 -0.0430
 6354SOL    HW130698   1.809   3.583   5.985 -2.1313  3.6424 -0.9442
 6354SOL    HW230699   1.671   3.628   6.002  0.6401  0.4644  0.3180
 6355SOL     OW30700   1.065   3.973   8.169 -0.0022  0.4527 -0.0868
 6355SOL    HW130701   1.128   3.928   8.225  0.6356  0.9901 -0.3785
 6355SOL    HW230702   1.103   4.060   8.158 -3.1050  2.0372  1.8820
 6356SOL     OW30703   3.884   3.546   2.834 -0.0539 -0.4018  0.5461
 6356SOL    HW130704   3.895   3.475   2.771  0.4774 -0.5562  0.8121
 6356SOL    HW230705   3.959   3.547   2.893 -0.4296 -1.7983  1.0435
 6357SOL     OW30706   1.233   4.240   9.170  0.2106 -0.2988  0.2070
 6357SOL    HW130707   1.213   4.333   9.180 -0.3482 -0.4889  0.8541
 6357SOL    HW230708   1.199   4.205   9.252  2.3998 -0.3713  1.1035
 6358SOL     OW30709   2.425   4.025   9.204 -0.6328  0.8605  0.5696
 6358SOL    HW130710   2.371   4.066   9.272 -0.4774 -0.1806  1.3178
 6358SOL    HW230711   2.350   3.988   9.158  2.2487 -4.3617  0.1014
 6359SOL     OW30712   0.228   0.898  16.737 -0.0569 -0.3462  0.5443
 6359SOL    HW130713   0.141   0.903  16.776 -1.4097  0.1053 -2.4920
 6359SOL    HW230714   0.291   0.914  16.807  0.9131 -0.9903 -0.1753
 6360SOL     OW30715   2.208   2.518  15.706  0.1137 -0.1845  0.5623
 6360SOL    HW130716   2.181   2.597  15.658  1.6030 -0.1125 -0.1724
 6360SOL    HW230717   2.210   2.456  15.633 -0.0366 -0.2574  0.6205
 6361SOL     OW30718   2.686   0.200   8.007 -0.7960 -0.4574  0.2763
 6361SOL    HW130719   2.622   0.194   8.078  1.0666  0.6129  2.0675
 6361SOL    HW230720   2.637   0.191   7.925  0.3534  1.7571 -0.6610
 6362SOL     OW30721   4.556   3.682   9.631 -0.4587  0.0220 -0.3291
 6362SOL    HW130722   4.497   3.638   9.691  0.2553  1.3694  1.3568
 6362SOL    HW230723   4.600   3.749   9.684 -2.0601 -0.4533  1.5986
 6363SOL     OW30724   4.031   2.298   6.927  0.1525  0.2276 -0.4374
 6363SOL    HW130725   4.056   2.349   7.005  0.4517 -0.7942  0.1367
 6363SOL    HW230726   3.995   2.217   6.964 -0.4683  0.5543 -0.3144
 6364SOL     OW30727   3.554   0.702   6.056  0.3907  0.0240  0.2184
 6364SOL    HW130728   3.479   0.706   6.116  0.0428  2.8074 -0.4417
 6364SOL    HW230729   3.622   0.725   6.120 -1.3763  1.5437  1.5451
 6365SOL     OW30730   2.948   3.772   7.081 -0.5823 -0.7201  0.3271
 6365SOL    HW130731   2.961   3.701   7.144 -0.3450 -0.5142  0.5082
 6365SOL    HW230732   2.874   3.822   7.112  0.7119 -0.8222  3.5568
 6366SOL     OW30733   3.399   4.700   2.378 -0.3820  0.4526 -0.1397
 6366SOL    HW130734   3.334   4.659   2.434 -0.3550 -0.2295 -0.6020
 6366SOL    HW230735   3.445   4.629   2.333 -1.2882  0.1246 -0.5478
 6367SOL     OW30736   4.093   2.958  12.481 -0.4406 -0.0590  0.5387
 6367SOL    HW130737   4.150   3.018  12.530  1.0801 -0.1807 -1.1022
 6367SOL    HW230738   4.072   3.015  12.408  1.0573  2.3733  2.0145
 6368SOL     OW30739   2.440   1.875   6.625 -0.4265 -0.4733 -0.5790
 6368SOL    HW130740   2.396   1.892   6.541  1.9095 -1.4424 -2.0005
 6368SOL    HW230741   2.501   1.809   6.592  1.1780  0.0167  1.3994
 6369SOL     OW30742   2.873   1.188   8.756 -0.3832  0.0828 -0.3638
 6369SOL    HW130743   2.801   1.249   8.768  0.5561  1.2277 -0.6002
 6369SOL    HW230744   2.826   1.115   8.716 -1.1160  0.6951 -0.6026
 6370SOL     OW30745   1.709   1.118  12.651  0.3273  0.3457 -0.5496
 6370SOL    HW130746   1.687   1.189  12.711  1.5575  0.5377 -0.3460
 6370SOL    HW230747   1.655   1.042  12.676  2.4484 -0.3386  1.9080
 6371SOL     OW30748   3.069   0.862   8.923 -0.0172  0.4763 -0.1627
 6371SOL    HW130749   3.108   0.781   8.956 -1.3002  0.7168  1.9678
 6371SOL    HW230750   3.137   0.910   8.875  0.4772 -0.0589 -0.0058
 6372SOL     OW30751   3.471   0.817   9.268  0.0548 -0.2384  0.1793
 6372SOL    HW130752   3.512   0.878   9.206  0.2747  1.2320  1.7756
 6372SOL    HW230753   3.539   0.814   9.335 -0.5530 -2.4308  0.6944
 6373SOL     OW30754   2.274   1.067   3.426  0.3975  0.2593 -0.8948
 6373SOL    HW130755   2.292   1.034   3.514 -0.4546  0.6651 -0.5693
 6373SOL    HW230756   2.284   1.162   3.432  0.1023 -0.0054  4.0467
 6374SOL     OW30757   1.372   3.608   6.557 -1.0001 -0.4264 -0.1346
 6374SOL    HW130758   1.371   3.517   6.527 -1.3302 -0.4890  0.0559
 6374SOL    HW230759   1.402   3.593   6.647 -2.1931 -0.2156  0.3093
 6375SOL     OW30760   4.184   2.608   6.912 -0.2434 -0.0028  0.4479
 6375SOL    HW130761   4.277   2.623   6.898 -0.8641  2.0414 -1.6309
 6375SOL    HW230762   4.181   2.555   6.991  1.6345  2.5444  2.2071
 6376SOL     OW30763   1.352   0.839   2.554  0.0747  0.1811 -0.7694
 6376SOL    HW130764   1.443   0.843   2.584 -0.4547  1.9102  0.6326
 6376SOL    HW230765   1.305   0.815   2.635  2.5248 -0.7075  0.3890
 6377SOL     OW30766   0.994   0.731   1.279  0.5569  0.0595 -0.2587
 6377SOL    HW130767   0.992   0.707   1.187 -2.1332  0.0220 -0.2002
 6377SOL    HW230768   1.072   0.786   1.281  1.4926 -1.2991  0.5260
 6378SOL     OW30769   0.870   4.144   9.531  0.0700 -0.1956  0.5828
 6378SOL    HW130770   0.825   4.127   9.447 -0.4716 -3.6895  1.5636
 6378SOL    HW230771   0.804   4.167   9.596  0.2853  0.9133  0.4134
 6379SOL     OW30772   0.647   3.235   7.568 -0.4267  0.0208 -0.4374
 6379SOL    HW130773   0.564   3.241   7.520 -0.8747 -0.9486  0.2198
 6379SOL    HW230774   0.628   3.162   7.627 -0.3418 -0.6302 -1.2100
 6380SOL     OW30775   1.111   1.037  11.139 -0.3640  0.5471  0.6362
 6380SOL    HW130776   1.126   1.072  11.052  0.8554 -2.2880 -0.3017
 6380SOL    HW230777   1.196   1.056  11.179 -0.0876  0.3641  0.1324
 6381SOL     OW30778   0.955   0.009   3.387  0.5875 -0.3833  0.2710
 6381SOL    HW130779   1.015   0.011   3.461 -1.0350  0.5650  1.5514
 6381SOL    HW230780   0.870   4.720   3.420  0.3801 -1.4209 -1.0629
 6382SOL     OW30781   2.559   0.914   4.912 -0.3702 -0.3338  0.4643
 6382SOL    HW130782   2.593   0.908   5.001 -2.4840 -1.9250  1.1715
 6382SOL    HW230783   2.479   0.966   4.913  0.6422  1.2197 -0.0309
 6383SOL     OW30784   2.002   4.632   7.895  0.8993 -0.1768 -0.3059
 6383SOL    HW130785   1.920   4.598   7.929  0.9510  1.2889  1.2604
 6383SOL    HW230786   1.988   4.623   7.800 -1.3742 -0.9146  0.1135
 6384SOL     OW30787   1.333   4.108   4.431  0.2155  0.2675  0.6062
 6384SOL    HW130788   1.272   4.035   4.417  2.3843 -1.3674 -0.3787
 6384SOL    HW230789   1.323   4.122   4.525 -0.3520 -1.0324  0.7372
 6385SOL     OW30790   4.528   0.841   0.001 -0.5369 -0.1313  0.3782
 6385SOL    HW130791   4.480   0.905  17.696 -0.5578 -1.0436 -0.7468
 6385SOL    HW230792   4.533   0.885   0.086 -0.8820 -2.5257  1.6314
 6386SOL     OW30793   1.444   0.296   6.316 -0.5321 -0.6915  0.1499
 6386SOL    HW130794   1.429   0.390   6.325  0.8014 -0.6700  2.0560
 6386SOL    HW230795   1.393   0.262   6.389 -0.4204 -1.7532 -0.2562
 6387SOL     OW30796   0.852   3.270  17.469  0.4703 -0.6022  0.0873
 6387SOL    HW130797   0.817   3.229  17.390 -1.9222 -1.9042  1.8328
 6387SOL    HW230798   0.769   3.291  17.511 -1.0291 -0.1614 -3.0762
 6388SOL     OW30799   1.234   0.564   2.328  0.1320 -0.4772  0.6547
 6388SOL    HW130800   1.195   0.549   2.415 -1.4608  0.8597  0.1740
 6388SOL    HW230801   1.324   0.553   2.359 -0.4957  1.9173  3.4376
 6389SOL     OW30802   3.254   0.131  12.522 -0.0966  0.4568 -0.4735
 6389SOL    HW130803   3.173   0.080  12.525  1.7916 -2.5242 -0.0339
 6389SOL    HW230804   3.273   0.133  12.428 -1.8474  0.0929 -0.8319
 6390SOL     OW30805   0.716   3.630   5.060  0.0912 -0.8871  0.2177
 6390SOL    HW130806   0.725   3.597   5.149 -0.6194 -0.2018  0.5463
 6390SOL    HW230807   0.799   3.601   5.021  1.0638 -0.2606  1.7997
 6391SOL     OW30808   1.941   1.422  16.527  0.0670  0.1946 -0.1967
 6391SOL    HW130809   1.967   1.479  16.456  0.9718 -1.4688 -1.2084
 6391SOL    HW230810   1.853   1.454  16.547 -0.2842  0.5769 -2.4582
 6392SOL     OW30811   2.722   1.732  17.066  0.4465  0.1289 -0.4385
 6392SOL    HW130812   2.781   1.804  17.042  0.8818  0.4312  1.5546
 6392SOL    HW230813   2.678   1.725  16.981 -0.4598  0.5167 -0.0079
 6393SOL     OW30814   1.722   0.650   5.008 -0.2387 -0.5523  0.1219
 6393SOL    HW130815   1.738   0.593   5.084  1.2759 -1.3738 -0.7919
 6393SOL    HW230816   1.725   0.733   5.055 -0.5675 -0.7073  0.4176
 6394SOL     OW30817   2.600   1.749   1.529  0.9134  0.2153  0.7978
 6394SOL    HW130818   2.608   1.659   1.495 -0.4858  0.0370  0.9346
 6394SOL    HW230819   2.691   1.776   1.533  0.7899  0.7924 -0.2346
 6395SOL     OW30820   4.250   4.301   4.746  0.0015  0.0902 -0.3851
 6395SOL    HW130821   4.314   4.325   4.679  1.6401 -0.8841  0.8464
 6395SOL    HW230822   4.213   4.218   4.716 -0.3247  0.2120 -0.3214
 6396SOL     OW30823   2.053   3.813  16.004 -0.3771 -0.3719  0.1172
 6396SOL    HW130824   2.133   3.777  16.043 -0.0179  1.2014  0.8296
 6396SOL    HW230825   1.986   3.809  16.071 -0.1415 -1.3728  0.2916
 6397SOL     OW30826   1.479   2.810   2.275  0.4472 -0.0663  0.1986
 6397SOL    HW130827   1.558   2.861   2.255  0.2013  0.5383  0.7696
 6397SOL    HW230828   1.427   2.820   2.195  0.0407 -1.6814  0.2509
 6398SOL     OW30829   3.080   1.450   7.536 -0.0745 -0.4369  0.2598
 6398SOL    HW130830   3.032   1.377   7.573 -1.0323  1.0154  1.8911
 6398SOL    HW230831   3.002   1.498   7.509  1.1381 -0.7532 -3.8236
 6399SOL     OW30832   2.157   0.094   0.101  0.1953  0.1026 -0.2524
 6399SOL    HW130833   2.142   0.163   0.166 -1.2174 -0.3172 -0.1331
 6399SOL    HW230834   2.226   0.142   0.055  1.8696  0.1399  2.3038
 6400SOL     OW30835   3.002   3.749  11.630 -0.2705  0.3174  0.2880
 6400SOL    HW130836   3.022   3.704  11.548  0.2135  2.1570 -0.5986
 6400SOL    HW230837   2.966   3.833  11.603  0.9157  0.8401  0.3400
 6401SOL     OW30838   1.224   0.910   2.819  0.0267  0.0218  0.1408
 6401SOL    HW130839   1.131   0.894   2.839  0.1477 -1.1653 -0.2432
 6401SOL    HW230840   1.226   1.001   2.790 -0.1663  0.1900  0.6582
 6402SOL     OW30841   1.414   1.536   3.059 -0.1344 -0.4291  0.0880
 6402SOL    HW130842   1.401   1.543   3.154  1.0998 -0.1263  0.2390
 6402SOL    HW230843   1.371   1.452   3.043 -0.2517 -0.1838 -0.8555
 6403SOL     OW30844   3.861   1.941   4.493  0.2433  0.8833 -0.1794
 6403SOL    HW130845   3.767   1.932   4.502  0.3992  0.1980  0.7747
 6403SOL    HW230846   3.867   2.001   4.418  1.5976 -0.2940 -1.0157
 6404SOL     OW30847   2.325   1.805   0.956 -0.1307  0.9075  0.2878
 6404SOL    HW130848   2.310   1.783   0.864 -0.5530  2.9960 -0.1307
 6404SOL    HW230849   2.398   1.751   0.987  3.2516  4.5495 -1.4515
 6405SOL     OW30850   4.467   1.940   6.646 -0.1621 -0.0003  0.3854
 6405SOL    HW130851   4.505   1.898   6.569  1.2062  0.1463  0.9697
 6405SOL    HW230852   4.413   1.872   6.685  0.1013 -0.5895 -0.2870
 6406SOL     OW30853   3.154   3.967   5.725 -0.0905  0.4405 -0.2599
 6406SOL    HW130854   3.071   3.934   5.759  0.6433 -1.3585 -0.2412
 6406SOL    HW230855   3.207   3.953   5.803  1.3716 -1.0458 -1.5097
 6407SOL     OW30856   1.979   3.281   4.906 -0.2796 -0.5418 -0.3188
 6407SOL    HW130857   1.981   3.376   4.917  1.4718 -0.8846  2.2952
 6407SOL    HW230858   2.053   3.277   4.846  1.0244  1.3372  1.1495
 6408SOL     OW30859   1.143   4.052  15.411 -0.1608 -0.1122 -0.1573
 6408SOL    HW130860   1.197   4.027  15.486 -0.9526 -2.2124 -0.2798
 6408SOL    HW230861   1.058   4.065  15.453 -0.7657 -2.1469 -0.7020
 6409SOL     OW30862   2.090   0.224   6.370 -0.0271  0.5879  0.3511
 6409SOL    HW130863   2.103   0.319   6.362 -1.5532  0.7297 -0.3836
 6409SOL    HW230864   2.049   0.225   6.457 -0.0743 -1.5882  0.3400
 6410SOL     OW30865   1.682   2.894   6.890 -0.7126 -0.2057 -0.0247
 6410SOL    HW130866   1.725   2.815   6.860  0.4794  1.0377 -1.6012
 6410SOL    HW230867   1.740   2.964   6.860 -2.2914  2.1164  2.2645
 6411SOL     OW30868   0.651   2.299   3.427  0.4299 -0.0900  0.2606
 6411SOL    HW130869   0.727   2.337   3.470  0.9064 -1.3300  0.4914
 6411SOL    HW230870   0.677   2.212   3.396 -0.7439 -0.1912 -0.4486
 6412SOL     OW30871   0.887   3.815  15.399 -0.8253  0.5638 -0.1085
 6412SOL    HW130872   0.831   3.832  15.324  0.3844 -2.3898 -1.6834
 6412SOL    HW230873   0.965   3.802  15.344  0.4146 -0.0255  1.7632
 6413SOL     OW30874   1.643   3.212   6.502  0.0194  0.0827 -0.2444
 6413SOL    HW130875   1.725   3.252   6.530  0.0012 -0.1599  0.1542
 6413SOL    HW230876   1.668   3.160   6.426 -0.4058 -0.0528 -0.2878
 6414SOL     OW30877   2.636   3.520  17.374 -0.2509  0.3260  0.5550
 6414SOL    HW130878   2.544   3.512  17.398 -0.4267 -0.2338 -0.3314
 6414SOL    HW230879   2.674   3.472  17.448 -0.6645 -2.0940 -0.7837
 6415SOL     OW30880   3.719   0.533  13.277  0.4929  1.0328 -0.0572
 6415SOL    HW130881   3.752   0.547  13.365  0.8668 -3.2981  0.4596
 6415SOL    HW230882   3.780   0.577  13.217 -0.7265  0.1270 -1.9860
 6416SOL     OW30883   4.192   0.773   0.268 -0.3578  0.2159  0.0990
 6416SOL    HW130884   4.283   0.803   0.274 -0.7076  0.9580  1.7827
 6416SOL    HW230885   4.134   0.823   0.326  1.6258  1.3089  1.1670
 6417SOL     OW30886   0.224   2.076   5.357  0.1767  0.1534  0.0171
 6417SOL    HW130887   0.310   2.119   5.359 -0.2630  0.9849  0.6939
 6417SOL    HW230888   0.162   2.142   5.386  1.1288 -0.4213  3.3956
 6418SOL     OW30889   4.358   3.715   3.100  0.5172 -0.3502 -0.1750
 6418SOL    HW130890   4.373   3.800   3.061  3.4969 -0.8084 -0.0244
 6418SOL    HW230891   4.375   3.727   3.194 -0.2613  0.8678 -0.2005
 6419SOL     OW30892   2.423   2.234   9.954  0.4383 -0.4863 -0.2135
 6419SOL    HW130893   2.442   2.328   9.964 -3.2246  0.1929  0.1354
 6419SOL    HW230894   2.357   2.235   9.885 -0.7370 -1.3734  0.8907
 6420SOL     OW30895   0.002   4.402  14.705 -0.6823  0.0167 -0.9342
 6420SOL    HW130896   0.030   4.493  14.704  0.4384 -0.2853  1.2397
 6420SOL    HW230897   0.085   4.355  14.716 -0.5609 -0.4224 -3.7265
 6421SOL     OW30898   3.697   4.505   9.356 -0.6696 -0.2535 -0.0463
 6421SOL    HW130899   3.634   4.500   9.284  2.3920 -1.9316 -2.6210
 6421SOL    HW230900   3.773   4.455   9.326 -0.6007 -2.2511  3.4180
 6422SOL     OW30901   0.542   3.163  10.478 -0.6758 -0.1232  0.1494
 6422SOL    HW130902   0.495   3.116  10.546 -2.4244  2.2626  0.5938
 6422SOL    HW230903   0.559   3.097  10.411 -0.9717 -0.1824  0.1349
 6423SOL     OW30904   0.896   2.531  17.130  0.1727  0.1693  0.0602
 6423SOL    HW130905   0.984   2.504  17.104  0.2310 -0.1450  0.5752
 6423SOL    HW230906   0.852   2.457  17.087  0.0932 -0.4223  1.1625
 6424SOL     OW30907   0.607   3.633   3.931 -0.0262  0.2249  0.1482
 6424SOL    HW130908   0.655   3.554   3.907  1.6265  0.8763  1.2806
 6424SOL    HW230909   0.581   3.666   3.845  2.1743  0.1473 -0.5552
 6425SOL     OW30910   4.364   4.381  12.882  0.5512 -0.3902 -0.6479
 6425SOL    HW130911   4.447   4.428  12.893  0.5192 -0.8602  1.6434
 6425SOL    HW230912   4.385   4.294  12.847  0.1234 -0.8361  0.2104
 6426SOL     OW30913   4.148   3.206   6.145 -0.1002 -0.0820 -0.8501
 6426SOL    HW130914   4.155   3.192   6.240 -2.5799 -1.1325 -0.8258
 6426SOL    HW230915   4.230   3.173   6.108  0.8205 -1.1617  2.0858
 6427SOL     OW30916   1.285   3.976   9.020 -0.0886 -0.6119 -0.2573
 6427SOL    HW130917   1.257   4.020   9.101  0.8922  1.2547 -0.9371
 6427SOL    HW230918   1.204   3.935   8.990  0.4666 -0.6864 -1.6734
 6428SOL     OW30919   1.326   3.902  13.260 -0.3917 -0.2006  0.2073
 6428SOL    HW130920   1.234   3.892  13.286 -0.2591 -4.3497 -0.9282
 6428SOL    HW230921   1.374   3.891  13.343  0.2663 -0.5594 -0.2201
 6429SOL     OW30922   0.703   1.662   6.793  0.0500  0.0490 -0.5505
 6429SOL    HW130923   0.669   1.745   6.760 -0.4682  0.6066  1.3840
 6429SOL    HW230924   0.791   1.692   6.818  0.6062  1.5565 -4.1823
 6430SOL     OW30925   2.274   2.414   5.254 -0.8618 -0.0155  0.3157
 6430SOL    HW130926   2.200   2.396   5.311 -1.0415 -1.8989 -0.4907
 6430SOL    HW230927   2.316   2.332   5.227 -0.4193  1.4328 -3.3985
 6431SOL     OW30928   0.587   2.634   8.497  0.3918 -0.9933  0.4528
 6431SOL    HW130929   0.545   2.566   8.550  0.2073 -0.5627  0.8549
 6431SOL    HW230930   0.677   2.620   8.525 -0.7894 -1.7842  3.7856
 6432SOL     OW30931   1.407   2.912  12.800  0.7421 -0.1369 -0.0014
 6432SOL    HW130932   1.387   2.836  12.744 -1.1669  1.0961 -1.0058
 6432SOL    HW230933   1.489   2.931  12.755  0.6334 -0.1529 -0.2081
 6433SOL     OW30934   1.870   3.145   6.864 -0.5561  0.4511 -0.3588
 6433SOL    HW130935   1.926   3.213   6.827  0.0832 -1.6513 -3.2904
 6433SOL    HW230936   1.906   3.147   6.953 -1.6686 -2.8380  0.1745
 6434SOL     OW30937   2.462   3.252   6.771 -0.7680  0.3217  0.7937
 6434SOL    HW130938   2.509   3.212   6.844  1.1130 -0.3554 -0.8008
 6434SOL    HW230939   2.533   3.296   6.725 -1.0008  0.0262  0.1560
 6435SOL     OW30940   2.034   1.544   8.929 -0.2802  0.1361 -0.3860
 6435SOL    HW130941   2.110   1.498   8.895  1.6977  1.3137  2.3529
 6435SOL    HW230942   2.022   1.489   9.007  0.2565  0.0527 -0.3620
 6436SOL     OW30943   1.555   4.416   6.319  0.3450  0.4967 -0.5313
 6436SOL    HW130944   1.581   4.386   6.407  0.3068  0.3047 -0.5873
 6436SOL    HW230945   1.553   4.329   6.280  0.8231  1.1565 -2.0123
 6437SOL     OW30946   3.522   2.723   6.688 -0.1278 -0.6268 -0.1803
 6437SOL    HW130947   3.572   2.683   6.759  0.0337 -1.4283 -0.7515
 6437SOL    HW230948   3.436   2.727   6.731  0.4668  0.2902  0.9311
 6438SOL     OW30949   4.170   4.691  13.290  0.2702 -0.6262 -0.1838
 6438SOL    HW130950   4.217   4.633  13.231 -2.2509 -1.3414 -1.4853
 6438SOL    HW230951   4.233   4.700  13.362  1.0932  0.9934 -1.1032
 6439SOL     OW30952   0.400   0.150   8.213  0.3694  0.2966  0.1827
 6439SOL    HW130953   0.387   0.218   8.280 -2.8261 -2.2047  2.0782
 6439SOL    HW230954   0.334   0.087   8.241  0.1273 -0.0036 -1.0773
 6440SOL     OW30955   3.669   4.494  14.813 -0.0849  0.2423  0.1311
 6440SOL    HW130956   3.667   4.398  14.811 -4.7840  0.3581 -0.6194
 6440SOL    HW230957   3.645   4.520  14.902  4.0487  5.1480 -0.2272
 6441SOL     OW30958   3.037   1.434   3.266  0.4415 -0.2624  0.6750
 6441SOL    HW130959   3.075   1.440   3.178  1.0243  0.7764  0.9925
 6441SOL    HW230960   3.101   1.486   3.315  2.7471 -0.9432 -1.6267
 6442SOL     OW30961   1.611   0.085   7.797 -0.3955  0.0247  0.1806
 6442SOL    HW130962   1.677   0.121   7.738  0.8920 -3.7539 -0.6722
 6442SOL    HW230963   1.538   0.077   7.736  0.9692  0.1343 -1.4582
 6443SOL     OW30964   4.373   1.877   2.025  0.1018  0.2763  0.5124
 6443SOL    HW130965   4.407   1.852   2.111  2.0893 -1.5550 -0.8405
 6443SOL    HW230966   4.450   1.898   1.972 -0.2351  0.5810  0.1385
 6444SOL     OW30967   1.381   3.245   6.244  0.4136  0.8203 -0.4084
 6444SOL    HW130968   1.474   3.251   6.221  0.4635 -0.0674 -0.4252
 6444SOL    HW230969   1.377   3.320   6.304 -0.5919  1.8392 -1.7336
 6445SOL     OW30970   3.751   3.362  11.839 -0.1623  0.3637 -0.0416
 6445SOL    HW130971   3.787   3.294  11.896  2.7686  0.8387 -1.3563
 6445SOL    HW230972   3.708   3.312  11.770  1.8677 -2.3096  0.6423
 6446SOL     OW30973   4.449   3.702  13.515 -0.1862 -0.3496 -0.5616
 6446SOL    HW130974   4.404   3.779  13.550  0.4569 -0.7942  1.2450
 6446SOL    HW230975   4.504   3.677  13.589 -0.7600  2.2782  0.7603
 6447SOL     OW30976   3.374   1.858   9.408 -0.1617  0.1961 -0.5036
 6447SOL    HW130977   3.411   1.770   9.400  1.2263  0.5279  2.4770
 6447SOL    HW230978   3.295   1.845   9.355 -0.6701 -1.0412  0.5461
 6448SOL     OW30979   3.214   4.558   1.146 -0.4393 -0.0849 -0.4062
 6448SOL    HW130980   3.310   4.558   1.137 -0.5921  1.0930 -1.9008
 6448SOL    HW230981   3.218   4.628   1.211  0.1231 -0.7790  0.3157
 6449SOL     OW30982   0.309   2.274   0.508  0.2033 -0.1795 -0.3550
 6449SOL    HW130983   0.397   2.239   0.504  0.5179  1.0107 -3.6955
 6449SOL    HW230984   0.300   2.294   0.602  1.9006 -0.2993 -0.1803
 6450SOL     OW30985   2.830   4.033   7.758  0.3058  0.0989 -0.7204
 6450SOL    HW130986   2.842   3.952   7.709 -0.4979  0.3114 -1.2638
 6450SOL    HW230987   2.868   3.992   7.836 -1.9599  0.3496  0.5297
 6451SOL     OW30988   1.573   4.327  13.237  0.2747 -0.1763  0.3550
 6451SOL    HW130989   1.498   4.296  13.187  0.3890 -2.2997  1.5264
 6451SOL    HW230990   1.603   4.398  13.180  1.8912 -0.8108  0.4296
 6452SOL     OW30991   3.102   3.720   6.822  0.3471  0.1401  0.5556
 6452SOL    HW130992   3.108   3.808   6.860  0.1617  2.7044 -5.2280
 6452SOL    HW230993   3.053   3.681   6.894 -0.4218 -1.6016 -0.9199
 6453SOL     OW30994   2.817   0.132   2.389 -0.2846  0.1613 -0.1115
 6453SOL    HW130995   2.780   0.144   2.477 -0.1000 -0.5259  0.0612
 6453SOL    HW230996   2.843   0.222   2.371 -0.4785  0.5635  1.5887
 6454SOL     OW30997   2.212   0.700  12.079  0.1441  0.1558 -0.4848
 6454SOL    HW130998   2.175   0.660  12.157 -0.7626  0.9458 -0.5138
 6454SOL    HW230999   2.190   0.636  12.012  1.6521 -3.0279  2.0756
 6455SOL     OW31000   2.694   2.806   0.600 -0.1572  0.2469  0.3319
 6455SOL    HW131001   2.737   2.723   0.618  1.2641  0.3472 -2.4969
 6455SOL    HW231002   2.733   2.822   0.514  0.4644  1.6720  0.8711
 6456SOL     OW31003   1.195   2.665   2.390  0.2286 -0.4580 -0.3455
 6456SOL    HW131004   1.261   2.734   2.383 -1.4884  1.0628 -2.0294
 6456SOL    HW231005   1.244   2.595   2.433  0.4232 -1.0932 -1.5933
 6457SOL     OW31006   3.834   0.257   9.793  0.0212  0.4443  0.8901
 6457SOL    HW131007   3.911   0.312   9.808  0.7964 -0.2903 -0.4028
 6457SOL    HW231008   3.831   0.248   9.697  3.6250  3.8426  0.4470
 6458SOL     OW31009   1.721   1.417   6.782 -0.4069  0.3727  0.0769
 6458SOL    HW131010   1.814   1.408   6.800 -0.6968 -2.1251  0.3311
 6458SOL    HW231011   1.712   1.512   6.767 -1.4449 -0.0815 -2.1891
 6459SOL     OW31012   0.573   3.355  17.500  0.7074  0.1791 -0.0383
 6459SOL    HW131013   0.584   3.398  17.415  1.5270  0.3201  0.1379
 6459SOL    HW231014   0.492   3.308  17.481  0.2172  0.6808  0.7799
 6460SOL     OW31015   3.873   1.106   2.168 -0.3152  0.0852 -0.0917
 6460SOL    HW131016   3.786   1.129   2.200 -1.3505 -1.0175 -2.0865
 6460SOL    HW231017   3.902   1.178   2.113 -0.8944  0.7747  0.5024
 6461SOL     OW31018   4.479   2.348   5.830 -0.1172  0.0371 -0.7912
 6461SOL    HW131019   4.472   2.369   5.737 -0.3098  1.3817 -0.4672
 6461SOL    HW231020   4.384   2.337   5.839  0.1349  0.4281  2.2581
 6462SOL     OW31021   0.935   4.224   7.131  0.1058 -0.0319 -0.3731
 6462SOL    HW131022   0.928   4.192   7.221  0.3263 -2.3184 -1.1642
 6462SOL    HW231023   0.870   4.170   7.086 -0.5227  1.4685 -1.2805
 6463SOL     OW31024   2.667   0.873   3.804  0.2703  0.6869 -0.8587
 6463SOL    HW131025   2.742   0.920   3.841  0.7500 -0.7995  0.0425
 6463SOL    HW231026   2.695   0.781   3.803 -1.1538  0.2480 -0.5938
 6464SOL     OW31027   4.147   3.053   4.822  0.6380  0.0993  0.1440
 6464SOL    HW131028   4.208   3.090   4.886  2.3832  0.6780 -1.8644
 6464SOL    HW231029   4.194   3.068   4.740  2.2687  0.2804  1.1111
 6465SOL     OW31030   3.421   1.556   4.361  0.3719 -0.0034 -0.3705
 6465SOL    HW131031   3.475   1.477   4.367 -2.1946 -1.7676 -0.6774
 6465SOL    HW231032   3.488   1.624   4.368  1.8495 -1.4419 -0.3723
 6466SOL     OW31033   0.611   1.091   7.302 -0.3548 -1.2060 -0.0783
 6466SOL    HW131034   0.632   1.150   7.374  1.5405 -3.2980  1.0960
 6466SOL    HW231035   0.669   1.138   7.243 -1.7020  1.6341  0.8489
 6467SOL     OW31036   4.507   1.951   1.116  0.5218  0.1570  0.3030
 6467SOL    HW131037   4.422   1.982   1.086  0.3889  0.1815  0.7088
 6467SOL    HW231038   4.473   1.871   1.155  1.2365 -0.8278 -1.0906
 6468SOL     OW31039   2.792   3.795   5.219 -0.7117  0.3843  0.4369
 6468SOL    HW131040   2.825   3.761   5.135  0.1824  0.3077  0.8123
 6468SOL    HW231041   2.697   3.791   5.220 -0.7326  0.8737  0.1904
 6469SOL     OW31042   3.340   2.109   9.527  0.2116  0.1537 -0.1669
 6469SOL    HW131043   3.346   2.025   9.482 -3.2694 -0.5461  0.6586
 6469SOL    HW231044   3.257   2.147   9.496  0.7542  1.4969  0.0403
 6470SOL     OW31045   2.824   3.019  12.450  0.0306 -0.3060  0.3594
 6470SOL    HW131046   2.827   3.113  12.434  0.3534 -0.4610 -0.4670
 6470SOL    HW231047   2.731   3.000  12.465  0.0027 -1.6800 -1.6375
 6471SOL     OW31048   3.421   2.741   6.243  0.4843 -1.0634  0.0960
 6471SOL    HW131049   3.331   2.742   6.211  0.2909 -2.9003  0.5812
 6471SOL    HW231050   3.401   2.687   6.320  0.7325  0.2921  1.0982
 6472SOL     OW31051   4.000   0.017   0.185 -0.0100 -0.0685 -0.0309
 6472SOL    HW131052   4.017   0.067   0.264  2.2911  0.8123 -1.0906
 6472SOL    HW231053   3.905   0.030   0.187 -0.1567 -1.6902  3.2820
 6473SOL     OW31054   3.913   0.578   4.158  0.5129 -0.3077  0.0991
 6473SOL    HW131055   3.983   0.576   4.092 -0.8126 -2.1862 -1.2272
 6473SOL    HW231056   3.841   0.549   4.102  0.3824 -0.3948  0.3110
 6474SOL     OW31057   0.028   3.485   5.301  0.7231 -0.0132  0.0342
 6474SOL    HW131058   0.048   3.470   5.394 -1.4504  0.0143  0.5170
 6474SOL    HW231059   4.720   3.407   5.270 -0.7618  0.4801  0.9149
 6475SOL     OW31060   3.762   3.030  12.561  0.0429  0.5659  0.1834
 6475SOL    HW131061   3.782   2.939  12.585 -2.0940  0.5043  1.7247
 6475SOL    HW231062   3.684   3.013  12.508 -0.2768 -2.1585  1.5139
 6476SOL     OW31063   0.076   3.051   4.609  0.0025 -0.3432 -0.3484
 6476SOL    HW131064   0.160   3.097   4.607 -0.5760  0.6823 -0.7134
 6476SOL    HW231065   0.100   2.971   4.657  1.7186  1.4894  1.8573
 6477SOL     OW31066   4.661   2.060   5.609 -0.0361 -0.3069  0.0785
 6477SOL    HW131067   4.716   2.091   5.536  0.6620 -1.3634  0.1555
 6477SOL    HW231068   4.639   2.143   5.651  0.0328  0.1462 -0.7769
 6478SOL     OW31069   1.463   1.498   6.014  0.1610  0.0850 -0.1835
 6478SOL    HW131070   1.486   1.529   5.926  1.9043 -1.7008 -0.3637
 6478SOL    HW231071   1.386   1.446   5.992  2.1512 -1.7954 -2.8001
 6479SOL     OW31072   3.476   2.299   9.054  0.2554 -0.2252  0.0223
 6479SOL    HW131073   3.432   2.234   8.999  1.4533  0.0190 -1.2005
 6479SOL    HW231074   3.404   2.359   9.074  0.0352 -1.3177  2.5301
 6480SOL     OW31075   1.852   0.235   6.144 -0.6377 -0.2771 -0.9046
 6480SOL    HW131076   1.925   0.262   6.088  0.7555  1.7242  1.8759
 6480SOL    HW231077   1.859   0.296   6.218 -0.5434 -0.0743 -1.0799
 6481SOL     OW31078   3.952   2.144   7.164  0.1308 -0.1152  0.2547
 6481SOL    HW131079   3.995   2.160   7.248 -0.9805 -2.1822  1.2170
 6481SOL    HW231080   3.999   2.069   7.128  0.5429  0.2980 -0.0702
 6482SOL     OW31081   2.100   0.122  11.527  0.1353  0.1887 -0.5289
 6482SOL    HW131082   2.177   0.067  11.544 -0.4826 -0.3026  0.6964
 6482SOL    HW231083   2.142   0.197  11.484 -1.4778  2.0760  1.1850
 6483SOL     OW31084   3.532   2.385   0.579 -0.1131 -0.1143  0.3099
 6483SOL    HW131085   3.524   2.316   0.645  1.6051  0.3762  1.0239
 6483SOL    HW231086   3.484   2.459   0.616 -0.7911 -0.4077  0.0131
 6484SOL     OW31087   4.072   2.659   0.719 -0.3733  0.4923 -0.0492
 6484SOL    HW131088   3.980   2.642   0.736 -0.5966  1.5739 -0.2179
 6484SOL    HW231089   4.095   2.715   0.793 -0.1324 -0.0538  0.2920
 6485SOL     OW31090   2.773   3.476   2.440  0.2473 -0.3777 -0.4709
 6485SOL    HW131091   2.774   3.571   2.433  1.6994 -0.3790 -0.2400
 6485SOL    HW231092   2.829   3.456   2.365 -0.8122 -1.0579 -1.0988
 6486SOL     OW31093   3.009   1.105   8.277  0.4327 -0.3994  0.1670
 6486SOL    HW131094   3.029   1.190   8.238  0.2201  0.5971  2.2393
 6486SOL    HW231095   3.090   1.054   8.277  0.9348  0.3821  2.1649
 6487SOL     OW31096   3.707   0.092   8.008 -0.2491  0.3552  0.2296
 6487SOL    HW131097   3.748   0.156   7.949  1.3058 -1.1427 -0.3149
 6487SOL    HW231098   3.613   0.104   7.995  0.0373  0.1721 -2.0101
 6488SOL     OW31099   3.050   3.923   4.646  0.3740  0.1704  0.2208
 6488SOL    HW131100   3.033   4.003   4.696 -0.9730  0.1747 -0.2473
 6488SOL    HW231101   2.998   3.862   4.697  2.0622 -0.9757  0.5953
 6489SOL     OW31102   2.160   2.142   7.754 -0.0046  0.3112  0.2163
 6489SOL    HW131103   2.229   2.146   7.688  0.2647  1.6273  0.5760
 6489SOL    HW231104   2.166   2.047   7.770 -0.3914  0.5078  1.5380
 6490SOL     OW31105   4.229   3.458  14.949  0.1196  0.3650  0.4784
 6490SOL    HW131106   4.167   3.386  14.958  0.3717  0.1627  0.6218
 6490SOL    HW231107   4.295   3.427  14.887 -0.0215 -0.1713  0.6035
 6491SOL     OW31108   1.229   2.149  11.385 -0.4889 -0.1769  0.3091
 6491SOL    HW131109   1.143   2.116  11.358 -0.9076 -0.0233  1.4440
 6491SOL    HW231110   1.196   2.229  11.427 -2.5128  0.2849 -2.2071
 6492SOL     OW31111   3.676   1.524   6.363 -0.6102 -0.2824 -0.4246
 6492SOL    HW131112   3.641   1.606   6.328  0.6185  1.2334  1.9462
 6492SOL    HW231113   3.753   1.562   6.405 -1.9794  0.2588  1.5868
 6493SOL     OW31114   1.174   3.634   0.034 -0.2377 -0.3531  0.2358
 6493SOL    HW131115   1.136   3.600  17.700 -0.2859 -0.5102  0.3251
 6493SOL    HW231116   1.130   3.581   0.100  0.7613  0.6927  1.7462
 6494SOL     OW31117   0.270   1.850   1.320  0.0692  0.7411  0.3083
 6494SOL    HW131118   0.262   1.940   1.353 -4.0217  0.2476  0.5734
 6494SOL    HW231119   0.195   1.838   1.262 -0.3413 -1.2729  1.2882
 6495SOL     OW31120   4.640   2.332  13.929  0.1466 -0.9254 -0.2970
 6495SOL    HW131121   4.577   2.298  13.992 -0.7691  0.1628 -0.6529
 6495SOL    HW231122   4.577   2.381  13.878  1.6867  1.0931 -0.2598
 6496SOL     OW31123   2.125   1.361   7.030  0.0891  0.0639  0.5094
 6496SOL    HW131124   2.133   1.288   6.968 -0.9615  1.0920 -0.8229
 6496SOL    HW231125   2.214   1.385   7.056  0.2857 -1.5539  1.2922
 6497SOL     OW31126   3.543   0.937   7.362  0.1799 -0.2113 -0.1325
 6497SOL    HW131127   3.498   0.995   7.424 -0.1674  0.8542 -1.3871
 6497SOL    HW231128   3.544   0.863   7.424  0.2879 -0.0999 -0.0023
 6498SOL     OW31129   2.713   0.328  12.580 -0.0649 -0.2216 -0.5233
 6498SOL    HW131130   2.667   0.385  12.642  0.5557  0.8440 -1.0402
 6498SOL    HW231131   2.667   0.247  12.603 -1.1079  0.4101 -0.3949
 6499SOL     OW31132   0.602   1.947   3.628  0.2542  0.7127 -0.3907
 6499SOL    HW131133   0.627   1.868   3.677 -1.0118  1.4533  1.4139
 6499SOL    HW231134   0.688   1.974   3.594 -0.3433  2.8392 -0.1716
 6500SOL     OW31135   1.848   2.401   4.103  0.1768 -0.4314  0.1807
 6500SOL    HW131136   1.763   2.398   4.147  0.3620  0.0800  0.5768
 6500SOL    HW231137   1.860   2.318   4.057  0.3159 -0.1311 -0.3180
 6501SOL     OW31138   2.842   1.126   9.450  0.0307 -0.3804 -0.1428
 6501SOL    HW131139   2.746   1.132   9.454  0.0687  0.7089 -0.8143
 6501SOL    HW231140   2.870   1.055   9.507  1.3770  0.2175 -0.0636
 6502SOL     OW31141   4.646   0.874  11.888 -0.3280  0.3742  0.1514
 6502SOL    HW131142   4.627   0.842  11.976 -0.8597 -0.7524 -0.3711
 6502SOL    HW231143   4.565   0.914  11.855 -0.0644  2.5890  2.1380
 6503SOL     OW31144   3.998   2.698   9.278 -0.2949  0.4436  0.1697
 6503SOL    HW131145   4.091   2.676   9.282 -0.2950  0.4042 -0.0530
 6503SOL    HW231146   3.966   2.687   9.368  3.2124 -2.5830  1.0415
 6504SOL     OW31147   0.038   2.710   5.179 -0.1709  0.0125  0.3762
 6504SOL    HW131148   0.037   2.782   5.117  1.0786 -0.5228 -0.2679
 6504SOL    HW231149   0.098   2.647   5.138 -1.2190 -0.7814  0.0774
 6505SOL     OW31150   0.296   0.570   2.414 -0.5180 -0.5564  0.1375
 6505SOL    HW131151   0.317   0.507   2.344 -0.2150 -2.3831  1.8604
 6505SOL    HW231152   0.204   0.583   2.390 -1.2910 -1.3006  2.6619
 6506SOL     OW31153   4.111   3.405   8.075  0.6041 -0.5342 -0.0145
 6506SOL    HW131154   4.112   3.348   7.999 -2.7612  1.0456 -1.2494
 6506SOL    HW231155   4.068   3.348   8.140 -0.4623 -0.6374 -0.8046
 6507SOL     OW31156   4.405   1.926  13.927 -0.4199  0.3134  0.1933
 6507SOL    HW131157   4.435   1.994  13.867 -0.5349  2.6542  2.7838
 6507SOL    HW231158   4.328   1.963  13.970  0.9208  4.1741 -0.7127
 6508SOL     OW31159   0.540   4.151   7.013  0.1009  0.5005 -0.1774
 6508SOL    HW131160   0.470   4.092   7.041  0.0871  0.9384  0.6926
 6508SOL    HW231161   0.618   4.097   7.004  0.3022  0.7235  0.2874
 6509SOL     OW31162   2.393   4.373  12.051  0.0415  0.1338 -0.3524
 6509SOL    HW131163   2.436   4.290  12.033 -1.0324 -0.6756  0.7602
 6509SOL    HW231164   2.346   4.397  11.971 -1.7605 -0.2118  0.5789
 6510SOL     OW31165   4.591   1.397   0.080  0.1056 -0.3221 -0.1341
 6510SOL    HW131166   4.501   1.427   0.072  0.9003  2.8777  2.5833
 6510SOL    HW231167   4.625   1.485   0.096  1.2664 -0.9413  0.8237
 6511SOL     OW31168   2.341   3.953  12.925 -0.2384 -0.1608 -0.7606
 6511SOL    HW131169   2.410   3.886  12.930  0.4471  0.7192  1.3507
 6511SOL    HW231170   2.266   3.904  12.890 -0.2886 -1.0757  0.6310
 6512SOL     OW31171   1.639   2.364   7.480 -0.2749 -0.8320  0.5827
 6512SOL    HW131172   1.641   2.361   7.575 -0.3335  2.5032  0.6757
 6512SOL    HW231173   1.611   2.276   7.454 -1.3761  0.5326 -2.8863
 6513SOL     OW31174   0.023   4.652   3.490  0.2795  0.1554  0.1620
 6513SOL    HW131175   4.725   4.564   3.491 -0.4660  0.4339 -1.2599
 6513SOL    HW231176   0.076   4.651   3.570  0.1498  0.0227  0.2438
 6514SOL     OW31177   0.576   1.094   5.024  0.3087 -0.0850  0.2141
 6514SOL    HW131178   0.556   1.187   5.025 -0.7259 -0.3133  0.7283
 6514SOL    HW231179   0.661   1.092   4.980  0.2538 -1.7921  0.1711
 6515SOL     OW31180   0.587   0.734   7.080 -0.4929  0.0424 -0.5713
 6515SOL    HW131181   0.593   0.818   7.035  0.4454 -0.1937 -0.8955
 6515SOL    HW231182   0.493   0.721   7.083 -0.5726  0.9425  0.6672
 6516SOL     OW31183   4.057   4.067   7.464  0.0801 -0.2371 -0.9032
 6516SOL    HW131184   3.989   4.013   7.503  0.7313 -1.1876 -1.0986
 6516SOL    HW231185   4.009   4.091   7.385 -1.8023  1.2794  0.6788
 6517SOL     OW31186   0.865   2.289   7.764  0.2611 -0.4232 -0.5161
 6517SOL    HW131187   0.857   2.217   7.701  0.3981 -0.7075 -0.2085
 6517SOL    HW231188   0.947   2.322   7.728 -1.1911  3.7487 -0.0190
 6518SOL     OW31189   4.703   1.553  17.224 -0.0579 -0.1174  0.2050
 6518SOL    HW131190   0.002   1.510  17.301  1.2562 -1.2716 -1.0442
 6518SOL    HW231191   4.715   1.481  17.162  0.5682  1.1718 -1.1942
 6519SOL     OW31192   2.965   2.566   3.067  0.2096  0.4944  0.3221
 6519SOL    HW131193   3.007   2.603   2.989  0.2907  1.0866  0.6476
 6519SOL    HW231194   2.953   2.475   3.040  1.9000  0.1339  0.7336
 6520SOL     OW31195   4.181   1.676  13.642 -0.0778 -0.4788  0.6121
 6520SOL    HW131196   4.222   1.674  13.728 -0.6910 -0.0999  0.9188
 6520SOL    HW231197   4.161   1.769  13.631 -1.9174 -0.9327  0.1620
 6521SOL     OW31198   4.316   3.716   8.819  0.1960 -0.1795 -0.1441
 6521SOL    HW131199   4.362   3.698   8.901  0.9979  0.6362 -0.4100
 6521SOL    HW231200   4.393   3.735   8.766  0.6322  0.7606  0.8188
 6522SOL     OW31201   2.632   1.330  16.100  0.1387  0.4401  0.6485
 6522SOL    HW131202   2.664   1.242  16.078  1.1580  0.4399  2.1220
 6522SOL    HW231203   2.687   1.346  16.177 -1.7551  1.4204  1.7911
 6523SOL     OW31204   0.424   3.207   5.711  0.5285  0.1337 -0.3803
 6523SOL    HW131205   0.439   3.230   5.802  0.7657 -0.4897 -0.2646
 6523SOL    HW231206   0.345   3.255   5.686  0.6273 -0.0374 -1.0416
 6524SOL     OW31207   4.230   0.255   1.525  0.5107  0.8041 -0.0968
 6524SOL    HW131208   4.136   0.247   1.544  0.6081 -2.3811 -0.9579
 6524SOL    HW231209   4.236   0.208   1.442 -1.3786 -1.9604  1.3241
 6525SOL     OW31210   0.483   4.390   9.121  0.4748 -0.5944 -0.3864
 6525SOL    HW131211   0.472   4.338   9.201 -2.0303  0.0697 -0.2899
 6525SOL    HW231212   0.422   4.357   9.054  0.2871 -0.6039 -0.2090
 6526SOL     OW31213   3.343   3.283   6.743  0.0457  0.2189  0.2627
 6526SOL    HW131214   3.286   3.268   6.818 -1.3612 -1.1814 -1.0865
 6526SOL    HW231215   3.290   3.350   6.699  1.7328  1.0476 -0.5120
 6527SOL     OW31216   3.813   1.623   2.086 -0.2541 -0.5597 -0.0219
 6527SOL    HW131217   3.805   1.529   2.100 -0.6375 -0.0063  3.7064
 6527SOL    HW231218   3.908   1.629   2.089 -0.3326 -0.0901  1.9948
 6528SOL     OW31219   2.950   3.369   5.066 -0.4499 -0.4520  0.5492
 6528SOL    HW131220   2.886   3.305   5.035  1.1785 -0.9062 -1.9423
 6528SOL    HW231221   3.033   3.333   5.034 -0.3034  0.6981 -0.3481
 6529SOL     OW31222   2.088   0.049   7.018  0.0160 -0.2530  0.4201
 6529SOL    HW131223   2.030   0.106   7.068  0.7314  0.3334  0.5907
 6529SOL    HW231224   2.171   0.050   7.066 -1.2484  1.2118  2.5643
 6530SOL     OW31225   0.259   4.113   8.791  0.4936 -1.0995 -0.2887
 6530SOL    HW131226   0.268   4.074   8.878  1.1384 -0.6006 -0.1365
 6530SOL    HW231227   0.208   4.045   8.748 -1.9200  0.5382 -0.0248
 6531SOL     OW31228   1.550   0.813  17.154 -0.0702  0.2079  0.0192
 6531SOL    HW131229   1.570   0.903  17.180 -0.2788  0.0706  0.6522
 6531SOL    HW231230   1.592   0.826  17.069  2.2195 -1.2337  0.9172
 6532SOL     OW31231   2.348   2.664   7.625 -0.0276 -0.0202 -0.1357
 6532SOL    HW131232   2.254   2.657   7.644  0.1819  1.0541  1.2571
 6532SOL    HW231233   2.353   2.585   7.572 -0.1908  0.6551 -1.1503
 6533SOL     OW31234   3.822   3.506   4.610  0.1379  0.0143 -0.2586
 6533SOL    HW131235   3.888   3.556   4.563  0.6163  1.3038  1.7859
 6533SOL    HW231236   3.798   3.446   4.539  1.3089  0.3649 -0.9471
 6534SOL     OW31237   4.621   2.038   4.136 -0.0943  0.2608 -0.3731
 6534SOL    HW131238   4.527   2.031   4.123  0.0935 -2.0769 -0.3659
 6534SOL    HW231239   4.619   2.052   4.230 -2.4002  2.0721 -0.6939
 6535SOL     OW31240   3.558   0.406  14.967 -0.9811  0.2408 -0.6446
 6535SOL    HW131241   3.463   0.414  14.955 -0.8632  0.4842 -1.3951
 6535SOL    HW231242   3.568   0.314  14.940 -1.0849  0.6656 -2.1379
 6536SOL     OW31243   4.609   3.744   6.406  0.3835  0.8723 -0.2389
 6536SOL    HW131244   4.601   3.792   6.323 -0.3755  1.6752  0.3016
 6536SOL    HW231245   4.633   3.656   6.378  0.6841  0.0739  2.5962
 6537SOL     OW31246   2.891   4.034  12.968  0.2906  0.4114  0.2207
 6537SOL    HW131247   2.970   3.985  12.946  0.9608  2.1404 -1.2119
 6537SOL    HW231248   2.914   4.125  12.950 -1.5225  0.6866 -0.7647
 6538SOL     OW31249   0.727   0.526   8.707 -0.1990  0.5374 -0.2947
 6538SOL    HW131250   0.721   0.473   8.628  1.3565  3.0799 -2.0875
 6538SOL    HW231251   0.650   0.503   8.760 -0.7912  2.4508 -0.3113
 6539SOL     OW31252   0.528   0.115   1.322  0.1740 -0.7413  0.1405
 6539SOL    HW131253   0.497   0.149   1.406  0.7566  2.2790 -0.8741
 6539SOL    HW231254   0.613   0.082   1.351 -0.1580 -0.1327  1.8006
 6540SOL     OW31255   2.902   3.515   3.821 -0.9868  0.1993  0.5184
 6540SOL    HW131256   2.941   3.599   3.846  2.0150 -0.8542 -0.5791
 6540SOL    HW231257   2.846   3.547   3.750  1.0788  0.0865 -1.1706
 6541SOL     OW31258   1.694   4.259   8.904 -0.3422 -0.2299  0.6004
 6541SOL    HW131259   1.746   4.308   8.841 -0.0826 -1.5028 -0.1632
 6541SOL    HW231260   1.606   4.259   8.867  0.2764  0.4140 -0.8365
 6542SOL     OW31261   0.819   3.571   3.704 -0.2046  0.0981 -0.4278
 6542SOL    HW131262   0.850   3.500   3.760  2.3933  0.7180 -1.0677
 6542SOL    HW231263   0.874   3.640   3.741 -0.2994  0.2836 -0.6314
 6543SOL     OW31264   1.809   2.065   7.611  0.0128  0.9034  0.3167
 6543SOL    HW131265   1.724   2.086   7.649 -0.9279 -0.3642 -1.0956
 6543SOL    HW231266   1.863   2.104   7.680  1.3041  1.5713 -1.0905
 6544SOL     OW31267   1.488   0.210   2.716  0.2974 -0.1990  0.0219
 6544SOL    HW131268   1.572   0.243   2.748  1.4174 -0.9419 -2.1394
 6544SOL    HW231269   1.443   0.236   2.796  1.1776  1.9276 -0.1761
 6545SOL     OW31270   4.245   1.666   4.456 -1.1225  0.3454  0.0191
 6545SOL    HW131271   4.326   1.705   4.425  0.5264 -2.9616  0.1945
 6545SOL    HW231272   4.195   1.686   4.377  0.8739  0.2726 -1.2502
 6546SOL     OW31273   2.510   4.346  10.793  1.0374 -0.2115 -0.2887
 6546SOL    HW131274   2.523   4.252  10.780 -1.9464 -0.6274 -0.1776
 6546SOL    HW231275   2.497   4.355  10.887 -1.6715 -1.0434 -0.5954
 6547SOL     OW31276   0.589   2.265   8.331 -1.0692  0.1524  0.1461
 6547SOL    HW131277   0.607   2.283   8.423  0.1974  0.6571 -0.2000
 6547SOL    HW231278   0.663   2.209   8.307 -1.5234 -0.7284  0.7972
 6548SOL     OW31279   2.977   1.841   4.803 -0.8701 -0.3093  0.2453
 6548SOL    HW131280   3.026   1.759   4.798  1.3774  1.0856 -0.7442
 6548SOL    HW231281   2.907   1.824   4.741 -2.2766 -0.5299  1.9063
 6549SOL     OW31282   0.874   2.016  17.488  0.0332  0.4735  0.1680
 6549SOL    HW131283   0.968   2.010  17.469  0.1468  0.8270  0.6150
 6549SOL    HW231284   0.845   1.952  17.423 -0.8488  0.9360  0.1020
 6550SOL     OW31285   2.758   3.181   8.478 -0.0683 -0.3520 -0.0259
 6550SOL    HW131286   2.834   3.168   8.535 -0.6222  0.5949  0.9338
 6550SOL    HW231287   2.743   3.273   8.499  0.1369 -0.5080  0.7713
 6551SOL     OW31288   3.538   1.551   5.956 -0.3119 -0.2910 -0.2762
 6551SOL    HW131289   3.551   1.640   5.989 -2.2693  0.2081 -0.8440
 6551SOL    HW231290   3.443   1.542   5.954 -0.4116  0.4021  2.0556
 6552SOL     OW31291   1.846   3.778   4.622  0.0013 -0.2193 -0.0350
 6552SOL    HW131292   1.901   3.787   4.700  1.9906  1.2871 -1.5896
 6552SOL    HW231293   1.878   3.858   4.579 -0.0960 -1.2137 -1.9470
 6553SOL     OW31294   2.872   1.826   4.089 -0.5119 -0.4109 -0.0010
 6553SOL    HW131295   2.936   1.770   4.132  0.5642  0.6037 -0.2818
 6553SOL    HW231296   2.803   1.760   4.082 -0.3351 -0.6846  0.8661
 6554SOL     OW31297   3.097   1.196   8.621 -0.1058  0.0079 -0.2335
 6554SOL    HW131298   3.026   1.215   8.682 -0.3215 -2.0229  0.1408
 6554SOL    HW231299   3.049   1.142   8.558  0.5600 -0.5222 -0.2840
 6555SOL     OW31300   0.850   2.299   0.070 -0.3598 -0.5892 -0.2063
 6555SOL    HW131301   0.758   2.276   0.085 -1.3096  1.8821 -2.2974
 6555SOL    HW231302   0.843   2.323  17.724  1.6673  1.7666  0.2868
 6556SOL     OW31303   2.098   4.018   2.478 -0.7079  0.2303  0.3262
 6556SOL    HW131304   2.171   3.978   2.527 -1.0222  2.5200  2.6281
 6556SOL    HW231305   2.065   3.934   2.445 -0.8514 -0.1345  1.4010
 6557SOL     OW31306   0.409   2.470   2.923  0.0539 -0.2504 -0.2252
 6557SOL    HW131307   0.344   2.402   2.909 -0.3213 -0.3453  1.9302
 6557SOL    HW231308   0.412   2.465   3.019  1.1680 -2.7892 -0.3891
 6558SOL     OW31309   2.331   3.203   9.103  0.3327 -0.0656  0.0784
 6558SOL    HW131310   2.374   3.240   9.027  0.2151  0.6339  0.3519
 6558SOL    HW231311   2.262   3.267   9.118  0.2613 -0.3074  0.8003
 6559SOL     OW31312   3.905   3.956   8.584 -0.4453  0.0456 -0.1078
 6559SOL    HW131313   3.852   3.978   8.507  1.0478 -0.9945 -1.4178
 6559SOL    HW231314   3.880   4.022   8.649 -1.5317 -1.3532  0.9011
 6560SOL     OW31315   4.097   2.119   5.438 -0.3375 -0.0804 -0.1938
 6560SOL    HW131316   4.055   2.145   5.356 -0.1804  1.1030  0.0996
 6560SOL    HW231317   4.188   2.138   5.415 -0.4208  0.3239 -0.1951
 6561SOL     OW31318   4.093   3.087   8.581 -0.6659  0.0804 -0.2963
 6561SOL    HW131319   4.153   3.012   8.584  1.5976  1.9437  0.4651
 6561SOL    HW231320   4.133   3.155   8.635  0.3534  1.0143 -2.2223
 6562SOL     OW31321   3.341   3.115  15.476 -0.0120  0.0555  0.9894
 6562SOL    HW131322   3.347   3.038  15.533 -1.3798  0.2539  1.4174
 6562SOL    HW231323   3.417   3.103  15.419 -0.1167 -0.2522  0.9125
 6563SOL     OW31324   4.714   1.650   0.114  0.0046 -0.0038 -0.1910
 6563SOL    HW131325   4.660   1.729   0.120  0.8137  0.6528 -1.5529
 6563SOL    HW231326   0.061   1.683   0.083 -0.8864  1.1536 -1.3981
 6564SOL     OW31327   3.219   1.825   4.579  0.3621 -0.3204 -0.1754
 6564SOL    HW131328   3.234   1.895   4.516 -1.9654 -0.7028 -1.1776
 6564SOL    HW231329   3.250   1.862   4.661 -1.0751  1.7448 -0.5751
 6565SOL     OW31330   2.735   0.818   6.828  0.3261 -0.3349 -0.0230
 6565SOL    HW131331   2.778   0.846   6.747 -0.0657  1.4261  0.3728
 6565SOL    HW231332   2.780   0.867   6.897  1.2418 -1.4918  0.1936
 6566SOL     OW31333   4.736   2.280   5.014  0.0667  0.2577 -0.6196
 6566SOL    HW131334   0.042   2.349   5.062 -0.2761  0.5621 -0.7457
 6566SOL    HW231335   0.024   2.295   4.923  2.0179  1.2917  0.0967
 6567SOL     OW31336   0.682   3.428   2.377 -0.1159  0.1356  0.5449
 6567SOL    HW131337   0.755   3.490   2.380  0.3192 -0.4394  2.1981
 6567SOL    HW231338   0.613   3.486   2.409 -0.4544  0.3282 -0.5386
 6568SOL     OW31339   2.945   1.703  15.107  1.1427  0.2598  0.0143
 6568SOL    HW131340   2.914   1.788  15.075  1.5592  0.7945  1.0270
 6568SOL    HW231341   3.014   1.676  15.047  0.1126 -0.4143 -0.8575
 6569SOL     OW31342   1.818   0.904   7.839  0.1673 -0.2353  0.2513
 6569SOL    HW131343   1.781   0.860   7.763  1.9222  0.7027 -1.1639
 6569SOL    HW231344   1.874   0.971   7.800 -0.9831  0.2821 -0.4921
 6570SOL     OW31345   1.080   0.724   6.824  0.2545 -0.4912 -0.2912
 6570SOL    HW131346   1.023   0.697   6.753  0.7478 -0.1463 -0.8164
 6570SOL    HW231347   1.040   0.807   6.849 -2.2967 -1.3434 -1.5778
 6571SOL     OW31348   4.332   0.896   1.020  0.1088  0.1384 -0.6534
 6571SOL    HW131349   4.335   0.966   1.085  3.2723  0.4027 -1.0445
 6571SOL    HW231350   4.414   0.919   0.975  0.3214 -0.6627 -0.6794
 6572SOL     OW31351   4.043   3.106   3.548  0.1061 -0.1464  0.2054
 6572SOL    HW131352   3.998   3.189   3.564  1.1371  0.3067  0.6874
 6572SOL    HW231353   4.135   3.129   3.548  0.1341 -0.2546 -0.0989
 6573SOL     OW31354   2.569   0.264   4.510  0.6448 -0.3108  0.1532
 6573SOL    HW131355   2.529   0.221   4.434  0.3517  0.1875  0.0239
 6573SOL    HW231356   2.494   0.278   4.568 -0.2644  0.9119 -1.3183
 6574SOL     OW31357   1.863   0.151   1.852  0.3103 -0.2353 -0.0005
 6574SOL    HW131358   1.826   0.066   1.876 -2.4696  0.5876 -1.3904
 6574SOL    HW231359   1.780   0.188   1.820  0.5179  0.5296  0.3522
 6575SOL     OW31360   4.479   1.533  12.739  0.6639 -0.0663  0.1751
 6575SOL    HW131361   4.568   1.556  12.712  0.7635 -1.3479 -0.6428
 6575SOL    HW231362   4.451   1.470  12.672  0.7092 -0.5739  0.6403
 6576SOL     OW31363   2.105   4.252  15.012 -0.9532  0.3245  0.0749
 6576SOL    HW131364   2.093   4.310  15.087  0.7458  1.0772 -0.2187
 6576SOL    HW231365   2.161   4.187  15.055 -0.2428  1.4287  0.8224
 6577SOL     OW31366   1.840   3.846  12.173  0.0627 -0.3641 -0.3322
 6577SOL    HW131367   1.749   3.856  12.199  0.2089 -0.5354  0.2478
 6577SOL    HW231368   1.888   3.833  12.255  1.6124  3.5464 -0.6072
 6578SOL     OW31369   3.362   0.096   9.271  0.8419  0.3221 -0.1464
 6578SOL    HW131370   3.288   0.138   9.315  0.5041 -3.3354  2.8230
 6578SOL    HW231371   3.324   0.014   9.239 -0.2449  0.7625  0.0124
 6579SOL     OW31372   1.999   2.979   7.595 -0.0530  0.4360  0.2685
 6579SOL    HW131373   2.074   2.984   7.655  0.9561  0.4802 -1.0111
 6579SOL    HW231374   2.021   2.898   7.550 -0.9759  0.6473 -0.5512
 6580SOL     OW31375   3.835   2.613  12.804  0.1825  0.2765 -0.1832
 6580SOL    HW131376   3.855   2.670  12.729 -1.8179  0.7759 -0.3424
 6580SOL    HW231377   3.910   2.556  12.790  0.5750 -0.0696  3.3129
 6581SOL     OW31378   4.089   4.270  13.043 -0.7137 -0.3292  0.1410
 6581SOL    HW131379   4.090   4.361  13.015 -2.1791 -0.6285 -0.8849
 6581SOL    HW231380   4.087   4.276  13.139  0.0136 -2.5847  0.2960
 6582SOL     OW31381   2.985   3.313   2.914 -0.3177 -0.3748  0.0635
 6582SOL    HW131382   2.939   3.349   2.989 -2.4547 -1.5435 -0.6786
 6582SOL    HW231383   2.931   3.235   2.901  2.2722 -1.9893 -0.9439
 6583SOL     OW31384   3.983   0.563   3.126 -0.5261  0.2204 -0.2684
 6583SOL    HW131385   3.947   0.476   3.143 -0.2683  0.2371  0.3387
 6583SOL    HW231386   4.005   0.586   3.216  1.5540 -0.3027 -0.6411
 6584SOL     OW31387   0.806   1.999   2.064  0.2008 -0.3852 -0.2212
 6584SOL    HW131388   0.805   2.043   2.148 -1.5658  1.3279 -1.1363
 6584SOL    HW231389   0.851   1.924   2.101 -0.6467 -1.5566 -1.5451
 6585SOL     OW31390   2.883   2.008   1.817  0.1582 -0.0037  0.1067
 6585SOL    HW131391   2.811   1.967   1.866 -1.4185  0.3371 -1.9247
 6585SOL    HW231392   2.965   1.979   1.856  2.5906  3.1393 -2.7518
 6586SOL     OW31393   0.798   4.167   8.638  0.5309 -0.0907  0.3488
 6586SOL    HW131394   0.761   4.133   8.557  0.0197  1.2329  0.0306
 6586SOL    HW231395   0.719   4.188   8.688 -0.0607  0.9090 -1.0174
 6587SOL     OW31396   1.204   2.404   8.949 -0.5598  0.1650 -0.0165
 6587SOL    HW131397   1.295   2.399   8.979 -0.5665  1.3606  0.1968
 6587SOL    HW231398   1.151   2.365   9.018 -0.9592  1.0702  0.1965
 6588SOL     OW31399   3.522   3.728   8.151 -0.0151  0.0336 -0.2177
 6588SOL    HW131400   3.426   3.732   8.142  0.1447 -0.1849 -2.0170
 6588SOL    HW231401   3.554   3.770   8.071 -3.4170 -1.1379 -2.2352
 6589SOL     OW31402   0.635   2.787   4.298 -0.1382 -0.0241  0.0115
 6589SOL    HW131403   0.552   2.808   4.257  1.0665  1.6545 -1.5528
 6589SOL    HW231404   0.687   2.867   4.299  1.3971 -1.0095  0.8836
 6590SOL     OW31405   0.066   3.863   9.325  0.2374 -0.4691 -0.4536
 6590SOL    HW131406   0.151   3.832   9.293  0.1019 -1.8968  0.5855
 6590SOL    HW231407   0.040   3.779   9.362 -1.5823  0.0285 -0.6201
 6591SOL     OW31408   4.642   0.435  12.748 -0.0924  0.5397 -0.3566
 6591SOL    HW131409   4.547   0.446  12.736 -0.0040  1.7673  0.1473
 6591SOL    HW231410   4.674   0.496  12.682  1.1623 -0.2714 -0.4902
 6592SOL     OW31411   4.571   2.724   5.463  0.0099 -0.0459 -0.2437
 6592SOL    HW131412   4.521   2.751   5.386  1.5314  1.8220 -0.5870
 6592SOL    HW231413   4.500   2.741   5.524  1.3950  0.6261  1.2005
 6593SOL     OW31414   2.795   4.327   3.783  0.1879  0.5494  0.1362
 6593SOL    HW131415   2.806   4.290   3.696  1.6485 -0.8867  0.9159
 6593SOL    HW231416   2.795   4.244   3.832 -0.6147 -0.5418 -1.7011
 6594SOL     OW31417   1.960   1.690   0.824 -0.2592  0.2667  0.1180
 6594SOL    HW131418   1.928   1.749   0.756 -1.6228 -1.5157 -0.7973
 6594SOL    HW231419   1.902   1.615   0.809  0.2949  0.1148 -1.2604
 6595SOL     OW31420   1.297   0.718   6.589 -0.4511 -0.1053 -0.4020
 6595SOL    HW131421   1.234   0.764   6.645 -0.8408 -1.4651  0.2831
 6595SOL    HW231422   1.374   0.705   6.644 -1.4215  0.0989  1.0058
 6596SOL     OW31423   4.673   2.353   2.371 -0.1348  0.2301  0.0364
 6596SOL    HW131424   4.656   2.445   2.349  0.1935  0.4992  0.8996
 6596SOL    HW231425   0.014   2.377   2.420  0.9689  0.4419 -1.8221
 6597SOL     OW31426   4.446   0.302   6.687  0.1393 -0.7253  0.0385
 6597SOL    HW131427   4.517   0.304   6.622 -0.9336 -2.4341 -1.1834
 6597SOL    HW231428   4.429   0.211   6.710 -0.0286 -0.6191  0.3380
 6598SOL     OW31429   0.567   0.470   3.533 -0.1450 -0.1410 -0.2250
 6598SOL    HW131430   0.561   0.379   3.506 -0.1339  0.1197 -1.0978
 6598SOL    HW231431   0.476   0.502   3.528  0.3432  1.1662 -0.8039
 6599SOL     OW31432   2.377   2.717   5.578  0.1152 -0.6910 -0.1985
 6599SOL    HW131433   2.367   2.808   5.548 -0.5792 -0.6390  0.1857
 6599SOL    HW231434   2.403   2.670   5.499  0.1458 -3.2634  1.3560
 6600SOL     OW31435   3.309   2.599   8.385  0.2207 -0.1419  0.7108
 6600SOL    HW131436   3.353   2.515   8.395 -0.0467 -0.6110 -2.3266
 6600SOL    HW231437   3.365   2.648   8.446 -0.6705  0.3942  1.1011
 6601SOL     OW31438   4.559   1.459  15.075  0.0120  0.4873 -0.2549
 6601SOL    HW131439   4.599   1.408  15.145 -2.1088  0.9357  1.2854
 6601SOL    HW231440   4.628   1.525  15.068 -0.2819  0.9606  1.4023
 6602SOL     OW31441   1.746   4.202   5.656  0.3176 -0.1736  0.5375
 6602SOL    HW131442   1.666   4.254   5.653 -0.7284 -1.9528 -1.8601
 6602SOL    HW231443   1.741   4.134   5.590 -0.3771  1.6290 -1.2717
 6603SOL     OW31444   0.860   0.526  15.134 -0.0976  0.0638  0.4129
 6603SOL    HW131445   0.873   0.602  15.190  0.0719 -0.4072  1.0157
 6603SOL    HW231446   0.821   0.468  15.199  2.0864 -1.6106  0.2204
 6604SOL     OW31447   3.879   2.633   5.767  0.0219 -0.0906 -0.4951
 6604SOL    HW131448   3.946   2.664   5.706 -0.2862  1.3115 -0.1157
 6604SOL    HW231449   3.920   2.653   5.852  0.1969 -0.8378 -0.4003
 6605SOL     OW31450   1.166   3.265  12.109 -0.0788 -0.1921  0.0381
 6605SOL    HW131451   1.185   3.263  12.015 -1.1562  0.9859 -0.1997
 6605SOL    HW231452   1.116   3.183  12.104 -0.8332  0.3615 -1.4246
 6606SOL     OW31453   0.392   1.850   3.496  0.2215  0.0484  0.3434
 6606SOL    HW131454   0.333   1.865   3.570 -0.2688 -1.5077  0.2878
 6606SOL    HW231455   0.467   1.901   3.524  1.9675 -1.8582 -0.8763
 6607SOL     OW31456   2.618   2.435   5.383 -0.4853  1.2306 -0.5896
 6607SOL    HW131457   2.705   2.411   5.416 -1.4956  0.4540  1.4978
 6607SOL    HW231458   2.560   2.396   5.448  1.0850  0.2097  0.1945
 6608SOL     OW31459   3.493   0.057   1.341  0.0105 -0.5965  0.1113
 6608SOL    HW131460   3.481   4.704   1.311 -0.6911  0.3463 -2.5070
 6608SOL    HW231461   3.556   0.032   1.408 -0.2722 -0.1650  0.5360
 6609SOL     OW31462   2.391   4.162   6.806  0.0028  0.0841  0.1217
 6609SOL    HW131463   2.448   4.085   6.801 -1.4479 -0.9789 -0.2763
 6609SOL    HW231464   2.381   4.182   6.712  0.9141  0.2198  0.0507
 6610SOL     OW31465   1.845   3.825  15.274  0.1601 -0.1578  0.0999
 6610SOL    HW131466   1.841   3.866  15.188 -0.5003 -1.3136 -0.4107
 6610SOL    HW231467   1.937   3.847  15.289 -0.0060 -0.2219  1.2049
 6611SOL     OW31468   4.566   3.167  13.467  0.2257 -0.7209 -0.0550
 6611SOL    HW131469   4.656   3.198  13.456  0.0198 -0.4051 -0.8086
 6611SOL    HW231470   4.573   3.093  13.527 -0.7722 -0.6327  0.1632
 6612SOL     OW31471   4.219   4.360   5.671  0.3897 -0.2410 -0.0313
 6612SOL    HW131472   4.268   4.401   5.743 -1.6382  1.0261  0.6161
 6612SOL    HW231473   4.208   4.270   5.701 -0.1047  0.4093  1.7668
 6613SOL     OW31474   4.694   1.586   4.764  0.4331  0.4050 -0.0835
 6613SOL    HW131475   4.601   1.596   4.782  0.5225 -0.1731  0.7052
 6613SOL    HW231476   4.717   1.502   4.804 -0.5772  0.2368  0.1426
 6614SOL     OW31477   3.279   4.066   4.352  0.4675  0.2615 -0.2954
 6614SOL    HW131478   3.307   3.983   4.389 -0.0129  1.3524  2.5700
 6614SOL    HW231479   3.301   4.133   4.417  0.0906 -0.8597  0.9696
 6615SOL     OW31480   2.490   2.532   8.633 -0.0794  0.5466 -0.6480
 6615SOL    HW131481   2.582   2.549   8.611 -0.7410  1.3939 -2.8337
 6615SOL    HW231482   2.479   2.450   8.585 -0.1628  0.1426  0.0696
 6616SOL     OW31483   2.903   2.641   1.436  0.2650 -0.1397 -0.3480
 6616SOL    HW131484   2.869   2.653   1.525 -0.2327  0.8500 -0.6717
 6616SOL    HW231485   2.837   2.576   1.413  0.0567 -0.3034  0.7177
 6617SOL     OW31486   0.541   0.870   1.015  0.0247  0.6358 -0.0637
 6617SOL    HW131487   0.520   0.951   0.970  0.8983  0.2799 -1.1114
 6617SOL    HW231488   0.527   0.813   0.940  0.0384 -0.8393  1.0577
 6618SOL     OW31489   3.885   4.144   9.532 -0.1676 -0.0850  0.8619
 6618SOL    HW131490   3.950   4.154   9.463 -0.2994  1.0569  0.9169
 6618SOL    HW231491   3.928   4.077   9.585 -1.2279 -1.6706 -0.2773
 6619SOL     OW31492   4.246   2.491  12.442  0.2501 -0.2159 -0.3526
 6619SOL    HW131493   4.242   2.438  12.362  1.2394  1.0769 -1.2610
 6619SOL    HW231494   4.223   2.573  12.398  0.7777  0.8402  1.3588
 6620SOL     OW31495   0.483   0.990   8.734 -0.2724  0.6585  0.4653
 6620SOL    HW131496   0.562   1.019   8.778 -0.3623 -0.0436  1.0848
 6620SOL    HW231497   0.421   1.015   8.803 -1.4462 -3.3727  0.8677
 6621SOL     OW31498   3.474   4.194   9.643  0.1063  0.2013 -0.0442
 6621SOL    HW131499   3.464   4.184   9.737 -2.0102 -1.4497 -0.4490
 6621SOL    HW231500   3.393   4.239   9.617 -0.0970  0.3688  0.8857
 6622SOL     OW31501   3.311   4.493  12.053  0.6110  0.0429  0.0734
 6622SOL    HW131502   3.232   4.545  12.039 -0.3665 -0.9775  1.7909
 6622SOL    HW231503   3.272   4.414  12.090  0.5013  1.1018  2.2265
 6623SOL     OW31504   0.105   4.632   8.496 -0.4054  0.0740  0.1130
 6623SOL    HW131505   0.109   4.678   8.413  0.9158 -0.5083 -0.1487
 6623SOL    HW231506   0.018   4.595   8.486 -1.0750  1.4684  0.8073
 6624SOL     OW31507   0.507   4.460   5.567 -0.8635  0.7334  0.0395
 6624SOL    HW131508   0.496   4.503   5.482 -1.1168  0.1036 -0.2480
 6624SOL    HW231509   0.419   4.447   5.602 -0.2926 -1.5759  0.5775
 6625SOL     OW31510   3.736   0.496   5.406 -0.3532 -0.6376  0.1704
 6625SOL    HW131511   3.766   0.583   5.379 -0.1853 -0.0880  2.1462
 6625SOL    HW231512   3.753   0.496   5.500  1.6964 -0.3483 -0.1978
 6626SOL     OW31513   4.436   0.657   5.582 -0.5332 -0.1879 -0.1359
 6626SOL    HW131514   4.393   0.741   5.596  1.5382  1.0878 -1.3088
 6626SOL    HW231515   4.415   0.635   5.491  1.2189  1.7728 -1.0127
 6627SOL     OW31516   0.961   2.546   0.664  0.3596  0.3924  0.3316
 6627SOL    HW131517   0.980   2.499   0.745  0.6715 -0.9990 -0.5403
 6627SOL    HW231518   0.890   2.487   0.638 -0.0714  1.1546 -0.2218
 6628SOL     OW31519   0.784   1.170  16.162 -0.1069  0.0822 -0.2625
 6628SOL    HW131520   0.866   1.149  16.206 -0.4580  0.7141  0.6837
 6628SOL    HW231521   0.804   1.264  16.153  0.8101 -0.1169 -0.3692
 6629SOL     OW31522   4.119   2.536   2.176  0.1150 -0.2126 -0.2420
 6629SOL    HW131523   4.148   2.529   2.085  1.6857  2.1985  0.0513
 6629SOL    HW231524   4.056   2.608   2.166 -1.6564 -1.4789  1.8462
 6630SOL     OW31525   3.286   4.413   9.630 -0.0170  0.4145  0.1907
 6630SOL    HW131526   3.356   4.473   9.602 -0.4871  1.7244  1.8181
 6630SOL    HW231527   3.207   4.442   9.585  0.1867 -0.1806 -0.5470
 6631SOL     OW31528   4.622   3.087   8.035 -0.2043  0.0806 -0.2259
 6631SOL    HW131529   4.684   3.059   8.103 -0.2286  2.4561  0.7942
 6631SOL    HW231530   4.568   3.159   8.070  2.0861  0.9206  1.6412
 6632SOL     OW31531   3.172   1.889  11.180 -0.4360  0.2762 -0.0912
 6632SOL    HW131532   3.101   1.841  11.137  1.0251  0.9820 -3.3730
 6632SOL    HW231533   3.245   1.827  11.173 -2.3081 -1.7517 -1.7292
 6633SOL     OW31534   0.983   2.400  11.287  0.1619  0.2978  0.4076
 6633SOL    HW131535   1.078   2.399  11.288  0.1320 -2.1450  1.0918
 6633SOL    HW231536   0.971   2.405  11.381  1.2838 -2.9876  0.7427
 6634SOL     OW31537   0.899   1.736  16.197  0.5042 -0.0169  0.6191
 6634SOL    HW131538   0.893   1.713  16.104  2.0801 -0.1198  0.5309
 6634SOL    HW231539   0.912   1.830  16.189 -1.4085  0.3251  1.6742
 6635SOL     OW31540   2.602   2.297  12.920 -0.4770  0.0680  0.0825
 6635SOL    HW131541   2.529   2.341  12.963  0.4962 -0.1758  1.9874
 6635SOL    HW231542   2.588   2.209  12.955 -1.5237 -0.3999 -1.5464
 6636SOL     OW31543   2.209   3.456   4.618  0.1867  0.3180 -0.5708
 6636SOL    HW131544   2.196   3.447   4.523  2.3292  2.7829 -1.0855
 6636SOL    HW231545   2.186   3.371   4.655 -0.6549  1.0021  0.4520
 6637SOL     OW31546   2.424   0.641   6.495 -0.0539  0.3431  0.1996
 6637SOL    HW131547   2.433   0.728   6.456  0.4079  0.1900 -0.0312
 6637SOL    HW231548   2.379   0.673   6.573 -0.6247  2.1354 -0.8792
 6638SOL     OW31549   1.991   0.912   4.144 -0.3805 -0.1819  0.3035
 6638SOL    HW131550   1.912   0.918   4.091 -0.5890  2.1859  0.8868
 6638SOL    HW231551   1.956   0.918   4.233 -0.3129  0.0530  0.3136
 6639SOL     OW31552   4.027   2.843   9.543  0.1000 -0.5008  0.1607
 6639SOL    HW131553   3.957   2.893   9.502 -0.0727 -0.4254  0.5517
 6639SOL    HW231554   4.072   2.917   9.582 -0.1903 -0.1184 -0.2366
 6640SOL     OW31555   3.052   3.867   9.360  0.1804 -0.0234  0.2976
 6640SOL    HW131556   2.995   3.897   9.289 -2.2414 -2.9711  0.9588
 6640SOL    HW231557   2.990   3.823   9.418 -0.4696 -0.2704 -0.5806
 6641SOL     OW31558   0.220   3.303  14.637  0.6927 -0.1944 -1.0934
 6641SOL    HW131559   0.244   3.223  14.588  1.7948 -0.2256 -0.5127
 6641SOL    HW231560   0.305   3.336  14.667 -0.1530  1.2437 -0.2891
 6642SOL     OW31561   0.944   1.955   4.036 -0.0318 -0.1893 -0.3578
 6642SOL    HW131562   0.908   1.869   4.013 -1.5694  0.7521 -1.4046
 6642SOL    HW231563   0.974   1.928   4.123  1.0644  0.3403 -0.5723
 6643SOL     OW31564   0.760   3.448   5.942 -0.4342  0.0792  0.2863
 6643SOL    HW131565   0.844   3.407   5.963  0.6875  2.3327  0.1655
 6643SOL    HW231566   0.770   3.458   5.847 -1.8144 -4.7329 -0.4106
 6644SOL     OW31567   0.945   3.836   9.249  0.3889  0.7715  0.3620
 6644SOL    HW131568   0.923   3.816   9.158 -2.4518  1.1972  0.9614
 6644SOL    HW231569   1.023   3.784   9.266  0.2998  0.3719 -0.4583
 6645SOL     OW31570   2.944   0.214  12.715  0.2488  0.0133 -0.0461
 6645SOL    HW131571   2.882   0.286  12.699 -0.8312 -0.9586 -0.2024
 6645SOL    HW231572   2.896   0.139  12.748 -2.8601  0.9383 -2.4624
 6646SOL     OW31573   1.946   2.077  13.963  0.3875  0.1794  0.1585
 6646SOL    HW131574   1.931   2.143  13.896  1.4025  0.2741  0.0253
 6646SOL    HW231575   1.884   2.012  13.928  0.4495  0.7158 -0.9511
 6647SOL     OW31576   2.580   4.298   2.951 -0.3193 -0.4899 -0.6452
 6647SOL    HW131577   2.487   4.280   2.964 -0.2602  0.5484  1.1144
 6647SOL    HW231578   2.618   4.285   3.038 -0.1380  0.8831 -0.5205
 6648SOL     OW31579   0.692   0.467   9.624 -0.2510 -0.1545  0.3363
 6648SOL    HW131580   0.739   0.416   9.690  1.2886  1.5589  0.5719
 6648SOL    HW231581   0.665   0.399   9.562  0.7759 -0.1905 -0.0664
 6649SOL     OW31582   3.482   3.433   1.850  0.0964  0.2369  0.0650
 6649SOL    HW131583   3.573   3.455   1.832  0.5955 -0.8823  1.2733
 6649SOL    HW231584   3.435   3.516   1.863  0.3532  0.4016 -0.0612
 6650SOL     OW31585   2.735   4.439   0.906 -0.2568  0.6924  0.2966
 6650SOL    HW131586   2.706   4.407   0.991 -1.3815  0.0784 -0.3204
 6650SOL    HW231587   2.660   4.494   0.883  0.2362  0.9568 -0.6936
 6651SOL     OW31588   2.367   2.895   3.692 -0.7122 -0.1984 -0.0793
 6651SOL    HW131589   2.460   2.885   3.710 -1.0833 -3.1336  0.1571
 6651SOL    HW231590   2.354   2.984   3.726  2.2214 -0.2487  1.1836
 6652SOL     OW31591   3.530   3.156   9.283 -0.3128 -0.1910 -1.0110
 6652SOL    HW131592   3.499   3.090   9.345  1.2341  0.2972  0.2496
 6652SOL    HW231593   3.467   3.223   9.310 -1.0699 -2.0577  1.8629
 6653SOL     OW31594   3.875   0.872  15.457 -0.3630 -1.0455 -0.6764
 6653SOL    HW131595   3.907   0.783  15.443 -0.1241 -0.9597 -0.6874
 6653SOL    HW231596   3.915   0.890  15.543  0.0732 -2.2015 -0.6457
 6654SOL     OW31597   3.064   2.357   9.106  0.0766  0.0563  0.1314
 6654SOL    HW131598   2.983   2.324   9.068  0.6205 -0.4781 -0.5573
 6654SOL    HW231599   3.029   2.392   9.188  0.4523 -0.7638  0.6438
 6655SOL     OW31600   2.959   0.378   2.834  0.0773  0.4781  0.6152
 6655SOL    HW131601   2.968   0.369   2.929 -0.9355  0.1836  0.6804
 6655SOL    HW231602   2.864   0.378   2.850  0.3118  0.1216  2.0004
 6656SOL     OW31603   1.047   0.782  15.561  0.4622  0.2671 -0.4522
 6656SOL    HW131604   0.960   0.743  15.572  0.7149 -0.1047  0.2206
 6656SOL    HW231605   1.101   0.710  15.529  2.4559  2.5233 -2.1225
 6657SOL     OW31606   0.269   0.002   6.678 -0.1010  0.4812 -0.0606
 6657SOL    HW131607   0.339   0.020   6.741  0.8155  1.6651 -1.4124
 6657SOL    HW231608   0.324   4.711   6.605 -1.5322  0.5260 -1.1358
 6658SOL     OW31609   3.334   0.928   6.839  0.1258  0.3388 -0.4792
 6658SOL    HW131610   3.410   0.978   6.809  0.1415  1.3046  1.1802
 6658SOL    HW231611   3.296   0.983   6.907 -1.2628 -0.0585 -0.9396
 6659SOL     OW31612   1.687   1.646   8.540  0.0215  0.2268  0.3263
 6659SOL    HW131613   1.621   1.711   8.567  0.0300  1.1747 -1.9152
 6659SOL    HW231614   1.678   1.584   8.612 -0.0871  1.1463  1.1175
 6660SOL     OW31615   2.710   3.353   0.355 -0.1384 -0.1159  0.3620
 6660SOL    HW131616   2.740   3.367   0.445 -1.4604 -0.9281  0.9428
 6660SOL    HW231617   2.623   3.322   0.383 -0.4046  0.1160 -0.1969
 6661SOL     OW31618   2.925   1.600   6.743  0.4259  0.4919  0.3480
 6661SOL    HW131619   2.998   1.651   6.779 -1.8269  3.5240  0.6212
 6661SOL    HW231620   2.901   1.662   6.674 -1.5252  0.7466  1.2610
 6662SOL     OW31621   1.847   2.143  17.687 -0.0368 -0.0075  0.0186
 6662SOL    HW131622   1.848   2.048  17.676 -1.9562  0.3035 -2.7574
 6662SOL    HW231623   1.824   2.150   0.033  0.6075 -1.2466  0.2775
 6663SOL     OW31624   3.166   1.059   7.063  0.4407 -0.5824  0.0543
 6663SOL    HW131625   3.239   1.011   7.103  0.4718 -0.0994  0.5750
 6663SOL    HW231626   3.127   1.095   7.143 -1.5765 -0.4979 -0.9822
 6664SOL     OW31627   0.280   4.024   6.570  0.6627 -0.1793  0.3719
 6664SOL    HW131628   0.248   3.940   6.537  0.9765 -0.1094 -0.1027
 6664SOL    HW231629   0.366   4.030   6.528  1.0639 -1.5262  0.9966
 6665SOL     OW31630   0.408   2.224   4.700 -0.3615 -0.6689 -0.0065
 6665SOL    HW131631   0.438   2.294   4.642 -4.1211 -1.0457 -2.4159
 6665SOL    HW231632   0.384   2.148   4.647 -1.1636  1.1725 -2.3161
 6666SOL     OW31633   4.140   0.390  14.460 -0.0277 -0.2379 -0.6956
 6666SOL    HW131634   4.051   0.408  14.429 -0.6847  0.7835  1.7480
 6666SOL    HW231635   4.120   0.414  14.551  1.2252  0.7336 -0.6670
 6667SOL     OW31636   1.391   1.686   2.625  0.5632  0.3533 -0.5787
 6667SOL    HW131637   1.298   1.705   2.632  1.2898  3.2585  1.1371
 6667SOL    HW231638   1.388   1.607   2.572 -0.5918 -0.2235  0.3407
 6668SOL     OW31639   4.378   4.000   8.166  0.1111 -0.0526 -0.3283
 6668SOL    HW131640   4.449   4.024   8.107 -1.0175  0.7679 -1.3605
 6668SOL    HW231641   4.323   4.078   8.153  1.6446  0.7065 -2.2118
 6669SOL     OW31642   1.760   0.341   5.206  0.1433 -0.5577  0.0008
 6669SOL    HW131643   1.841   0.365   5.163  0.1180  0.3107  0.4442
 6669SOL    HW231644   1.782   0.363   5.296  1.4180  1.7898 -0.8955
 6670SOL     OW31645   3.182   2.519  14.990  0.3562 -0.9887 -0.0987
 6670SOL    HW131646   3.199   2.491  15.080 -1.3187 -1.4116  0.0881
 6670SOL    HW231647   3.255   2.579  14.974 -0.9258  0.0762 -1.8940
 6671SOL     OW31648   4.608   3.649  13.771 -0.2438  0.3025  0.6216
 6671SOL    HW131649   4.580   3.653  13.862  0.5156 -2.2156  0.9593
 6671SOL    HW231650   4.573   3.562  13.753  0.9075  0.1350 -0.7909
 6672SOL     OW31651   0.965   0.259   4.110 -0.1005 -0.1213  0.5830
 6672SOL    HW131652   0.883   0.228   4.069  0.5202 -1.6797  0.5164
 6672SOL    HW231653   0.959   0.355   4.110  0.2677 -0.0864 -1.9311
 6673SOL     OW31654   1.189   0.243   9.118  0.1045  0.2132 -0.8534
 6673SOL    HW131655   1.219   0.333   9.107 -1.4288  0.8864  0.4557
 6673SOL    HW231656   1.179   0.216   9.027 -2.4234 -1.0955 -0.1815
 6674SOL     OW31657   4.718   1.752  11.416  0.4552 -0.1454 -0.4754
 6674SOL    HW131658   4.627   1.740  11.441  0.8423 -0.7595  0.6412
 6674SOL    HW231659   0.011   1.768  11.505 -1.1781  1.0916 -0.1574
 6675SOL     OW31660   2.926   3.082   2.612 -0.5414  0.3252  0.2175
 6675SOL    HW131661   2.976   3.160   2.636  1.7378 -1.5733  1.6018
 6675SOL    HW231662   2.841   3.100   2.652  0.1316  0.1379  1.7107
 6676SOL     OW31663   2.392   0.361   4.689 -0.2620 -0.1206  0.4360
 6676SOL    HW131664   2.350   0.306   4.754 -0.1811 -0.8039 -0.0826
 6676SOL    HW231665   2.366   0.450   4.713 -0.7281 -0.2967  0.5709
 6677SOL     OW31666   0.479   1.634   5.601  0.3070 -0.4291 -0.6092
 6677SOL    HW131667   0.493   1.620   5.508  1.9749 -0.4205 -0.3598
 6677SOL    HW231668   0.442   1.722   5.607  1.3358 -0.0977  0.8854
 6678SOL     OW31669   1.330   2.920   2.734  0.0889  0.1840 -0.0157
 6678SOL    HW131670   1.337   2.925   2.639  0.4527 -0.8183 -0.0447
 6678SOL    HW231671   1.357   3.008   2.761 -0.2485 -0.2355  1.6719
 6679SOL     OW31672   3.211   4.204   9.332  0.3112 -0.6355  0.1493
 6679SOL    HW131673   3.157   4.280   9.309  1.4256  0.6606  1.8122
 6679SOL    HW231674   3.299   4.241   9.334 -0.2302  0.6957 -0.0550
 6680SOL     OW31675   1.103   4.651   0.356 -0.0665 -0.2501 -0.1446
 6680SOL    HW131676   1.157   4.572   0.352  1.3312  0.6763  0.0896
 6680SOL    HW231677   1.147   4.701   0.425 -1.5592  0.2339  0.4477
 6681SOL     OW31678   0.378   0.414  17.052  0.6271 -0.1737  0.0643
 6681SOL    HW131679   0.369   0.489  16.993  0.0554  0.2430  0.6812
 6681SOL    HW231680   0.443   0.362  17.004 -1.4890 -1.2130 -1.6689
 6682SOL     OW31681   4.395   3.257   5.830 -0.1564 -0.7483 -0.0849
 6682SOL    HW131682   4.349   3.195   5.773 -1.5043 -0.6880  0.9607
 6682SOL    HW231683   4.363   3.223   5.914 -1.3288  0.3051 -0.1210
 6683SOL     OW31684   3.109   4.356  10.288 -0.3331 -0.2426 -0.3651
 6683SOL    HW131685   3.028   4.400  10.262  0.4827  0.5004 -1.6401
 6683SOL    HW231686   3.167   4.372  10.214 -1.8088 -0.6253 -1.6019
 6684SOL     OW31687   0.192   1.800  17.728 -0.2941 -0.3328  0.1342
 6684SOL    HW131688   0.172   1.878  17.677 -1.2141 -0.0703  0.8962
 6684SOL    HW231689   0.287   1.793  17.720 -0.3831  0.3752 -1.6113
 6685SOL     OW31690   2.817   3.108   7.282  0.6991  0.8604  0.0067
 6685SOL    HW131691   2.808   3.044   7.352  2.6026  0.4471 -0.1352
 6685SOL    HW231692   2.788   3.187   7.328 -3.0206 -0.5991  0.1569
 6686SOL     OW31693   3.417   4.461   0.866 -0.0746 -0.1558 -0.3386
 6686SOL    HW131694   3.334   4.443   0.822  0.8121 -2.2128 -1.1889
 6686SOL    HW231695   3.460   4.532   0.819  2.9052 -1.5624  0.2327
 6687SOL     OW31696   0.369   4.024   4.892  0.0074 -0.4377 -0.7169
 6687SOL    HW131697   0.432   3.962   4.930  0.4067  0.4823  0.0976
 6687SOL    HW231698   0.385   4.016   4.798 -0.4454  1.2716 -0.9238
 6688SOL     OW31699   0.173   0.164   4.066  0.1388 -0.1938 -0.4828
 6688SOL    HW131700   0.127   0.223   4.126  0.0083 -0.1950 -0.5838
 6688SOL    HW231701   0.249   0.217   4.041  0.9404  0.0694  2.4109
 6689SOL     OW31702   0.466   3.438   5.909 -0.3495  0.0190  0.6034
 6689SOL    HW131703   0.556   3.407   5.907 -0.9500 -1.6729 -1.1787
 6689SOL    HW231704   0.458   3.477   5.822 -0.2717  1.2838  1.1783
 6690SOL     OW31705   0.347   4.328   8.290 -0.1509  0.1510  0.0934
 6690SOL    HW131706   0.415   4.269   8.322 -0.1565  1.0852  1.8227
 6690SOL    HW231707   0.381   4.416   8.302  2.1765 -0.6729 -0.4763
 6691SOL     OW31708   1.237   4.092   3.209 -0.3119 -0.4791  0.3734
 6691SOL    HW131709   1.308   4.126   3.262 -0.3571 -0.7527  0.6078
 6691SOL    HW231710   1.164   4.149   3.232 -1.3244 -1.4795 -0.3442
 6692SOL     OW31711   4.082   1.332  14.449  0.3157  0.8731  0.4127
 6692SOL    HW131712   4.145   1.404  14.454 -0.5177  1.6781 -0.7255
 6692SOL    HW231713   4.018   1.375  14.393  1.5118 -0.4851 -1.9824
 6693SOL     OW31714   0.719   1.253   0.774 -0.1840  0.2032  0.2190
 6693SOL    HW131715   0.643   1.311   0.779  0.2703  0.8207 -0.0950
 6693SOL    HW231716   0.696   1.195   0.700 -1.2854  0.1101  0.6268
 6694SOL     OW31717   4.732   3.780   3.697  0.5285 -0.5754  0.5067
 6694SOL    HW131718   4.708   3.791   3.789 -1.1736 -1.4932  0.1741
 6694SOL    HW231719   4.734   3.873   3.677 -0.3295 -0.4111  1.2170
 6695SOL     OW31720   0.136   0.282   2.367 -0.1248  0.1482 -0.6133
 6695SOL    HW131721   0.097   0.369   2.377  0.7405  0.4638  0.0218
 6695SOL    HW231722   0.118   0.274   2.273 -2.3638 -0.1667 -0.1624
 6696SOL     OW31723   2.570   1.200   3.637 -0.3478  0.7935  0.4763
 6696SOL    HW131724   2.624   1.129   3.671 -1.7998 -0.2559  0.5612
 6696SOL    HW231725   2.486   1.162   3.662  0.0208 -0.3552 -0.0531
 6697SOL     OW31726   4.032   3.082  10.773  0.2415 -0.2710 -0.6636
 6697SOL    HW131727   4.120   3.046  10.775 -0.4500 -1.9831 -0.5474
 6697SOL    HW231728   4.038   3.177  10.770 -1.6452 -0.0773  1.5838
 6698SOL     OW31729   2.784   0.282   5.823  0.0264  0.0451 -0.3256
 6698SOL    HW131730   2.806   0.348   5.889  2.5852  2.5813 -3.6649
 6698SOL    HW231731   2.691   0.273   5.840  0.2668 -2.8986 -0.6466
 6699SOL     OW31732   1.424   1.407   8.534 -0.4159 -0.1667 -0.2957
 6699SOL    HW131733   1.504   1.366   8.500 -0.1374  0.2145 -0.1050
 6699SOL    HW231734   1.432   1.395   8.629  3.0876  3.1803 -0.1430
 6700SOL     OW31735   2.934   3.721   0.497  0.1253 -0.0036  0.2001
 6700SOL    HW131736   2.841   3.720   0.473 -0.0764  1.2514  0.9363
 6700SOL    HW231737   2.967   3.772   0.424  0.2116  2.9752  2.3087
 6701SOL     OW31738   2.899   4.515  10.178  0.1385 -0.2268  0.2631
 6701SOL    HW131739   2.948   4.596  10.195  0.7844 -0.8157  1.2421
 6701SOL    HW231740   2.819   4.525  10.230  0.3967  2.3962  0.1599
 6702SOL     OW31741   1.601   3.780  17.562  0.3692  0.3802  0.3091
 6702SOL    HW131742   1.589   3.857  17.507 -0.8123  0.5891  0.8767
 6702SOL    HW231743   1.623   3.830  17.640 -1.0807  1.2750  0.1357
 6703SOL     OW31744   3.518   3.655   6.803  0.2331 -0.0645  0.0534
 6703SOL    HW131745   3.535   3.652   6.709 -0.1264 -1.0291  0.0213
 6703SOL    HW231746   3.500   3.748   6.817 -3.2546 -1.2161  3.0970
 6704SOL     OW31747   2.054   0.852  16.209 -0.1888  0.0785 -0.0126
 6704SOL    HW131748   2.036   0.803  16.290 -0.2764  1.1595  0.6192
 6704SOL    HW231749   2.058   0.944  16.232 -1.7674  0.1785 -0.1179
 6705SOL     OW31750   3.628   2.011   8.881  0.3045 -0.2325  0.1535
 6705SOL    HW131751   3.564   1.948   8.914  1.4151 -1.6112 -0.3035
 6705SOL    HW231752   3.570   2.077   8.844 -1.8152 -2.0072  0.3053
 6706SOL     OW31753   3.718   0.066  12.978 -0.4122 -0.0782 -0.3528
 6706SOL    HW131754   3.697   0.094  12.889 -0.6032  0.2907 -0.1931
 6706SOL    HW231755   3.769   4.724  12.961 -0.5638 -0.3952  0.6214
 6707SOL     OW31756   2.476   4.421   5.620  0.2339 -0.3851  0.4584
 6707SOL    HW131757   2.478   4.400   5.713 -0.0860  1.4052  0.8794
 6707SOL    HW231758   2.381   4.430   5.606  0.2745 -1.4614 -0.5175
 6708SOL     OW31759   3.863   0.620   6.544 -0.2210  0.7277 -0.1834
 6708SOL    HW131760   3.928   0.555   6.569  0.1285  0.8656 -0.7398
 6708SOL    HW231761   3.793   0.562   6.513 -0.8253  3.2460 -3.5486
 6709SOL     OW31762   4.725   1.996  12.747 -0.7552  0.2290  0.0101
 6709SOL    HW131763   0.020   2.046  12.821  0.3368 -2.7042  1.5421
 6709SOL    HW231764   0.051   1.923  12.743  1.2253  1.8904  1.0440
 6710SOL     OW31765   2.779   3.434   8.848 -0.2744  0.0448 -0.2252
 6710SOL    HW131766   2.865   3.398   8.823  0.1570  1.3436 -0.6076
 6710SOL    HW231767   2.764   3.409   8.939  2.4682 -0.3524  0.1253
 6711SOL     OW31768   3.906   4.636   2.185 -0.0843 -0.4886 -0.2623
 6711SOL    HW131769   3.873   4.546   2.196  1.2755 -0.8408  0.8920
 6711SOL    HW231770   3.989   4.636   2.232 -1.2510 -2.1007  1.7954
 6712SOL     OW31771   4.026   4.702   9.984  0.0678  0.2423  0.1355
 6712SOL    HW131772   3.946   4.653  10.005  0.0308  0.2489  0.0104
 6712SOL    HW231773   4.006   4.722   9.892  1.3135 -1.5276 -0.5206
 6713SOL     OW31774   0.961   1.772   5.354  0.2433 -0.5526 -0.4926
 6713SOL    HW131775   0.895   1.751   5.421  0.1346  2.4746  0.3440
 6713SOL    HW231776   1.003   1.848   5.394  2.4431  0.0319 -3.9227
 6714SOL     OW31777   2.647   1.019  11.576  0.1933  0.4887 -0.1656
 6714SOL    HW131778   2.736   0.987  11.556  0.5389  0.2430  1.7273
 6714SOL    HW231779   2.638   1.085  11.508  3.2367  1.4376  0.3417
 6715SOL     OW31780   2.304   2.637   3.699 -0.0843  0.3908 -0.3968
 6715SOL    HW131781   2.209   2.648   3.697 -0.0270  0.6886 -1.8808
 6715SOL    HW231782   2.333   2.728   3.692 -0.8758  0.6384 -0.5406
 6716SOL     OW31783   2.376   2.854   9.270 -0.3351 -0.0598  0.1281
 6716SOL    HW131784   2.452   2.912   9.261 -1.2229  1.4314  2.2486
 6716SOL    HW231785   2.321   2.906   9.329 -3.8715 -1.2116 -2.1764
 6717SOL     OW31786   3.241   0.092   8.619 -0.0237  0.6629 -0.0820
 6717SOL    HW131787   3.196   0.111   8.702  1.3064  0.8807  0.5812
 6717SOL    HW231788   3.259   0.182   8.590 -0.4213 -0.1655 -2.8970
 6718SOL     OW31789   3.594   4.251   7.913  0.6513 -0.0521 -0.2085
 6718SOL    HW131790   3.650   4.318   7.874 -0.5408  0.7031 -0.6367
 6718SOL    HW231791   3.599   4.190   7.839 -0.4236 -0.5530  0.1348
 6719SOL     OW31792   4.482   3.064   6.338 -0.5278 -0.0193 -0.1031
 6719SOL    HW131793   4.506   3.045   6.429  0.6464 -0.6316 -0.5472
 6719SOL    HW231794   4.404   3.115   6.361 -1.6171 -0.9633 -1.6861
 6720SOL     OW31795   1.563   1.872   2.740 -0.5753 -0.5976  0.2443
 6720SOL    HW131796   1.500   1.802   2.721 -1.4802  0.1952  0.3219
 6720SOL    HW231797   1.621   1.872   2.665  0.8449  1.2247  1.3535
 6721SOL     OW31798   0.196   0.713   8.716  0.0046  0.3461 -0.2636
 6721SOL    HW131799   0.288   0.740   8.714  0.2819 -0.4600  1.8940
 6721SOL    HW231800   0.197   0.658   8.637  1.1102  1.8422 -1.2912
 6722SOL     OW31801   3.717   1.129   7.206 -0.3921 -0.1273  0.0268
 6722SOL    HW131802   3.658   1.079   7.262 -0.0593  0.9692  1.3480
 6722SOL    HW231803   3.707   1.211   7.254  1.7935  0.2834 -0.2200
 6723SOL     OW31804   1.328   4.551  14.500  0.2041  0.2544  0.4403
 6723SOL    HW131805   1.391   4.614  14.466 -1.5149  2.5547  1.4825
 6723SOL    HW231806   1.311   4.507  14.416  0.6399  1.4623 -0.2843
 6724SOL     OW31807   0.948   4.286   4.427  0.2850  0.3782 -0.6338
 6724SOL    HW131808   1.028   4.234   4.418 -0.1782  0.0193 -2.7815
 6724SOL    HW231809   0.987   4.373   4.433  2.5672 -0.6731 -0.1647
 6725SOL     OW31810   3.948   2.419   1.038  0.7131  0.2652  0.1855
 6725SOL    HW131811   3.865   2.389   1.000  0.9834  1.8386 -1.6452
 6725SOL    HW231812   3.940   2.498   1.092 -0.0818  1.0843 -1.1286
 6726SOL     OW31813   2.628   4.426  16.814 -0.5012 -0.0505 -0.3164
 6726SOL    HW131814   2.607   4.510  16.855  0.9159  0.8819 -1.5077
 6726SOL    HW231815   2.567   4.428  16.740  0.9899  2.1001 -1.4786
 6727SOL     OW31816   0.390   1.727   9.444  0.2043  0.3678 -0.5583
 6727SOL    HW131817   0.309   1.775   9.465 -0.2487 -2.4101  4.0378
 6727SOL    HW231818   0.451   1.794   9.475  2.4452 -1.3348 -1.2919
 6728SOL     OW31819   0.011   0.517   2.355 -0.0259 -0.1657  0.0003
 6728SOL    HW131820   4.735   0.531   2.261 -0.0381  0.7749  0.1354
 6728SOL    HW231821   4.657   0.497   2.374  0.8745 -1.9518  2.2887
 6729SOL     OW31822   3.260   4.401   2.839  0.1023  0.4414  0.2753
 6729SOL    HW131823   3.165   4.413   2.834 -0.1184 -0.7189  1.7976
 6729SOL    HW231824   3.280   4.314   2.805 -2.8354 -0.0622 -0.1361
 6730SOL     OW31825   1.640   2.250   2.248 -0.3044  0.5944  0.6382
 6730SOL    HW131826   1.695   2.229   2.324  0.0552 -0.3601  0.1127
 6730SOL    HW231827   1.698   2.314   2.207  0.5606 -1.3421 -1.1543
 6731SOL     OW31828   0.827   4.032  13.630  0.2334 -0.1705  0.0337
 6731SOL    HW131829   0.879   4.050  13.709 -0.2496 -4.3550  1.2830
 6731SOL    HW231830   0.776   4.113  13.631  1.1020  0.3786 -0.3557
 6732SOL     OW31831   1.552   1.301   7.105 -0.3294 -0.5029 -0.1715
 6732SOL    HW131832   1.646   1.318   7.104 -0.4463  0.1867  0.8944
 6732SOL    HW231833   1.536   1.263   7.191 -1.9426 -0.1084 -0.2980
 6733SOL     OW31834   3.934   2.864   6.623  0.0556  0.6755  0.4669
 6733SOL    HW131835   3.861   2.828   6.572 -2.6968  2.9212  2.8008
 6733SOL    HW231836   3.992   2.789   6.637 -3.2093 -2.3558 -2.1747
 6734SOL     OW31837   0.238   0.174  16.584  0.4715  0.7617  0.0048
 6734SOL    HW131838   0.322   0.128  16.587 -0.1617 -0.4216 -0.4505
 6734SOL    HW231839   0.237   0.220  16.500  1.6257 -0.6175 -0.7688
 6735SOL     OW31840   1.482   4.621   8.485 -0.2394  0.0351 -0.7703
 6735SOL    HW131841   1.572   4.649   8.467 -0.3213  0.4508 -0.5323
 6735SOL    HW231842   1.427   4.699   8.480  1.4634  1.3239  0.8612
 6736SOL     OW31843   2.335   4.332  15.219 -0.0721 -0.6339  0.2596
 6736SOL    HW131844   2.421   4.306  15.186  0.0520  1.5775 -1.1603
 6736SOL    HW231845   2.297   4.245  15.225  2.9375 -1.8478  1.9561
 6737SOL     OW31846   3.544   2.095   3.577 -0.2826  0.1197  0.0426
 6737SOL    HW131847   3.554   2.008   3.618 -0.1522 -0.4303 -1.1567
 6737SOL    HW231848   3.461   2.123   3.615 -0.4929 -1.7020  0.9473
 6738SOL     OW31849   4.398   4.170   3.882  0.1482  0.2249 -0.1625
 6738SOL    HW131850   4.481   4.149   3.841  0.3028 -0.4163  0.4582
 6738SOL    HW231851   4.335   4.139   3.817  0.9731 -0.2822 -0.7031
 6739SOL     OW31852   0.048   2.277  13.166  0.2530 -0.4084 -0.6561
 6739SOL    HW131853   0.104   2.331  13.222  1.2678 -1.5184 -0.6022
 6739SOL    HW231854   0.042   2.192  13.210  1.2193 -0.1601 -0.0512
 6740SOL     OW31855   3.735   1.386   0.707  0.3437 -0.0582  0.3986
 6740SOL    HW131856   3.654   1.340   0.688 -1.4298  3.0252  0.4537
 6740SOL    HW231857   3.772   1.330   0.775 -0.4709 -0.4456  0.5129
 6741SOL     OW31858   0.362   1.587   4.187 -0.2659 -0.3858 -0.0831
 6741SOL    HW131859   0.307   1.666   4.181 -1.5315 -1.2091  0.6744
 6741SOL    HW231860   0.309   1.524   4.138 -1.1558 -0.0033  0.3749
 6742SOL     OW31861   2.796   4.101   6.630  0.0213  0.1080 -0.4839
 6742SOL    HW131862   2.838   4.144   6.555 -0.2307  1.5460  0.1891
 6742SOL    HW231863   2.745   4.177   6.661 -0.1602  0.0565 -0.6558
 6743SOL     OW31864   1.835   0.014   3.981  0.3097  0.3743 -0.2405
 6743SOL    HW131865   1.797   4.667   3.956 -0.8722  1.1400 -1.0905
 6743SOL    HW231866   1.924   4.734   3.950  0.4008  2.0089 -0.9084
 6744SOL     OW31867   4.375   1.837  16.593  0.4085 -0.2678 -0.0022
 6744SOL    HW131868   4.416   1.760  16.554  0.9460 -0.2734  0.5643
 6744SOL    HW231869   4.306   1.859  16.531  1.9890 -0.0623 -1.7017
 6745SOL     OW31870   2.588   3.288  12.811  0.0293 -0.4972  0.8198
 6745SOL    HW131871   2.587   3.384  12.811 -0.7116 -0.4906 -2.2195
 6745SOL    HW231872   2.563   3.279  12.902 -1.9109 -0.2847  0.2921
 6746SOL     OW31873   2.411   1.854   5.269 -0.7200  0.5210  0.2434
 6746SOL    HW131874   2.407   1.817   5.358 -3.0587 -0.4611 -0.2679
 6746SOL    HW231875   2.505   1.846   5.252 -0.4774 -0.5728  2.0861
 6747SOL     OW31876   3.669   3.428   6.573 -0.2642 -0.0866  0.2321
 6747SOL    HW131877   3.643   3.347   6.618 -1.2259 -0.6039 -1.2617
 6747SOL    HW231878   3.751   3.403   6.530 -0.2783 -0.8831  0.6633
 6748SOL     OW31879   0.659   2.591   0.931  0.1251 -0.1205  0.3104
 6748SOL    HW131880   0.623   2.677   0.909  1.2421  0.0884 -0.6756
 6748SOL    HW231881   0.592   2.562   0.993 -3.0845  2.7047 -1.8382
 6749SOL     OW31882   0.110   0.344   4.278  0.1859  0.0450 -0.1639
 6749SOL    HW131883   0.186   0.395   4.306  0.4213 -1.2087  1.4865
 6749SOL    HW231884   0.090   0.293   4.356 -1.0642  0.2836 -0.3227
 6750SOL     OW31885   1.711   0.852   8.360 -0.0376  0.4935  0.1620
 6750SOL    HW131886   1.636   0.903   8.392 -0.6064 -0.7352  0.7888
 6750SOL    HW231887   1.774   0.881   8.425 -0.4601  2.0126 -0.1186
 6751SOL     OW31888   3.940   3.852   7.993 -0.5589  0.1813  0.0713
 6751SOL    HW131889   4.000   3.783   8.022 -2.1911 -0.4166  1.9761
 6751SOL    HW231890   3.947   3.917   8.063  0.0319  0.8276 -0.5908
 6752SOL     OW31891   3.847   1.024   8.305 -0.0130 -0.6667  0.3192
 6752SOL    HW131892   3.780   1.073   8.257 -0.9302 -1.6947  0.5641
 6752SOL    HW231893   3.926   1.072   8.279  0.8447 -1.7660  0.9075
 6753SOL     OW31894   4.129   3.582   2.952  0.2430 -0.5579 -0.2505
 6753SOL    HW131895   4.127   3.662   2.899 -0.8031  2.1398  3.8972
 6753SOL    HW231896   4.221   3.575   2.978  0.3991  0.0382 -0.6429
 6754SOL     OW31897   3.792   1.514   7.437  0.2983 -0.3275 -0.3043
 6754SOL    HW131898   3.766   1.525   7.529  2.5257 -1.5557  0.4670
 6754SOL    HW231899   3.812   1.605   7.415 -0.3838  0.1787  1.1263
 6755SOL     OW31900   3.575   1.308   5.726  0.3474  0.2941  0.6831
 6755SOL    HW131901   3.662   1.342   5.706 -0.1878  0.7305 -0.8799
 6755SOL    HW231902   3.539   1.358   5.800 -0.1841 -0.1834  0.7502
 6756SOL     OW31903   0.371   2.451  13.816  0.3127 -0.2765 -0.0777
 6756SOL    HW131904   0.446   2.428  13.871  0.0315  0.5109  0.6401
 6756SOL    HW231905   0.290   2.422  13.859 -0.6238  0.9667 -0.9961
 6757SOL     OW31906   2.216   4.298  14.766 -0.1807  0.2174  0.2687
 6757SOL    HW131907   2.162   4.268  14.840 -0.2469  3.6982  1.6192
 6757SOL    HW231908   2.216   4.218  14.713  2.4563  0.1910  0.3258
 6758SOL     OW31909   3.530   1.353  10.780 -0.6900 -0.2962 -0.0973
 6758SOL    HW131910   3.605   1.412  10.784  1.1934 -2.7730  0.7439
 6758SOL    HW231911   3.521   1.344  10.685  1.1801 -1.9737 -0.1188
 6759SOL     OW31912   0.994   4.343  13.443  0.1766 -0.0516 -0.2862
 6759SOL    HW131913   0.935   4.349  13.368  2.8393  0.9602 -2.3091
 6759SOL    HW231914   0.947   4.283  13.501 -0.2162  0.9706  0.4525
 6760SOL     OW31915   0.158   2.827   8.023 -0.1836 -0.2904  0.0966
 6760SOL    HW131916   0.218   2.755   8.043  0.4478  0.0824 -0.4319
 6760SOL    HW231917   0.208   2.898   8.064  0.7541 -0.7906 -0.1755
 6761SOL     OW31918   2.667   3.001   2.108 -0.4816  1.0310  0.1820
 6761SOL    HW131919   2.737   2.939   2.092 -0.6792  1.4364 -2.3194
 6761SOL    HW231920   2.709   3.082   2.138  3.3158 -1.3314  1.0837
 6762SOL     OW31921   1.951   3.031   0.235 -0.1185  0.0155 -0.7948
 6762SOL    HW131922   2.040   3.013   0.264 -1.0722  0.2652  2.3284
 6762SOL    HW231923   1.912   3.049   0.321  0.4588  0.5458 -0.6425
 6763SOL     OW31924   3.472   3.625  17.554  0.1518 -0.1796  0.0451
 6763SOL    HW131925   3.409   3.644  17.624  0.8821  0.0176  0.6510
 6763SOL    HW231926   3.447   3.533  17.551 -2.8870  0.6775 -1.3684
 6764SOL     OW31927   1.802   0.571   7.945  0.4049  0.3525 -0.2563
 6764SOL    HW131928   1.838   0.649   7.987  0.8187  0.0880 -0.1228
 6764SOL    HW231929   1.720   0.567   7.996  2.4971 -1.1378  3.0225
 6765SOL     OW31930   2.375   0.376   5.354  0.6828 -0.6808 -0.3405
 6765SOL    HW131931   2.434   0.448   5.377  0.0330 -0.4785  0.7011
 6765SOL    HW231932   2.440   0.305   5.351  1.5516  0.0880  0.3262
 6766SOL     OW31933   0.069   0.293   2.702 -0.1929 -0.6928 -0.7299
 6766SOL    HW131934   0.013   0.366   2.675 -0.2886 -0.1091  1.0260
 6766SOL    HW231935   0.102   0.336   2.781 -0.7698  1.6931 -1.7751
 6767SOL     OW31936   3.102   0.072  16.346 -0.8339 -0.1218 -0.0499
 6767SOL    HW131937   3.071   0.160  16.368 -0.7915 -0.0166 -0.4164
 6767SOL    HW231938   3.155   0.047  16.422  1.2464  1.5127 -0.9691
 6768SOL     OW31939   3.989   3.670   7.333 -0.0605  0.0921 -0.1455
 6768SOL    HW131940   4.063   3.630   7.379  0.9067  1.2874 -0.6433
 6768SOL    HW231941   3.999   3.640   7.242 -2.0536 -1.8009  0.2458
 6769SOL     OW31942   2.117   2.755   7.776  0.0623 -0.2504  0.4221
 6769SOL    HW131943   2.085   2.845   7.768  0.6911 -0.1410 -0.7500
 6769SOL    HW231944   2.065   2.715   7.846  1.6176  0.2169  1.8616
 6770SOL     OW31945   1.819   0.891  11.654  0.0470 -0.2648 -0.3177
 6770SOL    HW131946   1.876   0.886  11.730 -0.9947 -3.0246  0.2808
 6770SOL    HW231947   1.766   0.811  11.653 -0.2865 -0.0564  1.2051
 6771SOL     OW31948   3.075   3.544   0.165 -0.2936  0.6713  0.2890
 6771SOL    HW131949   3.020   3.609   0.210 -1.9365  1.5240 -2.9917
 6771SOL    HW231950   3.125   3.517   0.242 -0.1892  0.6886  0.2282
 6772SOL     OW31951   0.555   1.045   6.979  0.2592  0.2488  0.2902
 6772SOL    HW131952   0.546   1.057   6.885 -0.4885 -2.5898  0.0074
 6772SOL    HW231953   0.474   1.082   7.014 -0.8975 -2.4798  0.5011
 6773SOL     OW31954   0.516   0.597  12.387  0.3984  0.3414  0.8983
 6773SOL    HW131955   0.601   0.606  12.431  0.9418 -0.4188  0.0165
 6773SOL    HW231956   0.542   0.565  12.300  0.5195  0.2171  0.9789
 6774SOL     OW31957   3.721   0.957   0.434 -0.0239  0.3599 -0.6951
 6774SOL    HW131958   3.761   1.029   0.386  1.6794  0.9270  1.5784
 6774SOL    HW231959   3.631   0.960   0.400 -0.7971  0.2157  1.3422
 6775SOL     OW31960   2.328   4.294   8.169 -0.1227  0.0044  0.0513
 6775SOL    HW131961   2.271   4.262   8.239 -0.8479  0.5695 -0.2832
 6775SOL    HW231962   2.276   4.359   8.122  0.6380  0.7096  0.2049
 6776SOL     OW31963   3.608   4.324   8.832 -0.3471  0.0046 -0.4123
 6776SOL    HW131964   3.575   4.408   8.863 -0.4199 -0.0620 -0.3069
 6776SOL    HW231965   3.539   4.260   8.853 -1.0547 -0.4895 -4.2482
 6777SOL     OW31966   2.713   0.243   2.932  0.4534 -0.1120  0.1080
 6777SOL    HW131967   2.776   0.172   2.947  0.7465  0.0307 -0.4470
 6777SOL    HW231968   2.683   0.273   3.018 -0.6781  0.3941 -0.4651
 6778SOL     OW31969   2.733   3.621   7.885 -0.8447  0.3732 -0.1306
 6778SOL    HW131970   2.794   3.614   7.958 -2.2945 -0.0418  1.0538
 6778SOL    HW231971   2.700   3.711   7.894 -1.4274  0.3247 -1.8031
 6779SOL     OW31972   4.443   2.541   2.290 -0.2820  0.7033  0.2868
 6779SOL    HW131973   4.423   2.575   2.203  3.4531  1.2688 -0.3271
 6779SOL    HW231974   4.422   2.448   2.280  0.6781  0.4826  0.3200
 6780SOL     OW31975   1.591   3.360   9.836 -0.5704  0.1496  0.2643
 6780SOL    HW131976   1.611   3.454   9.836 -0.0996  0.0579 -0.8151
 6780SOL    HW231977   1.507   3.363   9.790  0.2130 -0.7135 -1.2287
 6781SOL     OW31978   3.900   1.290   7.642  0.2817  0.1063  0.0710
 6781SOL    HW131979   3.849   1.371   7.630 -0.5763 -0.2278  1.4788
 6781SOL    HW231980   3.868   1.230   7.574  0.8007  1.4058 -1.3240
 6782SOL     OW31981   2.146   1.130   4.202 -0.1468  0.5672 -0.0941
 6782SOL    HW131982   2.113   1.048   4.167  0.5865  0.7642 -1.2677
 6782SOL    HW231983   2.133   1.115   4.296  0.4377  0.0500 -0.0991
 6783SOL     OW31984   0.974   3.793   6.962 -0.1967  0.7907 -0.2887
 6783SOL    HW131985   1.040   3.769   6.897 -1.8832  1.0603 -2.1017
 6783SOL    HW231986   0.971   3.724   7.029 -1.9278 -1.3139 -2.5464
 6784SOL     OW31987   3.789   2.132   0.416 -0.1749  0.4768  0.1287
 6784SOL    HW131988   3.759   2.063   0.476  0.1793 -1.5328 -1.9927
 6784SOL    HW231989   3.804   2.081   0.336  0.6169  0.6351  0.1687
 6785SOL     OW31990   0.253   2.664   9.139 -0.0486 -0.0237  0.3178
 6785SOL    HW131991   0.211   2.686   9.056  1.4799 -0.3660 -0.5466
 6785SOL    HW231992   0.264   2.751   9.178 -0.2320  0.1730 -0.0609
 6786SOL     OW31993   4.140   4.290   2.545 -0.5140 -0.6315 -0.0008
 6786SOL    HW131994   4.161   4.371   2.499 -3.2386  0.0134 -0.1187
 6786SOL    HW231995   4.219   4.296   2.599  0.8731 -0.9241 -2.0292
 6787SOL     OW31996   1.082   2.630   3.481  0.7677 -0.7197 -0.3101
 6787SOL    HW131997   0.991   2.636   3.452  0.5189 -1.3113  0.3382
 6787SOL    HW231998   1.117   2.548   3.446 -0.7008 -1.0874 -0.9303
 6788SOL     OW31999   1.579   3.593   2.562  0.2898  0.3064  0.5136
 6788SOL    HW132000   1.631   3.606   2.482 -0.9868  0.2915 -0.3094
 6788SOL    HW232001   1.529   3.674   2.567  2.0603  1.5159 -1.3401
 6789SOL     OW32002   0.960   3.270  14.731  0.1194  0.2304 -0.1261
 6789SOL    HW132003   0.915   3.214  14.669  0.6740  1.0903 -1.3168
 6789SOL    HW232004   0.922   3.249  14.816 -1.7081 -0.0215 -1.0213
 6790SOL     OW32005   3.634   2.332   2.621  0.1894  0.1583 -0.3444
 6790SOL    HW132006   3.698   2.391   2.661 -0.6548  0.0009  1.2579
 6790SOL    HW232007   3.690   2.260   2.595 -0.3489 -0.3062 -0.2241
 6791SOL     OW32008   2.353   2.958   4.728  0.3118 -0.2190  0.5065
 6791SOL    HW132009   2.281   2.912   4.685 -0.7613  0.3781  1.6805
 6791SOL    HW232010   2.413   2.955   4.653  1.0886 -1.3596  1.1819
 6792SOL     OW32011   2.107   3.519  15.249  0.4843  0.2740 -0.4422
 6792SOL    HW132012   2.034   3.482  15.297  2.1555  0.0486  1.9404
 6792SOL    HW232013   2.166   3.523  15.325  2.9262  0.8060 -2.3605
 6793SOL     OW32014   1.129   0.622   0.866 -0.2161 -0.0982 -0.5295
 6793SOL    HW132015   1.215   0.584   0.846 -0.3340 -1.3614  1.3347
 6793SOL    HW232016   1.106   0.585   0.952  0.1870  2.1806  0.5560
 6794SOL     OW32017   1.507   4.395   3.694  0.1425 -0.0102 -0.1292
 6794SOL    HW132018   1.549   4.465   3.643 -1.3093  0.5494 -0.5580
 6794SOL    HW232019   1.586   4.345   3.712 -0.2984 -0.9977 -0.9556
 6795SOL     OW32020   2.756   2.624   0.371  0.0234  0.1518  0.5893
 6795SOL    HW132021   2.834   2.675   0.350 -0.8684  0.5282 -1.7957
 6795SOL    HW232022   2.691   2.668   0.315  1.8406  2.1438  0.0061
 6796SOL     OW32023   1.866   2.462   9.685 -0.0159  0.4434 -0.1363
 6796SOL    HW132024   1.840   2.457   9.777 -1.9680  0.7235 -0.6601
 6796SOL    HW232025   1.813   2.389   9.655  0.9071 -0.8894  1.5054
 6797SOL     OW32026   1.702   1.090   6.936  0.3117  0.3202  0.2914
 6797SOL    HW132027   1.640   1.162   6.949  1.1991  0.7832  1.9624
 6797SOL    HW232028   1.726   1.076   7.027 -1.1596 -0.1529  0.5996
 6798SOL     OW32029   1.462   4.045   5.201  0.5779  0.1554  0.1850
 6798SOL    HW132030   1.480   4.109   5.133  2.7636  1.9410  2.4657
 6798SOL    HW232031   1.483   3.962   5.157  1.4611  0.9572 -0.8935
 6799SOL     OW32032   4.375   4.134  10.920  0.2366  0.3488 -0.1748
 6799SOL    HW132033   4.307   4.079  10.880  0.3472  1.1304 -1.4264
 6799SOL    HW232034   4.329   4.217  10.919 -0.8292 -0.2269  0.5056
 6800SOL     OW32035   2.189   4.426   3.328  0.1802 -0.2869 -0.2024
 6800SOL    HW132036   2.099   4.445   3.354  0.8499 -1.2615  2.8225
 6800SOL    HW232037   2.198   4.333   3.349 -0.3366 -0.1101  0.8141
 6801SOL     OW32038   2.132   4.487   4.120  0.2343  0.3003 -0.3212
 6801SOL    HW132039   2.064   4.482   4.188 -0.0726 -1.7544 -0.7942
 6801SOL    HW232040   2.185   4.412   4.146  0.6738  0.6030 -0.3410
 6802SOL     OW32041   0.889   0.376   9.183 -0.1154  0.1868  0.2889
 6802SOL    HW132042   0.819   0.380   9.118  0.6907  1.1978 -0.5130
 6802SOL    HW232043   0.948   0.446   9.153  2.3390 -0.5234  3.4004
 6803SOL     OW32044   1.953   1.487   7.454 -0.5650  0.4869  0.1849
 6803SOL    HW132045   2.035   1.537   7.452  0.0866 -0.4818  1.8874
 6803SOL    HW232046   1.929   1.493   7.547  0.8423 -0.7608  0.6310
 6804SOL     OW32047   1.027   0.697   5.423 -0.3939 -0.4502  0.2398
 6804SOL    HW132048   0.984   0.630   5.372  0.9380 -1.5105  0.5003
 6804SOL    HW232049   0.953   0.750   5.451 -0.0975 -1.1354  2.3299
 6805SOL     OW32050   1.518   0.997   8.740  0.0421 -0.0866 -0.3819
 6805SOL    HW132051   1.448   0.933   8.754  0.4831 -0.8795 -1.8548
 6805SOL    HW232052   1.527   1.009   8.646  2.6923 -0.6898 -0.2158
 6806SOL     OW32053   0.967   2.391   4.430 -0.1471  0.2871 -0.2162
 6806SOL    HW132054   1.059   2.414   4.417 -0.7121  0.8365 -3.2585
 6806SOL    HW232055   0.928   2.460   4.376 -0.5207 -1.9240 -2.7657
 6807SOL     OW32056   3.114   3.817  17.553  0.0748  0.1286  0.1669
 6807SOL    HW132057   3.069   3.762  17.489 -2.5686  2.5837 -0.0917
 6807SOL    HW232058   3.179   3.755  17.586  0.5520  1.2290  1.3046
 6808SOL     OW32059   1.901   4.129   8.415 -0.2342 -0.1233  0.4209
 6808SOL    HW132060   1.815   4.111   8.375  0.0206  1.0157 -0.6323
 6808SOL    HW232061   1.883   4.213   8.456 -2.1527 -0.5253  0.4094
 6809SOL     OW32062   3.844   2.341   5.000  0.1703  0.1954  0.1759
 6809SOL    HW132063   3.896   2.277   4.953  1.7920  0.5086  1.5459
 6809SOL    HW232064   3.853   2.417   4.942  2.4258 -1.1976 -1.2911
 6810SOL     OW32065   2.950   0.605   5.587  0.1362 -0.0605 -0.5581
 6810SOL    HW132066   3.029   0.565   5.552  0.3108 -1.3896  1.3573
 6810SOL    HW232067   2.878   0.548   5.558  0.4165 -0.9456  0.4648
 6811SOL     OW32068   4.142   4.665  10.390  0.4240 -0.1232  0.0404
 6811SOL    HW132069   4.157   4.705  10.304 -0.8651  0.6542  0.1692
 6811SOL    HW232070   4.107   4.577  10.379  0.1108  0.1376 -1.0637
 6812SOL     OW32071   3.357   1.285   8.599  0.0619 -0.1189 -0.4594
 6812SOL    HW132072   3.262   1.275   8.589 -0.3846  1.4621  2.3370
 6812SOL    HW232073   3.357   1.290   8.694  1.1220  0.0339 -0.4687
 6813SOL     OW32074   2.921   3.447  17.707 -0.2279 -0.2992 -0.0906
 6813SOL    HW132075   2.887   3.534  17.687  0.6617  0.3206  1.0730
 6813SOL    HW232076   2.972   3.467   0.039  1.3242  1.6348 -1.5994
 6814SOL     OW32077   0.539   3.756  16.459 -0.1980 -0.5880 -0.2217
 6814SOL    HW132078   0.626   3.793  16.468 -0.4450 -0.3774  1.2489
 6814SOL    HW232079   0.552   3.664  16.437 -1.5470 -0.9097  0.2991
 6815SOL     OW32080   1.925   2.424   7.749 -0.1412  0.2490  0.1534
 6815SOL    HW132081   1.993   2.454   7.809 -0.2475 -1.9386  1.3543
 6815SOL    HW232082   1.933   2.329   7.757  1.2361  0.5360  2.1019
 6816SOL     OW32083   2.656   2.830   6.052  0.1977 -0.3689  0.0368
 6816SOL    HW132084   2.659   2.816   5.957  1.9706 -0.1227  0.0668
 6816SOL    HW232085   2.622   2.919   6.046 -2.1489 -1.2928 -0.6477
 6817SOL     OW32086   0.328   1.751   6.942 -0.0678 -0.3422  0.6527
 6817SOL    HW132087   0.370   1.665   6.933 -1.0378 -0.4647 -2.8090
 6817SOL    HW232088   0.234   1.732   6.936 -0.9493  4.1036  0.2675
 6818SOL     OW32089   1.652   0.743  10.908  0.1069  0.0341 -0.3075
 6818SOL    HW132090   1.575   0.745  10.851  0.4312 -1.5952 -0.7820
 6818SOL    HW232091   1.722   0.756  10.844 -0.2527  1.5314 -0.4021
 6819SOL     OW32092   0.696   4.095   3.098 -0.0377  0.1924  0.5692
 6819SOL    HW132093   0.769   4.157   3.102  0.4243 -0.4979  3.1895
 6819SOL    HW232094   0.651   4.105   3.182  1.3841  0.8280  1.2526
 6820SOL     OW32095   2.355   2.532   2.713 -0.1477 -0.4915 -0.4696
 6820SOL    HW132096   2.303   2.561   2.638  1.1250  0.4559 -0.9861
 6820SOL    HW232097   2.445   2.520   2.683 -0.6021 -0.1640 -1.9526
 6821SOL     OW32098   1.036   2.719   4.098 -0.3737  0.8206 -0.1203
 6821SOL    HW132099   1.012   2.807   4.126 -1.2911  0.0806  1.4146
 6821SOL    HW232100   1.131   2.725   4.109 -0.4688 -3.1036  2.6809
 6822SOL     OW32101   3.722   2.176   0.787 -0.0363 -0.3931  0.4211
 6822SOL    HW132102   3.716   2.265   0.821  1.6066  0.1648 -0.7647
 6822SOL    HW232103   3.755   2.125   0.861  1.1767 -0.3037 -0.0630
 6823SOL     OW32104   0.661   0.638  11.726 -0.2365 -0.0884  0.8066
 6823SOL    HW132105   0.736   0.692  11.749  0.2281  0.6466 -2.5058
 6823SOL    HW232106   0.705   0.556  11.750  1.4842 -0.0265 -2.1343
 6824SOL     OW32107   1.515   0.587   5.634  0.2137  0.6736  0.1906
 6824SOL    HW132108   1.434   0.587   5.582  1.2160  0.0242 -1.3642
 6824SOL    HW232109   1.533   0.681   5.638 -1.4395  0.9660  1.1967
 6825SOL     OW32110   0.459   1.098  15.464  0.4340  0.0403  0.1977
 6825SOL    HW132111   0.506   1.031  15.513  1.5414  0.5421 -0.1567
 6825SOL    HW232112   0.365   1.085  15.477  0.9315 -2.4947  1.1641
 6826SOL     OW32113   4.603   0.777  10.809 -0.1435  0.5075 -0.0099
 6826SOL    HW132114   4.690   0.809  10.835  0.1633  0.3849 -0.9075
 6826SOL    HW232115   4.622   0.712  10.741  1.1889 -0.5675  1.3898
 6827SOL     OW32116   3.016   4.456   2.721  0.0671  0.3329 -0.5538
 6827SOL    HW132117   2.940   4.481   2.775 -0.1811  1.1368 -1.2818
 6827SOL    HW232118   3.033   4.539   2.677  1.8190  0.1042 -0.3044
 6828SOL     OW32119   2.327   0.173  11.381 -0.2180  0.2158  0.2331
 6828SOL    HW132120   2.250   0.214  11.340 -1.4469 -1.5202  0.7875
 6828SOL    HW232121   2.383   0.166  11.304  1.8167 -0.7373  1.7838
 6829SOL     OW32122   4.585   1.132   6.015  0.4647 -0.1286  0.2892
 6829SOL    HW132123   4.597   1.187   6.092  0.1115 -0.6558  0.7196
 6829SOL    HW232124   4.594   1.045   6.054  1.1906 -0.3256 -0.3157
 6830SOL     OW32125   4.578   3.246   9.282  0.1967  0.3509 -0.4024
 6830SOL    HW132126   4.515   3.183   9.318 -0.1246  1.2163  0.5481
 6830SOL    HW232127   4.657   3.229   9.334 -1.1131  0.0313  1.4629
 6831SOL     OW32128   0.822   1.681   3.098 -0.6256 -0.3072  0.1649
 6831SOL    HW132129   0.852   1.761   3.054  2.5769 -2.9811 -2.4905
 6831SOL    HW232130   0.840   1.627   3.022 -0.0849 -0.2058  0.2137
 6832SOL     OW32131   3.974   2.720   8.087  0.2365  0.3640  0.3266
 6832SOL    HW132132   3.884   2.735   8.058  0.7287  0.2788 -1.2632
 6832SOL    HW232133   3.987   2.800   8.139 -1.6131  0.4722  0.6076
 6833SOL     OW32134   4.643   2.569   9.029  0.5569  0.2309 -0.5324
 6833SOL    HW132135   4.558   2.583   9.072  1.4133 -1.6934  1.8426
 6833SOL    HW232136   4.645   2.473   9.027  1.8944  0.2346  0.6214
 6834SOL     OW32137   1.197   3.154  14.171  0.3725  0.4066  0.5798
 6834SOL    HW132138   1.186   3.076  14.226  0.3337  0.6753  0.9477
 6834SOL    HW232139   1.291   3.170  14.170  0.4831 -0.2760 -1.3943
 6835SOL     OW32140   3.573   3.692   7.651  0.4563  0.7033 -0.1804
 6835SOL    HW132141   3.649   3.732   7.692  0.5539 -0.5020  0.8014
 6835SOL    HW232142   3.610   3.623   7.596  0.8985  0.2832  0.6612
 6836SOL     OW32143   3.224   3.517   7.392  0.4848  0.0608  0.1852
 6836SOL    HW132144   3.317   3.506   7.368  0.4960 -0.8687  0.6436
 6836SOL    HW232145   3.208   3.600   7.349 -2.4676 -0.7395 -0.2391
 6837SOL     OW32146   0.465   2.405  17.579  0.2781  0.0975  0.1858
 6837SOL    HW132147   0.512   2.419  17.496 -1.6944 -3.7170 -1.5686
 6837SOL    HW232148   0.419   2.489  17.582  1.3937  0.7622 -1.2747
 6838SOL     OW32149   4.639   3.442   3.952 -0.5924 -0.0064  0.5394
 6838SOL    HW132150   4.654   3.377   4.020 -1.8433 -0.9355 -0.0775
 6838SOL    HW232151   4.562   3.479   3.996 -1.5559  0.1865 -1.3302
 6839SOL     OW32152   1.180   0.338   6.983 -0.4607  0.1690 -0.4815
 6839SOL    HW132153   1.251   0.401   6.988  0.4877 -1.0938  1.9181
 6839SOL    HW232154   1.153   0.336   6.891  2.0411  1.4735 -1.2435
 6840SOL     OW32155   0.558   0.559   6.224  0.1586  0.1693 -0.6299
 6840SOL    HW132156   0.597   0.589   6.141  2.1438 -0.3648  0.1308
 6840SOL    HW232157   0.513   0.478   6.199  1.0197 -0.0032 -1.6165
 6841SOL     OW32158   2.619   1.098   4.136 -0.4159  0.2061  0.5061
 6841SOL    HW132159   2.584   1.025   4.186  1.1708 -1.3163 -0.6093
 6841SOL    HW232160   2.611   1.167   4.202  0.7385  0.6426  0.2021
 6842SOL     OW32161   0.798   2.276  17.096  0.3756 -0.5832  0.9189
 6842SOL    HW132162   0.736   2.204  17.097  0.4592 -0.6513  1.1318
 6842SOL    HW232163   0.745   2.329  17.036  0.1798 -0.0304  1.5869
 6843SOL     OW32164   3.032   0.197   3.441 -0.7299 -0.6793  0.0138
 6843SOL    HW132165   3.004   0.106   3.437 -0.0933 -0.7533 -2.3569
 6843SOL    HW232166   2.966   0.242   3.494  0.1431 -1.7293  1.9836
 6844SOL     OW32167   0.413   2.183   1.169 -0.3586 -0.1549 -0.6958
 6844SOL    HW132168   0.485   2.236   1.202 -0.5028 -0.5968  0.3295
 6844SOL    HW232169   0.456   2.120   1.111  0.2957 -2.0764  1.8704
 6845SOL     OW32170   4.296   0.500   3.262  0.0411  0.2731 -0.7961
 6845SOL    HW132171   4.332   0.497   3.351  0.8811  0.2118 -1.1448
 6845SOL    HW232172   4.205   0.522   3.284  0.2148 -0.1456  0.3447
 6846SOL     OW32173   4.696   2.997   9.455 -0.3642 -0.5777 -0.2685
 6846SOL    HW132174   4.715   3.090   9.471  0.8867 -0.6700 -1.2254
 6846SOL    HW232175   4.644   2.977   9.532 -0.5699 -0.0308 -0.2646
 6847SOL     OW32176   4.184   1.835  17.422  0.4126  0.2934 -0.2146
 6847SOL    HW132177   4.101   1.832  17.470  0.6608 -2.9260  0.0038
 6847SOL    HW232178   4.222   1.748  17.413  1.8930  0.6422  2.6938
 6848SOL     OW32179   2.829   0.274   1.316 -0.0783 -0.1259 -0.0270
 6848SOL    HW132180   2.777   0.200   1.283  0.6803 -0.7355  0.1447
 6848SOL    HW232181   2.753   0.319   1.353  0.7986  2.1362 -1.0010
 6849SOL     OW32182   3.899   2.420   6.704  0.0091 -0.1027 -0.2069
 6849SOL    HW132183   3.939   2.357   6.644  0.8323  1.2770 -1.0993
 6849SOL    HW232184   3.940   2.394   6.787  0.5672 -0.4420 -0.5905
 6850SOL     OW32185   0.708   3.166   5.982 -0.2481 -0.0668 -0.2088
 6850SOL    HW132186   0.760   3.124   6.050  1.4251  1.0414 -0.8072
 6850SOL    HW232187   0.783   3.215   5.948  0.2491 -0.3596  0.4688
 6851SOL     OW32188   2.312   1.347   4.979  0.2677 -0.0972 -0.2571
 6851SOL    HW132189   2.254   1.302   5.040  1.2235 -1.0346 -0.0306
 6851SOL    HW232190   2.274   1.435   4.971  0.6919 -0.2133 -3.6478
 6852SOL     OW32191   2.136   1.822  10.150  0.2315 -0.8579  0.0379
 6852SOL    HW132192   2.059   1.834  10.095 -1.3016  0.4300  2.4438
 6852SOL    HW232193   2.086   1.811  10.231  0.6525  3.4080  0.8561
 6853SOL     OW32194   3.368   4.319  16.846  0.0215 -0.2169 -0.0099
 6853SOL    HW132195   3.309   4.250  16.875 -0.1287  0.0548  0.3173
 6853SOL    HW232196   3.448   4.288  16.888  0.0351  0.3445  0.3745
 6854SOL     OW32197   1.755   0.955   4.018 -0.2484 -1.0086 -0.1350
 6854SOL    HW132198   1.777   0.884   3.958 -1.5903  1.7000 -3.7900
 6854SOL    HW232199   1.733   1.027   3.959  1.7285  0.9606  1.5106
 6855SOL     OW32200   3.442   3.388   5.457 -0.6287  0.0298 -0.1482
 6855SOL    HW132201   3.510   3.362   5.519  0.8911  0.4343 -1.6384
 6855SOL    HW232202   3.362   3.358   5.500 -0.5195  1.7119  1.2680
 6856SOL     OW32203   4.398   1.915   8.327  0.1807 -0.4179  0.4546
 6856SOL    HW132204   4.464   1.917   8.257  0.8157  1.4249  1.1195
 6856SOL    HW232205   4.381   2.009   8.333 -0.4197 -0.5064  0.1902
 6857SOL     OW32206   0.560   0.618  12.069 -0.1113 -0.1821  0.1646
 6857SOL    HW132207   0.569   0.712  12.087  0.6297 -0.6437  2.0862
 6857SOL    HW232208   0.603   0.619  11.983  1.9620  1.5203  1.2265
 6858SOL     OW32209   3.393   1.808  16.152  0.5739  0.0524 -0.3161
 6858SOL    HW132210   3.326   1.869  16.121  0.4310  0.3997  0.6942
 6858SOL    HW232211   3.387   1.747  16.079 -2.2453 -0.3580  0.2689
 6859SOL     OW32212   2.225   2.098   6.775 -1.4125  0.5475 -0.1549
 6859SOL    HW132213   2.136   2.106   6.810 -0.6878 -0.0225  1.7901
 6859SOL    HW232214   2.237   2.003   6.784  2.1166  1.2438  2.2302
 6860SOL     OW32215   2.364   1.876   3.474  0.2546  0.5499  0.2442
 6860SOL    HW132216   2.378   1.971   3.468  0.2291  0.6098  1.0836
 6860SOL    HW232217   2.454   1.843   3.466  0.4361  0.8571  1.0485
 6861SOL     OW32218   0.588   0.079   4.833  0.3084 -0.0106 -0.0854
 6861SOL    HW132219   0.590   0.103   4.926 -0.0771  1.3622 -0.4445
 6861SOL    HW232220   0.667   0.025   4.827 -1.5922 -2.9493  1.2019
 6862SOL     OW32221   1.542   4.687  15.451  0.3477  0.4008  0.3028
 6862SOL    HW132222   1.635   4.675  15.469 -0.0030  0.3429  2.0046
 6862SOL    HW232223   1.541   0.041  15.421 -0.8730  0.1109 -0.5525
 6863SOL     OW32224   2.336   0.098  12.778 -0.5948  0.6145 -0.1027
 6863SOL    HW132225   2.311   0.181  12.739 -1.6671 -0.6582 -2.1612
 6863SOL    HW232226   2.304   0.109  12.867 -2.1631  0.3983 -0.6510
 6864SOL     OW32227   1.808   3.528  15.272 -0.4405 -0.0052 -0.1144
 6864SOL    HW132228   1.775   3.562  15.189 -0.5270  0.5640  0.1523
 6864SOL    HW232229   1.791   3.601  15.331  2.7703  0.7137 -0.0634
 6865SOL     OW32230   3.092   1.766   2.094  0.3358  0.0398  0.3314
 6865SOL    HW132231   3.053   1.830   2.154 -0.5053  2.4189 -2.7598
 6865SOL    HW232232   3.100   1.812   2.011  0.3555  0.1602  0.3990
 6866SOL     OW32233   3.216   1.790   8.221  0.0084  0.1665 -0.1696
 6866SOL    HW132234   3.181   1.846   8.151 -0.6960 -1.0709 -0.8136
 6866SOL    HW232235   3.225   1.855   8.290  2.5901 -0.4054  0.0382
 6867SOL     OW32236   3.872   4.145   2.843 -0.0405 -0.2448  0.2090
 6867SOL    HW132237   3.849   4.181   2.929 -1.6838 -0.9025  0.0511
 6867SOL    HW232238   3.924   4.070   2.874 -0.0719  0.0131  0.8906
 6868SOL     OW32239   4.394   3.718   4.333  0.0251 -0.0505  0.2661
 6868SOL    HW132240   4.464   3.662   4.300 -0.7240 -0.4521 -0.6424
 6868SOL    HW232241   4.383   3.688   4.423 -4.1078 -1.0021 -0.5447
 6869SOL     OW32242   1.854   0.999   2.373  0.4774  0.1368  0.3981
 6869SOL    HW132243   1.858   1.072   2.312 -0.0661 -0.7388 -0.6924
 6869SOL    HW232244   1.916   0.945   2.324  0.7695 -1.5672  2.6258
 6870SOL     OW32245   3.297   0.914   0.435  0.0532  0.4657 -0.0227
 6870SOL    HW132246   3.289   0.895   0.529 -1.1814 -0.4760 -0.3202
 6870SOL    HW232247   3.348   0.995   0.442  2.2646 -0.7883 -1.9105
 6871SOL     OW32248   4.036   1.808   3.402 -0.1738  0.1159 -0.2601
 6871SOL    HW132249   4.090   1.873   3.446 -0.8915  0.1619  0.5418
 6871SOL    HW232250   3.953   1.825   3.447  0.2470 -0.0940  0.5897
 6872SOL     OW32251   3.166   4.094  11.869  0.1450  0.0470  0.4139
 6872SOL    HW132252   3.188   4.004  11.847 -0.5545 -0.6951  2.7808
 6872SOL    HW232253   3.097   4.109  11.803 -0.3988 -3.1378  0.2655
 6873SOL     OW32254   3.525   3.509   7.244 -0.1020  0.6206 -0.4489
 6873SOL    HW132255   3.548   3.601   7.257 -0.7345  0.7073  0.0351
 6873SOL    HW232256   3.589   3.479   7.179 -0.9854 -0.8414 -0.6461
 6874SOL     OW32257   1.468   2.230   9.463  0.0137  0.4713 -0.8519
 6874SOL    HW132258   1.419   2.149   9.472 -0.0015  0.4035 -1.5381
 6874SOL    HW232259   1.437   2.261   9.378 -2.5240  1.5462  0.4835
 6875SOL     OW32260   0.866   2.433   4.688  0.3524 -0.3036  0.4306
 6875SOL    HW132261   0.891   2.346   4.659  1.0029  0.5073 -1.4575
 6875SOL    HW232262   0.890   2.483   4.610  2.6255 -1.3647  0.4506
 6876SOL     OW32263   3.195   3.380   9.109  0.2202  0.0065  0.4904
 6876SOL    HW132264   3.193   3.457   9.166  1.1579 -0.4842  1.1945
 6876SOL    HW232265   3.152   3.318   9.167 -0.7580  0.3247  0.1033
 6877SOL     OW32266   3.093   4.514   0.684  0.2492  0.0889  0.1102
 6877SOL    HW132267   3.064   4.574   0.753  0.5103 -0.2087  0.4800
 6877SOL    HW232268   3.013   4.521   0.631 -0.3730  2.1042  1.3170
 6878SOL     OW32269   1.981   1.860  11.955  0.7727  0.1017  0.2534
 6878SOL    HW132270   1.899   1.909  11.945  1.1807  0.6775 -0.2933
 6878SOL    HW232271   1.961   1.822  12.040  0.8143  2.7422  1.4333
 6879SOL     OW32272   1.552   0.569   8.104 -0.3807  0.4691  0.1814
 6879SOL    HW132273   1.546   0.539   8.195  0.8459  1.3186  0.5371
 6879SOL    HW232274   1.497   0.646   8.121  0.5960  1.0511  0.7094
 6880SOL     OW32275   2.690   3.186   2.355  0.2128  0.5962  0.2585
 6880SOL    HW132276   2.768   3.215   2.403 -0.2112  2.4745 -0.1918
 6880SOL    HW232277   2.697   3.097   2.390 -0.9249  1.1426  1.8642
 6881SOL     OW32278   3.803   2.444   1.578  0.1142  0.0606 -0.2619
 6881SOL    HW132279   3.822   2.466   1.670 -0.4252 -0.4427 -0.0295
 6881SOL    HW232280   3.718   2.401   1.587 -1.0766  2.2837 -0.8092
 6882SOL     OW32281   4.128   3.038   1.749  0.7326  0.2044 -0.2121
 6882SOL    HW132282   4.100   3.017   1.838  1.3093 -0.6110 -0.2261
 6882SOL    HW232283   4.178   3.119   1.763 -0.0825  0.5354  0.8027
 6883SOL     OW32284   3.199   0.396   2.267  0.0703 -0.1676  0.2070
 6883SOL    HW132285   3.192   0.300   2.261  0.9278 -0.2257  0.1895
 6883SOL    HW232286   3.168   0.422   2.179 -0.6752  1.0163  0.8162
 6884SOL     OW32287   1.882   2.578   9.186 -0.5793 -0.0431  0.7744
 6884SOL    HW132288   1.901   2.651   9.245 -0.9489  0.4096  0.3221
 6884SOL    HW232289   1.908   2.608   9.099 -1.6907 -0.1064  0.4233
 6885SOL     OW32290   2.949   1.238   5.105  1.0879 -0.5228  0.6656
 6885SOL    HW132291   2.981   1.156   5.068 -2.2128 -0.8116 -1.5186
 6885SOL    HW232292   3.026   1.295   5.101  1.2175 -0.7601 -0.2795
 6886SOL     OW32293   0.553   2.416   4.056 -0.0784  0.2699  0.0363
 6886SOL    HW132294   0.608   2.422   3.978 -1.1605  2.4988 -0.5823
 6886SOL    HW232295   0.583   2.333   4.092 -1.5961  0.0650  0.8151
 6887SOL     OW32296   0.576   2.540   1.948  0.0386  0.1150 -0.6810
 6887SOL    HW132297   0.630   2.582   2.015 -1.0510 -0.2698  0.4274
 6887SOL    HW232298   0.525   2.608   1.904 -1.5637 -0.5616  0.1455
 6888SOL     OW32299   3.255   3.257   7.587 -0.5410  0.0284 -0.4045
 6888SOL    HW132300   3.332   3.311   7.571  0.1587 -1.1091 -0.8918
 6888SOL    HW232301   3.215   3.249   7.500  1.6819 -3.0863 -1.1429
 6889SOL     OW32302   3.644   1.962   6.912 -0.5320  0.2784  0.0628
 6889SOL    HW132303   3.577   1.956   6.843  0.6945 -2.4093 -0.8814
 6889SOL    HW232304   3.642   1.876   6.953  0.1131  1.6273  2.8728
 6890SOL     OW32305   1.069   3.459   5.683 -0.0095  0.3221  0.0107
 6890SOL    HW132306   0.974   3.463   5.691 -0.2878 -0.5360 -2.6913
 6890SOL    HW232307   1.091   3.550   5.700  1.2317 -0.1300  0.8310
 6891SOL     OW32308   3.823   0.012  12.189  0.4267 -0.0258  0.8259
 6891SOL    HW132309   3.918   0.004  12.192  0.6075  1.0101 -1.4265
 6891SOL    HW232310   3.829   0.089  12.132 -1.3293  0.8595  1.8252
 6892SOL     OW32311   3.696   0.460  12.044  0.2675  0.2112  0.0170
 6892SOL    HW132312   3.773   0.405  12.056 -0.9037 -2.2473 -3.7266
 6892SOL    HW232313   3.650   0.456  12.128 -0.5919 -1.3332 -0.5278
 6893SOL     OW32314   2.114   4.498   6.554  0.3572 -0.3935  0.1747
 6893SOL    HW132315   2.062   4.545   6.488  1.7390  0.1226 -0.5418
 6893SOL    HW232316   2.133   4.573   6.611  0.2522 -1.3409  1.4421
 6894SOL     OW32317   4.274   2.635   8.224  0.4667 -0.1075  0.9873
 6894SOL    HW132318   4.245   2.545   8.235  2.9714 -1.1234 -0.8242
 6894SOL    HW232319   4.197   2.686   8.250  0.1854 -1.5338  2.9063
 6895SOL     OW32320   1.832   3.830   6.584 -0.2006 -0.1112  0.4604
 6895SOL    HW132321   1.776   3.781   6.522  0.3362 -0.9962  0.6761
 6895SOL    HW232322   1.851   3.907   6.531  2.3980 -0.7998  0.3840
 6896SOL     OW32323   2.418   1.998   5.662 -0.5811  0.0536  0.2553
 6896SOL    HW132324   2.367   1.999   5.743 -1.9918 -1.5110 -0.6252
 6896SOL    HW232325   2.466   1.916   5.665  1.8193  1.4574  0.9601
 6897SOL     OW32326   2.644   3.146   7.619  0.7161  0.6821  0.1314
 6897SOL    HW132327   2.624   3.188   7.703 -1.0130 -1.2230  0.6768
 6897SOL    HW232328   2.622   3.204   7.547 -0.8298 -1.2576 -0.9735
 6898SOL     OW32329   2.644   2.927   7.855 -0.1758  0.3207  0.5640
 6898SOL    HW132330   2.552   2.954   7.853 -0.7007 -1.4379  0.3223
 6898SOL    HW232331   2.690   2.987   7.796  1.9320  0.2649  2.1536
 6899SOL     OW32332   1.671   3.983   3.674 -0.0416 -0.0766 -0.3277
 6899SOL    HW132333   1.759   3.989   3.636  0.0906  1.2227  0.1770
 6899SOL    HW232334   1.626   3.950   3.596 -0.5820  1.9057 -0.8687
 6900SOL     OW32335   0.629   2.874   7.118 -0.0210  0.3436 -0.1970
 6900SOL    HW132336   0.586   2.795   7.150 -1.4706  1.8038  1.4477
 6900SOL    HW232337   0.631   2.934   7.192  0.4853 -0.4749  0.4570
 6901SOL     OW32338   4.464   2.943   2.918 -0.1713  0.6431  0.8584
 6901SOL    HW132339   4.502   2.888   2.986  0.8910 -0.0612 -0.3146
 6901SOL    HW232340   4.484   3.031   2.950 -0.4978  1.1653 -0.3327
 6902SOL     OW32341   0.480   4.521  17.431  0.4769 -0.2819 -0.0774
 6902SOL    HW132342   0.519   4.449  17.381  1.6201  0.5394 -0.3595
 6902SOL    HW232343   0.482   4.593  17.368 -1.8315  1.2665  1.5989
 6903SOL     OW32344   3.642   0.843   3.132 -0.2528 -0.0051 -0.2755
 6903SOL    HW132345   3.567   0.788   3.157  0.7948 -0.9459  0.7829
 6903SOL    HW232346   3.628   0.925   3.179  0.0877 -0.0666 -0.0644
 6904SOL     OW32347   4.455   3.217  11.045  0.4120  0.0801 -0.5293
 6904SOL    HW132348   4.515   3.185  10.977 -1.6068 -2.3098 -1.1660
 6904SOL    HW232349   4.380   3.249  10.994 -1.8895 -2.8909  1.0142
 6905SOL     OW32350   1.704   3.851   9.144  0.0887  0.2980 -0.0037
 6905SOL    HW132351   1.761   3.927   9.155 -0.1973  0.4406  0.5032
 6905SOL    HW232352   1.735   3.827   9.057 -1.2440 -1.0239 -0.1209
 6906SOL     OW32353   4.688   0.020   7.215 -0.3131 -0.7258 -0.1060
 6906SOL    HW132354   4.624   4.687   7.226 -2.6591  1.7551  2.1025
 6906SOL    HW232355   4.647   0.071   7.145 -0.8222 -0.6670  0.2355
 6907SOL     OW32356   2.974   1.740  14.324  0.5681  0.4439  0.1846
 6907SOL    HW132357   2.878   1.735  14.317  0.8333 -1.7937 -1.7192
 6907SOL    HW232358   2.993   1.716  14.415  1.8525 -0.4440 -0.3277
 6908SOL     OW32359   1.234   0.430   1.133 -0.7922  0.0296  0.3055
 6908SOL    HW132360   1.252   0.403   1.042  0.4444  2.8070 -0.2902
 6908SOL    HW232361   1.141   0.449   1.137 -0.6720 -0.0284  3.1719
 6909SOL     OW32362   2.947   1.205   4.777  0.5164  0.3695 -0.6416
 6909SOL    HW132363   2.914   1.265   4.843  0.8384  1.4773 -1.5010
 6909SOL    HW232364   3.021   1.159   4.818 -0.6630 -0.3293  0.7214
 6910SOL     OW32365   2.644   1.754   5.219 -0.0302 -0.4414 -0.4488
 6910SOL    HW132366   2.632   1.660   5.236  0.0146 -0.2827  0.4137
 6910SOL    HW232367   2.663   1.745   5.125 -0.4513 -0.5144 -0.5311
 6911SOL     OW32368   0.092   2.085   1.599 -0.4533  0.8405  0.2794
 6911SOL    HW132369   0.146   2.130   1.534 -3.3996 -0.3953 -3.0820
 6911SOL    HW232370   0.005   2.106   1.563 -0.4745  0.3971  0.0677
 6912SOL     OW32371   3.565   2.126   3.296  0.0861 -0.2857  0.1052
 6912SOL    HW132372   3.476   2.100   3.270  0.2742 -0.4858 -0.3373
 6912SOL    HW232373   3.550   2.122   3.390 -0.8228  0.4808 -0.0121
 6913SOL     OW32374   3.283   0.700   5.822  0.1750  0.4395 -0.1839
 6913SOL    HW132375   3.323   0.653   5.748  2.0653  1.0975  0.4308
 6913SOL    HW232376   3.309   0.641   5.892  0.9572  1.4236  0.3601
 6914SOL     OW32377   1.800   3.144   3.558  0.4031  0.3372  0.1444
 6914SOL    HW132378   1.727   3.086   3.583 -0.9716  1.8497 -0.3736
 6914SOL    HW232379   1.874   3.097   3.596  0.0856  0.5410  1.0140
 6915SOL     OW32380   0.846   1.652  15.118  0.2510  1.4184  0.1726
 6915SOL    HW132381   0.815   1.675  15.030 -0.1319 -0.8539 -0.2859
 6915SOL    HW232382   0.793   1.575  15.139  0.8256  0.9358 -0.1462
 6916SOL     OW32383   1.887   3.702   0.131 -0.1368  0.6033  0.6431
 6916SOL    HW132384   1.964   3.646   0.118 -1.3264 -0.2900 -2.6353
 6916SOL    HW232385   1.817   3.635   0.131 -0.7842  1.2899 -1.5745
 6917SOL     OW32386   3.551   2.667   2.148  1.0613  0.1489 -0.3996
 6917SOL    HW132387   3.638   2.705   2.133  1.3634 -0.5971 -0.5060
 6917SOL    HW232388   3.538   2.731   2.218 -0.8270  0.4842 -1.0600
 6918SOL     OW32389   0.245   3.321   1.644  0.3197 -0.2011  0.1686
 6918SOL    HW132390   0.315   3.288   1.587  0.9231  0.9383  0.2471
 6918SOL    HW232391   0.173   3.334   1.582  1.0121 -1.2804 -0.8608
 6919SOL     OW32392   1.228   2.807  15.747  0.0046 -0.4708  0.2704
 6919SOL    HW132393   1.242   2.893  15.785 -0.7960  0.9499 -2.6484
 6919SOL    HW232394   1.297   2.754  15.786 -1.9443 -3.6596 -0.5001
 6920SOL     OW32395   0.285   3.032  17.326  0.5028  0.1936 -0.0775
 6920SOL    HW132396   0.331   3.116  17.335  0.6506  0.1152 -0.0886
 6920SOL    HW232397   0.307   2.993  17.241 -2.4629  2.9910 -2.1324
 6921SOL     OW32398   4.377   0.456   3.559 -0.0504  0.0552 -0.2487
 6921SOL    HW132399   4.297   0.508   3.565 -0.9921 -1.4900  0.3552
 6921SOL    HW232400   4.336   0.377   3.525  0.8588 -0.0484 -1.1012
 6922SOL     OW32401   2.899   1.976   8.421  0.5075  0.4840 -0.0392
 6922SOL    HW132402   2.874   1.894   8.464  0.1229  2.1321  2.8662
 6922SOL    HW232403   2.907   1.944   8.331 -0.3586  2.9116 -0.9967
 6923SOL     OW32404   3.770   4.116   8.763 -0.4522 -0.2242  0.0234
 6923SOL    HW132405   3.769   4.071   8.847 -2.4824 -0.3667 -0.0719
 6923SOL    HW232406   3.718   4.194   8.784 -1.8663 -0.5694 -2.2542
 6924SOL     OW32407   0.390   2.916   8.891 -0.1388 -0.3456 -0.4773
 6924SOL    HW132408   0.469   2.929   8.944  0.6917 -2.4375 -1.2035
 6924SOL    HW232409   0.324   2.928   8.960 -0.1051 -2.8488 -0.0198
 6925SOL     OW32410   4.113   1.885   8.272 -0.3242  0.6031  0.0359
 6925SOL    HW132411   4.204   1.858   8.285 -0.1686  1.6604  1.1953
 6925SOL    HW232412   4.118   1.936   8.191 -1.0413  0.6958  0.0533
 6926SOL     OW32413   1.706   1.813   3.522 -0.4620 -0.1931 -0.2754
 6926SOL    HW132414   1.645   1.742   3.501 -0.3054 -0.6104  0.6733
 6926SOL    HW232415   1.713   1.859   3.438 -0.2233  0.0691 -0.1131
 6927SOL     OW32416   3.807   4.547  11.305 -0.2630 -0.1748  0.7591
 6927SOL    HW132417   3.717   4.515  11.303  0.4133 -2.1123  0.7484
 6927SOL    HW232418   3.787   4.640  11.313  0.1412 -0.1637  1.7641
 6928SOL     OW32419   4.378   1.257   1.352 -0.0610  0.2954 -0.2862
 6928SOL    HW132420   4.367   1.239   1.446 -0.4603 -0.5323 -0.4863
 6928SOL    HW232421   4.302   1.313   1.336  0.3815  0.8916 -0.2735
 6929SOL     OW32422   1.384   2.037   6.308  0.1571 -0.0021 -0.4714
 6929SOL    HW132423   1.379   2.124   6.347  3.9618  0.8396 -1.8354
 6929SOL    HW232424   1.336   1.977   6.365  0.7586 -0.4262 -0.4024
 6930SOL     OW32425   2.457   0.373   2.560  0.4370  1.0178  0.2675
 6930SOL    HW132426   2.540   0.418   2.545  1.2761  0.6235  3.7140
 6930SOL    HW232427   2.483   0.311   2.628 -0.0889 -0.4348 -0.8482
 6931SOL     OW32428   1.338   3.876   4.104 -0.3468 -0.0241 -0.5328
 6931SOL    HW132429   1.429   3.857   4.080 -0.1025  2.0863 -1.2371
 6931SOL    HW232430   1.315   3.794   4.147  0.4016  0.0076 -0.0771
 6932SOL     OW32431   4.192   1.344   2.300  0.0438 -0.4102 -0.8019
 6932SOL    HW132432   4.284   1.341   2.276 -0.1568  0.7112 -1.6658
 6932SOL    HW232433   4.203   1.332   2.395  0.2051  2.1559 -0.4951
 6933SOL     OW32434   2.571   1.380   8.389 -0.8546  0.4355  0.3812
 6933SOL    HW132435   2.503   1.368   8.323 -0.0225 -0.5091 -0.3008
 6933SOL    HW232436   2.622   1.301   8.372 -0.6523  0.3201  1.5597
 6934SOL     OW32437   3.877   3.181   4.173 -0.3264  0.2953  0.9394
 6934SOL    HW132438   3.790   3.192   4.135  0.9835  0.2886 -2.0592
 6934SOL    HW232439   3.916   3.261   4.140 -1.9327  0.7703  0.2027
 6935SOL     OW32440   0.525   4.122   7.590  0.1391  0.3775  0.0498
 6935SOL    HW132441   0.432   4.146   7.591  0.5148  1.9462 -3.6913
 6935SOL    HW232442   0.550   4.183   7.521  2.4115  0.2754  0.7786
 6936SOL     OW32443   4.171   3.693   6.731  0.2078  0.5156  0.9237
 6936SOL    HW132444   4.212   3.627   6.674 -1.4124 -0.2775  0.6689
 6936SOL    HW232445   4.079   3.683   6.705  0.1807 -2.3133  2.1175
 6937SOL     OW32446   1.646   4.227   0.860 -0.1314  0.2167 -0.0628
 6937SOL    HW132447   1.668   4.151   0.806  0.9035 -0.0283  0.7000
 6937SOL    HW232448   1.694   4.302   0.826 -0.6656  0.5354 -0.1006
 6938SOL     OW32449   4.466   2.620   6.591  0.3867  0.6638  0.5297
 6938SOL    HW132450   4.526   2.600   6.519  1.1493 -0.8029  1.5846
 6938SOL    HW232451   4.430   2.706   6.569  4.8117  2.0556 -1.2112
 6939SOL     OW32452   4.595   1.608   8.231  0.0080 -0.2134  0.5371
 6939SOL    HW132453   4.503   1.634   8.235 -0.0783 -0.2752 -1.2298
 6939SOL    HW232454   4.588   1.519   8.264  1.4107 -0.6263 -0.2650
 6940SOL     OW32455   3.904   1.076   7.480 -0.2064 -0.4877  0.1340
 6940SOL    HW132456   3.921   1.015   7.408  0.0766 -2.1298  1.5975
 6940SOL    HW232457   3.994   1.099   7.504  0.0052  0.9663 -2.0751
 6941SOL     OW32458   3.252   4.027   7.617  0.2241 -0.3850  0.0137
 6941SOL    HW132459   3.221   4.118   7.622 -0.5480 -0.5885 -1.1552
 6941SOL    HW232460   3.206   4.014   7.534  1.3036  1.6990 -0.9150
 6942SOL     OW32461   1.727   3.243  10.024  0.3089 -0.2057  0.5029
 6942SOL    HW132462   1.685   3.269   9.941  0.8128  1.3276  0.7249
 6942SOL    HW232463   1.816   3.251   9.990 -0.1094  2.1924 -0.0830
 6943SOL     OW32464   4.262   2.857   6.079  0.0863  0.0055 -0.0509
 6943SOL    HW132465   4.211   2.814   6.010  1.0305 -0.4866 -0.4483
 6943SOL    HW232466   4.260   2.803   6.159  1.3916 -0.1494 -0.1230
 6944SOL     OW32467   4.660   2.658   8.001 -0.2761 -0.8347 -0.3207
 6944SOL    HW132468   4.712   2.587   7.964 -0.1117 -0.7853 -0.1835
 6944SOL    HW232469   4.723   2.720   8.038  0.3219 -1.0226 -1.0389
 6945SOL     OW32470   3.626   3.727  15.909 -0.5161  1.0316 -0.4991
 6945SOL    HW132471   3.677   3.651  15.880  1.1687  1.0580  2.4180
 6945SOL    HW232472   3.701   3.771  15.951 -1.3654 -0.1984  2.3021
 6946SOL     OW32473   1.294   3.191  12.396 -0.5584 -0.9405 -0.4729
 6946SOL    HW132474   1.206   3.225  12.377 -0.5058 -1.8958 -2.5011
 6946SOL    HW232475   1.282   3.162  12.486 -2.1787  3.5727  0.7770
 6947SOL     OW32476   2.454   2.885   8.440 -0.1584  0.2406 -0.0915
 6947SOL    HW132477   2.405   2.812   8.402 -0.2680  1.0505 -1.4849
 6947SOL    HW232478   2.524   2.906   8.377 -0.3491  3.4444  0.7629
 6948SOL     OW32479   0.850   4.691   7.542  0.3970  0.0789  0.1644
 6948SOL    HW132480   0.775   4.698   7.482 -1.1375  1.9944  2.3490
 6948SOL    HW232481   0.875   0.044   7.558 -0.7066  0.5255 -0.6469
 6949SOL     OW32482   0.191   0.254   3.545  0.2510  0.1338  0.2394
 6949SOL    HW132483   0.278   0.229   3.577 -0.4912 -0.2766  1.9554
 6949SOL    HW232484   0.150   0.172   3.575 -1.9051  0.4805 -1.8569
 6950SOL     OW32485   1.057   0.302   0.306  0.6390 -0.6123 -0.2933
 6950SOL    HW132486   1.027   0.228   0.253 -1.3655 -2.0356  2.8810
 6950SOL    HW232487   1.143   0.277   0.337  0.8022  0.9234  0.5020
 6951SOL     OW32488   0.874   2.603   6.266  0.3014  0.2479  0.3177
 6951SOL    HW132489   0.817   2.618   6.341 -0.6428 -2.0751  0.0733
 6951SOL    HW232490   0.831   2.657   6.200  0.9365 -1.2061 -1.2932
 6952SOL     OW32491   2.962   0.831   4.965  0.0553  0.4469 -0.3209
 6952SOL    HW132492   3.044   0.877   4.945 -0.8560  1.9565 -0.5806
 6952SOL    HW232493   2.898   0.874   4.909 -0.2952  0.9960  0.5157
 6953SOL     OW32494   0.457   4.146   5.102  0.7121 -0.7141  0.4926
 6953SOL    HW132495   0.425   4.081   5.040 -0.0765 -1.2826  1.4907
 6953SOL    HW232496   0.477   4.217   5.041 -1.4701  1.0541  1.8129
 6954SOL     OW32497   2.948   4.523   7.535  0.3507 -0.1986 -0.2368
 6954SOL    HW132498   2.986   4.555   7.617 -0.3332  0.9900 -0.3768
 6954SOL    HW232499   2.867   4.480   7.561  0.7300 -1.2855 -0.8907
 6955SOL     OW32500   2.091   2.374   4.259 -0.2647 -0.2126  0.2416
 6955SOL    HW132501   2.092   2.440   4.328 -0.6520 -0.8312  0.8341
 6955SOL    HW232502   1.997   2.363   4.241 -0.8374  1.1577  2.4343
 6956SOL     OW32503   2.531   3.073  17.599 -0.3141  0.0182  0.3134
 6956SOL    HW132504   2.485   3.116  17.671  1.1721  0.2051  1.1618
 6956SOL    HW232505   2.582   3.149  17.570  0.8245 -0.9595 -0.2377
 6957SOL     OW32506   1.142   3.861   3.100  0.2359  0.3288  0.6284
 6957SOL    HW132507   1.159   3.867   3.006 -0.1084  0.9247  0.6040
 6957SOL    HW232508   1.186   3.939   3.134  1.1494 -0.6538  1.6977
 6958SOL     OW32509   0.947   2.285   8.033  0.2320 -0.8571 -0.4734
 6958SOL    HW132510   0.919   2.276   7.942 -0.1525  2.0130 -0.6325
 6958SOL    HW232511   1.031   2.328   8.017 -0.3755 -0.0653 -1.5467
 6959SOL     OW32512   2.993   4.213  16.993 -0.1785 -0.5155  0.0662
 6959SOL    HW132513   2.902   4.205  16.966  0.6103 -0.1704 -2.7291
 6959SOL    HW232514   2.969   4.220  17.085  1.0007 -0.5348  0.3745
 6960SOL     OW32515   3.224   0.337   8.082  0.8648  0.3917 -0.8938
 6960SOL    HW132516   3.256   0.313   8.169 -0.1183  2.0684 -0.0686
 6960SOL    HW232517   3.207   0.428   8.105 -2.2111 -0.4029 -0.0098
 6961SOL     OW32518   2.277   1.610   0.192 -0.2900  0.6625  0.2457
 6961SOL    HW132519   2.250   1.666   0.265  1.0446  1.3021  0.2494
 6961SOL    HW232520   2.204   1.636   0.135 -0.0856  0.3924 -0.1342
 6962SOL     OW32521   1.357   3.615   0.261  0.1820  0.2328 -0.0778
 6962SOL    HW132522   1.346   3.628   0.167 -1.6070  1.3318  0.2721
 6962SOL    HW232523   1.285   3.664   0.301  1.0618 -0.4672  2.4036
 6963SOL     OW32524   2.123   3.285   7.517 -0.9839 -0.0432 -0.1141
 6963SOL    HW132525   2.105   3.199   7.556  0.1916 -0.4062 -0.3470
 6963SOL    HW232526   2.060   3.346   7.554 -0.4347  1.1717 -1.1969
 6964SOL     OW32527   3.500   4.483   2.054  0.3812  0.1296 -0.1404
 6964SOL    HW132528   3.419   4.445   2.021 -0.0055  2.5533 -2.0193
 6964SOL    HW232529   3.489   4.567   2.009  2.0856  0.5733  0.2630
 6965SOL     OW32530   1.723   1.453   9.036  0.0400  0.3147  0.1054
 6965SOL    HW132531   1.730   1.536   9.083 -0.2814  0.2295  0.3072
 6965SOL    HW232532   1.658   1.427   9.102  1.7457 -0.8352  1.3355
 6966SOL     OW32533   1.792   3.459   4.278  0.2643 -0.1489 -0.5001
 6966SOL    HW132534   1.882   3.491   4.287  0.1276  0.4792 -1.3835
 6966SOL    HW232535   1.753   3.502   4.355 -0.5863 -1.1515 -0.3748
 6967SOL     OW32536   0.406   3.488  12.855  0.1206  0.2047 -0.0020
 6967SOL    HW132537   0.485   3.445  12.889  0.4285 -0.4039 -1.4526
 6967SOL    HW232538   0.416   3.466  12.762 -1.0039 -3.0344  0.6545
 6968SOL     OW32539   2.369   4.463   8.964 -0.0681 -0.0065  0.4497
 6968SOL    HW132540   2.370   4.367   8.962  0.2316 -0.0090  0.9004
 6968SOL    HW232541   2.355   4.474   8.870  2.1306  0.6807  0.2100
 6969SOL     OW32542   0.729   3.824  10.788 -0.0331  0.3550  0.6561
 6969SOL    HW132543   0.634   3.836  10.797 -0.1132 -2.3782  3.6011
 6969SOL    HW232544   0.739   3.869  10.704  0.5292  2.4691  1.8429
 6970SOL     OW32545   0.345   3.276   8.363 -0.5049 -0.1803  0.0588
 6970SOL    HW132546   0.276   3.282   8.296 -0.0710 -0.8076 -0.4491
 6970SOL    HW232547   0.425   3.274   8.311 -0.7866 -1.3023 -0.3395
 6971SOL     OW32548   1.129   0.460  11.864 -0.1236  0.0250  0.3512
 6971SOL    HW132549   1.171   0.375  11.859  1.5960  0.8309  1.0180
 6971SOL    HW232550   1.196   0.514  11.823 -2.5034  1.1294 -2.1007
 6972SOL     OW32551   3.452   3.479   9.081  0.0015  0.3008 -0.0494
 6972SOL    HW132552   3.371   3.430   9.091  0.4933 -0.6690 -0.7598
 6972SOL    HW232553   3.454   3.487   8.985 -0.8590 -1.7283 -0.2247
 6973SOL     OW32554   3.186   4.268  12.119 -0.2503 -0.0773  0.2333
 6973SOL    HW132555   3.221   4.180  12.133  0.2422  0.1728  0.5594
 6973SOL    HW232556   3.111   4.241  12.065  0.5530 -0.9603 -0.4453
 6974SOL     OW32557   1.662   1.062  17.225 -0.0834  0.5793  0.2765
 6974SOL    HW132558   1.717   1.140  17.229 -2.0818  1.9971  0.4166
 6974SOL    HW232559   1.599   1.058  17.297 -0.8948 -1.4468 -0.5346
 6975SOL     OW32560   2.155   1.080   2.273 -0.0994 -0.5780 -0.5026
 6975SOL    HW132561   2.218   1.020   2.233  2.0345  0.8962  0.6010
 6975SOL    HW232562   2.074   1.068   2.225  0.2626  0.1018 -1.2766
 6976SOL     OW32563   4.018   2.988   8.234  0.1037 -0.3634 -0.3605
 6976SOL    HW132564   3.954   3.059   8.233 -1.7804 -2.0480  1.1627
 6976SOL    HW232565   4.086   3.031   8.285 -1.9775  1.1365  1.1179
 6977SOL     OW32566   2.128   0.667   2.093 -0.1685  0.2452 -0.5701
 6977SOL    HW132567   2.210   0.654   2.046  0.3782  2.6059 -0.2480
 6977SOL    HW232568   2.079   0.585   2.090  0.1860  0.0497 -1.0172
 6978SOL     OW32569   3.717   2.447   8.328  0.3709  0.1362 -0.0378
 6978SOL    HW132570   3.628   2.422   8.355  0.3784  1.1613  0.9845
 6978SOL    HW232571   3.736   2.399   8.248 -0.5849  0.9586 -0.7712
 6979SOL     OW32572   0.220   0.387   3.865  0.1439  0.4496 -0.4714
 6979SOL    HW132573   0.184   0.466   3.907 -0.0849  0.0064  0.1652
 6979SOL    HW232574   0.311   0.414   3.848 -0.1048  0.8891 -1.1108
 6980SOL     OW32575   2.022   4.695   8.477  0.2020 -0.3363 -0.0346
 6980SOL    HW132576   2.018   0.032   8.536 -2.2284 -1.8290  1.6322
 6980SOL    HW232577   2.109   4.659   8.496 -0.1172 -1.2937 -0.3675
 6981SOL     OW32578   3.113   3.701   8.940 -0.0364 -0.1581  0.0101
 6981SOL    HW132579   3.142   3.678   8.852  0.1380 -1.2392  0.3515
 6981SOL    HW232580   3.105   3.796   8.928 -2.0578 -0.3117  0.1207
 6982SOL     OW32581   2.355   3.838   6.950 -0.4205 -0.3650  0.0418
 6982SOL    HW132582   2.439   3.865   6.913 -0.6536  0.0977 -0.1445
 6982SOL    HW232583   2.340   3.901   7.021 -1.1103  0.0636 -0.4885
 6983SOL     OW32584   3.251   4.321   5.844  0.7476 -0.3400  0.0294
 6983SOL    HW132585   3.163   4.319   5.883 -0.1557 -2.8385 -2.1456
 6983SOL    HW232586   3.305   4.273   5.906  0.8347 -0.6721 -0.3065
 6984SOL     OW32587   2.325   2.432  16.092 -0.0969  0.4881 -0.0869
 6984SOL    HW132588   2.349   2.339  16.099 -2.5312 -0.1602 -0.3144
 6984SOL    HW232589   2.303   2.461  16.181 -2.1892 -0.5117 -0.2795
 6985SOL     OW32590   4.476   3.264   8.182 -0.2494 -0.4313 -0.2720
 6985SOL    HW132591   4.477   3.349   8.138  1.3243  0.6833  1.9517
 6985SOL    HW232592   4.514   3.283   8.268  0.4693 -0.8357 -0.4998
 6986SOL     OW32593   1.541   1.964   2.127 -0.2276 -0.2655 -0.0607
 6986SOL    HW132594   1.569   2.049   2.160  0.5332 -0.7512  0.5629
 6986SOL    HW232595   1.576   1.959   2.038  0.7693 -0.0749  0.3208
 6987SOL     OW32596   4.332   0.151   5.906 -0.0160  0.5519  0.0808
 6987SOL    HW132597   4.244   0.120   5.884  1.2088 -3.4069  0.6224
 6987SOL    HW232598   4.381   0.151   5.823  1.1649  0.0727  0.7822
 6988SOL     OW32599   1.013   4.418   2.757  0.3224  0.3642 -0.2969
 6988SOL    HW132600   1.088   4.466   2.722  0.8353 -0.4246 -0.2585
 6988SOL    HW232601   0.967   4.487   2.806 -0.4570 -1.5632  1.6863
 6989SOL     OW32602   0.981   2.223   2.255 -0.5146  0.1201  0.5941
 6989SOL    HW132603   1.053   2.164   2.276 -1.0427 -1.0692 -0.8947
 6989SOL    HW232604   0.991   2.302   2.308 -2.3579  0.9405 -0.2653
 6990SOL     OW32605   4.121   1.494  17.383 -0.1985 -0.5105  0.2873
 6990SOL    HW132606   4.103   1.439  17.307 -3.4167 -0.7481  1.2135
 6990SOL    HW232607   4.216   1.501  17.385 -0.2469 -0.3270  1.7253
 6991SOL     OW32608   1.950   1.438   2.087  0.4819  0.2485 -0.3617
 6991SOL    HW132609   1.970   1.476   2.172 -0.7660  1.5280 -0.6462
 6991SOL    HW232610   2.040   1.416   2.061  0.7804  0.6776  0.3216
 6992SOL     OW32611   0.766   2.732   6.062 -0.2823 -0.2433 -0.2287
 6992SOL    HW132612   0.673   2.731   6.083 -0.4330 -1.7431 -1.0020
 6992SOL    HW232613   0.753   2.718   5.968  1.4064  1.8102 -0.7642
 6993SOL     OW32614   1.206   1.409   2.686  0.3303  0.4281  0.4285
 6993SOL    HW132615   1.164   1.492   2.707  0.5053  0.6729 -0.1764
 6993SOL    HW232616   1.285   1.439   2.641 -0.9533  0.1582 -1.9745
 6994SOL     OW32617   0.977   3.066   3.719 -0.1515  0.2459 -0.2021
 6994SOL    HW132618   0.924   3.002   3.767 -0.6440  1.4794  0.8753
 6994SOL    HW232619   1.020   2.997   3.669 -0.7207 -1.5083  1.7155
 6995SOL     OW32620   1.462   4.519   2.254  0.0393 -0.4383 -0.4447
 6995SOL    HW132621   1.440   4.611   2.263  0.0330 -0.5078  0.2277
 6995SOL    HW232622   1.389   4.480   2.302  1.6182 -2.0218  0.6979
 6996SOL     OW32623   0.072   3.840  13.397 -0.0482 -0.0506 -0.4455
 6996SOL    HW132624   0.019   3.920  13.389 -0.4530 -0.0635  1.9397
 6996SOL    HW232625   0.018   3.777  13.348  0.0013 -0.5077  0.0858
 6997SOL     OW32626   1.586   4.593   3.427 -0.5008  0.0802  0.3273
 6997SOL    HW132627   1.671   4.566   3.462 -0.1007  1.4604  0.4142
 6997SOL    HW232628   1.587   4.688   3.437  0.4799  0.0877  0.1551
 6998SOL     OW32629   4.128   2.051   2.412 -0.5322 -0.5769  0.0283
 6998SOL    HW132630   4.086   2.101   2.343 -0.7151 -2.3941 -1.1739
 6998SOL    HW232631   4.116   2.098   2.495 -1.4297 -2.5161  1.0221
 6999SOL     OW32632   3.399   1.222   8.856 -0.1224 -0.1113  0.5953
 6999SOL    HW132633   3.373   1.249   8.944  1.5911  0.9622  0.7699
 6999SOL    HW232634   3.493   1.209   8.870  0.5241  2.8335 -1.1207
 7000SOL     OW32635   3.230   0.920  12.715 -0.0445 -0.8647 -0.6062
 7000SOL    HW132636   3.298   0.866  12.756 -0.3869 -0.6980  0.1830
 7000SOL    HW232637   3.167   0.918  12.787 -0.5625  1.2476 -1.0139
 7001SOL     OW32638   2.800   3.822   4.847 -0.4580 -0.3961 -0.0859
 7001SOL    HW132639   2.852   3.889   4.891  1.3268 -1.6273 -0.3185
 7001SOL    HW232640   2.808   3.749   4.908 -0.3828  0.6402  1.1641
 7002SOL     OW32641   3.596   2.603   6.930 -0.1453  0.0158  0.2708
 7002SOL    HW132642   3.576   2.522   6.977  1.1965 -0.2029  0.4830
 7002SOL    HW232643   3.675   2.639   6.970 -0.5838  0.2442  0.9438
 7003SOL     OW32644   4.057   0.548   2.616 -0.7808  0.0560  0.3224
 7003SOL    HW132645   4.126   0.600   2.658 -0.2174 -1.6271  1.4515
 7003SOL    HW232646   3.990   0.544   2.684  1.0243  0.9567  2.1428
 7004SOL     OW32647   3.130   0.093   4.267 -0.2125 -0.3093  0.4865
 7004SOL    HW132648   3.188   0.037   4.319 -0.7981 -1.2928  0.0955
 7004SOL    HW232649   3.064   0.026   4.249 -0.6599 -0.1704  1.5770
 7005SOL     OW32650   2.656   1.297  11.134  0.3691 -0.0696  0.3084
 7005SOL    HW132651   2.741   1.255  11.145 -0.1280 -1.3738 -0.8604
 7005SOL    HW232652   2.659   1.383  11.177  0.3943  1.2581 -2.3852
 7006SOL     OW32653   4.425   2.704  17.517  0.9132 -0.1752  0.1819
 7006SOL    HW132654   4.457   2.793  17.503  0.3885 -0.1172 -0.6995
 7006SOL    HW232655   4.484   2.646  17.468 -0.4813  1.3437 -3.3208
 7007SOL     OW32656   2.375   2.306   1.052 -0.0699 -0.6589  0.1321
 7007SOL    HW132657   2.385   2.217   1.084 -0.2528 -1.5116 -2.2365
 7007SOL    HW232658   2.441   2.297   0.983  1.0591 -2.1035  1.3917
 7008SOL     OW32659   0.535   1.083   6.408  0.2841 -0.2528 -0.0271
 7008SOL    HW132660   0.630   1.078   6.396  0.2776  1.0068 -0.6491
 7008SOL    HW232661   0.515   0.990   6.410  0.0381 -0.2210 -0.8830
 7009SOL     OW32662   0.461   2.183   3.581  0.6246 -0.0896  0.1273
 7009SOL    HW132663   0.535   2.225   3.538  1.8229 -1.2240  1.0962
 7009SOL    HW232664   0.500   2.100   3.608 -1.5314 -1.7380 -1.7329
 7010SOL     OW32665   0.587   3.023   7.757 -0.3502 -0.0478 -0.0822
 7010SOL    HW132666   0.619   2.974   7.833 -1.1179  0.3700  0.5065
 7010SOL    HW232667   0.513   3.075   7.787 -0.4520 -0.9911  1.3034
 7011SOL     OW32668   0.997   0.570   4.808  0.1237  0.0475  0.1618
 7011SOL    HW132669   0.999   0.511   4.733 -0.0531  2.0328 -1.3944
 7011SOL    HW232670   1.060   0.521   4.861 -0.0611  0.5787  0.8816
 7012SOL     OW32671   1.277   1.473   6.282  0.0018 -0.0592  0.0738
 7012SOL    HW132672   1.189   1.508   6.293 -0.3623 -0.0965 -2.7398
 7012SOL    HW232673   1.313   1.541   6.225 -0.4144 -0.8281 -1.1270
 7013SOL     OW32674   2.637   1.804   9.015 -0.1432 -0.2107  0.3067
 7013SOL    HW132675   2.698   1.825   8.945 -0.1136 -1.9890 -0.2134
 7013SOL    HW232676   2.557   1.827   8.967 -0.7889 -0.7363  1.1321
 7014SOL     OW32677   3.804   1.748   0.460 -0.0778  0.9338  0.8504
 7014SOL    HW132678   3.889   1.724   0.495  0.1219  0.1876 -0.1428
 7014SOL    HW232679   3.793   1.834   0.501 -0.0301  1.2305  0.2337
 7015SOL     OW32680   1.761   2.879   3.921 -0.6725  0.0407  0.2596
 7015SOL    HW132681   1.726   2.881   3.832  0.6388 -1.6375 -0.2932
 7015SOL    HW232682   1.678   2.882   3.970  0.2889  1.6886  1.7955
 7016SOL     OW32683   1.742   3.278   5.268  0.4756 -0.2177 -0.0455
 7016SOL    HW132684   1.717   3.313   5.354  1.5035  0.9081 -0.2052
 7016SOL    HW232685   1.662   3.250   5.223 -0.0233 -0.5884  1.0733
 7017SOL     OW32686   3.796   0.763   8.340 -0.1269  0.3435  0.0363
 7017SOL    HW132687   3.876   0.750   8.289 -0.1849  0.1019  0.0082
 7017SOL    HW232688   3.787   0.858   8.335  0.7212  0.3967 -0.5732
 7018SOL     OW32689   3.796   3.157   9.733 -0.0055  0.5712 -0.2912
 7018SOL    HW132690   3.768   3.247   9.747  0.3504  0.5645  0.4749
 7018SOL    HW232691   3.732   3.104   9.781  1.2222 -2.1111 -1.6221
 7019SOL     OW32692   3.298   1.121   3.007 -0.3407  0.0320  0.1739
 7019SOL    HW132693   3.367   1.104   2.943 -0.8701  0.6687 -0.5512
 7019SOL    HW232694   3.261   1.198   2.964  0.8204  1.1312  1.1384
 7020SOL     OW32695   0.908   1.016   9.137 -0.7044  0.1752  0.6230
 7020SOL    HW132696   0.867   0.931   9.154  0.2439 -0.2730  0.6911
 7020SOL    HW232697   0.850   1.077   9.182 -1.0141  0.8111 -0.6404
 7021SOL     OW32698   4.300   4.511   6.785 -0.5242  0.2731 -0.0131
 7021SOL    HW132699   4.221   4.463   6.758 -1.4684  0.2283  2.8302
 7021SOL    HW232700   4.361   4.442   6.758 -0.1238  0.0070  1.5644
 7022SOL     OW32701   1.622   0.834   4.266  0.0536  0.6360 -0.0777
 7022SOL    HW132702   1.634   0.883   4.185 -0.2333 -3.3767 -2.5438
 7022SOL    HW232703   1.551   0.885   4.304 -1.1871 -2.2086  1.4784
 7023SOL     OW32704   3.588   1.880  13.058  0.1709  0.1172 -0.2249
 7023SOL    HW132705   3.556   1.792  13.038 -0.9391  0.8498 -1.7062
 7023SOL    HW232706   3.511   1.930  13.029 -0.5546 -0.6823  0.3304
 7024SOL     OW32707   3.713   1.877  11.375 -0.0220 -0.4041  0.1948
 7024SOL    HW132708   3.709   1.946  11.441 -0.9118  1.4551 -1.8348
 7024SOL    HW232709   3.754   1.802  11.419  0.1100  0.1260  0.9644
 7025SOL     OW32710   3.424   1.158   0.425  0.1510  0.1611 -0.0483
 7025SOL    HW132711   3.460   1.185   0.509  0.8611  1.7802 -0.8771
 7025SOL    HW232712   3.396   1.242   0.390 -1.7707 -0.9609 -1.2355
 7026SOL     OW32713   2.534   3.845  11.897  0.1103  0.5395 -0.0945
 7026SOL    HW132714   2.526   3.789  11.974 -0.7369  1.2407  0.3226
 7026SOL    HW232715   2.623   3.834  11.864  0.2616  1.3080  0.0575
 7027SOL     OW32716   1.152   2.095   4.386 -0.0768  0.0002 -0.2948
 7027SOL    HW132717   1.142   2.058   4.473 -0.8947 -0.5005 -0.6001
 7027SOL    HW232718   1.180   2.185   4.402  0.2007 -0.4490  1.6888
 7028SOL     OW32719   1.677   4.016  10.347 -0.4967  0.1280  0.6162
 7028SOL    HW132720   1.591   3.978  10.365 -0.3795  1.3097  3.6021
 7028SOL    HW232721   1.715   3.942  10.298  0.4735  0.0309  1.5036
 7029SOL     OW32722   0.407   2.790  17.048  0.3579 -0.5267 -0.3673
 7029SOL    HW132723   0.317   2.820  17.055  0.7435  1.0265 -2.0477
 7029SOL    HW232724   0.455   2.871  17.065  0.7258 -1.3355  2.4784
 7030SOL     OW32725   3.795   4.635  15.103 -0.0242 -0.9176 -0.2427
 7030SOL    HW132726   3.871   4.584  15.129  0.0871  0.3327  1.8632
 7030SOL    HW232727   3.825   4.725  15.088  0.3073 -0.6468  2.0206
 7031SOL     OW32728   3.981   0.473   4.561  0.5320 -0.2831 -0.6329
 7031SOL    HW132729   3.899   0.509   4.596  0.8160  2.0803 -2.3948
 7031SOL    HW232730   4.006   0.438   4.646 -0.0914  1.6210  0.3187
 7032SOL     OW32731   2.327   4.627   3.436  0.0470  0.1213 -0.7577
 7032SOL    HW132732   2.334   4.671   3.352 -1.2809  4.1801  1.2503
 7032SOL    HW232733   2.297   4.541   3.406 -0.2978  0.0274 -0.1500
 7033SOL     OW32734   3.651   2.047   2.806  0.4403  0.1735 -0.0059
 7033SOL    HW132735   3.670   2.108   2.877 -1.1425  2.3916 -1.5150
 7033SOL    HW232736   3.705   2.080   2.735  1.2187  1.0295  0.9820
 7034SOL     OW32737   2.257   0.173   9.453  0.4393  0.6242 -0.0612
 7034SOL    HW132738   2.246   0.088   9.411 -0.6340  1.5309 -1.6149
 7034SOL    HW232739   2.346   0.170   9.487  0.2204  1.5114  0.6090
 7035SOL     OW32740   1.044   3.234   4.375 -0.0607  0.3642 -0.1112
 7035SOL    HW132741   0.964   3.201   4.333 -0.1373  1.8357 -1.1220
 7035SOL    HW232742   1.061   3.181   4.453  0.7718  0.0665 -0.4962
 7036SOL     OW32743   4.025   2.642   1.204  0.4642  0.5277  0.4019
 7036SOL    HW132744   4.007   2.617   1.295  1.0939 -2.7611 -0.3917
 7036SOL    HW232745   4.120   2.651   1.200  0.5854 -0.3542  1.3497
 7037SOL     OW32746   2.304   1.243   3.737  0.3525  0.3653  0.4935
 7037SOL    HW132747   2.299   1.272   3.646  0.2745  1.2515  0.7805
 7037SOL    HW232748   2.213   1.233   3.763  0.6214  0.0601  1.3332
 7038SOL     OW32749   1.207   3.629   6.082  0.4329 -0.3705  0.0170
 7038SOL    HW132750   1.190   3.607   6.174 -1.0104  1.3819  0.1690
 7038SOL    HW232751   1.216   3.724   6.086  0.9497 -0.3694 -1.4185
 7039SOL     OW32752   2.649   2.885   4.945 -0.0706  0.1202  0.0184
 7039SOL    HW132753   2.732   2.857   4.983 -1.0815 -1.1954  1.2715
 7039SOL    HW232754   2.655   2.836   4.863 -1.4271  1.6997 -1.0218
 7040SOL     OW32755   0.301   4.659   4.141 -0.1207  0.2508  0.2331
 7040SOL    HW132756   0.324   4.638   4.232 -0.5432  3.3382  1.0534
 7040SOL    HW232757   0.246   4.737   4.151  0.0054  0.1203  1.9275
 7041SOL     OW32758   0.980   2.876   2.279 -0.1421 -0.0063  0.2012
 7041SOL    HW132759   0.985   2.782   2.265 -1.6432  0.0545 -0.7551
 7041SOL    HW232760   0.909   2.901   2.220  0.9236 -0.1147 -1.1171
 7042SOL     OW32761   4.396   2.979   9.390  0.3777  0.2837 -0.1547
 7042SOL    HW132762   4.426   2.928   9.314  0.2639 -0.3213  0.2103
 7042SOL    HW232763   4.470   2.988   9.449 -2.4334  0.6670  3.2636
 7043SOL     OW32764   3.211   1.001  12.425 -0.0963  0.1868 -0.3996
 7043SOL    HW132765   3.282   0.938  12.409  0.7079  0.8411  0.5398
 7043SOL    HW232766   3.202   0.984  12.519 -0.3475  1.8073 -0.1319
 7044SOL     OW32767   2.196   1.043   4.475 -0.0079 -0.5505 -0.2815
 7044SOL    HW132768   2.273   1.007   4.518  0.7806  3.0903  1.3594
 7044SOL    HW232769   2.137   1.050   4.550 -0.5487  0.9689 -0.8537
 7045SOL     OW32770   4.054   1.553   3.374  1.0956 -0.2363  0.0024
 7045SOL    HW132771   4.034   1.646   3.370 -1.5078 -0.7871  0.2171
 7045SOL    HW232772   4.105   1.526   3.298  0.9667  2.8895 -1.2021
 7046SOL     OW32773   0.725   0.689   4.789 -0.3675  0.1395 -0.4486
 7046SOL    HW132774   0.766   0.766   4.829 -0.4898  0.1265 -0.3006
 7046SOL    HW232775   0.796   0.625   4.800  1.6622  2.3355 -0.7043
 7047SOL     OW32776   3.200   4.258   7.744  0.4369  0.1389  0.1061
 7047SOL    HW132777   3.248   4.222   7.819  0.7563 -3.8434 -2.0142
 7047SOL    HW232778   3.129   4.303   7.790  0.5300  0.7236 -0.3135
 7048SOL     OW32779   1.499   1.266   8.783 -0.1964 -0.9167 -0.0072
 7048SOL    HW132780   1.539   1.179   8.780 -1.6171 -1.6195  1.1549
 7048SOL    HW232781   1.440   1.258   8.858  0.7046 -0.6111  0.7313
 7049SOL     OW32782   2.666   3.214   9.907  0.4350 -0.8656  0.1329
 7049SOL    HW132783   2.759   3.196   9.922  0.7284  1.1101  0.7071
 7049SOL    HW232784   2.663   3.225   9.812 -1.9929 -0.2184  0.2896
 7050SOL     OW32785   2.586   2.804   7.552 -0.0709 -0.1607 -0.3231
 7050SOL    HW132786   2.583   2.832   7.461 -1.3948  1.4477  0.2259
 7050SOL    HW232787   2.495   2.807   7.582  0.5034  0.7792  1.3495
 7051SOL     OW32788   1.445   2.682   5.505 -1.0416  0.6338  0.5559
 7051SOL    HW132789   1.537   2.656   5.494 -0.6888  0.9352  2.7397
 7051SOL    HW232790   1.408   2.628   5.435 -1.2449  0.4433  0.8098
 7052SOL     OW32791   4.613   2.876   0.412  0.0615 -0.0974  0.4218
 7052SOL    HW132792   4.539   2.822   0.440  1.0677 -1.5025  0.3499
 7052SOL    HW232793   4.672   2.801   0.402 -0.6027 -0.4648 -0.6931
 7053SOL     OW32794   2.841   2.737   5.549 -0.4287  0.3601  0.7446
 7053SOL    HW132795   2.869   2.769   5.463  0.4848 -0.2936  0.7980
 7053SOL    HW232796   2.841   2.642   5.534  2.1318  0.2674  1.1828
 7054SOL     OW32797   3.257   1.860  13.427 -0.2025 -0.3325 -0.6716
 7054SOL    HW132798   3.164   1.838  13.413 -0.5031  0.3502  0.2718
 7054SOL    HW232799   3.256   1.946  13.385 -2.5168  0.2124  0.4874
 7055SOL     OW32800   4.012   1.989   1.128  0.2431  0.0450 -0.4431
 7055SOL    HW132801   3.930   2.030   1.099 -0.2638 -1.4281 -1.1145
 7055SOL    HW232802   3.973   1.945   1.204 -3.0407  1.2030 -1.4580
 7056SOL     OW32803   3.361   3.448   8.110 -0.2854  0.1814  0.6126
 7056SOL    HW132804   3.370   3.490   8.196 -1.2578  0.1080  0.7481
 7056SOL    HW232805   3.290   3.501   8.076  2.0191  3.7911  1.4438
 7057SOL     OW32806   2.312   2.518  16.343  0.7932 -0.5135  0.5543
 7057SOL    HW132807   2.362   2.448  16.384 -0.0181 -0.8712  0.9308
 7057SOL    HW232808   2.292   2.563  16.424 -0.3557  0.4506 -0.2663
 7058SOL     OW32809   4.197   1.330  10.139 -0.4244  0.9667 -0.4735
 7058SOL    HW132810   4.103   1.348  10.138 -0.5312  0.4218 -0.2293
 7058SOL    HW232811   4.213   1.389  10.213 -3.5701 -0.8932  1.6999
 7059SOL     OW32812   1.693   2.910   9.442 -0.7594  0.2409 -0.2002
 7059SOL    HW132813   1.780   2.872   9.453 -1.8137 -2.4779 -1.4125
 7059SOL    HW232814   1.713   2.999   9.473  2.4879 -0.5856  0.1555
 7060SOL     OW32815   4.600   2.828   6.301  0.4129 -0.1507  0.3219
 7060SOL    HW132816   4.688   2.862   6.283  0.6860 -1.1463 -0.1998
 7060SOL    HW232817   4.552   2.910   6.291  3.3742  1.3602 -1.5809
 7061SOL     OW32818   2.827   0.987   5.355  0.0732  0.1524  0.0680
 7061SOL    HW132819   2.810   1.007   5.447 -0.3591 -0.6147  0.1494
 7061SOL    HW232820   2.796   1.069   5.316 -0.4320 -1.7189 -3.4488
 7062SOL     OW32821   2.565   3.316   7.388 -0.1590  0.0657 -0.0248
 7062SOL    HW132822   2.558   3.255   7.314 -0.6077  1.4264 -1.1024
 7062SOL    HW232823   2.512   3.382   7.343 -0.5098  0.1178  0.4654
 7063SOL     OW32824   0.352   1.139   5.708  0.6703 -0.0350  0.1614
 7063SOL    HW132825   0.367   1.233   5.709 -0.3473  0.1103  0.8036
 7063SOL    HW232826   0.320   1.120   5.796 -1.5534 -1.1331 -0.8744
 7064SOL     OW32827   0.894   0.657   7.709  0.2581  0.1341 -0.4301
 7064SOL    HW132828   0.839   0.583   7.737 -0.6976 -0.1122 -3.0118
 7064SOL    HW232829   0.889   0.659   7.614  1.4551  1.1849 -0.4725
 7065SOL     OW32830   4.171   4.564  15.944  0.4368 -0.1769 -0.3129
 7065SOL    HW132831   4.214   4.641  15.908  0.1220  0.0825 -0.1256
 7065SOL    HW232832   4.188   4.495  15.879  1.1760  0.5688 -0.9200
 7066SOL     OW32833   1.694   3.699   3.767 -0.0379 -0.0988 -0.0119
 7066SOL    HW132834   1.636   3.696   3.843  0.5765  0.8756  0.4998
 7066SOL    HW232835   1.670   3.780   3.721  0.1284  0.9634  1.7957
 7067SOL     OW32836   0.762   4.674   8.202 -0.0053 -0.3508  0.7911
 7067SOL    HW132837   0.711   4.599   8.169 -1.2657  2.0386 -2.6700
 7067SOL    HW232838   0.794   4.635   8.284  4.4432  0.5078 -0.5717
 7068SOL     OW32839   0.635   2.868   5.242 -0.0553  0.2399  0.0101
 7068SOL    HW132840   0.592   2.922   5.308  2.4595  2.0989  0.1072
 7068SOL    HW232841   0.689   2.807   5.292 -0.1919  1.2826  1.4102
 7069SOL     OW32842   1.136   2.636   4.951 -0.1346  0.1606  0.5793
 7069SOL    HW132843   1.189   2.672   5.022  0.0218  0.7653  0.1564
 7069SOL    HW232844   1.209   2.620   4.892 -0.6434 -1.5891  0.4157
 7070SOL     OW32845   1.574   1.542  15.006  0.3504 -0.0752 -0.0475
 7070SOL    HW132846   1.564   1.609  14.939  0.6030  1.5714  1.5562
 7070SOL    HW232847   1.506   1.560  15.071  0.6081 -1.2127  0.5385
 7071SOL     OW32848   1.588   1.081  11.873  0.1085 -0.1783  0.4105
 7071SOL    HW132849   1.579   1.005  11.815  2.9782 -0.7415  0.6754
 7071SOL    HW232850   1.660   1.127  11.829 -0.4581  1.4112  1.1774
 7072SOL     OW32851   2.976   0.632  12.686  0.2565 -0.5898  0.4951
 7072SOL    HW132852   3.042   0.597  12.626  0.7510  0.4476  0.4425
 7072SOL    HW232853   2.976   0.564  12.753  0.5877  0.2013  1.2971
 7073SOL     OW32854   4.174   3.676   9.618  0.3616  0.5684  0.0960
 7073SOL    HW132855   4.083   3.654   9.638  0.2410 -0.6723 -1.8956
 7073SOL    HW232856   4.212   3.683   9.706  0.3151 -1.3399  0.2715
 7074SOL     OW32857   0.488   2.698   3.285  0.4278  0.5820  0.2361
 7074SOL    HW132858   0.505   2.730   3.196 -2.7516  0.5176 -0.3863
 7074SOL    HW232859   0.498   2.606   3.264  2.3450  1.2488 -1.7280
 7075SOL     OW32860   3.378   4.321   5.462  0.0478 -0.5269  0.1330
 7075SOL    HW132861   3.349   4.352   5.548  1.4430  0.4814  0.2358
 7075SOL    HW232862   3.468   4.302   5.490 -0.4851 -0.9981  1.5432
 7076SOL     OW32863   2.864   0.256  13.065 -0.2432 -0.0047 -0.7507
 7076SOL    HW132864   2.776   0.219  13.075 -0.3685  0.1187 -1.3941
 7076SOL    HW232865   2.928   0.186  13.074 -1.6684 -1.1501  0.5159
 7077SOL     OW32866   3.758   0.271   4.444 -0.6975 -0.5012  0.1961
 7077SOL    HW132867   3.790   0.356   4.475  1.9315 -0.1067 -3.5988
 7077SOL    HW232868   3.812   0.218   4.502 -1.1677 -0.1916  0.9132
 7078SOL     OW32869   0.595   2.391   6.756  0.1826 -0.2072 -0.5417
 7078SOL    HW132870   0.620   2.479   6.783  1.2509 -1.1375  1.5656
 7078SOL    HW232871   0.585   2.337   6.835 -0.6368 -0.9731 -1.1583
 7079SOL     OW32872   4.040   1.213   8.746  0.0852 -0.0761  0.2845
 7079SOL    HW132873   4.116   1.256   8.786  0.9672  1.6136 -3.1926
 7079SOL    HW232874   3.976   1.284   8.746 -0.5751 -0.6792 -0.0645
 7080SOL     OW32875   3.522   2.625   7.696  0.1005  0.1122  0.2627
 7080SOL    HW132876   3.576   2.668   7.630  0.5240  1.8128  1.7349
 7080SOL    HW232877   3.475   2.700   7.733  0.9575  1.5798 -1.6405
 7081SOL     OW32878   1.686   2.409   6.468 -0.0652  0.6140  0.6341
 7081SOL    HW132879   1.682   2.473   6.396  0.7734  2.2389  2.0328
 7081SOL    HW232880   1.719   2.471   6.533  1.2325 -0.9636  1.4772
 7082SOL     OW32881   3.367   3.699   1.938 -0.5664 -0.8817  0.8676
 7082SOL    HW132882   3.364   3.625   1.999  3.3776  0.1413  2.3176
 7082SOL    HW232883   3.421   3.762   1.986  0.2452  0.5834 -1.9846
 7083SOL     OW32884   3.779   0.654   5.676  1.0173  0.9600 -0.2347
 7083SOL    HW132885   3.749   0.586   5.736  0.6250  0.5444 -0.8949
 7083SOL    HW232886   3.735   0.727   5.719  0.5694  0.5745 -0.0388
 7084SOL     OW32887   2.886   1.048   7.007  0.2489 -0.1275 -0.1155
 7084SOL    HW132888   2.864   0.960   7.038 -1.7609 -0.4422 -2.4393
 7084SOL    HW232889   2.981   1.041   7.015  0.2180  1.1295  1.4154
 7085SOL     OW32890   0.076   3.309   1.393  0.3503 -0.0227  0.1780
 7085SOL    HW132891   0.060   3.388   1.341  0.3392  0.1307  0.4109
 7085SOL    HW232892   0.064   3.243   1.325  0.8180  0.1182 -0.0456
 7086SOL     OW32893   2.811   0.614   3.787  0.0081 -0.0128 -0.5998
 7086SOL    HW132894   2.837   0.617   3.879  0.7021 -0.6431 -0.7826
 7086SOL    HW232895   2.895   0.599   3.744  0.1843 -0.7501 -0.0058
 7087SOL     OW32896   0.237   0.935  14.053  0.0215 -0.4282  0.8266
 7087SOL    HW132897   0.238   1.024  14.087 -0.5297  0.0340 -0.3616
 7087SOL    HW232898   0.246   0.875  14.127  2.0636 -0.2466  0.7342
 7088SOL     OW32899   3.390   2.740   7.077 -0.5427 -0.3251  0.0936
 7088SOL    HW132900   3.447   2.774   7.146  1.5266 -1.7845 -0.9223
 7088SOL    HW232901   3.454   2.699   7.020 -0.8191  1.4996 -1.5282
 7089SOL     OW32902   2.819   0.074  12.354  0.1706  0.5404  0.5319
 7089SOL    HW132903   2.735   0.103  12.320  0.7882  0.5653 -0.9497
 7089SOL    HW232904   2.839   0.151  12.407  0.3081  0.0900  1.1451
 7090SOL     OW32905   0.122   1.575  15.770 -0.3742  0.8246  0.3044
 7090SOL    HW132906   0.102   1.519  15.844  0.7321  0.0328 -0.0029
 7090SOL    HW232907   0.079   1.657  15.795 -3.3740 -0.2794 -1.1994
 7091SOL     OW32908   4.071   1.573   2.209  0.1899  0.4107  0.1475
 7091SOL    HW132909   4.058   1.615   2.293  0.5220  0.4469  0.1836
 7091SOL    HW232910   4.116   1.491   2.228 -1.9031 -1.0517 -1.1555
 7092SOL     OW32911   2.518   4.086  13.577 -0.5056  0.2720 -0.1607
 7092SOL    HW132912   2.525   4.011  13.518 -0.2640  1.7942 -2.0767
 7092SOL    HW232913   2.582   4.067  13.645 -0.8856 -2.4933 -0.5561
 7093SOL     OW32914   0.676   0.222   6.881 -0.4516 -0.3328  0.6007
 7093SOL    HW132915   0.681   0.303   6.932  1.4810  0.7283 -1.2568
 7093SOL    HW232916   0.766   0.189   6.888 -0.0039  0.6549 -0.5288
 7094SOL     OW32917   2.513   0.721   9.863 -0.5548  0.0121 -0.6017
 7094SOL    HW132918   2.478   0.777   9.933  1.1255 -1.5367  1.4670
 7094SOL    HW232919   2.455   0.746   9.791 -1.3201 -0.5125 -0.1652
 7095SOL     OW32920   2.697   3.105   2.771  0.2968  0.3060  0.5538
 7095SOL    HW132921   2.723   3.125   2.861  2.4994 -1.2387  0.2495
 7095SOL    HW232922   2.684   3.198   2.750  1.9219  0.0825 -1.4177
 7096SOL     OW32923   2.965   3.715  17.340  0.2929 -0.0412 -0.1309
 7096SOL    HW132924   3.004   3.643  17.291  0.7181  0.6288 -0.7790
 7096SOL    HW232925   2.968   3.778  17.268  1.2993  0.0507 -0.0072
 7097SOL     OW32926   2.478   0.706   5.981  0.3723 -0.7759 -0.0197
 7097SOL    HW132927   2.565   0.747   5.979 -0.1011  0.1267 -1.8369
 7097SOL    HW232928   2.496   0.613   5.970  0.2973 -0.7875 -0.0424
 7098SOL     OW32929   1.776   2.087   0.949 -0.1919 -0.4091  0.1920
 7098SOL    HW132930   1.851   2.119   1.000  0.6541 -0.7263 -0.8493
 7098SOL    HW232931   1.707   2.122   1.005  0.5300  0.1562  0.7212
 7099SOL     OW32932   3.931   2.737  12.283 -0.0607  0.2264 -0.4462
 7099SOL    HW132933   3.895   2.824  12.270  0.4006  0.2682 -1.4416
 7099SOL    HW232934   3.848   2.690  12.273 -1.0469  1.9820 -0.4244
 7100SOL     OW32935   4.630   0.328   4.627 -0.2692  0.2243  0.2446
 7100SOL    HW132936   4.581   0.258   4.670 -0.2801 -0.4220 -0.8162
 7100SOL    HW232937   4.701   0.278   4.586 -1.1015 -0.2044 -0.6659
 7101SOL     OW32938   3.829   2.502   0.694 -0.3525 -0.0400 -0.1264
 7101SOL    HW132939   3.788   2.417   0.710  0.4232 -0.4371 -0.1981
 7101SOL    HW232940   3.862   2.488   0.605 -0.5192 -0.2232 -0.1597
 7102SOL     OW32941   1.308   0.901   4.727 -0.3131  0.3505  0.2029
 7102SOL    HW132942   1.214   0.887   4.720 -0.4206  0.1951  2.0678
 7102SOL    HW232943   1.327   0.837   4.795  1.3847 -1.2302 -1.7633
 7103SOL     OW32944   0.584   4.553   6.706 -0.0613  0.3178 -0.0516
 7103SOL    HW132945   0.580   4.648   6.696 -1.7361  0.4427  1.6994
 7103SOL    HW232946   0.594   4.531   6.613  0.0716  1.5064 -0.3095
 7104SOL     OW32947   4.481   0.634  14.843  0.2724 -0.0515  0.4593
 7104SOL    HW132948   4.576   0.623  14.837  0.3647  0.9729  0.0321
 7104SOL    HW232949   4.468   0.694  14.769 -0.8131  0.6808  1.2383
 7105SOL     OW32950   1.679   0.257   2.493 -0.4219  0.3324  0.3045
 7105SOL    HW132951   1.760   0.279   2.538  1.1215  1.2481 -2.8951
 7105SOL    HW232952   1.620   0.231   2.563 -0.1110  0.9199  0.7875
 7106SOL     OW32953   2.284   1.342   4.056 -0.6633 -0.5341 -0.3742
 7106SOL    HW132954   2.230   1.294   4.119 -1.6906 -1.0653 -1.6603
 7106SOL    HW232955   2.289   1.268   3.996  0.4396  1.0748 -2.2552
 7107SOL     OW32956   1.552   0.053   6.259  0.3396  0.1091  0.5084
 7107SOL    HW132957   1.549   0.138   6.303 -1.7570  0.2955 -0.0105
 7107SOL    HW232958   1.463   0.024   6.240 -0.3865  0.5309  3.2884
 7108SOL     OW32959   2.544   2.513  13.312 -0.0121 -1.0480 -0.0539
 7108SOL    HW132960   2.613   2.479  13.255  2.4413 -0.7013  2.7187
 7108SOL    HW232961   2.481   2.559  13.257 -1.3261  1.1218  3.2557
 7109SOL     OW32962   2.094   4.164   6.063 -0.1509 -0.1049  0.0197
 7109SOL    HW132963   2.117   4.086   6.113  2.3915  1.3599  1.1485
 7109SOL    HW232964   2.077   4.130   5.975  0.1810  0.5872 -0.3173
 7110SOL     OW32965   1.817   0.544   6.138  0.8034  0.1773 -0.1310
 7110SOL    HW132966   1.734   0.589   6.152  1.1167  1.1648 -1.4124
 7110SOL    HW232967   1.841   0.524   6.228 -0.2643 -0.2913  0.0469
 7111SOL     OW32968   1.421   2.664   1.232 -0.4134 -0.4937 -0.1280
 7111SOL    HW132969   1.478   2.738   1.210  0.8110 -1.2355  0.5879
 7111SOL    HW232970   1.430   2.671   1.327  1.2948 -1.7635 -0.2022
 7112SOL     OW32971   0.381   2.400   8.236 -0.5849 -0.0209 -0.0813
 7112SOL    HW132972   0.385   2.356   8.152 -0.7421  1.6676 -0.9705
 7112SOL    HW232973   0.466   2.369   8.268 -0.1414  1.1358 -0.1288
 7113SOL     OW32974   3.098   3.500  11.750  0.0540  0.5727  0.3238
 7113SOL    HW132975   3.078   3.589  11.719 -2.5711 -0.7876 -1.7951
 7113SOL    HW232976   3.063   3.441  11.684  1.5153 -3.2144  2.9889
 7114SOL     OW32977   2.812   2.592   2.101  0.0657  0.2179 -0.0528
 7114SOL    HW132978   2.894   2.542   2.104  0.2936  0.6004  0.1799
 7114SOL    HW232979   2.745   2.527   2.121 -0.4598  0.6460 -0.4588
 7115SOL     OW32980   2.507   3.614   1.390  0.4989 -0.0062 -0.1356
 7115SOL    HW132981   2.577   3.629   1.454  0.4169  1.4691 -0.3983
 7115SOL    HW232982   2.441   3.675   1.426 -1.1523 -3.1001  2.1073
 7116SOL     OW32983   4.357   3.818   4.078  0.4963  0.4822  0.4524
 7116SOL    HW132984   4.331   3.910   4.086  1.8323  0.8771  0.2747
 7116SOL    HW232985   4.353   3.780   4.165 -0.1023 -1.0392 -0.2403
 7117SOL     OW32986   3.160   3.067  13.160  0.8629  0.2332 -0.2200
 7117SOL    HW132987   3.137   3.045  13.070  0.8093 -1.0185  0.1067
 7117SOL    HW232988   3.211   2.991  13.186  0.0265 -0.6536 -1.1888
 7118SOL     OW32989   1.714   0.585   7.441 -0.4844  0.0592  0.5515
 7118SOL    HW132990   1.753   0.672   7.431  3.4931 -1.7757 -0.1458
 7118SOL    HW232991   1.699   0.577   7.535 -2.3474  1.8497  0.4001
 7119SOL     OW32992   1.812   2.865   6.198  0.1244  0.1332 -0.0968
 7119SOL    HW132993   1.905   2.855   6.220  0.0757 -0.6777 -0.2690
 7119SOL    HW232994   1.824   2.934   6.132 -0.0328 -0.7132 -1.0131
 7120SOL     OW32995   2.995   4.613   0.937  0.1929  0.1453 -0.3895
 7120SOL    HW132996   3.065   4.638   0.997 -0.6834  2.6231 -0.3888
 7120SOL    HW232997   2.959   4.535   0.979  2.2899 -0.1963  0.7348
 7121SOL     OW32998   0.526   4.126  15.365  0.0389 -0.1613 -0.0173
 7121SOL    HW132999   0.576   4.175  15.430 -0.6682 -0.1607  0.5228
 7121SOL    HW233000   0.477   4.073  15.428 -1.1329 -0.0629 -0.8413
 7122SOL     OW33001   2.444   2.277  16.420 -0.5008  0.3448  0.2459
 7122SOL    HW133002   2.382   2.216  16.460  0.0794 -1.5471 -1.7241
 7122SOL    HW233003   2.489   2.224  16.354 -0.0675 -1.2109  1.7953
 7123SOL     OW33004   2.164   1.629   7.389 -0.3751 -0.4358 -0.1063
 7123SOL    HW133005   2.204   1.715   7.381  1.2222 -1.1488  0.1020
 7123SOL    HW233006   2.245   1.577   7.391  1.1537  1.9539 -0.9859
 7124SOL     OW33007   0.808   2.609   5.236 -0.0670  0.4276  1.2088
 7124SOL    HW133008   0.870   2.653   5.178 -0.6661 -2.7362 -1.8293
 7124SOL    HW233009   0.807   2.519   5.203  0.3659  0.3893  1.3062
 7125SOL     OW33010   1.291   2.927   4.805 -0.3856 -0.1452 -0.2646
 7125SOL    HW133011   1.326   2.857   4.860 -0.7132 -1.1740 -1.3809
 7125SOL    HW233012   1.229   2.979   4.857  1.2535  0.3700  1.1865
 7126SOL     OW33013   3.218   4.077   8.036 -0.1746  0.2625  0.1551
 7126SOL    HW133014   3.136   4.121   8.057  1.1295  2.7500  0.0595
 7126SOL    HW233015   3.291   4.126   8.075 -0.0141  1.3197 -1.4964
 7127SOL     OW33016   4.567   3.445   7.723 -0.0105 -0.0671  0.1706
 7127SOL    HW133017   4.561   3.482   7.635  0.7983  1.4806  0.7753
 7127SOL    HW233018   4.637   3.379   7.716  0.0080 -0.0821  0.4885
 7128SOL     OW33019   0.758   2.045   1.784 -0.1256 -0.2545 -0.2094
 7128SOL    HW133020   0.807   2.126   1.797 -1.3282  0.3318  0.6575
 7128SOL    HW233021   0.770   1.999   1.867 -0.7409  0.0149  0.0251
 7129SOL     OW33022   3.679   0.511  14.594  0.4420 -0.0799  0.2966
 7129SOL    HW133023   3.747   0.527  14.659 -0.0885  1.8237  0.3947
 7129SOL    HW233024   3.606   0.546  14.646 -2.0680 -1.5111 -2.2895
 7130SOL     OW33025   1.588   1.298  10.833 -0.5014 -0.1937 -0.1032
 7130SOL    HW133026   1.564   1.366  10.896  0.4120 -0.7697  0.8637
 7130SOL    HW233027   1.650   1.243  10.881  1.3742  0.2462 -1.9928
 7131SOL     OW33028   4.020   0.610   6.236  0.1499  0.3119  0.3464
 7131SOL    HW133029   4.095   0.647   6.190  0.3156  0.0071  0.3662
 7131SOL    HW233030   4.075   0.546   6.282 -0.1489 -1.1163 -1.2916
 7132SOL     OW33031   1.838   2.912  13.686  0.3030  0.3326 -0.0207
 7132SOL    HW133032   1.931   2.931  13.674  0.3995 -0.4550 -0.5719
 7132SOL    HW233033   1.812   2.891  13.596 -2.7958  2.2259  0.4647
 7133SOL     OW33034   2.561   0.464   9.461 -0.0851  0.3621 -0.5828
 7133SOL    HW133035   2.639   0.414   9.437 -0.5637 -0.8246  0.3875
 7133SOL    HW233036   2.595   0.553   9.454  0.3378  0.1320 -1.4804
 7134SOL     OW33037   2.573   0.270  14.318 -0.1429  0.2096  0.2809
 7134SOL    HW133038   2.588   0.256  14.225 -3.2533 -0.9353 -0.0431
 7134SOL    HW233039   2.620   0.196  14.357 -1.0860 -0.6540 -0.2327
 7135SOL     OW33040   1.867   4.150   7.712 -0.2388 -0.2713 -0.1825
 7135SOL    HW133041   1.935   4.146   7.645 -0.3064  0.6593 -0.3016
 7135SOL    HW233042   1.802   4.101   7.662  2.2076 -1.9275 -1.7575
 7136SOL     OW33043   2.442   3.144   2.596 -0.4273  0.1991  0.2599
 7136SOL    HW133044   2.456   3.167   2.688  2.3205  0.5569 -0.2369
 7136SOL    HW233045   2.517   3.088   2.578 -0.7142 -0.0781 -0.0622
 7137SOL     OW33046   0.581   3.857   7.532 -0.7321  0.0388  0.2296
 7137SOL    HW133047   0.608   3.870   7.440  0.9212 -0.0822  0.6854
 7137SOL    HW233048   0.570   3.950   7.555  0.8286 -0.1354  1.6526
 7138SOL     OW33049   3.689   1.235  11.922 -0.3541  0.2642  0.2431
 7138SOL    HW133050   3.619   1.254  11.984 -0.4257  3.8197 -0.9066
 7138SOL    HW233051   3.680   1.140  11.914 -0.6564  0.3891 -1.0221
 7139SOL     OW33052   1.682   3.737  11.670 -0.1380  0.1897  0.0920
 7139SOL    HW133053   1.776   3.754  11.662  0.1043 -1.1795 -0.0408
 7139SOL    HW233054   1.675   3.741  11.765  0.0114 -0.4239  0.1294
 7140SOL     OW33055   1.961   3.150   8.488  0.3647 -0.8258 -0.3952
 7140SOL    HW133056   2.033   3.136   8.428  0.1689 -1.2572 -0.5260
 7140SOL    HW233057   1.898   3.080   8.470  1.9900 -2.3294 -0.2715
 7141SOL     OW33058   2.161   3.077   5.074 -0.4776 -0.2121  0.1913
 7141SOL    HW133059   2.073   3.110   5.091 -0.1157  0.4970  0.6887
 7141SOL    HW233060   2.137   2.985   5.082 -1.6975  0.0337 -0.6566
 7142SOL     OW33061   0.691   0.455   7.020 -0.5641  0.1817  0.4643
 7142SOL    HW133062   0.648   0.539   7.038 -1.0861 -0.2911  1.4367
 7142SOL    HW233063   0.768   0.487   6.973 -1.6028 -1.0165 -2.0840
 7143SOL     OW33064   2.430   4.306  11.635  0.3874  0.3019  0.1479
 7143SOL    HW133065   2.467   4.394  11.636 -0.6590  0.7497 -0.9143
 7143SOL    HW233066   2.431   4.295  11.540  1.6944  0.2524  0.1672
 7144SOL     OW33067   2.228   0.440  13.585  0.5823  0.3527 -0.2253
 7144SOL    HW133068   2.249   0.524  13.626  0.5764 -0.8797  2.3508
 7144SOL    HW233069   2.140   0.423  13.621  1.1955 -1.3757  0.4994
 7145SOL     OW33070   0.895   0.389  16.500 -0.2132 -0.1379  0.4848
 7145SOL    HW133071   0.904   0.450  16.574  0.4192  0.0286  0.2747
 7145SOL    HW233072   0.871   0.449  16.429 -2.6592 -2.8098 -0.9058
 7146SOL     OW33073   4.194   4.060   4.078  0.7735  0.2171 -1.1504
 7146SOL    HW133074   4.146   4.123   4.133  0.8121  0.6770 -1.6414
 7146SOL    HW233075   4.256   4.111   4.027  2.5938  0.4327  1.2768
 7147SOL     OW33076   0.751   1.416   6.880 -0.0018 -0.1071 -0.7015
 7147SOL    HW133077   0.847   1.422   6.884 -0.0094  1.5249 -2.9076
 7147SOL    HW233078   0.721   1.507   6.879  1.2608  0.3198 -0.3747
 7148SOL     OW33079   4.600   4.128   4.566  0.0409 -0.3305 -0.1504
 7148SOL    HW133080   4.665   4.077   4.613  2.3570  1.0302 -1.8316
 7148SOL    HW233081   4.560   4.060   4.511 -2.5457  0.9877  0.0686
 7149SOL     OW33082   2.882   3.694  16.685 -0.7899 -0.7244  0.7042
 7149SOL    HW133083   2.862   3.692  16.592 -1.1130  0.7931  0.7382
 7149SOL    HW233084   2.939   3.618  16.685  0.9471  0.5834  0.5776
 7150SOL     OW33085   3.024   3.096  12.261 -0.3669 -0.5822 -0.0260
 7150SOL    HW133086   3.012   3.182  12.300 -0.2094 -1.0085  0.9710
 7150SOL    HW233087   2.942   3.051  12.281 -1.0322  1.1126  1.0499
 7151SOL     OW33088   2.112   3.954   4.928  0.2270  0.2803  0.4357
 7151SOL    HW133089   2.168   3.916   4.861 -0.1020 -0.3630  0.5256
 7151SOL    HW233090   2.042   3.889   4.926  1.0343 -0.5968  0.7425
 7152SOL     OW33091   2.566   1.245  10.070  0.7908  0.4681  0.2264
 7152SOL    HW133092   2.638   1.261  10.010  0.1757  0.7066 -0.4475
 7152SOL    HW233093   2.606   1.178  10.126 -1.0466  1.1831  2.4047
 7153SOL     OW33094   4.372   0.223  10.371 -0.5025 -0.1498 -0.5726
 7153SOL    HW133095   4.453   0.183  10.401  1.5255  3.5361 -1.2177
 7153SOL    HW233096   4.370   0.301  10.427  0.3548 -1.3474  1.1294
 7154SOL     OW33097   4.090   3.633   3.849  0.0058  0.0092 -0.5933
 7154SOL    HW133098   4.163   3.694   3.843 -0.5787  0.7802  0.0592
 7154SOL    HW233099   4.046   3.656   3.932  0.9045 -1.2837  0.2474
 7155SOL     OW33100   4.563   0.973   1.519 -1.3819 -0.1076  0.5200
 7155SOL    HW133101   4.578   0.986   1.613  2.3668 -0.6489 -0.0063
 7155SOL    HW233102   4.648   0.954   1.478 -1.0725 -0.2169  1.2031
 7156SOL     OW33103   2.582   2.258  12.005  0.6752 -0.3355 -0.6460
 7156SOL    HW133104   2.612   2.332  11.953 -1.9631  1.1911 -0.0122
 7156SOL    HW233105   2.509   2.308  12.042  2.1882  1.4125 -0.0394
 7157SOL     OW33106   1.352   1.874  12.891 -0.2868  0.0018  0.4487
 7157SOL    HW133107   1.421   1.923  12.846  1.0308 -1.0703  1.2909
 7157SOL    HW233108   1.398   1.830  12.963 -2.4777 -0.3767  1.6315
 7158SOL     OW33109   0.790   0.888   8.491 -0.1633 -0.2787 -0.5232
 7158SOL    HW133110   0.706   0.927   8.466  0.6360  1.2588 -0.7753
 7158SOL    HW233111   0.832   0.970   8.516  0.7019 -1.0311  0.4564
 7159SOL     OW33112   3.550   0.871  17.716 -0.8352 -0.0704 -0.3325
 7159SOL    HW133113   3.518   0.922   0.044  1.8288  0.6792  0.2933
 7159SOL    HW233114   3.478   0.835  17.663 -2.6519  0.0377  2.0226
 7160SOL     OW33115   3.105   4.150   8.723  0.2700  0.2635  0.6781
 7160SOL    HW133116   3.076   4.072   8.675 -0.2118  1.2821 -0.6890
 7160SOL    HW233117   3.058   4.138   8.806  1.1315  2.7976  1.5356
 7161SOL     OW33118   2.694   4.482   9.277 -0.6468 -0.1751 -0.1952
 7161SOL    HW133119   2.655   4.423   9.341  2.0362  0.1667  1.7791
 7161SOL    HW233120   2.677   4.440   9.193 -1.3070  0.8308 -0.5615
 7162SOL     OW33121   1.214   4.177   8.048 -0.1477  0.0075  0.3972
 7162SOL    HW133122   1.271   4.182   8.125 -0.2536  0.9203  0.4169
 7162SOL    HW233123   1.261   4.110   7.999 -0.0280  0.1089  0.3703
 7163SOL     OW33124   1.903   4.224  11.252  0.1471 -0.1575  0.1138
 7163SOL    HW133125   1.840   4.234  11.324 -0.8383 -2.1061 -0.4654
 7163SOL    HW233126   1.903   4.312  11.214 -0.1758 -0.1333  0.1616
 7164SOL     OW33127   0.346   2.226   4.386  0.4380 -0.1714  0.2407
 7164SOL    HW133128   0.388   2.312   4.380 -1.2598  0.8375  3.3790
 7164SOL    HW233129   0.407   2.178   4.330  1.8740  1.8600  0.0796
 7165SOL     OW33130   3.918   4.280  11.418 -0.1469 -0.3844 -0.4889
 7165SOL    HW133131   3.922   4.375  11.424  0.4800 -0.5696  1.8548
 7165SOL    HW233132   4.002   4.253  11.456  0.8491  1.0501 -1.6537
 7166SOL     OW33133   3.986   1.923  10.669 -0.4442 -0.2740  0.1030
 7166SOL    HW133134   4.023   1.983  10.605 -0.1036 -1.1455 -0.5259
 7166SOL    HW233135   3.966   1.986  10.737  0.8972  0.5418 -0.2646
 7167SOL     OW33136   3.836   1.013   0.698 -0.0988 -0.2659 -0.2271
 7167SOL    HW133137   3.760   0.983   0.748 -1.6486  0.3210 -2.2631
 7167SOL    HW233138   3.795   1.005   0.612 -1.0190  1.3277  0.0570
 7168SOL     OW33139   0.020   1.757   8.384  0.1531 -0.1356  0.5556
 7168SOL    HW133140   4.704   1.693   8.336  0.4757  2.5335 -3.3529
 7168SOL    HW233141   4.720   1.755   8.472  0.8999 -1.8397  0.8330
 7169SOL     OW33142   3.692   1.959   0.597 -0.0808 -0.0177 -0.7583
 7169SOL    HW133143   3.708   2.016   0.672  1.4380 -0.6265 -0.6162
 7169SOL    HW233144   3.620   1.903   0.625 -0.2256  0.5524 -0.0104
 7170SOL     OW33145   3.618   3.194   4.043  0.2723  0.1613  0.0817
 7170SOL    HW133146   3.529   3.217   4.069 -0.7012 -1.7626 -1.5178
 7170SOL    HW233147   3.603   3.134   3.969 -1.6379  1.6762 -0.7828
 7171SOL     OW33148   2.860   2.620  10.546  0.0116  0.0896 -0.2670
 7171SOL    HW133149   2.936   2.586  10.593  2.1127  1.4063 -2.7080
 7171SOL    HW233150   2.832   2.537  10.508  1.2361  1.3152 -3.8970
 7172SOL     OW33151   2.036   1.942   8.301 -0.2812 -0.3094  0.0020
 7172SOL    HW133152   2.125   1.954   8.336 -0.6795  1.6121  0.3713
 7172SOL    HW233153   2.001   1.884   8.369 -0.3964  1.0769  1.1326
 7173SOL     OW33154   2.638   0.240   2.137 -0.2984 -0.3498 -0.5538
 7173SOL    HW133155   2.665   0.148   2.129  1.4284  0.2980 -2.1245
 7173SOL    HW233156   2.554   0.223   2.179 -0.5730 -0.2438 -1.0530
 7174SOL     OW33157   1.649   4.253  12.273  0.1858 -0.0195  0.1801
 7174SOL    HW133158   1.601   4.201  12.338  1.2934 -1.7178 -0.3607
 7174SOL    HW233159   1.705   4.192  12.226 -0.9884 -0.6154 -0.4402
 7175SOL     OW33160   3.405   2.650   4.027 -0.2371  0.8355 -0.5177
 7175SOL    HW133161   3.426   2.743   4.032 -0.4766  0.7780  1.7129
 7175SOL    HW233162   3.350   2.633   4.103 -0.1952  1.8924 -0.2554
 7176SOL     OW33163   3.678   4.079   5.041  0.0707 -0.7051 -0.5234
 7176SOL    HW133164   3.642   4.103   5.126  0.0065 -1.4232 -0.3513
 7176SOL    HW233165   3.618   4.118   4.978 -0.1130  1.3010  0.8999
 7177SOL     OW33166   2.916   3.965  12.279 -0.3422  0.0476 -0.1612
 7177SOL    HW133167   2.913   4.048  12.232  0.0985  0.3732  0.3904
 7177SOL    HW233168   2.863   3.987  12.356 -2.4697  0.9579 -1.8623
 7178SOL     OW33169   4.234   1.443   4.102 -0.7820  0.3991  0.0815
 7178SOL    HW133170   4.255   1.417   4.192 -0.6955  1.5814  0.4045
 7178SOL    HW233171   4.279   1.528   4.109 -2.4832  1.0497  3.0698
 7179SOL     OW33172   4.226   3.856   2.208  0.5191 -0.4491  0.1205
 7179SOL    HW133173   4.303   3.889   2.255  0.4345  0.8739 -0.6817
 7179SOL    HW233174   4.274   3.778   2.180 -1.0604 -0.9956 -1.0457
 7180SOL     OW33175   3.221   2.637   4.245  0.0076  0.0611  0.4066
 7180SOL    HW133176   3.186   2.707   4.300  0.8710  0.5285  0.3523
 7180SOL    HW233177   3.140   2.604   4.205  0.5211 -2.5681  1.5160
 7181SOL     OW33178   1.357   2.643   6.141 -0.2083  0.0777  0.3021
 7181SOL    HW133179   1.303   2.721   6.131 -1.1015 -0.6030 -0.1680
 7181SOL    HW233180   1.320   2.611   6.223  0.2561 -1.2309 -0.0077
 7182SOL     OW33181   3.688   2.194   8.553  0.1209  0.7369 -0.0453
 7182SOL    HW133182   3.716   2.124   8.495 -1.0747  3.0566 -3.3787
 7182SOL    HW233183   3.607   2.161   8.593 -0.1343  1.3822 -0.0354
 7183SOL     OW33184   3.624   2.501  13.364 -0.1166 -0.4814 -0.1510
 7183SOL    HW133185   3.591   2.585  13.333 -0.6114 -0.4168  0.5468
 7183SOL    HW233186   3.597   2.448  13.289  0.8399  0.7984 -1.3977
 7184SOL     OW33187   3.493   4.544   1.132  0.3097 -0.3848 -0.5600
 7184SOL    HW133188   3.588   4.541   1.141  0.5861 -0.4389 -3.4941
 7184SOL    HW233189   3.473   4.494   1.053 -1.3789  0.0415 -0.4142
 7185SOL     OW33190   1.876   2.065   9.335 -0.0701 -0.0149 -0.6941
 7185SOL    HW133191   1.890   2.160   9.340 -1.3147  0.0439  1.4019
 7185SOL    HW233192   1.799   2.049   9.389  1.8896 -1.7544  1.5540
 7186SOL     OW33193   4.502   0.103   3.634 -0.2473 -0.3145  0.7657
 7186SOL    HW133194   4.506   0.079   3.542 -1.4567 -0.2462  0.7067
 7186SOL    HW233195   4.574   0.166   3.645  0.8248 -1.3506 -0.2711
 7187SOL     OW33196   3.982   4.155   3.784 -0.1556 -0.7085 -0.5795
 7187SOL    HW133197   3.982   4.089   3.853 -2.1932 -0.2586 -0.1442
 7187SOL    HW233198   4.073   4.146   3.757  0.2235 -0.8681  0.7726
 7188SOL     OW33199   1.380   0.313   9.342  0.2068  1.1459 -0.0915
 7188SOL    HW133200   1.461   0.347   9.303  1.4630 -0.3482  1.1599
 7188SOL    HW233201   1.340   0.272   9.266 -0.2448 -2.1859  1.9147
 7189SOL     OW33202   2.415   2.602   9.148  0.5397  0.4941 -0.3978
 7189SOL    HW133203   2.353   2.558   9.205  1.6731  1.2270  1.4015
 7189SOL    HW233204   2.421   2.692   9.181 -1.3281  0.8722 -1.1308
 7190SOL     OW33205   4.239   0.256   6.990  0.4760  0.2645  0.6879
 7190SOL    HW133206   4.277   0.190   6.932 -0.4094  0.1957  0.1852
 7190SOL    HW233207   4.168   0.298   6.942  0.6693 -0.0748  0.0974
 7191SOL     OW33208   0.047   2.319   7.522  0.1680 -0.0592 -0.3400
 7191SOL    HW133209   0.120   2.273   7.564  0.1036  2.1354  2.1511
 7191SOL    HW233210   4.718   2.265   7.565  2.0500 -3.5169 -1.8041
 7192SOL     OW33211   0.556   4.425   4.378 -0.3866  0.1363 -0.2178
 7192SOL    HW133212   0.626   4.485   4.355  0.2395 -0.8432 -0.8686
 7192SOL    HW233213   0.598   4.340   4.364  1.7504  1.5935 -2.4088
 7193SOL     OW33214   3.694   3.427   3.964 -0.2918  0.2518 -0.3045
 7193SOL    HW133215   3.784   3.398   3.978 -0.3432 -1.0675 -2.7878
 7193SOL    HW233216   3.648   3.348   3.991  1.7470 -0.6322  0.5621
 7194SOL     OW33217   0.175   3.347   4.933  0.3299  0.5959 -0.2108
 7194SOL    HW133218   0.140   3.430   4.965 -0.9050 -0.2949  0.7118
 7194SOL    HW233219   0.164   3.350   4.838 -0.0894  0.9797 -0.1520
 7195SOL     OW33220   0.131   1.817   4.452 -0.7975  0.0047 -0.0263
 7195SOL    HW133221   0.182   1.737   4.463 -0.6678  0.3012  1.5383
 7195SOL    HW233222   0.047   1.787   4.488 -0.5302 -0.0135  0.5877
 7196SOL     OW33223   0.273   1.299  10.857  0.5989 -0.3697 -0.3268
 7196SOL    HW133224   0.364   1.272  10.872  0.8793  1.0040  0.4905
 7196SOL    HW233225   0.268   1.376  10.801 -1.5477 -1.0666 -1.0855
 7197SOL     OW33226   0.342   0.581  16.830  0.4535  0.1074 -0.3782
 7197SOL    HW133227   0.390   0.629  16.762 -0.5294  0.9575 -0.4749
 7197SOL    HW233228   0.250   0.597  16.812  0.8477 -0.1847 -2.7644
 7198SOL     OW33229   3.846   0.044   2.454 -0.6821  0.1842 -0.4605
 7198SOL    HW133230   3.792   4.711   2.489  1.3455 -1.0301  0.2398
 7198SOL    HW233231   3.930   4.736   2.448 -1.0546 -0.6100  0.2690
 7199SOL     OW33232   0.584   0.378  11.872 -0.4845 -0.0695  0.2822
 7199SOL    HW133233   0.552   0.318  11.804  1.3501  0.1674 -0.7849
 7199SOL    HW233234   0.676   0.385  11.846 -0.6038 -0.7249 -0.3430
 7200SOL     OW33235   3.694   3.703   8.349  0.1559 -0.7454 -0.0658
 7200SOL    HW133236   3.731   3.791   8.352 -2.4430  0.3575 -0.0844
 7200SOL    HW233237   3.629   3.715   8.279 -0.9755  2.9338  1.6056
 7201SOL     OW33238   2.691   0.554   6.503 -0.7163 -0.3919  0.5334
 7201SOL    HW133239   2.713   0.495   6.575 -0.7956  2.0841  2.5491
 7201SOL    HW233240   2.628   0.613   6.544 -0.2189 -0.1965  1.0048
 7202SOL     OW33241   2.619   4.466   3.178 -0.3680 -0.3888 -0.2380
 7202SOL    HW133242   2.624   4.521   3.257  2.6208  2.3602 -2.3584
 7202SOL    HW233243   2.660   4.385   3.209 -1.0765 -1.0375 -0.9822
 7203SOL     OW33244   3.812   4.577   8.083 -0.4273 -0.0355 -0.3798
 7203SOL    HW133245   3.767   4.654   8.048  1.0907  1.7773  1.5992
 7203SOL    HW233246   3.824   4.611   8.172  2.9997 -1.3909 -0.3349
 7204SOL     OW33247   2.961   1.492   7.119 -0.2741  0.0779 -0.4246
 7204SOL    HW133248   3.046   1.480   7.075 -0.2153 -2.2064  0.3486
 7204SOL    HW233249   2.986   1.570   7.169  0.6037 -1.3647  1.3828
 7205SOL     OW33250   2.057   4.083  11.062 -0.0006  0.3932 -0.3876
 7205SOL    HW133251   2.011   4.001  11.045 -0.4263  0.3520  0.9407
 7205SOL    HW233252   2.001   4.106  11.136  1.2899 -0.3248  0.8162
 7206SOL     OW33253   0.535   3.401  16.481  0.7301 -0.5773 -0.3522
 7206SOL    HW133254   0.556   3.311  16.456  0.0821 -0.9641  0.4556
 7206SOL    HW233255   0.548   3.447  16.398  0.0046 -0.2733 -0.3014
 7207SOL     OW33256   3.978   3.742   0.772 -0.2080 -0.6540  0.3030
 7207SOL    HW133257   3.914   3.740   0.701  0.5159 -1.0187 -0.3265
 7207SOL    HW233258   4.055   3.696   0.738  0.5194  0.6170  0.2320
 7208SOL     OW33259   4.330   0.915   2.949 -0.2484  0.1001 -0.2667
 7208SOL    HW133260   4.414   0.913   2.995 -0.2201  0.1869 -0.3142
 7208SOL    HW233261   4.287   0.840   2.990  0.1326  0.3434  0.5856
 7209SOL     OW33262   4.627   4.706   2.288  0.0230 -0.3287  0.6118
 7209SOL    HW133263   4.691   4.634   2.280 -1.6624 -1.4455 -2.7542
 7209SOL    HW233264   4.658   0.015   2.366 -2.0574  0.5189  0.9095
 7210SOL     OW33265   1.386   4.674   2.773  0.0095  0.2821 -0.0801
 7210SOL    HW133266   1.470   4.632   2.789  0.5469  0.8339 -1.4471
 7210SOL    HW233267   1.417   0.026   2.786 -0.4429  0.4394 -0.0628
 7211SOL     OW33268   0.016   0.331   3.008 -0.0023 -0.0262  0.6064
 7211SOL    HW133269   0.027   0.237   2.993 -2.0955 -0.1966  0.1561
 7211SOL    HW233270   0.085   0.354   3.071 -1.3282  1.6424  1.4655
 7212SOL     OW33271   3.109   3.001  10.821  0.2005  0.1158  0.0824
 7212SOL    HW133272   3.057   2.989  10.900  2.1831  0.4795  1.4439
 7212SOL    HW233273   3.147   2.914  10.814  0.2992  0.1696 -0.0611
 7213SOL     OW33274   1.012   4.362   8.562 -0.2851  0.3893  0.3316
 7213SOL    HW133275   1.071   4.368   8.637  0.5255  0.5524 -0.3262
 7213SOL    HW233276   0.951   4.299   8.602 -0.5354  0.5316  0.1770
 7214SOL     OW33277   1.752   0.339   2.796 -0.0156 -0.0240  0.5557
 7214SOL    HW133278   1.836   0.316   2.835  0.5307  1.1214  0.0412
 7214SOL    HW233279   1.766   0.432   2.779  2.7059  0.0575  3.1948
 7215SOL     OW33280   0.054   3.561  17.323  0.0480  0.2535 -0.3041
 7215SOL    HW133281   4.713   3.615  17.330  0.5276  0.8765  0.2466
 7215SOL    HW233282   0.054   3.539  17.230  0.3444 -1.1103  0.0111
 7216SOL     OW33283   4.221   0.737  14.909 -0.0013  0.5991 -0.5444
 7216SOL    HW133284   4.169   0.667  14.949 -1.0703  1.2006 -0.8718
 7216SOL    HW233285   4.297   0.687  14.879  1.2708 -0.0796  3.7881
 7217SOL     OW33286   0.727   3.792  14.897  0.0429  0.4009  0.1692
 7217SOL    HW133287   0.713   3.728  14.826 -2.5237  0.1422  0.9116
 7217SOL    HW233288   0.763   3.860  14.839 -0.2528 -0.1842 -0.7016
 7218SOL     OW33289   4.242   3.815   8.293 -0.4360  0.4142 -0.7942
 7218SOL    HW133290   4.290   3.878   8.239  0.2738  0.5912  0.0287
 7218SOL    HW233291   4.226   3.881   8.360 -0.2959 -0.4015  0.0506
 7219SOL     OW33292   2.953   1.978  13.710 -0.2357  0.1441 -0.0760
 7219SOL    HW133293   2.883   1.921  13.743 -0.2950  1.6847  2.4775
 7219SOL    HW233294   2.971   1.933  13.628 -2.4054 -0.2577 -0.3540
 7220SOL     OW33295   4.658   0.077   2.648  0.0142 -0.2202 -0.1846
 7220SOL    HW133296   4.695   0.164   2.660 -0.6940  0.0273  0.2634
 7220SOL    HW233297   4.683   0.029   2.727 -1.4186  1.8159  1.5242
 7221SOL     OW33298   1.516   0.739   3.892 -0.3179  0.7061  0.4517
 7221SOL    HW133299   1.494   0.821   3.936 -2.4780 -0.2117  1.0912
 7221SOL    HW233300   1.437   0.720   3.841  0.1465 -1.1138  0.4056
 7222SOL     OW33301   2.597   2.306   9.307 -0.2035 -0.5070 -0.6354
 7222SOL    HW133302   2.630   2.375   9.250 -0.0786  0.7111  0.8971
 7222SOL    HW233303   2.536   2.368   9.347 -2.0102 -1.4238 -1.9763
 7223SOL     OW33304   3.730   2.091   1.916  0.3230  0.2805 -0.2673
 7223SOL    HW133305   3.695   2.051   1.995  0.1352  1.8043  0.4180
 7223SOL    HW233306   3.819   2.056   1.907  1.6749  3.4079  0.9774
 7224SOL     OW33307   3.781   3.471   2.208  0.0951 -0.4556 -0.1759
 7224SOL    HW133308   3.846   3.400   2.205  0.3578 -0.2022 -0.5334
 7224SOL    HW233309   3.744   3.470   2.120  1.3664 -0.0762 -0.7247
 7225SOL     OW33310   2.123   1.441   7.947 -0.5348  0.6025  0.0842
 7225SOL    HW133311   2.054   1.498   7.981 -2.5212  0.0397 -2.9424
 7225SOL    HW233312   2.076   1.358   7.961  1.6891 -1.2926 -3.7625
 7226SOL     OW33313   0.440   1.727  10.748 -0.1834  0.2403  0.4178
 7226SOL    HW133314   0.526   1.699  10.716 -0.3797 -1.1693  1.1027
 7226SOL    HW233315   0.410   1.654  10.803 -1.2126 -0.5062 -1.1547
 7227SOL     OW33316   2.225   1.802   6.397 -0.2580  0.0903  0.2217
 7227SOL    HW133317   2.184   1.791   6.483 -0.1850  0.2575  0.2765
 7227SOL    HW233318   2.175   1.880   6.372 -1.4392 -0.6945  0.1450
 7228SOL     OW33319   0.139   4.595  12.799 -0.0691  0.1059 -0.4071
 7228SOL    HW133320   0.125   4.647  12.720  1.1249  3.0394  1.3369
 7228SOL    HW233321   0.232   4.578  12.785  0.3922  0.4838  2.2218
 7229SOL     OW33322   3.629   0.794   3.683  0.3332  0.1277 -0.0643
 7229SOL    HW133323   3.711   0.842   3.682  0.7504 -0.5778  0.4194
 7229SOL    HW233324   3.559   0.854   3.708  0.5752  0.2934  0.2127
 7230SOL     OW33325   2.262   3.030   4.061 -0.1906 -0.0701 -0.1194
 7230SOL    HW133326   2.262   3.069   3.974  2.1067  2.7840  1.1722
 7230SOL    HW233327   2.176   2.989   4.049  0.3513 -1.5492  1.0588
 7231SOL     OW33328   0.886   1.541   4.321  0.0160  0.5295 -0.3747
 7231SOL    HW133329   0.903   1.605   4.251  0.7143  0.1970 -0.5165
 7231SOL    HW233330   0.946   1.576   4.387  0.2826 -0.8394  0.0905
 7232SOL     OW33331   2.310   1.838   7.385 -0.5322 -0.0694 -0.6790
 7232SOL    HW133332   2.354   1.904   7.331  1.5837  0.0003  1.1384
 7232SOL    HW233333   2.384   1.804   7.435 -0.7875 -1.2766 -1.1341
 7233SOL     OW33334   2.456   3.861   6.194 -0.7296  0.1510  0.2806
 7233SOL    HW133335   2.396   3.788   6.180  1.5835 -2.1944  2.5791
 7233SOL    HW233336   2.490   3.872   6.105  0.6047 -0.3441  0.7243
 7234SOL     OW33337   2.712   0.616  12.999  0.5283 -0.7199  0.1570
 7234SOL    HW133338   2.772   0.561  12.948  0.0829 -3.1215  2.2402
 7234SOL    HW233339   2.680   0.554  13.065 -0.2242  0.5297  0.9485
 7235SOL     OW33340   1.147   2.712  13.146 -0.0390 -0.2151  0.2960
 7235SOL    HW133341   1.168   2.660  13.223  2.8571  1.3076  0.5505
 7235SOL    HW233342   1.228   2.724  13.097 -0.2820 -1.5716 -0.4423
 7236SOL     OW33343   0.154   4.203   3.267  0.2067 -0.0161  0.4110
 7236SOL    HW133344   0.087   4.208   3.199 -0.8026  1.2449  1.4874
 7236SOL    HW233345   0.212   4.132   3.237  0.2695 -0.4693  1.6030
 7237SOL     OW33346   4.715   0.301   3.764 -0.0455  0.6643 -0.5952
 7237SOL    HW133347   0.070   0.324   3.774  0.2451 -0.6807 -0.1326
 7237SOL    HW233348   4.667   0.366   3.815 -1.6234 -0.6747 -0.3729
 7238SOL     OW33349   2.353   0.408   8.613  0.1092 -0.8779  0.0613
 7238SOL    HW133350   2.390   0.390   8.699  1.1694 -0.6107 -0.3315
 7238SOL    HW233351   2.363   0.502   8.599 -0.1901 -0.8982 -0.3080
 7239SOL     OW33352   4.036   2.688   5.982 -0.1385 -0.0941  0.1042
 7239SOL    HW133353   4.065   2.606   6.022 -2.8360  0.1062  2.3944
 7239SOL    HW233354   4.006   2.747   6.051 -0.3013  0.2356 -0.2455
 7240SOL     OW33355   1.893   4.601   7.648 -0.6921  0.6035 -0.0106
 7240SOL    HW133356   1.894   4.563   7.560  0.2780 -2.1072  1.1554
 7240SOL    HW233357   1.809   4.569   7.680 -1.4926  0.1901 -2.4818
 7241SOL     OW33358   0.878   0.749   0.494  0.1982 -0.2807 -0.2302
 7241SOL    HW133359   0.957   0.697   0.480 -0.0359 -0.6320 -0.2268
 7241SOL    HW233360   0.882   0.791   0.408  1.1137  0.4605  0.1790
 7242SOL     OW33361   3.957   4.227   6.260 -0.2425  0.2493  0.0404
 7242SOL    HW133362   3.885   4.257   6.316 -0.1977  0.0864  0.1866
 7242SOL    HW233363   4.040   4.265   6.291 -0.0640  1.3507 -1.8193
 7243SOL     OW33364   2.042   0.699   2.811 -0.2747  0.0546  0.1041
 7243SOL    HW133365   2.119   0.717   2.757 -0.1215 -1.3202 -0.1418
 7243SOL    HW233366   1.966   0.717   2.755 -1.2908 -2.3521  0.7292
 7244SOL     OW33367   3.436   0.496   4.048 -0.2758 -0.1610 -0.1917
 7244SOL    HW133368   3.411   0.417   3.999 -0.4190 -0.0190 -0.3473
 7244SOL    HW233369   3.437   0.460   4.136  0.9571  1.0872  0.3041
 7245SOL     OW33370   2.743   1.112   5.588 -0.5351 -0.7102 -0.5728
 7245SOL    HW133371   2.657   1.072   5.599 -1.4656  1.3110 -0.4121
 7245SOL    HW233372   2.757   1.136   5.680  0.6711  2.9462 -1.7261
 7246SOL     OW33373   3.281   1.265   7.335 -0.8042 -0.2601  0.1311
 7246SOL    HW133374   3.284   1.359   7.321 -0.1508 -0.1353  1.1378
 7246SOL    HW233375   3.335   1.233   7.263  1.3557 -0.0530  1.6493
 7247SOL     OW33376   3.382   1.796   8.657 -0.1429 -0.4757 -0.0152
 7247SOL    HW133377   3.407   1.882   8.623 -1.0433  0.6316  2.0739
 7247SOL    HW233378   3.399   1.741   8.581  0.1229 -0.0661 -0.2533
 7248SOL     OW33379   4.361   1.251   8.096 -0.1248  0.5337 -0.8175
 7248SOL    HW133380   4.405   1.172   8.065 -1.9859  0.6644 -3.8589
 7248SOL    HW233381   4.402   1.321   8.043 -0.2425  1.9280  0.9262
 7249SOL     OW33382   1.073   2.838  12.799  0.3504 -0.0787 -0.6087
 7249SOL    HW133383   1.066   2.873  12.710  0.3078 -2.0525 -1.3716
 7249SOL    HW233384   1.151   2.783  12.795 -0.2430 -1.0096  0.5707
 7250SOL     OW33385   4.698   1.178   3.829 -0.3565 -0.8288 -0.0329
 7250SOL    HW133386   4.688   1.083   3.832  0.3560 -0.8719  0.9273
 7250SOL    HW233387   4.685   1.189   3.735  0.5916 -1.6092 -0.2492
 7251SOL     OW33388   0.897   0.221   9.392  0.1578 -0.3317 -0.3216
 7251SOL    HW133389   0.896   0.267   9.308  0.2987 -0.0549 -0.1712
 7251SOL    HW233390   0.809   0.236   9.426 -1.3041 -2.1653 -3.3339
 7252SOL     OW33391   4.523   3.939   2.271  0.3389 -0.3553  0.1833
 7252SOL    HW133392   4.577   4.016   2.292 -0.4439  0.0742  0.6441
 7252SOL    HW233393   4.585   3.896   2.213 -3.0279 -2.5014 -1.8693
 7253SOL     OW33394   0.125   3.893   5.097  0.3874  0.1620 -1.1770
 7253SOL    HW133395   0.136   3.985   5.121  1.1212 -0.0408 -0.7526
 7253SOL    HW233396   0.067   3.892   5.021 -2.6136 -2.4653  1.1722
 7254SOL     OW33397   2.083   1.486   3.463 -0.2370 -0.2271  0.2062
 7254SOL    HW133398   2.050   1.412   3.412  0.6625  1.1228 -2.2861
 7254SOL    HW233399   2.065   1.560   3.406  2.7687  0.8129  0.5997
 7255SOL     OW33400   0.370   2.114   6.068 -0.1262 -0.3947  0.0877
 7255SOL    HW133401   0.340   2.024   6.081 -1.1404  0.0765  1.0303
 7255SOL    HW233402   0.381   2.141   6.160  0.1217 -1.4035  0.3573
 7256SOL     OW33403   1.459   0.778   9.315 -0.6328 -0.0544 -0.7494
 7256SOL    HW133404   1.498   0.698   9.351  0.1953  0.6980  0.0192
 7256SOL    HW233405   1.529   0.810   9.259  0.1460 -1.6821 -0.6941
 7257SOL     OW33406   2.546   3.119   9.264  0.6869  0.5290 -0.0954
 7257SOL    HW133407   2.464   3.140   9.220  0.6483 -0.3654 -0.4349
 7257SOL    HW233408   2.569   3.207   9.295 -0.8099  0.9091 -0.0664
 7258SOL     OW33409   3.125   0.447   9.551 -0.5646  0.0613 -0.4105
 7258SOL    HW133410   3.147   0.536   9.580  0.5149  0.5024 -2.5089
 7258SOL    HW233411   3.047   0.428   9.602 -0.1119 -0.8810 -0.0773
 7259SOL     OW33412   0.871   3.574   3.424 -0.2011  0.2753 -0.0937
 7259SOL    HW133413   0.932   3.648   3.417 -0.1832  0.1404 -1.5368
 7259SOL    HW233414   0.861   3.575   3.519  2.4933  1.7124  0.1819
 7260SOL     OW33415   3.582   2.046   1.685 -0.1866  0.8892  0.0317
 7260SOL    HW133416   3.640   2.079   1.616 -0.4238  0.9238 -0.1517
 7260SOL    HW233417   3.625   2.069   1.767  0.0234  0.4755  0.0424
 7261SOL     OW33418   4.167   0.162  10.219  0.0480 -0.2385  0.1538
 7261SOL    HW133419   4.217   0.172  10.300  0.7159  1.2120 -0.4368
 7261SOL    HW233420   4.235   0.175  10.153 -0.5404  0.3728 -0.3313
 7262SOL     OW33421   0.734   0.075   5.596 -0.1421 -0.3386 -0.5845
 7262SOL    HW133422   0.787   0.109   5.524  0.3357  1.0844  0.4390
 7262SOL    HW233423   0.661   0.026   5.558  0.3845  0.5831 -2.8055
 7263SOL     OW33424   3.928   1.831  10.341  0.2885  0.2094  0.2180
 7263SOL    HW133425   3.923   1.915  10.387  0.6089  0.6137 -0.4777
 7263SOL    HW233426   4.022   1.817  10.331  0.0599  0.0508 -1.7952
 7264SOL     OW33427   4.623   1.079   3.221  0.3850 -0.1233 -0.0063
 7264SOL    HW133428   4.699   1.092   3.278  0.6357  2.4008 -0.9071
 7264SOL    HW233429   4.635   0.992   3.185  1.2365 -0.8198  1.9374
 7265SOL     OW33430   0.377   3.592  17.392 -0.0609  0.4682 -0.4073
 7265SOL    HW133431   0.463   3.634  17.402 -0.5283  1.4442 -0.5133
 7265SOL    HW233432   0.324   3.655  17.344  1.2446  2.0739  0.2625
 7266SOL     OW33433   4.691   4.322   8.641 -0.1204 -0.0552  0.2763
 7266SOL    HW133434   0.030   4.270   8.616 -1.1032 -0.0833 -2.6369
 7266SOL    HW233435   4.620   4.275   8.597 -1.0365  2.5240 -0.9609
 7267SOL     OW33436   0.152   3.989  17.707 -0.2290  0.8688 -0.5119
 7267SOL    HW133437   0.069   4.036  17.708  0.0727  1.4371 -2.4149
 7267SOL    HW233438   0.179   3.988   0.052 -0.4407 -1.8700 -0.4528
 7268SOL     OW33439   3.589   2.154   1.231 -0.3438  0.5647  0.1863
 7268SOL    HW133440   3.591   2.248   1.248  1.4977  0.2216  1.9825
 7268SOL    HW233441   3.633   2.132   1.314 -1.8656 -1.7870  0.3841
 7269SOL     OW33442   1.045   0.502   4.536  0.2853 -0.3628 -0.6175
 7269SOL    HW133443   1.078   0.592   4.543 -1.0297  0.0635  0.1351
 7269SOL    HW233444   1.121   0.454   4.502  0.4885 -1.8844  2.0041
 7270SOL     OW33445   1.651   3.127  10.982 -0.4138  0.3254  0.4950
 7270SOL    HW133446   1.596   3.120  11.060  0.6648 -0.3857  1.1989
 7270SOL    HW233447   1.599   3.074  10.921 -0.2586 -0.2840  0.8898
 7271SOL     OW33448   2.681   3.407  14.842  0.4997  0.2804 -0.3143
 7271SOL    HW133449   2.721   3.334  14.794 -0.8563 -1.9765  2.0019
 7271SOL    HW233450   2.750   3.473  14.834  0.2795  0.4154 -1.1041
 7272SOL     OW33451   2.826   4.726  12.791  0.6467  0.6541 -0.2339
 7272SOL    HW133452   2.784   4.672  12.858  0.2822  2.4572  0.9874
 7272SOL    HW233453   2.796   4.680  12.712 -3.0237  0.9095  1.0207
 7273SOL     OW33454   3.122   0.407   5.205  0.0715  0.3671 -0.4806
 7273SOL    HW133455   3.067   0.381   5.279  1.4659 -0.3492  0.3008
 7273SOL    HW233456   3.112   0.503   5.206 -2.1349  0.1128  1.0103
 7274SOL     OW33457   4.425   2.347   2.804  0.6174 -0.6772  0.2767
 7274SOL    HW133458   4.412   2.290   2.728 -0.8871 -0.2815  0.2386
 7274SOL    HW233459   4.428   2.432   2.760 -1.7284 -1.7933 -1.9840
 7275SOL     OW33460   3.691   4.164   6.106 -0.3195 -0.4289  0.2564
 7275SOL    HW133461   3.717   4.123   6.189 -0.0100 -2.3085 -0.7759
 7275SOL    HW233462   3.653   4.245   6.140 -0.7805 -0.2155 -0.7613
 7276SOL     OW33463   2.343   0.266   3.560  0.2113 -0.1039  0.1795
 7276SOL    HW133464   2.401   0.339   3.581  0.5183 -0.2477 -0.1753
 7276SOL    HW233465   2.253   0.300   3.553 -0.2573 -1.2862  0.4874
 7277SOL     OW33466   1.786   2.713   5.978  0.4590  0.1440 -0.0133
 7277SOL    HW133467   1.779   2.776   6.050  0.3579 -0.4464  0.4870
 7277SOL    HW233468   1.694   2.705   5.952  0.9187  0.7284 -1.8642
 7278SOL     OW33469   4.333   1.407   2.617 -0.4251  0.3361 -0.0908
 7278SOL    HW133470   4.283   1.483   2.646 -0.1245  0.3603  0.3645
 7278SOL    HW233471   4.413   1.427   2.665 -0.1565 -3.6532  1.0946
 7279SOL     OW33472   3.737   4.533  16.441  0.3770 -0.1990  0.2638
 7279SOL    HW133473   3.818   4.583  16.441  0.6352 -0.5869  1.7101
 7279SOL    HW233474   3.664   4.589  16.467  2.0516  0.7321  2.9842
 7280SOL     OW33475   3.758   4.390   5.318  0.1435 -0.1546  0.4481
 7280SOL    HW133476   3.811   4.312   5.303  0.4156  0.1706 -0.2970
 7280SOL    HW233477   3.725   4.370   5.405 -0.0004 -0.7235  0.2598
 7281SOL     OW33478   2.909   4.022   3.226 -0.6585  0.0430  0.5442
 7281SOL    HW133479   2.986   4.072   3.253  0.0583  0.8180 -2.9161
 7281SOL    HW233480   2.939   3.969   3.152 -1.6873 -0.8739  0.7761
 7282SOL     OW33481   3.930   2.360   2.034 -0.1224 -0.0078 -0.2992
 7282SOL    HW133482   3.878   2.415   1.976  0.5881  0.7904 -0.1789
 7282SOL    HW233483   3.945   2.416   2.110 -0.7497 -0.2332 -0.0049
 7283SOL     OW33484   3.991   2.727  12.600 -0.3416 -0.3706 -0.2431
 7283SOL    HW133485   3.936   2.698  12.527  0.4148  2.0228 -1.7617
 7283SOL    HW233486   4.028   2.808  12.565 -1.2292  0.8992  1.7606
 7284SOL     OW33487   1.263   1.888   5.818 -0.7009  0.3890 -0.4600
 7284SOL    HW133488   1.278   1.802   5.778 -0.2174  0.0314  0.4835
 7284SOL    HW233489   1.288   1.949   5.749  1.9373  0.6910  0.7682
 7285SOL     OW33490   2.295   4.101   5.091  0.2811  0.6211 -0.1893
 7285SOL    HW133491   2.243   4.166   5.138  0.7355  0.6573  0.2731
 7285SOL    HW233492   2.232   4.055   5.037  1.5519 -0.8146 -0.4608
 7286SOL     OW33493   4.704   2.458   7.329  0.3265 -0.2072  0.0934
 7286SOL    HW133494   4.727   2.396   7.399  0.9739 -0.0762 -0.0033
 7286SOL    HW233495   4.720   2.400   7.255 -0.4013 -0.4022  0.0906
 7287SOL     OW33496   2.405   1.082   6.015  0.6790  0.4159 -0.7878
 7287SOL    HW133497   2.359   1.045   6.089  1.6370 -0.9064 -0.8541
 7287SOL    HW233498   2.331   1.080   5.955 -0.4406 -0.5281  0.6607
 7288SOL     OW33499   2.748   4.292   0.407 -0.2792 -0.2671  0.3029
 7288SOL    HW133500   2.695   4.219   0.439  0.3574 -0.9730 -0.2348
 7288SOL    HW233501   2.727   4.274   0.315  0.5343  2.3631 -0.4057
 7289SOL     OW33502   1.824   4.671  12.065 -0.1062  0.2185  0.5117
 7289SOL    HW133503   1.767   4.606  12.023  2.9435 -1.5045 -1.0115
 7289SOL    HW233504   1.905   4.621  12.049 -0.0140  0.0060  1.6843
 7290SOL     OW33505   0.859   0.167   2.310 -0.5982  0.2003 -0.1645
 7290SOL    HW133506   0.933   0.173   2.370 -0.5857  0.1279 -0.1719
 7290SOL    HW233507   0.856   0.072   2.295  0.9349  0.5335 -2.6358
 7291SOL     OW33508   2.430   4.658   2.856 -0.1519  0.4169 -0.8747
 7291SOL    HW133509   2.349   4.617   2.825 -0.2098 -1.3968  1.6533
 7291SOL    HW233510   2.487   4.581   2.864  1.3258  1.6067 -0.0376
 7292SOL     OW33511   0.774   2.843   1.328  0.3303 -0.3282  0.3651
 7292SOL    HW133512   0.707   2.816   1.265  1.0823 -0.1474 -0.5095
 7292SOL    HW233513   0.857   2.819   1.287  0.2187  0.0465 -0.0732
 7293SOL     OW33514   4.123   2.167   6.058 -0.0890 -0.8636  0.1153
 7293SOL    HW133515   4.173   2.129   5.986 -1.7488 -2.6420 -0.0757
 7293SOL    HW233516   4.033   2.162   6.028 -0.2823  1.7490  0.2717
 7294SOL     OW33517   2.732   3.951   8.451  0.6173  0.3779  0.0393
 7294SOL    HW133518   2.663   3.988   8.396  0.1158 -1.2591 -0.4446
 7294SOL    HW233519   2.678   3.928   8.527  0.3757 -0.5233 -0.4095
 7295SOL     OW33520   1.976   0.451   2.026 -0.5987 -0.1025 -0.0239
 7295SOL    HW133521   2.001   0.358   2.027 -0.5435 -0.1253 -1.8238
 7295SOL    HW233522   1.894   0.440   2.074 -0.2724 -1.0626  0.3224
 7296SOL     OW33523   1.517   1.937   4.477  0.0065 -0.6593  0.2132
 7296SOL    HW133524   1.513   2.029   4.453  1.5565 -0.5062  0.5676
 7296SOL    HW233525   1.584   1.910   4.413 -0.1811  1.9296 -1.0545
 7297SOL     OW33526   0.220   0.976   7.811  0.1547  0.0294  0.7455
 7297SOL    HW133527   0.258   0.888   7.800 -0.9174 -0.4144  0.6046
 7297SOL    HW233528   0.243   1.002   7.722 -0.8306 -3.3405 -0.5071
 7298SOL     OW33529   3.194   0.952   0.172 -0.3913 -0.2243  0.2119
 7298SOL    HW133530   3.142   1.032   0.179  3.5240  2.3725 -0.0308
 7298SOL    HW233531   3.213   0.924   0.262 -0.2757 -1.0306 -0.0583
 7299SOL     OW33532   4.580   2.120  14.129 -0.1799  0.4440 -0.2285
 7299SOL    HW133533   4.624   2.140  14.211  2.5270  0.2880 -1.6326
 7299SOL    HW233534   4.497   2.166  14.142 -0.2931 -0.3655  1.8341
 7300SOL     OW33535   4.426   3.055   4.874  0.3692  0.3115  0.4199
 7300SOL    HW133536   4.452   3.125   4.815  0.7947  0.9228  1.3275
 7300SOL    HW233537   4.424   3.101   4.958 -1.6796 -1.4267  1.3261
 7301SOL     OW33538   1.222   0.133  12.673  0.1780 -0.2677 -0.2999
 7301SOL    HW133539   1.315   0.155  12.675 -0.0408  0.5596  0.6805
 7301SOL    HW233540   1.193   0.204  12.730 -0.1838 -0.2174 -0.5459
 7302SOL     OW33541   0.400   3.522   5.641 -0.5148  0.2647 -0.4535
 7302SOL    HW133542   0.446   3.556   5.564  1.5207  1.3281  1.2336
 7302SOL    HW233543   0.310   3.543   5.616 -1.0389 -1.8081 -0.3248
 7303SOL     OW33544   0.441   3.013   6.973 -0.2408  0.2613 -0.1838
 7303SOL    HW133545   0.497   2.979   7.043  0.5962 -2.5621 -2.2344
 7303SOL    HW233546   0.391   3.084   7.014 -0.0102  0.7177 -0.6838
 7304SOL     OW33547   2.985   1.197   2.614 -0.0877 -0.0625  0.3164
 7304SOL    HW133548   2.951   1.110   2.597 -0.2202 -0.4476  2.5014
 7304SOL    HW233549   2.933   1.251   2.556  0.4342  0.0287 -0.0643
 7305SOL     OW33550   1.664   0.925   9.193  0.1446 -0.7269 -0.2015
 7305SOL    HW133551   1.742   0.977   9.210 -0.6871  0.0421  1.2203
 7305SOL    HW233552   1.683   0.904   9.101  0.1290 -3.4081  0.4288
 7306SOL     OW33553   3.027   3.670   7.879  0.1322 -0.2124 -0.7603
 7306SOL    HW133554   3.044   3.608   7.807 -0.4411 -1.1625 -0.0869
 7306SOL    HW233555   3.024   3.755   7.836 -0.3865  1.7524  3.1719
 7307SOL     OW33556   0.951   0.271   3.584 -0.0805  0.6908 -0.2221
 7307SOL    HW133557   0.973   0.364   3.587 -0.4073  0.7857 -0.7125
 7307SOL    HW233558   1.035   0.233   3.559 -0.1282  1.5669 -1.7156
 7308SOL     OW33559   0.485   4.534   3.480 -0.3853 -0.0472  0.1910
 7308SOL    HW133560   0.492   4.565   3.570 -1.0039  2.5466 -0.6257
 7308SOL    HW233561   0.432   4.457   3.498 -1.5403  0.1737 -2.1515
 7309SOL     OW33562   4.006   3.990   6.113 -0.0927 -0.0727  0.0548
 7309SOL    HW133563   4.101   3.981   6.122  0.0121 -0.2690 -1.2606
 7309SOL    HW233564   3.990   4.075   6.154  0.9615 -0.9851  2.3476
 7310SOL     OW33565   1.195   4.578   2.619  0.1543 -0.0862  0.0906
 7310SOL    HW133566   1.271   4.617   2.663 -0.7862  0.9820  0.7767
 7310SOL    HW233567   1.228   4.499   2.576  0.9982 -0.2546  1.0439
 7311SOL     OW33568   1.037   0.077   2.531 -0.0842 -0.2026 -0.4611
 7311SOL    HW133569   1.119   0.125   2.540  0.8342 -2.3437  2.7568
 7311SOL    HW233570   1.072   4.724   2.533 -0.5299 -0.3663 -0.1092
 7312SOL     OW33571   2.003   3.865   8.486 -0.5579 -0.0158 -0.6850
 7312SOL    HW133572   1.953   3.939   8.453  0.1620  0.9279  0.3319
 7312SOL    HW233573   2.050   3.842   8.406 -0.8947 -1.7952 -0.3633
 7313SOL     OW33574   2.094   3.474   7.809  0.1107 -0.4665 -0.2260
 7313SOL    HW133575   2.040   3.425   7.747  1.7011  1.1976 -2.9449
 7313SOL    HW233576   2.020   3.525   7.841  1.1908 -0.3476  2.0596
 7314SOL     OW33577   0.105   0.203  11.543 -0.5537 -0.1753  0.0459
 7314SOL    HW133578   0.119   0.238  11.455  1.6590  1.4450  1.0601
 7314SOL    HW233579   0.144   0.272  11.597 -1.3584  0.8052 -0.6218
 7315SOL     OW33580   2.218   4.578   9.577 -0.0364 -0.4145 -0.2860
 7315SOL    HW133581   2.154   4.544   9.640 -0.7155 -0.6297 -1.0995
 7315SOL    HW233582   2.235   4.662   9.619  0.2807 -1.1236  1.0521
 7316SOL     OW33583   3.493   4.437   3.356  0.5893  0.2839  0.6124
 7316SOL    HW133584   3.520   4.372   3.421  0.5727  1.2153  1.5443
 7316SOL    HW233585   3.573   4.489   3.347  0.7803  0.3488  2.5593
 7317SOL     OW33586   0.376   4.392   0.881 -0.1395 -0.1627 -0.0739
 7317SOL    HW133587   0.414   4.420   0.798  0.0596 -2.8338 -0.8868
 7317SOL    HW233588   0.329   4.473   0.898 -1.4106 -0.6635 -1.2005
 7318SOL     OW33589   2.144   1.494   1.837  0.9035 -0.1041  0.2090
 7318SOL    HW133590   2.226   1.520   1.794  0.6509  0.8647  0.3108
 7318SOL    HW233591   2.177   1.449   1.915 -2.1375 -2.7310 -0.0219
 7319SOL     OW33592   3.975   0.187   4.000  0.2058  0.4486  0.0140
 7319SOL    HW133593   3.939   0.102   4.025  0.7973  0.6557  1.6097
 7319SOL    HW233594   3.969   0.237   4.082  1.5084 -2.4196  1.8756
 7320SOL     OW33595   2.241   2.317   3.091 -0.1262  0.5015  0.0747
 7320SOL    HW133596   2.242   2.273   3.007  0.2450  0.6572 -0.0045
 7320SOL    HW233597   2.335   2.313   3.112  0.0431 -0.6578 -0.9749
 7321SOL     OW33598   2.953   1.935   3.846 -0.2501  0.4783  0.5546
 7321SOL    HW133599   2.910   1.866   3.897  1.8947  0.0050  1.7422
 7321SOL    HW233600   2.993   1.984   3.918  1.6686  0.5176 -0.5420
 7322SOL     OW33601   2.565   3.771   4.133 -0.2782 -0.3517  0.0880
 7322SOL    HW133602   2.554   3.842   4.195 -1.1339 -1.4931  1.2299
 7322SOL    HW233603   2.638   3.720   4.170 -0.4168 -2.0409 -1.9529
 7323SOL     OW33604   0.800   0.542   3.332  0.1176 -0.4584 -0.6995
 7323SOL    HW133605   0.766   0.562   3.244  0.0155 -0.1645 -0.5942
 7323SOL    HW233606   0.737   0.575   3.396 -0.8758  2.4311 -3.1397
 7324SOL     OW33607   2.983   2.225  13.788  0.3684  0.0652 -0.2250
 7324SOL    HW133608   3.066   2.268  13.765 -0.1804  1.3352  0.1512
 7324SOL    HW233609   2.982   2.135  13.756  0.4740  0.2227 -0.6698
 7325SOL     OW33610   4.176   2.368   8.207 -0.2573 -0.4085  0.5682
 7325SOL    HW133611   4.224   2.301   8.159  0.3651 -0.9639  1.9952
 7325SOL    HW233612   4.127   2.309   8.264  0.7816 -0.8927  0.9496
 7326SOL     OW33613   2.446   3.117   0.149 -0.1335 -0.4057  0.0204
 7326SOL    HW133614   2.404   3.068   0.220 -1.7340 -0.5108 -0.9917
 7326SOL    HW233615   2.434   3.210   0.168  1.0352 -0.0667 -0.9372
 7327SOL     OW33616   3.038   0.798   1.810 -0.2587  0.7346  0.1704
 7327SOL    HW133617   3.110   0.849   1.848  1.0607 -1.3333  0.4284
 7327SOL    HW233618   2.958   0.828   1.853 -0.8698  0.5375 -0.8259
 7328SOL     OW33619   0.694   1.695   9.142 -0.5081  0.2629  0.0577
 7328SOL    HW133620   0.666   1.780   9.110  1.0289  0.7891  0.0869
 7328SOL    HW233621   0.727   1.721   9.228  0.5372  1.6416 -0.7593
 7329SOL     OW33622   3.538   4.383   3.666  0.2695 -0.0963  0.0295
 7329SOL    HW133623   3.574   4.396   3.754 -0.6454 -0.6963  0.4913
 7329SOL    HW233624   3.623   4.371   3.624  0.6852  0.2286  0.7824
 7330SOL     OW33625   3.257   2.515   7.874  0.5245  0.1354 -0.4925
 7330SOL    HW133626   3.163   2.535   7.871  0.0505 -1.7522  2.1163
 7330SOL    HW233627   3.287   2.593   7.920  1.5454  0.4115 -1.6199
 7331SOL     OW33628   2.199   2.917   6.518 -0.1501  0.6102 -0.7857
 7331SOL    HW133629   2.226   2.974   6.590  1.6346 -1.1199 -0.0733
 7331SOL    HW233630   2.106   2.908   6.535 -0.3021 -0.1331 -2.0408
 7332SOL     OW33631   0.424   1.603   5.003 -0.2787 -0.1027 -0.1377
 7332SOL    HW133632   0.385   1.645   5.080  1.7541  0.6528  0.4769
 7332SOL    HW233633   0.372   1.648   4.936  0.0088  0.3296 -0.0697
 7333SOL     OW33634   3.097   2.843   1.359 -0.0507 -0.2077 -0.4298
 7333SOL    HW133635   3.151   2.845   1.438 -2.0103  1.0077  0.8900
 7333SOL    HW233636   3.023   2.794   1.397 -0.1932  0.3239 -0.0273
 7334SOL     OW33637   0.759   1.466  15.857 -0.1078 -0.2643 -0.2893
 7334SOL    HW133638   0.776   1.485  15.949 -1.3173  1.1773 -0.3614
 7334SOL    HW233639   0.840   1.419  15.837 -1.3548 -3.1765  1.5798
 7335SOL     OW33640   1.475   0.536   4.996 -0.0817  0.0511  0.5985
 7335SOL    HW133641   1.537   0.607   4.981  0.0053  0.3002  2.0842
 7335SOL    HW233642   1.494   0.515   5.088  0.3884  0.6910  0.6483
 7336SOL     OW33643   1.542   4.561  17.200  0.1967  0.0277  0.0336
 7336SOL    HW133644   1.481   4.601  17.137 -0.1411  0.0457  0.3692
 7336SOL    HW233645   1.548   4.637  17.258  1.5630 -1.5123  1.8900
 7337SOL     OW33646   0.276   2.336   0.781  0.1417 -0.7581  0.1370
 7337SOL    HW133647   0.265   2.429   0.801  3.2787 -0.3963  0.0892
 7337SOL    HW233648   0.259   2.284   0.860 -0.9574  0.8185  0.9367
 7338SOL     OW33649   2.704   2.782   6.953  0.1533  0.5026  0.2297
 7338SOL    HW133650   2.797   2.796   6.934  0.0912 -0.8151 -1.0817
 7338SOL    HW233651   2.672   2.776   6.863  1.0135 -1.8327  0.0707
 7339SOL     OW33652   1.174   1.914   3.725 -0.0497 -0.2498 -0.1349
 7339SOL    HW133653   1.082   1.887   3.722  0.5969 -2.5149  0.9342
 7339SOL    HW233654   1.185   1.966   3.804  1.8159  1.8227 -1.7744
 7340SOL     OW33655   3.733   3.790   1.341  0.1648  0.4575  0.4562
 7340SOL    HW133656   3.640   3.801   1.319  0.2139  1.6329  0.8316
 7340SOL    HW233657   3.776   3.851   1.281 -1.5167  1.8841  0.7112
 7341SOL     OW33658   3.037   4.187   4.759  0.3480  0.3549 -0.2810
 7341SOL    HW133659   3.063   4.241   4.834  0.0014  0.3111 -0.1318
 7341SOL    HW233660   2.970   4.240   4.717 -2.2956 -2.7446  0.0462
 7342SOL     OW33661   1.954   2.155  14.235 -0.2848 -0.1536  0.4490
 7342SOL    HW133662   1.958   2.146  14.139 -1.7093 -0.0747  0.3825
 7342SOL    HW233663   2.045   2.148  14.261  0.5810 -0.8113 -2.6719
 7343SOL     OW33664   0.383   1.344   7.554 -0.0686  0.1235  0.3697
 7343SOL    HW133665   0.320   1.323   7.485  0.4464  0.5516 -0.2379
 7343SOL    HW233666   0.325   1.322   7.627  1.4725 -0.7520  1.3299
 7344SOL     OW33667   3.505   0.626   7.817  0.4345 -0.3465 -0.1053
 7344SOL    HW133668   3.546   0.581   7.891  1.0266  2.5410  1.3478
 7344SOL    HW233669   3.467   0.708   7.848 -0.6189 -1.0988  0.5896
 7345SOL     OW33670   1.366   4.586   8.231  0.2756  0.2143 -0.0659
 7345SOL    HW133671   1.407   4.578   8.317 -0.9564  2.0799  0.7121
 7345SOL    HW233672   1.411   4.520   8.178  2.5609  1.6116  0.1522
 7346SOL     OW33673   0.235   2.530   3.371 -0.0951 -0.2621 -0.2897
 7346SOL    HW133674   0.281   2.471   3.431  1.3577  0.3276 -0.8502
 7346SOL    HW233675   0.301   2.598   3.360 -1.5460  1.5465  2.0268
 7347SOL     OW33676   2.607   2.660   6.280  0.4032 -0.2078  0.3940
 7347SOL    HW133677   2.609   2.718   6.205  0.4687  0.1165  0.6463
 7347SOL    HW233678   2.551   2.715   6.336  0.2657  1.6484 -1.5843
 7348SOL     OW33679   4.593   4.136   2.796  0.1395  0.6969 -0.1348
 7348SOL    HW133680   4.678   4.093   2.792 -0.9166 -1.7092  2.9695
 7348SOL    HW233681   4.549   4.068   2.745  0.6597  1.0037 -0.9900
 7349SOL     OW33682   4.220   1.043   1.255  0.6666 -0.4228  0.2787
 7349SOL    HW133683   4.249   0.977   1.317 -1.9470 -0.7702  1.0998
 7349SOL    HW233684   4.280   1.111   1.286 -0.7191  1.6827 -1.6798
 7350SOL     OW33685   4.042   2.574   8.662 -0.6152  0.1794 -0.4299
 7350SOL    HW133686   4.130   2.564   8.627 -0.9293  0.9713 -1.4384
 7350SOL    HW233687   3.987   2.522   8.604 -0.7154 -2.1795  1.7576
 7351SOL     OW33688   0.481   0.446   3.051 -0.2088 -0.4224  0.1551
 7351SOL    HW133689   0.560   0.457   3.103 -0.4434 -2.9611  1.0675
 7351SOL    HW233690   0.467   0.351   3.048  2.4960 -0.8169  0.6154
 7352SOL     OW33691   0.297   3.690   8.206 -0.5923  0.0049 -0.5492
 7352SOL    HW133692   0.297   3.613   8.149 -1.3918 -1.8052  1.9192
 7352SOL    HW233693   0.389   3.714   8.191 -0.3509 -0.7934 -0.3668
 7353SOL     OW33694   3.106   2.062   5.075  0.0173  0.0222 -0.1149
 7353SOL    HW133695   3.156   2.133   5.114 -2.6728  1.6585  0.3852
 7353SOL    HW233696   3.171   2.043   5.008  0.6355  1.6860  0.0164
 7354SOL     OW33697   0.011   3.889   7.247 -0.3206 -0.1358 -0.3031
 7354SOL    HW133698   0.023   3.936   7.164 -1.3082  1.0029  0.1994
 7354SOL    HW233699   4.663   3.926   7.269 -0.4304 -0.3703 -0.3354
 7355SOL     OW33700   2.539   0.406   7.882  0.2269  0.3830 -0.1383
 7355SOL    HW133701   2.498   0.425   7.967  1.4830 -1.0833  0.7924
 7355SOL    HW233702   2.623   0.381   7.920  0.6771 -0.9257 -2.0543
 7356SOL     OW33703   4.066   1.123   3.964  0.4204 -0.1002  0.4207
 7356SOL    HW133704   3.989   1.066   3.955 -0.2172  1.2257 -2.4800
 7356SOL    HW233705   4.025   1.209   3.961 -0.9877 -0.8217 -1.0866
 7357SOL     OW33706   0.472   0.020  16.074  0.0141 -0.0021 -0.6970
 7357SOL    HW133707   0.462   4.663  16.087 -1.0345  0.4211  1.6286
 7357SOL    HW233708   0.377   0.033  16.072  0.0608  0.1192 -1.9440
 7358SOL     OW33709   1.364   3.142   2.335  0.3853  0.0271 -0.5862
 7358SOL    HW133710   1.420   3.204   2.287  0.2256  0.3427 -0.3703
 7358SOL    HW233711   1.366   3.189   2.419  0.1396 -3.5795  1.4256
 7359SOL     OW33712   3.623   3.124   7.852 -0.1673  0.1339 -0.2530
 7359SOL    HW133713   3.570   3.204   7.848 -2.1248 -1.1900 -0.4778
 7359SOL    HW233714   3.603   3.090   7.939 -1.4373 -0.3278 -0.7307
 7360SOL     OW33715   4.161   4.528   3.868 -0.3419  0.8486 -0.2295
 7360SOL    HW133716   4.190   4.532   3.777 -1.3399 -2.1349 -0.6600
 7360SOL    HW233717   4.070   4.500   3.858 -0.3335  0.3764  1.0159
 7361SOL     OW33718   1.445   0.845  10.773  0.0059  0.5263 -0.2462
 7361SOL    HW133719   1.475   0.794  10.698  2.4795  1.2135  0.2708
 7361SOL    HW233720   1.378   0.896  10.728  0.2881  1.0152 -0.1097
 7362SOL     OW33721   2.219   4.708  13.041  0.2250  0.2634  0.3060
 7362SOL    HW133722   2.132   4.675  13.018  1.5293 -0.6094 -3.4010
 7362SOL    HW233723   2.248   4.622  13.072 -0.4878  0.4356  1.4557
 7363SOL     OW33724   0.757   2.213   9.558 -0.4960  0.5745  0.2331
 7363SOL    HW133725   0.720   2.276   9.496 -0.3210  0.4329 -0.0130
 7363SOL    HW233726   0.678   2.198   9.610 -0.1560 -1.1307  0.2662
 7364SOL     OW33727   2.930   1.321   4.068 -0.6318  0.6045  0.0822
 7364SOL    HW133728   2.979   1.241   4.088 -2.1079 -0.2419  0.3290
 7364SOL    HW233729   2.906   1.335   4.160 -0.4202  0.6523  0.1313
 7365SOL     OW33730   0.190   4.118  17.165  0.1558  0.8004 -0.4326
 7365SOL    HW133731   0.099   4.143  17.152 -0.2250  0.9447  2.4356
 7365SOL    HW233732   0.189   4.112  17.261  0.9308  0.5625 -0.4326
 7366SOL     OW33733   1.996   0.127   8.682 -0.2731  0.1498 -0.3006
 7366SOL    HW133734   2.021   0.201   8.738 -0.7204 -0.0291  0.1326
 7366SOL    HW233735   1.967   0.064   8.748  0.6821 -1.2161 -1.1672
 7367SOL     OW33736   0.256   1.641   8.256  0.0806 -0.3234  0.1243
 7367SOL    HW133737   0.198   1.682   8.321  1.0314 -1.3259  1.6119
 7367SOL    HW233738   0.324   1.613   8.317  0.2046 -0.1972  0.0434
 7368SOL     OW33739   4.530   4.624   8.412  0.5418 -0.3618  0.3502
 7368SOL    HW133740   4.499   4.562   8.479 -2.3322  0.8301  0.1093
 7368SOL    HW233741   4.533   4.565   8.337  0.6345  0.8514 -0.5992
 7369SOL     OW33742   3.191   0.255   1.832 -0.1668 -0.2699 -0.0767
 7369SOL    HW133743   3.245   0.300   1.767 -0.5839 -0.3763 -0.4946
 7369SOL    HW233744   3.248   0.182   1.855  0.4652  0.9565  2.2321
 7370SOL     OW33745   0.372   3.074   6.665 -0.0040  0.1950 -0.0649
 7370SOL    HW133746   0.417   3.090   6.748  0.7508 -3.7923  0.3002
 7370SOL    HW233747   0.420   3.119   6.596 -0.5914 -1.0346 -1.2856
 7371SOL     OW33748   0.150   4.637   7.597  0.3030  0.0583  0.3277
 7371SOL    HW133749   0.238   4.617   7.564 -1.0558 -0.9363 -2.7076
 7371SOL    HW233750   0.134   4.717   7.547 -0.9154  0.4168  1.3089
 7372SOL     OW33751   2.968   0.323  14.278  0.0469 -0.7154 -0.2742
 7372SOL    HW133752   3.051   0.335  14.232 -0.2810  1.0474 -0.4186
 7372SOL    HW233753   3.001   0.305  14.366  0.1805 -1.2964 -0.4444
 7373SOL     OW33754   4.212   1.175   2.680  0.1655  0.1632 -0.6152
 7373SOL    HW133755   4.275   1.174   2.752 -1.3936  0.7143  0.7684
 7373SOL    HW233756   4.233   1.261   2.646  1.6881  0.3994  0.9464
 7374SOL     OW33757   3.737   0.447   7.470  0.3906 -0.7126 -0.6663
 7374SOL    HW133758   3.769   0.360   7.446  1.1467 -1.0176  1.4200
 7374SOL    HW233759   3.810   0.481   7.522  0.5401 -1.4205 -0.4077
 7375SOL     OW33760   1.256   1.322   3.025 -0.2606  0.2730 -0.0029
 7375SOL    HW133761   1.290   1.241   3.062 -0.0753 -0.2376 -1.3129
 7375SOL    HW233762   1.213   1.293   2.945  2.9184 -1.3586 -1.0819
 7376SOL     OW33763   3.460   2.029   5.194  0.0708  0.8839 -0.3496
 7376SOL    HW133764   3.498   1.981   5.121 -1.0162 -0.1827 -0.2215
 7376SOL    HW233765   3.503   2.114   5.203  1.6258 -0.0088  0.6446
 7377SOL     OW33766   0.366   2.391  14.701 -0.1045 -0.3840 -0.2070
 7377SOL    HW133767   0.363   2.300  14.732 -1.3629  0.1456  1.2077
 7377SOL    HW233768   0.365   2.442  14.782 -2.8976 -1.6774  0.5792
 7378SOL     OW33769   0.585   2.386   4.378  0.2512 -0.0518  0.4881
 7378SOL    HW133770   0.603   2.302   4.335  0.2021 -0.5487  1.4426
 7378SOL    HW233771   0.676   2.416   4.379  1.1538 -2.7133 -0.5683
 7379SOL     OW33772   4.226   4.387  11.176  0.4213 -0.3209  0.2150
 7379SOL    HW133773   4.209   4.403  11.269 -2.5028 -0.9511 -0.2176
 7379SOL    HW233774   4.297   4.322  11.179  0.8149  0.0380 -1.3959
 7380SOL     OW33775   0.153   3.371   8.189  0.4188 -0.5026 -0.8454
 7380SOL    HW133776   0.115   3.299   8.138  0.1262  2.5068 -4.7889
 7380SOL    HW233777   0.132   3.444   8.131 -1.1871 -0.7902 -0.6384
 7381SOL     OW33778   3.492   4.591   8.065 -0.1869 -0.5688  0.2273
 7381SOL    HW133779   3.412   4.548   8.097 -1.5388  2.8709  1.5002
 7381SOL    HW233780   3.544   4.603   8.145  0.8388 -0.1714 -0.5071
 7382SOL     OW33781   4.238   1.534   5.908  0.0287 -0.1741  0.2552
 7382SOL    HW133782   4.202   1.466   5.851  1.7954  0.6499 -1.8576
 7382SOL    HW233783   4.173   1.539   5.978 -0.0317 -0.0948  0.1935
 7383SOL     OW33784   1.277   1.677   3.280 -0.1295 -0.4828 -0.1822
 7383SOL    HW133785   1.188   1.652   3.256  0.0627 -2.0329  0.6959
 7383SOL    HW233786   1.276   1.769   3.253 -0.3467 -0.2288  0.7252
 7384SOL     OW33787   0.216   1.544   7.833 -0.2935  0.0213 -0.5554
 7384SOL    HW133788   0.154   1.532   7.905 -1.3736 -2.9883 -2.0167
 7384SOL    HW233789   0.179   1.620   7.787  1.4716  0.0202 -1.9740
 7385SOL     OW33790   1.555   1.084   2.782 -0.2852 -0.2700  0.2527
 7385SOL    HW133791   1.582   0.999   2.747  0.3617 -0.8810  2.2651
 7385SOL    HW233792   1.633   1.114   2.829  0.3895  0.2778 -1.2024
 7386SOL     OW33793   3.307   1.359   0.808  0.0681 -0.0883 -0.1280
 7386SOL    HW133794   3.282   1.414   0.882  1.1924 -1.7126  1.4767
 7386SOL    HW233795   3.238   1.369   0.742 -1.6357  1.4411  1.8854
 7387SOL     OW33796   3.125   1.750   6.837  0.4871  0.2813  0.0560
 7387SOL    HW133797   3.215   1.720   6.851  0.5088  0.2191 -0.2089
 7387SOL    HW233798   3.108   1.795   6.920 -0.1709  0.3336 -0.1072
 7388SOL     OW33799   3.358   1.609  13.425  0.6699  0.2461  0.8669
 7388SOL    HW133800   3.315   1.695  13.428 -0.1484 -0.2110  2.0900
 7388SOL    HW233801   3.441   1.626  13.469  1.8937 -0.3969 -1.2061
 7389SOL     OW33802   0.805   3.158   7.189 -0.0747  0.7117 -0.1067
 7389SOL    HW133803   0.815   3.222   7.259 -1.8025  0.6709  0.1948
 7389SOL    HW233804   0.732   3.103   7.221  0.6646  0.1532  0.6231
 7390SOL     OW33805   1.745   1.973  11.998 -0.1087  0.3525  0.6136
 7390SOL    HW133806   1.650   1.985  11.995 -0.2347 -1.6107 -2.3579
 7390SOL    HW233807   1.758   1.932  12.084 -1.2419 -0.3611  0.4407
 7391SOL     OW33808   2.800   3.649   4.277  0.1253 -0.0053  0.3768
 7391SOL    HW133809   2.877   3.695   4.312  0.8179 -0.9594  0.0996
 7391SOL    HW233810   2.738   3.665   4.348 -2.1324  0.4268 -1.7111
 7392SOL     OW33811   2.975   3.269   9.643  0.1235 -0.3325  0.1112
 7392SOL    HW133812   3.048   3.208   9.655 -0.7171 -1.0597  1.6496
 7392SOL    HW233813   3.005   3.338   9.584  0.4771 -0.7429 -0.1890
 7393SOL     OW33814   4.267   0.085  12.838 -0.1450 -0.4195  0.4113
 7393SOL    HW133815   4.276   0.155  12.774  1.2163 -1.3788 -0.4380
 7393SOL    HW233816   4.351   0.088  12.885  0.1693 -1.4357 -0.1055
 7394SOL     OW33817   0.699   3.616  15.550 -0.4006 -0.3845 -0.2763
 7394SOL    HW133818   0.743   3.535  15.524 -2.0475 -1.7392  1.1828
 7394SOL    HW233819   0.738   3.677  15.487 -0.7196 -0.2973 -0.3865
 7395SOL     OW33820   0.465   3.888  15.536  1.1221 -0.1152 -0.4259
 7395SOL    HW133821   0.398   3.834  15.578 -0.6313  1.5698 -1.0697
 7395SOL    HW233822   0.497   3.833  15.465  0.7731  0.6487 -1.1793
 7396SOL     OW33823   0.939   0.538   4.054  0.4506  0.1614  0.0447
 7396SOL    HW133824   1.026   0.568   4.027  1.0855 -1.1797  0.6369
 7396SOL    HW233825   0.894   0.566   3.974  0.3568 -3.3330 -1.1235
 7397SOL     OW33826   2.194   2.330   3.773  0.2583 -0.1111 -0.3611
 7397SOL    HW133827   2.256   2.265   3.805  0.6652  0.7192  0.5367
 7397SOL    HW233828   2.245   2.359   3.697  0.4970 -0.9428 -0.5216
 7398SOL     OW33829   4.161   4.347   7.599  0.0339  0.9159 -0.4742
 7398SOL    HW133830   4.114   4.291   7.538  0.5484  1.6690 -1.5795
 7398SOL    HW233831   4.223   4.391   7.541  1.8678 -1.4230 -0.3096
 7399SOL     OW33832   0.644   0.631   2.315  0.3340  0.4625 -0.6404
 7399SOL    HW133833   0.612   0.630   2.405 -3.1077  1.3711 -1.8530
 7399SOL    HW233834   0.691   0.547   2.315  0.5343  0.5753 -0.6156
 7400SOL     OW33835   2.339   2.049   2.108  0.8814 -0.1428 -0.4514
 7400SOL    HW133836   2.328   2.057   2.014  1.6754  1.5270 -0.4080
 7400SOL    HW233837   2.356   2.140   2.136 -2.3301 -0.1611  1.5253
 7401SOL     OW33838   3.273   3.437  10.179 -0.0018  0.5643 -0.0146
 7401SOL    HW133839   3.254   3.353  10.221 -0.0285  0.8602  0.5692
 7401SOL    HW233840   3.184   3.461  10.152  0.2286  1.4934  0.0615
 7402SOL     OW33841   3.486   0.617   6.974  0.6282  0.4499 -0.3792
 7402SOL    HW133842   3.429   0.632   6.899  0.6349  0.2556 -0.4237
 7402SOL    HW233843   3.536   0.698   6.987 -1.0751  1.4930 -0.4215
 7403SOL     OW33844   2.394   2.391   1.911  0.2657 -0.0182 -0.3856
 7403SOL    HW133845   2.392   2.299   1.886  0.1585  0.3313 -1.6790
 7403SOL    HW233846   2.310   2.413   1.871 -1.5262 -0.9109  2.9088
 7404SOL     OW33847   3.971   4.558  14.056  0.5608  0.0384 -0.2351
 7404SOL    HW133848   3.951   4.478  14.008  1.0921 -1.1615  1.5308
 7404SOL    HW233849   3.923   4.545  14.138  3.3709 -0.7463  1.2604
 7405SOL     OW33850   2.316   2.470   5.665 -0.0205 -0.0747  0.7169
 7405SOL    HW133851   2.334   2.564   5.656  0.4797 -0.3729 -1.4729
 7405SOL    HW233852   2.245   2.463   5.601 -0.8779  0.6823  1.5807
 7406SOL     OW33853   4.372   4.470   7.462  0.4631  0.3195 -0.1594
 7406SOL    HW133854   4.385   4.531   7.390  0.7584  0.4589  0.0108
 7406SOL    HW233855   4.388   4.517   7.543  1.5861  1.5172 -1.0826
 7407SOL     OW33856   3.280   0.916   7.548  0.2040  0.3849  0.2734
 7407SOL    HW133857   3.238   1.001   7.559 -1.5225  0.0227 -3.4960
 7407SOL    HW233858   3.289   0.889   7.640  0.2350 -2.2342 -0.5049
 7408SOL     OW33859   3.856   3.229  10.955 -0.2924 -0.0788  0.1307
 7408SOL    HW133860   3.789   3.196  10.896  0.5005 -0.1029 -0.7591
 7408SOL    HW233861   3.914   3.279  10.897  2.0239 -3.1293 -0.1875
 7409SOL     OW33862   2.917   1.542  17.151 -0.5983  0.1656 -0.2368
 7409SOL    HW133863   2.967   1.522  17.072  0.5958  1.1944  0.2636
 7409SOL    HW233864   2.847   1.581  17.099 -0.9634 -1.4634 -0.9897
 7410SOL     OW33865   0.647   0.945  16.383  0.1599  0.2678 -0.5962
 7410SOL    HW133866   0.575   0.962  16.322 -1.3037 -0.0934  1.0209
 7410SOL    HW233867   0.661   1.036  16.411  4.6050 -1.1733  1.9246
 7411SOL     OW33868   0.137   1.212  13.908  0.7677 -0.5887  1.0455
 7411SOL    HW133869   0.084   1.137  13.879 -0.2749  2.0876 -4.0285
 7411SOL    HW233870   0.225   1.186  13.882 -0.2164 -3.1460  0.2420
 7412SOL     OW33871   0.883   2.023   7.621 -0.0328 -0.1628  0.0162
 7412SOL    HW133872   0.971   1.987   7.625 -0.1752 -0.3629  1.3517
 7412SOL    HW233873   0.836   1.965   7.681 -2.0863  0.2648 -1.1624
 7413SOL     OW33874   0.262   4.723   9.102  0.2737  0.5793  0.3543
 7413SOL    HW133875   0.339   0.038   9.125  0.9207  0.6457 -2.0014
 7413SOL    HW233876   0.305   4.639   9.090 -2.0485 -0.8665  2.0015
 7414SOL     OW33877   3.852   2.146   5.728  0.0827  0.1264  0.3384
 7414SOL    HW133878   3.944   2.123   5.714  0.5951  2.1647  0.4832
 7414SOL    HW233879   3.842   2.240   5.719  2.5684  0.0933 -2.9231
 7415SOL     OW33880   1.572   2.443  16.899 -0.1440  0.5140 -0.2516
 7415SOL    HW133881   1.602   2.353  16.884 -0.3036  0.3493  0.4075
 7415SOL    HW233882   1.497   2.441  16.841  0.8861 -2.1512 -1.4743
 7416SOL     OW33883   3.214   2.321   0.698 -0.0288 -0.0894 -0.0918
 7416SOL    HW133884   3.199   2.344   0.607  1.8678 -0.2525 -0.4402
 7416SOL    HW233885   3.307   2.302   0.693 -0.1497 -0.1705 -1.8036
 7417SOL     OW33886   4.407   2.188   8.338 -0.3109 -0.7810 -0.5023
 7417SOL    HW133887   4.342   2.246   8.379  0.2337 -0.0854 -0.6180
 7417SOL    HW233888   4.467   2.251   8.298  0.2591 -1.4755 -0.7224
 7418SOL     OW33889   1.213   2.682   7.225  0.0450 -0.3815 -0.0872
 7418SOL    HW133890   1.251   2.637   7.301 -0.7170 -1.6308 -0.4438
 7418SOL    HW233891   1.257   2.635   7.154  1.6053  1.2579 -0.1856
 7419SOL     OW33892   0.465   1.352   9.038  0.1146 -0.1704  0.2031
 7419SOL    HW133893   0.408   1.399   9.098  1.4215  0.4342  0.9805
 7419SOL    HW233894   0.407   1.292   8.991 -0.7501  1.4702 -0.8167
 7420SOL     OW33895   2.308   2.809   7.206 -0.5114  0.4490  0.1361
 7420SOL    HW133896   2.322   2.859   7.287 -2.4605 -0.5036  1.0657
 7420SOL    HW233897   2.380   2.841   7.152  0.8498 -0.7154  1.2665
 7421SOL     OW33898   2.912   2.252  16.810 -0.0871 -0.1546 -0.4019
 7421SOL    HW133899   2.834   2.290  16.851  0.9234  1.3708  0.0955
 7421SOL    HW233900   2.952   2.202  16.881  0.1115 -1.7283 -1.6016
 7422SOL     OW33901   1.894   1.622   7.212 -0.1423 -0.0148  0.1763
 7422SOL    HW133902   1.977   1.574   7.217 -1.2364 -1.8606  0.8122
 7422SOL    HW233903   1.862   1.607   7.301  2.7087 -0.6335  1.1091
 7423SOL     OW33904   3.884   3.847   0.290  0.7450 -0.0841  0.1528
 7423SOL    HW133905   3.889   3.771   0.348 -1.1369  0.2340  0.7258
 7423SOL    HW233906   3.973   3.878   0.308  0.6837  0.7056 -0.9077
 7424SOL     OW33907   3.768   1.757   7.342 -0.8870  0.2773 -0.2576
 7424SOL    HW133908   3.758   1.758   7.247  0.6823 -1.5041 -0.4398
 7424SOL    HW233909   3.724   1.836   7.373  1.8607  1.5103  0.4613
 7425SOL     OW33910   1.706   1.152   7.362 -0.3406  0.4931  0.3633
 7425SOL    HW133911   1.795   1.176   7.337 -0.0961  0.1801  0.9414
 7425SOL    HW233912   1.703   1.183   7.453  0.2089 -2.7261  1.4723
 7426SOL     OW33913   3.838   0.735   2.979  0.3015  0.0411 -0.4414
 7426SOL    HW133914   3.757   0.747   3.028 -0.4238 -2.1919 -1.0639
 7426SOL    HW233915   3.882   0.661   3.020 -1.3775 -0.9013 -0.3125
 7427SOL     OW33916   3.504   0.454   7.205 -0.3092 -0.0938  0.3191
 7427SOL    HW133917   3.476   0.517   7.271 -1.5622 -3.2559  2.7758
 7427SOL    HW233918   3.495   0.510   7.128 -0.4367 -0.6387 -0.0629
 7428SOL     OW33919   2.002   0.823  12.780  0.4323  0.2169  0.2625
 7428SOL    HW133920   1.957   0.740  12.766  1.5922 -0.1393 -1.3348
 7428SOL    HW233921   1.989   0.867  12.696  1.9005 -0.6804 -0.4294
 7429SOL     OW33922   4.620   0.843   7.404 -0.3990 -0.4973 -0.3222
 7429SOL    HW133923   4.532   0.815   7.379 -0.0703 -0.2927 -1.7197
 7429SOL    HW233924   4.657   0.762   7.440 -3.2779 -1.3689  0.6668
 7430SOL     OW33925   2.640   1.860   3.787  0.5187 -0.1804  0.4923
 7430SOL    HW133926   2.660   1.767   3.793 -1.2480 -0.4050  3.1618
 7430SOL    HW233927   2.654   1.879   3.695 -0.3885 -1.6026  0.0652
 7431SOL     OW33928   0.501   3.489   4.935  0.0926 -0.1475 -0.0883
 7431SOL    HW133929   0.430   3.542   4.972  0.0973 -0.8802  0.9842
 7431SOL    HW233930   0.580   3.538   4.956  0.0060 -0.8842  1.9758
 7432SOL     OW33931   1.642   4.440  12.088 -0.6069  0.7510  0.1346
 7432SOL    HW133932   1.616   4.374  12.152 -0.5606 -1.0190 -1.6536
 7432SOL    HW233933   1.649   4.385  12.009 -1.2662  1.0212 -0.1107
 7433SOL     OW33934   4.270   4.687   4.074  0.2669 -0.7228 -0.4184
 7433SOL    HW133935   4.286   0.015   4.005  2.1095  1.3211  1.9214
 7433SOL    HW233936   4.228   4.616   4.025 -1.3975  1.8196 -2.6819
 7434SOL     OW33937   1.643   0.129   3.425 -0.0252  0.0508 -0.3200
 7434SOL    HW133938   1.584   0.176   3.366  1.0765  0.4421 -1.0893
 7434SOL    HW233939   1.727   0.171   3.407  1.1458 -0.3616  4.1125
 7435SOL     OW33940   3.760   2.974  12.247  0.4102 -0.3552  0.1263
 7435SOL    HW133941   3.684   3.031  12.261  0.0673 -0.1751 -2.4543
 7435SOL    HW233942   3.832   3.010  12.298 -0.0747  2.2871 -1.0375
 7436SOL     OW33943   2.211   0.548   4.807  0.3550 -0.7784  0.3188
 7436SOL    HW133944   2.208   0.634   4.849  1.5938 -0.7670  0.3792
 7436SOL    HW233945   2.187   0.491   4.880 -0.9287  0.7724  1.0855
 7437SOL     OW33946   2.303   1.052   5.319 -1.0050 -0.3040  0.0486
 7437SOL    HW133947   2.234   1.015   5.374 -0.2559 -2.1019 -0.2062
 7437SOL    HW233948   2.265   1.097   5.244  1.8952  2.3218  0.1562
 7438SOL     OW33949   4.435   0.916  11.698  0.0237  0.3197  0.4037
 7438SOL    HW133950   4.376   0.981  11.660 -0.2946 -1.3402 -1.9374
 7438SOL    HW233951   4.435   0.849  11.629 -0.9716  0.8908 -0.1480
 7439SOL     OW33952   1.245   0.166   7.313 -0.2310 -0.3969  0.0263
 7439SOL    HW133953   1.324   0.175   7.260  0.0748  1.7472  0.8366
 7439SOL    HW233954   1.272   0.195   7.400  1.8208  1.8639 -1.3598
 7440SOL     OW33955   3.285   0.056  16.589 -0.1016 -0.2480 -0.0879
 7440SOL    HW133956   3.243   0.075  16.673  0.5896  0.5475  0.0771
 7440SOL    HW233957   3.307   4.701  16.603 -0.4670 -0.3370 -0.1124
 7441SOL     OW33958   2.227   3.581  16.405  0.3079 -0.5658 -0.2219
 7441SOL    HW133959   2.132   3.593  16.406  0.5868  1.6851 -0.3720
 7441SOL    HW233960   2.230   3.488  16.427 -0.9359 -0.0871  2.0039
 7442SOL     OW33961   4.650   2.246   3.482  0.5952  0.2849  0.4102
 7442SOL    HW133962   4.715   2.176   3.479  0.5965  0.3827 -2.2738
 7442SOL    HW233963   4.710   2.319   3.467 -1.3345  1.2336 -2.7398
 7443SOL     OW33964   0.806   1.849   7.847 -0.5446  0.0554  0.1503
 7443SOL    HW133965   0.748   1.806   7.910 -1.3700  0.1132 -0.5632
 7443SOL    HW233966   0.874   1.783   7.841 -0.5564  0.0474  0.1015
 7444SOL     OW33967   4.667   3.238   6.129  0.0882  0.2823 -0.0715
 7444SOL    HW133968   4.726   3.261   6.201 -0.7598 -0.5659  0.9116
 7444SOL    HW233969   4.621   3.318   6.106  2.7193  1.1129 -2.4570
 7445SOL     OW33970   2.691   1.735   4.937 -1.0549 -0.4503  0.5487
 7445SOL    HW133971   2.718   1.725   4.846 -0.9799  0.6928  0.4513
 7445SOL    HW233972   2.744   1.809   4.964 -1.4631 -0.3579  1.0997
 7446SOL     OW33973   4.321   0.537   1.329  0.2602  0.2628  0.2970
 7446SOL    HW133974   4.408   0.553   1.367  1.0467  1.2240 -1.9173
 7446SOL    HW233975   4.269   0.543   1.409 -0.9270  1.4649 -0.5551
 7447SOL     OW33976   1.424   2.414   1.148  0.1271 -0.3056  0.9518
 7447SOL    HW133977   1.432   2.504   1.178 -0.4125 -0.2402  0.9024
 7447SOL    HW233978   1.414   2.365   1.229 -1.4872 -0.7052  0.5113
 7448SOL     OW33979   4.110   0.229   8.712 -0.0055 -0.6742  0.1452
 7448SOL    HW133980   4.126   0.259   8.622 -1.8318 -0.5694 -0.1573
 7448SOL    HW233981   4.038   0.169   8.691 -0.3154 -0.2165 -0.0916
 7449SOL     OW33982   3.106   3.040   3.560  0.0700  0.1406  0.2203
 7449SOL    HW133983   3.025   3.084   3.536 -0.5735 -2.6372 -2.8028
 7449SOL    HW233984   3.108   2.968   3.497 -1.2982  0.6543 -0.4090
 7450SOL     OW33985   2.269   0.489   4.267 -0.1041  0.5726 -0.2467
 7450SOL    HW133986   2.240   0.530   4.348 -0.5600 -1.2934  0.5201
 7450SOL    HW233987   2.354   0.529   4.247  0.2164  0.2495  0.4836
 7451SOL     OW33988   0.626   4.427  16.444 -0.2400 -0.0463  0.0870
 7451SOL    HW133989   0.694   4.393  16.502  0.9255 -0.9277 -1.8183
 7451SOL    HW233990   0.571   4.351  16.428  1.4389 -1.1414 -0.4000
 7452SOL     OW33991   2.005   0.997  16.596 -0.6208  0.2879  0.0554
 7452SOL    HW133992   1.913   1.020  16.609 -0.7677  1.2806 -2.6767
 7452SOL    HW233993   2.047   1.050  16.665  0.7756 -1.4687  0.5341
 7453SOL     OW33994   1.260   3.262   2.626 -0.4318  0.3630  0.1934
 7453SOL    HW133995   1.339   3.316   2.621 -0.2426  0.2712  2.5296
 7453SOL    HW233996   1.197   3.318   2.581  0.0073 -1.0593 -2.2519
 7454SOL     OW33997   3.060   1.106  14.970 -0.4215  0.5417  0.4737
 7454SOL    HW133998   3.123   1.042  14.938  0.1758  0.2720  2.1868
 7454SOL    HW233999   3.088   1.122  15.060 -2.1329  0.3085  1.0583
 7455SOL     OW34000   2.788   3.723   9.868  0.3364  0.6104  0.1784
 7455SOL    HW134001   2.808   3.798   9.924  0.3073  1.4480 -0.9336
 7455SOL    HW234002   2.851   3.656   9.892  1.7269  2.2013  1.0065
 7456SOL     OW34003   3.979   4.415   4.961  0.2291  0.0595  0.0557
 7456SOL    HW134004   3.946   4.341   4.911 -0.4241 -0.3270  1.0748
 7456SOL    HW234005   4.046   4.375   5.017  0.1702  0.7263  0.6086
 7457SOL     OW34006   4.144   0.903   2.610  0.8380  0.2591 -0.2261
 7457SOL    HW134007   4.165   0.996   2.619  0.5870  0.3016 -0.0437
 7457SOL    HW234008   4.187   0.863   2.686 -1.7219  0.3247  1.2655
 7458SOL     OW34009   4.602   1.524  12.032 -0.1470 -0.5324  0.5052
 7458SOL    HW134010   4.577   1.570  12.113 -0.5085  1.2838 -0.6491
 7458SOL    HW234011   4.680   1.473  12.055  1.2306  1.5716  0.5303
 7459SOL     OW34012   4.083   2.630   6.662 -0.4403 -0.6538 -0.5676
 7459SOL    HW134013   4.011   2.568   6.671 -1.0086  0.2316  0.9369
 7459SOL    HW234014   4.122   2.626   6.750  0.9628  1.4131 -1.0809
 7460SOL     OW34015   3.269   3.678  16.767  0.4442  0.1324  0.1902
 7460SOL    HW134016   3.230   3.594  16.789 -1.2568  0.1278 -2.8882
 7460SOL    HW234017   3.203   3.730  16.813  0.0113 -0.2555 -0.0016
 7461SOL     OW34018   0.764   3.839   8.034 -0.1333 -0.5722 -0.3751
 7461SOL    HW134019   0.846   3.826   8.082 -1.1050  0.9992  1.7148
 7461SOL    HW234020   0.806   3.858   7.950 -2.1736 -0.2692 -1.3140
 7462SOL     OW34021   4.631   4.694   6.836  0.5162  0.1549 -0.2532
 7462SOL    HW134022   4.550   0.006   6.820  0.8412  1.1683  1.1969
 7462SOL    HW234023   4.655   4.679   6.744 -1.3340  3.3434 -1.2738
 7463SOL     OW34024   4.635   2.717  11.391  0.2135 -0.2201  0.2892
 7463SOL    HW134025   4.710   2.657  11.386  0.2919 -0.2311  1.7242
 7463SOL    HW234026   4.630   2.733  11.297  0.9095 -1.3339  0.0610
 7464SOL     OW34027   4.378   4.707   1.045  0.2035 -0.4285 -0.0702
 7464SOL    HW134028   4.360   0.063   1.037  3.5548  0.3446  1.5100
 7464SOL    HW234029   4.414   4.695   1.133  0.4026  0.3940 -0.0448
 7465SOL     OW34030   2.112   4.044   6.519  0.6423 -0.5158 -0.4581
 7465SOL    HW134031   2.146   3.979   6.580 -1.5770  0.8651  2.2347
 7465SOL    HW234032   2.180   4.110   6.531 -0.9917  1.0779  0.0380
 7466SOL     OW34033   1.672   0.962  11.420 -0.1091 -0.2681 -0.3439
 7466SOL    HW134034   1.764   0.966  11.446  0.0852  0.3360 -1.1296
 7466SOL    HW234035   1.687   0.931  11.330 -1.0638  0.4493 -0.7534
 7467SOL     OW34036   4.018   2.344   9.672  0.3091  0.5073  0.1509
 7467SOL    HW134037   3.948   2.345   9.737  1.2272 -0.6026  1.1577
 7467SOL    HW234038   4.064   2.426   9.687  0.3712 -0.1871  3.6245
 7468SOL     OW34039   4.455   0.915  10.564 -0.3107  0.4934 -0.1937
 7468SOL    HW134040   4.535   0.915  10.617  0.9084 -0.5287 -2.0171
 7468SOL    HW234041   4.489   0.969  10.493  2.7031 -0.5453  0.4468
 7469SOL     OW34042   2.108   2.713   2.226  0.2475  0.3442 -0.4512
 7469SOL    HW134043   2.140   2.803   2.223 -0.4635  0.6165  0.1596
 7469SOL    HW234044   2.015   2.735   2.222  0.1861  0.6759  3.4342
 7470SOL     OW34045   1.621   3.799  13.320 -0.2005 -0.0425 -0.4443
 7470SOL    HW134046   1.681   3.869  13.293 -0.3454 -0.1493 -1.0224
 7470SOL    HW234047   1.582   3.834  13.400 -1.1832 -0.0165 -0.9453
 7471SOL     OW34048   0.313   3.714  13.479 -0.1050 -0.4117  0.5544
 7471SOL    HW134049   0.394   3.718  13.427 -2.0472 -1.7565 -2.6087
 7471SOL    HW234050   0.251   3.770  13.432 -2.2853 -1.0604  2.6524
 7472SOL     OW34051   1.235   2.759   4.571 -0.0173  0.9697 -0.2101
 7472SOL    HW134052   1.255   2.674   4.532  1.5627  1.0563  0.3946
 7472SOL    HW234053   1.263   2.745   4.662 -2.2229 -1.2224  0.1322
 7473SOL     OW34054   0.710   4.194   4.395 -0.0043  0.5769 -0.1566
 7473SOL    HW134055   0.756   4.121   4.353  0.4802  0.5841  0.3546
 7473SOL    HW234056   0.787   4.251   4.392  0.9981 -0.8540 -1.7149
 7474SOL     OW34057   1.796   0.287   9.970 -0.1726  0.2193 -0.5698
 7474SOL    HW134058   1.823   0.323  10.055 -1.0873  1.2601 -0.7182
 7474SOL    HW234059   1.740   0.355   9.934 -0.3133  0.8541  0.8326
 7475SOL     OW34060   3.417   4.648   7.436  0.1652 -0.2097  0.2535
 7475SOL    HW134061   3.396   4.605   7.519  1.0632  1.0802  1.1496
 7475SOL    HW234062   3.490   4.701   7.467  1.1634 -1.1333 -0.5630
 7476SOL     OW34063   3.660   1.817   3.108 -0.0789 -0.1303 -0.0437
 7476SOL    HW134064   3.625   1.896   3.067  1.2651 -0.3420 -1.5899
 7476SOL    HW234065   3.593   1.791   3.172  0.0067 -0.2639 -0.0090
 7477SOL     OW34066   2.591   2.509  10.685 -0.1198 -0.4783 -0.2421
 7477SOL    HW134067   2.641   2.494  10.766  0.2508 -1.9991 -0.7608
 7477SOL    HW234068   2.646   2.483  10.611 -0.3802 -1.4431 -0.0889
 7478SOL     OW34069   0.216   2.986  12.103 -0.1463 -0.1725 -0.7280
 7478SOL    HW134070   0.159   2.912  12.125  2.0212 -1.2666  1.2466
 7478SOL    HW234071   0.185   3.013  12.017 -0.7642 -2.7843 -1.3244
 7479SOL     OW34072   3.687   2.504   3.422  0.8357 -0.1895 -0.1693
 7479SOL    HW134073   3.683   2.553   3.340 -0.4097 -0.3607 -0.2061
 7479SOL    HW234074   3.755   2.438   3.406  0.1172 -1.3477  1.5048
 7480SOL     OW34075   2.933   3.689   3.023  0.1049 -0.0397 -0.5878
 7480SOL    HW134076   2.844   3.724   3.018  1.3962  3.1895 -1.4775
 7480SOL    HW234077   2.977   3.771   2.997  1.8576 -0.1415  2.0819
 7481SOL     OW34078   0.600   1.045  11.866  0.0346 -0.4028 -0.2575
 7481SOL    HW134079   0.515   1.014  11.835 -0.6458  0.2144  0.9930
 7481SOL    HW234080   0.598   1.119  11.805  1.7044  0.0300  0.2202
 7482SOL     OW34081   2.499   4.553   4.054  0.3552 -0.3747  0.4748
 7482SOL    HW134082   2.480   4.534   3.962 -0.6325  2.1925  0.1391
 7482SOL    HW234083   2.421   4.602   4.077 -0.4057 -1.7264  0.7810
 7483SOL     OW34084   4.625   4.047   4.249  0.4801  0.1829  0.4707
 7483SOL    HW134085   4.596   4.139   4.251 -1.9054 -0.5499 -0.3060
 7483SOL    HW234086   4.546   4.005   4.283  1.0013 -0.1460  1.2724
 7484SOL     OW34087   1.529   2.792   4.431 -0.4667 -0.0001  0.3267
 7484SOL    HW134088   1.614   2.751   4.414  0.7695  1.9435  1.7889
 7484SOL    HW234089   1.559   2.843   4.506  0.0213 -0.9868  0.8108
 7485SOL     OW34090   0.808   2.164   0.364 -0.1840  0.4361 -0.1586
 7485SOL    HW134091   0.879   2.145   0.426  1.5195 -1.3918 -2.6481
 7485SOL    HW234092   0.861   2.167   0.284  1.3645  1.9738  0.9160
 7486SOL     OW34093   2.320   1.481   2.323  0.5277  0.3481  0.1312
 7486SOL    HW134094   2.306   1.576   2.319  0.1411  0.2621 -0.6235
 7486SOL    HW234095   2.288   1.465   2.412  2.2882 -0.0388  0.6878
 7487SOL     OW34096   0.493   2.507   5.325 -0.2052  0.1855  0.3861
 7487SOL    HW134097   0.540   2.430   5.292 -0.4133  0.3329 -0.2586
 7487SOL    HW234098   0.480   2.559   5.245  1.6317 -1.0780 -0.7504
 7488SOL     OW34099   2.490   1.331  15.453  0.7036 -0.1653  0.2688
 7488SOL    HW134100   2.473   1.354  15.362 -1.0618 -0.6918  0.4740
 7488SOL    HW234101   2.403   1.347  15.488  0.0078 -2.5527 -0.3722
 7489SOL     OW34102   3.953   2.883  14.014 -0.1288  0.3743  0.2570
 7489SOL    HW134103   3.982   2.967  14.049 -2.3824  0.5494  1.6780
 7489SOL    HW234104   3.976   2.885  13.920 -2.4657  0.5010 -0.2975
 7490SOL     OW34105   1.758   4.617   6.563  0.2059  1.2119 -0.0952
 7490SOL    HW134106   1.756   4.611   6.467  1.7890 -3.9847  0.1818
 7490SOL    HW234107   1.763   4.712   6.564 -0.6505  1.2229  2.8036
 7491SOL     OW34108   2.227   4.024  13.649 -0.3362  0.7811 -0.2703
 7491SOL    HW134109   2.186   4.110  13.639 -2.7178 -0.4049 -0.7871
 7491SOL    HW234110   2.297   4.010  13.585  0.7119  3.0564  0.3964
 7492SOL     OW34111   4.273   1.143   3.607  0.1299  0.4245  0.1280
 7492SOL    HW134112   4.270   1.237   3.623  2.0212  0.6376 -0.7199
 7492SOL    HW234113   4.285   1.103   3.694 -1.6922 -1.5918 -0.5436
 7493SOL     OW34114   1.952   1.743   1.788  0.1562 -0.0556  0.3770
 7493SOL    HW134115   1.923   1.809   1.852 -1.9319 -0.8648  0.2578
 7493SOL    HW234116   2.014   1.683   1.830  0.6236  1.7835  2.3247
 7494SOL     OW34117   3.318   3.986  16.686 -0.4265  0.1066  0.2600
 7494SOL    HW134118   3.262   3.909  16.676  1.0223 -0.5661 -2.8820
 7494SOL    HW234119   3.290   4.027  16.767 -0.5495  0.2653  0.1360
 7495SOL     OW34120   4.084   0.777   6.493 -0.3215  0.2661  0.0640
 7495SOL    HW134121   4.002   0.729   6.504  1.4235 -2.8552 -0.4990
 7495SOL    HW234122   4.071   0.814   6.406 -1.8019 -0.6661 -0.1183
 7496SOL     OW34123   1.974   0.166   2.617  0.1822  0.1640  0.0292
 7496SOL    HW134124   1.921   0.142   2.694  0.5979 -3.3453 -0.7954
 7496SOL    HW234125   2.061   0.174   2.655 -1.3020  0.8761  3.3623
 7497SOL     OW34126   2.843   2.931   7.508 -0.1838 -0.1117  0.2999
 7497SOL    HW134127   2.895   2.969   7.579 -0.7332  3.2957 -1.1435
 7497SOL    HW234128   2.763   2.911   7.557  0.0047 -0.4068  0.4887
 7498SOL     OW34129   0.920   2.279   8.947  0.3083  0.4969 -0.4922
 7498SOL    HW134130   0.936   2.263   8.854  0.2008  0.2613 -0.4697
 7498SOL    HW234131   0.965   2.205   8.987 -1.2032  0.9906  2.2000
 7499SOL     OW34132   4.334   2.242   1.360  0.4431 -0.1136 -0.5289
 7499SOL    HW134133   4.261   2.203   1.408 -0.0832  1.3945 -0.1103
 7499SOL    HW234134   4.286   2.288   1.291  1.0348  1.7229  0.2814
 7500SOL     OW34135   2.811   2.257   8.975  0.7361 -0.2190 -0.4781
 7500SOL    HW134136   2.781   2.340   8.937  1.4254  0.2366 -0.0386
 7500SOL    HW234137   2.726   2.222   8.999 -1.0219  3.7470 -0.8491
 7501SOL     OW34138   0.435   4.470  16.023  0.8188 -0.6064  0.1674
 7501SOL    HW134139   0.501   4.452  16.089  0.2595  0.8839  1.1348
 7501SOL    HW234140   0.487   4.437  15.950  0.8583  0.5829 -0.3480
 7502SOL     OW34141   3.923   2.961   7.454 -0.0152 -0.1201 -0.1747
 7502SOL    HW134142   3.860   2.907   7.406  0.8826 -0.3447 -1.1055
 7502SOL    HW234143   3.873   3.009   7.520 -0.6457  2.3238 -2.4173
 7503SOL     OW34144   1.623   0.560   8.394  0.4253  0.0971  0.1692
 7503SOL    HW134145   1.590   0.563   8.484 -1.6179  1.6771 -0.6255
 7503SOL    HW234146   1.648   0.649   8.373  0.7504 -0.2554 -0.9281
 7504SOL     OW34147   1.445   4.153   3.373  0.3463 -0.2214  0.2031
 7504SOL    HW134148   1.540   4.163   3.366  0.2125  1.1001  0.1935
 7504SOL    HW234149   1.436   4.067   3.413  0.0183  0.5791  1.8431
 7505SOL     OW34150   1.020   1.684   9.587  0.5896  0.1531 -0.1992
 7505SOL    HW134151   1.002   1.689   9.681  1.8268 -2.9977  0.2021
 7505SOL    HW234152   0.944   1.713   9.537  1.5099  3.4373  0.2620
 7506SOL     OW34153   3.991   1.789   0.889  0.4988 -0.5748 -0.2775
 7506SOL    HW134154   4.041   1.816   0.812 -1.3416  0.7041 -1.0008
 7506SOL    HW234155   3.996   1.861   0.953  1.9079  1.9911 -3.2940
 7507SOL     OW34156   4.259   3.635  12.302  0.4917 -0.2133 -0.2127
 7507SOL    HW134157   4.340   3.629  12.353 -1.1988  3.2958  2.9100
 7507SOL    HW234158   4.297   3.676  12.225  0.8409 -0.6867 -0.2915
 7508SOL     OW34159   2.908   0.920   2.531 -0.4723 -0.2839 -0.0532
 7508SOL    HW134160   2.982   0.859   2.528 -0.0964  0.1556  0.2484
 7508SOL    HW234161   2.876   0.889   2.615 -0.1787  0.1283  0.2126
 7509SOL     OW34162   2.235   1.530   6.311 -0.3476 -0.0525  0.0311
 7509SOL    HW134163   2.143   1.517   6.286  0.0101 -2.5682  0.0828
 7509SOL    HW234164   2.233   1.617   6.352  0.3273 -0.5819  1.1870
 7510SOL     OW34165   0.865   4.423   6.385 -0.6033 -0.0715 -0.5595
 7510SOL    HW134166   0.947   4.464   6.413 -0.7180  0.7869 -1.4634
 7510SOL    HW234167   0.880   4.330   6.400 -0.5664  0.2597  1.4727
 7511SOL     OW34168   0.725   1.769   9.407 -0.3181  0.1820 -0.0029
 7511SOL    HW134169   0.682   1.733   9.484  2.3154 -0.1608  1.3017
 7511SOL    HW234170   0.781   1.836   9.446  0.6042 -0.8615  0.4638
 7512SOL     OW34171   4.449   3.857   5.229 -0.2267  0.3248  0.2220
 7512SOL    HW134172   4.440   3.835   5.322  2.5856 -1.6969  0.0193
 7512SOL    HW234173   4.503   3.786   5.196  1.3838  1.3766  0.5436
 7513SOL     OW34174   3.895   1.003   8.925  0.5833 -0.0712 -0.0788
 7513SOL    HW134175   3.945   1.037   8.999  1.3456  0.2117 -0.7150
 7513SOL    HW234176   3.924   1.070   8.863 -3.4733  1.5906 -0.1978
 7514SOL     OW34177   0.563   3.857   5.010  0.3368 -0.0338  0.3638
 7514SOL    HW134178   0.608   3.774   5.019  0.0686 -0.1423  0.7051
 7514SOL    HW234179   0.635   3.918   4.995  0.6584 -0.0855  1.7047
 7515SOL     OW34180   4.327   0.002   3.082 -0.3696 -0.1281 -0.2727
 7515SOL    HW134181   4.362   4.651   3.096 -0.1849  0.2410  1.5911
 7515SOL    HW234182   4.251   4.737   3.141  0.1361  2.3079  0.4729
 7516SOL     OW34183   2.727   3.573   7.545 -0.0617 -0.4242 -0.5096
 7516SOL    HW134184   2.811   3.534   7.567  0.0822  1.6345  2.5082
 7516SOL    HW234185   2.672   3.495   7.553 -0.5857 -0.3461 -3.2044
 7517SOL     OW34186   3.265   0.708   4.726 -0.5216  0.2137 -0.0922
 7517SOL    HW134187   3.299   0.691   4.813  2.3431 -0.3075 -1.3302
 7517SOL    HW234188   3.304   0.795   4.719  2.0579 -1.0993 -2.1880
 7518SOL     OW34189   1.367   4.150  12.854  0.2131  0.2425 -0.1920
 7518SOL    HW134190   1.353   4.239  12.823  0.2425  0.3097 -0.0121
 7518SOL    HW234191   1.350   4.089  12.782 -1.1945 -0.0786  0.4014
 7519SOL     OW34192   0.473   1.164   4.091  0.7486  0.6824 -0.1457
 7519SOL    HW134193   0.487   1.240   4.036  0.1362  1.3130  0.5763
 7519SOL    HW234194   0.458   1.100   4.021 -2.0474  1.1714  0.0088
 7520SOL     OW34195   1.325   2.003   7.675 -0.1672  0.0876  0.2388
 7520SOL    HW134196   1.232   1.981   7.664 -0.0666 -0.2152  0.0120
 7520SOL    HW234197   1.355   1.956   7.598  0.8665 -0.7654  1.1647
 7521SOL     OW34198   2.563   0.197   5.367  0.2844 -0.3102 -0.1773
 7521SOL    HW134199   2.620   0.122   5.350  2.3861  1.0591  0.7636
 7521SOL    HW234200   2.543   0.182   5.459  1.4132 -1.3633 -0.1039
 7522SOL     OW34201   3.599   3.035   7.516  0.0116  0.2048  0.0010
 7522SOL    HW134202   3.643   3.080   7.588  1.3365 -0.6550 -0.2816
 7522SOL    HW234203   3.625   2.947   7.541 -0.8169 -0.4105 -1.3014
 7523SOL     OW34204   4.630   0.482  11.207  0.0328 -0.1819 -0.3412
 7523SOL    HW134205   4.581   0.526  11.137 -0.0055  1.7719  0.9210
 7523SOL    HW234206   4.720   0.512  11.192 -0.6630  2.6594  1.1632
 7524SOL     OW34207   1.701   2.985   7.350  0.6553 -0.0836  0.0573
 7524SOL    HW134208   1.726   3.059   7.406 -2.1455  0.0876  1.0850
 7524SOL    HW234209   1.779   2.975   7.295 -0.5708  0.8149 -1.8119
 7525SOL     OW34210   3.132   4.184   9.930  0.2206 -0.6951 -0.1144
 7525SOL    HW134211   3.156   4.184   9.838  1.5027 -0.2828  0.2147
 7525SOL    HW234212   3.182   4.261   9.959  1.2446 -1.6407  0.6419
 7526SOL     OW34213   2.751   4.334  17.147 -0.0996  0.1406  0.0699
 7526SOL    HW134214   2.696   4.359  17.072 -2.6186  0.2895  1.9804
 7526SOL    HW234215   2.766   4.420  17.186  0.3870  0.4307 -0.7496
 7527SOL     OW34216   1.080   4.594   1.731  0.3460 -0.2492 -0.0943
 7527SOL    HW134217   1.149   4.654   1.704 -1.2235  1.6749  0.1314
 7527SOL    HW234218   1.019   4.664   1.756 -0.1637  0.1578 -2.5248
 7528SOL     OW34219   4.624   1.811  13.067  0.1625  0.1051  0.1364
 7528SOL    HW134220   4.666   1.735  13.108  0.3857  0.8687  1.3295
 7528SOL    HW234221   4.595   1.770  12.986  0.9511  0.9752 -0.5893
 7529SOL     OW34222   3.290   3.952   9.454  0.2712 -0.4013 -0.8551
 7529SOL    HW134223   3.215   3.896   9.438  0.0606 -0.7588  1.3848
 7529SOL    HW234224   3.265   4.025   9.397  1.0376 -0.0408 -0.7367
 7530SOL     OW34225   1.768   2.009   5.962 -0.4514 -0.1902  0.2286
 7530SOL    HW134226   1.750   1.917   5.942 -1.2459  0.1738 -0.7779
 7530SOL    HW234227   1.694   2.060   5.927  0.4905  1.0481  0.0418
 7531SOL     OW34228   2.628   0.883  12.999 -0.3532 -0.6212 -0.0660
 7531SOL    HW134229   2.660   0.794  13.012  0.3677 -0.5889 -1.6180
 7531SOL    HW234230   2.617   0.887  12.904 -0.2895 -1.0813 -0.0930
 7532SOL     OW34231   1.936   4.197   3.910 -0.0284 -0.3926 -0.1793
 7532SOL    HW134232   2.008   4.248   3.872 -0.7991 -0.1668 -1.3305
 7532SOL    HW234233   1.967   4.184   4.000 -1.6927  3.4819  0.9884
 7533SOL     OW34234   0.350   1.179   7.074  0.2034  0.4180  0.6576
 7533SOL    HW134235   0.256   1.178   7.059  0.6050 -1.2936 -1.6501
 7533SOL    HW234236   0.359   1.167   7.169  0.5623  1.5645  0.7641
 7534SOL     OW34237   1.716   0.521   3.106  0.3849  0.2089 -0.1153
 7534SOL    HW134238   1.638   0.534   3.052 -0.3496  0.8836  1.0947
 7534SOL    HW234239   1.785   0.507   3.042 -1.6801  1.0572 -2.5285
 7535SOL     OW34240   1.374   3.331   6.541  0.2007 -0.9927 -0.2161
 7535SOL    HW134241   1.448   3.271   6.527  0.5199 -0.7429  0.4507
 7535SOL    HW234242   1.308   3.271   6.575 -1.9773  2.3164  1.3605
 7536SOL     OW34243   0.901   0.732   6.238 -0.7711  0.4639 -0.5239
 7536SOL    HW134244   0.933   0.653   6.196 -0.2696  1.0395 -1.2199
 7536SOL    HW234245   0.840   0.697   6.303  2.3200 -3.7724  0.0806
 7537SOL     OW34246   2.014   3.356   1.997  1.0775 -0.6061 -0.4134
 7537SOL    HW134247   2.090   3.363   1.939 -0.2644 -1.0712 -2.2391
 7537SOL    HW234248   2.055   3.371   2.082 -1.3340  0.9262  0.4925
 7538SOL     OW34249   0.335   3.524   9.343 -0.0846  0.4452  0.1986
 7538SOL    HW134250   0.338   3.429   9.335 -0.2783  0.5544 -1.1261
 7538SOL    HW234251   0.346   3.535   9.437  0.8844  0.8351  0.0481
 7539SOL     OW34252   4.667   0.664   6.707  0.2807 -0.0778  0.0052
 7539SOL    HW134253   4.687   0.629   6.793 -4.9728 -0.1618  1.1695
 7539SOL    HW234254   4.593   0.723   6.720  0.5186  0.3271 -0.4657
 7540SOL     OW34255   0.096   2.559   4.589 -0.4780  0.7104 -0.5598
 7540SOL    HW134256   0.075   2.501   4.517 -0.9032 -0.0936  0.2082
 7540SOL    HW234257   0.176   2.601   4.557 -0.4392  0.4202 -0.8418
 7541SOL     OW34258   2.789   0.642   4.725  0.1795  0.3087 -0.1914
 7541SOL    HW134259   2.870   0.592   4.713  1.2174  1.6070  1.3290
 7541SOL    HW234260   2.732   0.581   4.771  0.3929 -0.6909 -1.2695
 7542SOL     OW34261   0.623   3.017   2.840  0.3330 -0.1626 -0.1832
 7542SOL    HW134262   0.716   3.017   2.817  0.5296 -0.7207  0.6002
 7542SOL    HW234263   0.581   2.977   2.764 -0.1794  0.2303 -0.1055
 7543SOL     OW34264   1.458   3.677  13.114 -0.5190 -0.8197 -0.6618
 7543SOL    HW134265   1.419   3.602  13.158 -0.3410 -0.3928  0.2176
 7543SOL    HW234266   1.512   3.723  13.178  2.4263 -0.3146 -3.4977
 7544SOL     OW34267   1.723   3.409  12.606  0.0637 -0.7815 -0.3053
 7544SOL    HW134268   1.674   3.457  12.672  3.5359  0.2468  1.5406
 7544SOL    HW234269   1.798   3.468  12.612  0.2077 -1.0505  0.4726
 7545SOL     OW34270   2.477   4.189  11.071  0.1102  0.2017  0.0528
 7545SOL    HW134271   2.387   4.184  11.040  0.5869  0.1848 -1.3281
 7545SOL    HW234272   2.512   4.103  11.049  2.0653  1.3559 -1.3846
 7546SOL     OW34273   1.757   3.763   8.429 -0.3926 -0.3918 -0.1963
 7546SOL    HW134274   1.842   3.735   8.464 -0.3466 -0.5239 -0.4100
 7546SOL    HW234275   1.736   3.842   8.478 -1.0416 -1.9722  2.0981
 7547SOL     OW34276   3.624   2.706  15.043 -0.3079 -0.0735 -0.6245
 7547SOL    HW134277   3.562   2.749  15.101  0.4092 -0.9443  0.7750
 7547SOL    HW234278   3.681   2.777  15.013 -0.9364  0.7912  0.2418
 7548SOL     OW34279   4.228   3.955  12.894  0.1636  0.7910 -0.6518
 7548SOL    HW134280   4.147   3.923  12.855 -1.3781  3.5448  0.3583
 7548SOL    HW234281   4.268   4.000  12.819  0.3731  0.2570 -0.8650
 7549SOL     OW34282   4.493   3.384  13.733 -0.1964 -0.1981  0.3948
 7549SOL    HW134283   4.472   3.377  13.640  1.0766  0.0722  0.0918
 7549SOL    HW234284   4.413   3.384  13.785  0.7623  2.4149  1.8632
 7550SOL     OW34285   4.158   2.677   9.963  0.4134 -0.6007  0.7818
 7550SOL    HW134286   4.165   2.748  10.026  2.7217  0.8919 -1.1541
 7550SOL    HW234287   4.204   2.603  10.004  0.8395 -0.7311  0.0723
 7551SOL     OW34288   0.158   2.849   4.760 -0.1834 -0.0227 -0.0620
 7551SOL    HW134289   0.162   2.899   4.841 -1.2730 -0.6021  0.3475
 7551SOL    HW234290   0.080   2.799   4.783 -0.6357 -0.0902 -1.7064
 7552SOL     OW34291   1.455   2.919   5.085 -0.4117  0.1361  0.6908
 7552SOL    HW134292   1.489   2.961   5.006 -2.5458 -0.7656 -0.7171
 7552SOL    HW234293   1.531   2.934   5.141  1.7287 -1.3597 -1.8036
 7553SOL     OW34294   0.922   0.118   6.767 -0.1469  0.0435 -0.1812
 7553SOL    HW134295   0.981   0.056   6.810  0.3744  0.2476 -0.5977
 7553SOL    HW234296   0.984   0.188   6.749  1.6014 -2.0884 -2.5743
 7554SOL     OW34297   2.683   4.136   3.435 -0.5219 -0.1936 -0.1541
 7554SOL    HW134298   2.752   4.123   3.500 -0.3018  0.7890 -0.1891
 7554SOL    HW234299   2.626   4.201   3.478 -0.7039 -0.1473 -0.4641
 7555SOL     OW34300   2.450   3.204   2.865 -0.4656  0.0285  0.5337
 7555SOL    HW134301   2.507   3.259   2.920 -0.8079 -1.8450  2.7597
 7555SOL    HW234302   2.426   3.132   2.923  1.3894 -1.0347 -0.0223
 7556SOL     OW34303   4.198   1.073   7.553 -0.0964 -0.5351  0.2148
 7556SOL    HW134304   4.187   0.981   7.529 -0.0313 -1.1942  2.7037
 7556SOL    HW234305   4.268   1.076   7.618 -1.3592 -1.1384  1.6115
 7557SOL     OW34306   0.508   2.381   7.103  0.1668 -0.2780  0.2319
 7557SOL    HW134307   0.575   2.449   7.114 -1.5322  1.0877  2.1174
 7557SOL    HW234308   0.432   2.433   7.079 -0.2896 -0.6298  0.9155
 7558SOL     OW34309   1.376   3.654  17.250 -0.2164  0.0274  0.1793
 7558SOL    HW134310   1.360   3.613  17.335  2.5379 -1.8210 -0.2053
 7558SOL    HW234311   1.288   3.640  17.214 -0.0746 -0.7035  0.1220
 7559SOL     OW34312   2.068   2.305   5.816 -0.2945  0.1767  0.2705
 7559SOL    HW134313   2.132   2.323   5.885 -1.1153 -1.5070  1.4639
 7559SOL    HW234314   1.987   2.337   5.855 -0.3317 -0.5130  0.7449
 7560SOL     OW34315   4.639   3.164   0.376  0.1590  0.0930  0.5187
 7560SOL    HW134316   4.605   3.078   0.351 -1.4993  0.7489  0.5387
 7560SOL    HW234317   4.641   3.145   0.470  0.2483  1.6491  0.8309
 7561SOL     OW34318   3.061   1.097   4.184 -0.0974  0.6247 -0.4799
 7561SOL    HW134319   3.096   1.119   4.270  2.0048 -3.0492 -0.3846
 7561SOL    HW234320   3.126   1.029   4.163 -0.4886 -0.0841  0.6020
 7562SOL     OW34321   0.505   2.365  10.636  0.0781  0.3203 -0.4588
 7562SOL    HW134322   0.537   2.362  10.726  2.0458  0.9640 -1.1282
 7562SOL    HW234323   0.590   2.370  10.592  0.4561 -2.4312 -0.1056
 7563SOL     OW34324   1.107   3.781   9.862  0.1074  0.5986 -0.2894
 7563SOL    HW134325   1.052   3.724   9.809  1.6126  1.0989 -2.3601
 7563SOL    HW234326   1.184   3.795   9.808  0.8292  1.3274  0.9367
 7564SOL     OW34327   0.958   1.592   7.248  0.6046 -0.3201  0.3460
 7564SOL    HW134328   0.985   1.663   7.189  0.9013 -0.0379  0.8278
 7564SOL    HW234329   0.868   1.625   7.257  0.8602  0.2928  0.6506
 7565SOL     OW34330   3.466   4.136  14.986 -0.1027 -0.0813 -0.7267
 7565SOL    HW134331   3.516   4.142  14.904 -1.1872  0.1597 -1.3717
 7565SOL    HW234332   3.517   4.073  15.037 -2.1690  1.5950  3.4114
 7566SOL     OW34333   0.179   3.452   3.815  0.2025  1.0040 -0.0494
 7566SOL    HW134334   0.163   3.358   3.817  1.3978  0.7589 -2.3285
 7566SOL    HW234335   0.105   3.478   3.870  1.5856 -2.0132  3.2340
 7567SOL     OW34336   3.917   1.114  17.057 -0.2274 -0.0621  0.2173
 7567SOL    HW134337   3.852   1.045  17.045  0.7927 -1.0020  0.1352
 7567SOL    HW234338   3.887   1.181  16.995  2.3306  1.8267  1.0186
 7568SOL     OW34339   1.300   3.720   8.093 -0.9740 -0.0626  0.1351
 7568SOL    HW134340   1.323   3.631   8.119 -1.5891 -0.0810  0.5973
 7568SOL    HW234341   1.237   3.727   8.164 -1.0759  2.2187 -0.1864
 7569SOL     OW34342   3.781   4.570   1.898 -0.0893  0.3440  0.0847
 7569SOL    HW134343   3.874   4.591   1.895  0.1396 -0.6753 -0.1097
 7569SOL    HW234344   3.785   4.484   1.856  1.7662  0.3527  0.2500
 7570SOL     OW34345   1.936   2.005   2.622 -0.0193 -0.0459 -0.3601
 7570SOL    HW134346   1.919   2.062   2.547  0.2017 -0.7874 -0.9732
 7570SOL    HW234347   1.940   2.074   2.688 -0.0274 -1.2885  0.9333
 7571SOL     OW34348   0.413   0.169   3.073  0.0664 -0.3570 -1.2864
 7571SOL    HW134349   0.386   0.160   2.981 -1.6636  4.2614 -1.2326
 7571SOL    HW234350   0.471   0.092   3.073 -1.6900 -1.6694 -0.5353
 7572SOL     OW34351   0.756   1.759   1.261  0.2070 -0.0820  0.2578
 7572SOL    HW134352   0.726   1.724   1.177  1.9075  1.8188 -1.1413
 7572SOL    HW234353   0.679   1.748   1.316 -1.1811 -0.0697 -1.6484
 7573SOL     OW34354   4.728   1.033   1.185  0.2968 -0.8611  0.5673
 7573SOL    HW134355   4.657   1.044   1.122  0.2637  2.8654  1.2792
 7573SOL    HW234356   0.064   1.042   1.123  0.7534  0.4594  1.2985
 7574SOL     OW34357   2.205   3.342   1.753  0.3601  0.0996  0.3053
 7574SOL    HW134358   2.282   3.368   1.703 -0.2823 -0.4512 -0.9700
 7574SOL    HW234359   2.232   3.250   1.761 -0.1719 -0.2152 -1.6061
 7575SOL     OW34360   0.047   3.409  13.698  0.0223  0.3987 -0.8080
 7575SOL    HW134361   0.094   3.409  13.781  2.4432 -0.2887 -2.1750
 7575SOL    HW234362   4.692   3.408  13.724 -0.0547  1.1723 -1.0565
 7576SOL     OW34363   1.438   0.658   4.194  0.6648 -0.6462 -0.2878
 7576SOL    HW134364   1.515   0.709   4.215 -1.2832  1.7388  1.0710
 7576SOL    HW234365   1.480   0.572   4.196  0.5484 -0.5616  4.6284
 7577SOL     OW34366   0.583   3.901   8.222  0.0732 -0.3232 -0.0579
 7577SOL    HW134367   0.515   3.947   8.173  1.5053  1.0144 -0.7718
 7577SOL    HW234368   0.637   3.864   8.152 -0.9970  0.1438 -1.1183
 7578SOL     OW34369   0.048   1.062   8.759  0.4108  0.3114 -0.4512
 7578SOL    HW134370   4.733   1.001   8.708  1.7795  0.4284 -1.9726
 7578SOL    HW234371   0.076   1.121   8.690  2.7452 -1.0156 -0.6110
 7579SOL     OW34372   4.142   3.696   8.061 -0.0856  0.4630  0.5608
 7579SOL    HW134373   4.108   3.612   8.089 -0.6828  0.0923 -1.2824
 7579SOL    HW234374   4.178   3.725   8.145 -2.5743  3.7889  0.5014
 7580SOL     OW34375   1.118   3.431   6.839 -0.1616 -0.7584 -0.2704
 7580SOL    HW134376   1.032   3.431   6.880 -0.5814 -0.3049 -1.1315
 7580SOL    HW234377   1.135   3.338   6.828  0.0994 -0.8671  1.0381
 7581SOL     OW34378   4.075   4.601   5.201  0.8366 -0.2730 -0.0365
 7581SOL    HW134379   4.027   4.548   5.137  2.9655 -0.4460 -1.4991
 7581SOL    HW234380   4.056   4.559   5.285  0.4972 -0.3577 -0.1551
 7582SOL     OW34381   3.103   3.992   8.971  0.1464 -0.7101 -0.1326
 7582SOL    HW134382   3.193   4.018   8.989 -0.3077 -0.6287  1.9705
 7582SOL    HW234383   3.054   3.985   9.053  0.3746 -0.4187  0.0282
 7583SOL     OW34384   1.637   4.578   2.945 -0.0820  0.0452 -0.5202
 7583SOL    HW134385   1.671   4.493   2.973  0.2959 -0.3247 -2.0789
 7583SOL    HW234386   1.588   4.612   3.019 -1.1234 -0.7227 -0.8572
 7584SOL     OW34387   2.777   4.296  17.502  0.5351 -0.2121 -0.8371
 7584SOL    HW134388   2.744   4.381  17.472 -0.6701 -0.3421  0.1167
 7584SOL    HW234389   2.850   4.323  17.558  1.9809 -0.4403 -2.6071
 7585SOL     OW34390   0.033   2.511   1.536 -0.1164  0.2790 -0.5550
 7585SOL    HW134391   4.729   2.456   1.603 -2.2429  0.8101 -1.4331
 7585SOL    HW234392   0.119   2.473   1.552 -0.0708  1.1250  1.2464
 7586SOL     OW34393   2.076   2.828   0.837  0.5323  0.0300  0.0609
 7586SOL    HW134394   2.014   2.808   0.907  2.2734  1.1636  1.9425
 7586SOL    HW234395   2.133   2.751   0.842  1.0660  0.4936  1.1244
 7587SOL     OW34396   2.846   1.694   7.778  0.2104  0.0328 -0.7480
 7587SOL    HW134397   2.840   1.609   7.822  0.2663  0.2188 -0.3836
 7587SOL    HW234398   2.931   1.729   7.802  0.3747 -0.8014 -0.1005
 7588SOL     OW34399   3.241   3.719   8.074 -0.1329  0.3862  0.5263
 7588SOL    HW134400   3.263   3.772   7.997 -0.3835 -2.9813 -1.8790
 7588SOL    HW234401   3.150   3.704   8.049  0.1202 -2.0001  1.0514
 7589SOL     OW34402   1.763   4.580   5.559  0.3323 -0.4307  0.9188
 7589SOL    HW134403   1.686   4.538   5.597 -0.7444  1.9077  1.3475
 7589SOL    HW234404   1.744   4.673   5.549  2.7574 -0.2683 -2.2688
 7590SOL     OW34405   4.495   3.238  15.989 -0.1982  0.2540  0.5131
 7590SOL    HW134406   4.551   3.189  16.050 -0.2469 -0.2014  0.1878
 7590SOL    HW234407   4.555   3.264  15.919 -0.1899 -1.8480 -0.2588
 7591SOL     OW34408   0.919   3.319   4.742  0.2716  0.2528  0.3776
 7591SOL    HW134409   0.998   3.265   4.738  1.8059  2.4675  0.6215
 7591SOL    HW234410   0.849   3.254   4.736 -0.5620  1.0448  1.6812
 7592SOL     OW34411   3.073   1.283   2.218 -0.3437 -0.4268  0.3297
 7592SOL    HW134412   3.073   1.200   2.171  0.2848  0.0558 -0.4975
 7592SOL    HW234413   3.161   1.302   2.251 -1.2025  2.4622  0.9777
 7593SOL     OW34414   1.242   3.251  13.638  0.0606 -0.1271  0.0088
 7593SOL    HW134415   1.225   3.180  13.701  1.0861 -2.3094 -2.1841
 7593SOL    HW234416   1.209   3.217  13.555 -0.6122  1.3592 -0.3343
 7594SOL     OW34417   1.652   3.612  16.369  0.0272  0.4814  0.6985
 7594SOL    HW134418   1.580   3.637  16.311 -0.1517 -1.2913  0.1593
 7594SOL    HW234419   1.680   3.700  16.393  2.2938  0.0839 -0.4959
 7595SOL     OW34420   1.945   1.712   6.053  0.2659 -0.2938  0.2960
 7595SOL    HW134421   1.975   1.678   5.968  0.3027  1.8395 -0.5373
 7595SOL    HW234422   1.988   1.798   6.058  0.7220 -0.3208 -2.8849
 7596SOL     OW34423   3.221   1.172   7.620  0.3827 -0.2085  0.2204
 7596SOL    HW134424   3.217   1.254   7.570  1.3442 -0.2534  0.0789
 7596SOL    HW234425   3.166   1.184   7.697 -1.1675  0.0196 -0.9231
 7597SOL     OW34426   2.580   4.382   8.389 -0.2177 -0.4451 -0.0698
 7597SOL    HW134427   2.574   4.299   8.436  2.6189 -1.3426 -1.3059
 7597SOL    HW234428   2.605   4.439   8.461 -2.0827  0.8920 -0.4528
 7598SOL     OW34429   2.067   3.428  13.059  0.1809 -0.2172  0.0503
 7598SOL    HW134430   2.004   3.424  12.988  0.7433  1.6369 -0.5602
 7598SOL    HW234431   2.016   3.443  13.139 -0.2821 -0.6341 -0.1692
 7599SOL     OW34432   1.176   1.590   4.034 -0.2845 -0.6652  0.0942
 7599SOL    HW134433   1.158   1.657   4.100  1.2902  1.9583 -2.1593
 7599SOL    HW234434   1.266   1.565   4.053  0.2017  1.0991  0.1234
 7600SOL     OW34435   4.673   1.835   0.464  0.4055 -0.0550  0.5433
 7600SOL    HW134436   0.008   1.816   0.525 -0.0019  1.8781  1.6179
 7600SOL    HW234437   4.689   1.926   0.441  1.4510 -0.2681  0.4246
 7601SOL     OW34438   2.267   1.395   8.825 -0.2079 -0.4683  0.4782
 7601SOL    HW134439   2.334   1.442   8.775 -0.0441  0.4393  1.5599
 7601SOL    HW234440   2.239   1.317   8.777  0.7898  0.3541 -1.4725
 7602SOL     OW34441   1.136   0.121  10.070 -0.2638  0.3706  0.2221
 7602SOL    HW134442   1.203   0.110  10.002  0.1689 -1.3678  0.9402
 7602SOL    HW234443   1.072   0.051  10.058 -2.0372  1.8378  1.1552
 7603SOL     OW34444   1.746   1.081  12.269 -0.4180 -0.6403 -0.1344
 7603SOL    HW134445   1.751   1.144  12.197 -1.6936  1.1877  1.3774
 7603SOL    HW234446   1.695   1.122  12.338  0.6566 -1.8468  1.3917
 7604SOL     OW34447   2.921   0.894  12.617  0.2014 -0.0992  0.9860
 7604SOL    HW134448   2.958   0.819  12.665  0.7210 -0.2954  0.2727
 7604SOL    HW234449   2.948   0.970  12.670  1.3204 -0.2018  0.5665
 7605SOL     OW34450   3.865   3.664   2.376 -0.2402  0.6326  0.5109
 7605SOL    HW134451   3.828   3.601   2.313  1.0666 -0.3755  0.7581
 7605SOL    HW234452   3.919   3.604   2.426  0.5396  0.6824 -0.2656
 7606SOL     OW34453   4.726   2.090   2.402 -1.0251 -0.6193  0.2321
 7606SOL    HW134454   4.675   2.049   2.473  1.3983 -0.4853  2.0653
 7606SOL    HW234455   4.707   2.183   2.417  2.6925  0.5043 -1.8041
 7607SOL     OW34456   1.838   2.800  11.476 -0.3985 -0.1012  0.7550
 7607SOL    HW134457   1.765   2.835  11.425  0.6094 -1.2681 -1.5038
 7607SOL    HW234458   1.885   2.882  11.490  0.9746 -0.7042 -0.2731
 7608SOL     OW34459   1.260   1.668   6.902 -0.2611 -0.3468  0.3514
 7608SOL    HW134460   1.292   1.702   6.986 -0.8216 -1.3330  0.9566
 7608SOL    HW234461   1.329   1.678   6.836 -1.5232  0.2137 -0.9019
 7609SOL     OW34462   2.924   3.590   4.600 -0.1728 -0.0415 -0.1395
 7609SOL    HW134463   2.998   3.607   4.659  1.5239  0.2473 -2.3266
 7609SOL    HW234464   2.982   3.549   4.535 -0.6855  1.8105 -1.7644
 7610SOL     OW34465   0.057   2.046  13.321  0.9450 -0.6481  0.0115
 7610SOL    HW134466   4.726   1.997  13.367 -1.0776  0.5832 -1.6626
 7610SOL    HW234467   0.129   1.986  13.339 -0.5001 -1.7514  2.1040
 7611SOL     OW34468   2.046   0.748  16.452  0.3003  0.2872  0.0667
 7611SOL    HW134469   2.136   0.773  16.470  1.3498 -3.5130  0.0847
 7611SOL    HW234470   2.003   0.825  16.488  0.4368  0.2827  0.2356
 7612SOL     OW34471   2.757   4.107   9.426  0.3845 -0.1406  0.0732
 7612SOL    HW134472   2.697   4.046   9.468  0.4783  0.3792  0.9570
 7612SOL    HW234473   2.774   4.077   9.337 -0.1761 -0.2063 -0.0092
 7613SOL     OW34474   2.833   0.230   7.154  0.3541  0.3203 -0.2802
 7613SOL    HW134475   2.762   0.266   7.208  0.0959  2.9773 -2.4332
 7613SOL    HW234476   2.823   0.134   7.159 -0.4366  0.4597  0.9470
 7614SOL     OW34477   3.534   4.480   2.328 -0.5536 -0.4533 -0.2454
 7614SOL    HW134478   3.535   4.466   2.233 -0.8358  1.9762 -0.6268
 7614SOL    HW234479   3.627   4.465   2.344 -1.0343 -2.5457  0.5334
 7615SOL     OW34480   2.134   3.621  10.156 -0.4414  0.2122 -0.1564
 7615SOL    HW134481   2.201   3.555  10.176 -0.4000  0.5640  0.8674
 7615SOL    HW234482   2.127   3.615  10.060  1.4747 -3.5720 -0.0518
 7616SOL     OW34483   4.625   0.185   7.015  0.2639 -0.4394 -0.5472
 7616SOL    HW134484   4.652   0.138   6.936  0.0410 -0.8218 -0.3940
 7616SOL    HW234485   4.654   0.272   6.988  1.9622 -0.5944  0.7857
 7617SOL     OW34486   3.188   1.733  15.361 -0.4756 -0.4001  0.3191
 7617SOL    HW134487   3.217   1.786  15.287 -0.7892  2.0007  1.8763
 7617SOL    HW234488   3.225   1.646  15.350 -1.5977 -0.7761 -0.5033
 7618SOL     OW34489   1.662   4.394  15.352 -0.4691  0.2624 -0.6546
 7618SOL    HW134490   1.574   4.358  15.348 -1.0579  1.5150  1.1857
 7618SOL    HW234491   1.664   4.412  15.446  3.1099  0.1914 -0.7166
 7619SOL     OW34492   4.273   0.172   1.910 -0.0497  0.0029 -0.0517
 7619SOL    HW134493   4.254   0.265   1.897 -0.6357 -0.0706  0.2782
 7619SOL    HW234494   4.203   0.137   1.965  1.1596 -1.1607  0.7797
 7620SOL     OW34495   1.627   2.800   8.251  0.3689 -0.1755 -0.1199
 7620SOL    HW134496   1.640   2.714   8.292 -1.0125 -1.4694 -2.4131
 7620SOL    HW234497   1.609   2.776   8.160  0.3615  0.4150 -0.2701
 7621SOL     OW34498   2.619   2.890   3.428  0.4997 -0.3166  0.1456
 7621SOL    HW134499   2.648   2.799   3.421  1.3454 -0.2143  2.2731
 7621SOL    HW234500   2.628   2.904   3.522 -0.8566  0.4432  0.1538
 7622SOL     OW34501   1.283   1.942   3.155  0.0859 -0.5151  0.0769
 7622SOL    HW134502   1.259   1.878   3.089  0.3749 -0.6355  0.0905
 7622SOL    HW234503   1.197   1.968   3.189 -0.5285 -0.3946 -1.6005
 7623SOL     OW34504   4.420   3.749   1.024 -0.0038  0.0750 -0.1817
 7623SOL    HW134505   4.467   3.736   0.942  1.6434  0.4642  0.6960
 7623SOL    HW234506   4.394   3.840   1.014 -0.9624  0.0536  2.1186
 7624SOL     OW34507   0.133   3.372  16.850  0.3090  0.0046  0.4840
 7624SOL    HW134508   0.180   3.405  16.773 -1.4816  0.6038 -0.3456
 7624SOL    HW234509   0.091   3.290  16.824 -0.7732 -0.0162  2.3081
 7625SOL     OW34510   3.475   3.897   2.211  0.4109  0.2872  0.0806
 7625SOL    HW134511   3.539   3.835   2.174 -1.1347 -1.0187 -0.4256
 7625SOL    HW234512   3.451   3.840   2.283 -1.0652  0.0654 -0.5851
 7626SOL     OW34513   4.221   2.957   9.165  0.1072  0.1548  0.3852
 7626SOL    HW134514   4.250   2.964   9.256  0.9769 -1.1226  0.1961
 7626SOL    HW234515   4.152   3.024   9.162 -1.3743 -1.3274  1.2095
 7627SOL     OW34516   2.174   0.649   9.573 -0.1308 -0.1857 -0.2117
 7627SOL    HW134517   2.185   0.582   9.640 -1.1081 -0.7021 -0.5654
 7627SOL    HW234518   2.079   0.661   9.571 -0.0442  0.3426 -1.0560
 7628SOL     OW34519   3.003   2.044   9.255 -0.1292  0.2313  0.2354
 7628SOL    HW134520   2.914   2.065   9.285  0.0249  2.1981 -0.7035
 7628SOL    HW234521   3.011   2.110   9.187  1.7744  2.0497  2.2069
 7629SOL     OW34522   0.181   1.306   7.380 -0.0865  0.1776  0.2834
 7629SOL    HW134523   0.155   1.392   7.348  2.1866  1.1231  0.9487
 7629SOL    HW234524   0.098   1.273   7.414  0.8335 -0.6265  1.7453
 7630SOL     OW34525   4.169   0.801   6.084  0.0701 -0.3170  0.2095
 7630SOL    HW134526   4.219   0.794   6.002  0.3940 -0.0031  0.3793
 7630SOL    HW234527   4.158   0.895   6.096 -1.9706 -0.7048  1.4314
 7631SOL     OW34528   2.496   4.481   6.726 -0.0549 -0.2690 -0.3535
 7631SOL    HW134529   2.496   4.566   6.771 -0.7829 -1.2939  1.5749
 7631SOL    HW234530   2.494   4.515   6.636 -4.4574 -0.4981 -0.3717
 7632SOL     OW34531   0.653   0.397   1.442 -0.4823  0.3921  0.0884
 7632SOL    HW134532   0.606   0.334   1.388  0.2823  0.2321 -0.3852
 7632SOL    HW234533   0.680   0.460   1.375 -0.8544 -1.5088 -1.8508
 7633SOL     OW34534   3.338   0.736   5.459 -0.7741  0.6824  0.0346
 7633SOL    HW134535   3.269   0.673   5.438 -1.4399  1.0396  1.1542
 7633SOL    HW234536   3.396   0.670   5.498 -1.7275 -0.4315 -0.4168
 7634SOL     OW34537   3.654   4.017   9.530 -0.0310  0.3601 -0.3077
 7634SOL    HW134538   3.716   4.089   9.530 -0.8505  1.0624 -1.4308
 7634SOL    HW234539   3.570   4.059   9.552  1.2743  1.7572  2.0119
 7635SOL     OW34540   0.051   1.453   6.603  0.2011  0.1865 -0.0078
 7635SOL    HW134541   0.002   1.371   6.614 -2.1210  1.5654  0.0321
 7635SOL    HW234542   0.140   1.435   6.575  0.0386  1.8620 -1.5985
 7636SOL     OW34543   4.018   3.197   9.087  0.3127  0.4989  0.0107
 7636SOL    HW134544   3.951   3.168   9.149  0.3643 -0.6807 -0.4744
 7636SOL    HW234545   4.034   3.288   9.113 -0.1010  0.9668 -1.3762
 7637SOL     OW34546   1.883   4.142   0.504 -0.7093 -0.5297  0.1232
 7637SOL    HW134547   1.953   4.080   0.525 -0.8040  0.0171  2.0128
 7637SOL    HW234548   1.818   4.113   0.568 -0.9104 -0.8565 -0.2258
 7638SOL     OW34549   0.196   0.737  14.270  0.0126  0.2118  0.6152
 7638SOL    HW134550   0.200   0.662  14.329 -0.6723 -0.2675  0.0512
 7638SOL    HW234551   0.118   0.779  14.306 -1.0204 -1.0623 -0.1640
 7639SOL     OW34552   3.815   0.851   0.034  0.3828 -0.7817  0.0227
 7639SOL    HW134553   3.728   0.882   0.008  1.6049  2.0181 -0.7065
 7639SOL    HW234554   3.796   0.777   0.091 -1.3042 -0.1603  0.2917
 7640SOL     OW34555   2.232   4.405   5.072  0.0571 -0.2334 -0.3779
 7640SOL    HW134556   2.149   4.359   5.061 -0.6409  0.9348 -0.0388
 7640SOL    HW234557   2.203   4.489   5.107 -2.6233 -1.0187 -0.7445
 7641SOL     OW34558   0.310   1.141   2.548  0.3215 -0.0913 -0.3006
 7641SOL    HW134559   0.349   1.216   2.594 -0.9682  1.3393 -1.5405
 7641SOL    HW234560   0.221   1.175   2.538  0.0529 -0.8381 -0.4393
 7642SOL     OW34561   0.148   0.563  16.206  0.0513 -0.3125  0.0722
 7642SOL    HW134562   0.123   0.610  16.126 -0.4883  0.5391  0.7542
 7642SOL    HW234563   0.232   0.602  16.232  0.4093  0.1576 -1.7838
 7643SOL     OW34564   2.205   3.221   4.787 -0.4852 -0.6396 -0.2812
 7643SOL    HW134565   2.226   3.161   4.716  0.6736 -1.5337  0.8171
 7643SOL    HW234566   2.230   3.167   4.861 -0.4812  0.0264  0.2103
 7644SOL     OW34567   0.601   2.050  17.593  0.4311 -0.0057 -0.1696
 7644SOL    HW134568   0.687   2.048  17.551  0.4567 -0.4371 -0.0982
 7644SOL    HW234569   0.612   2.133  17.640  1.5537 -0.5546  0.5490
 7645SOL     OW34570   0.495   2.146   5.401  0.5615 -0.4753 -0.5779
 7645SOL    HW134571   0.522   2.193   5.322  0.3483 -1.9401 -1.5273
 7645SOL    HW234572   0.544   2.198   5.465  2.2429 -1.3545 -1.1322
 7646SOL     OW34573   0.062   0.752   4.265  0.0943 -0.6559  0.2153
 7646SOL    HW134574   0.145   0.760   4.311  0.1926  1.3515 -0.3345
 7646SOL    HW234575   0.001   0.761   4.339  1.5000  4.0586  0.7967
 7647SOL     OW34576   2.192   0.135   2.743  0.0217  0.1683  0.5052
 7647SOL    HW134577   2.211   0.133   2.837 -1.3297 -0.4848  0.7604
 7647SOL    HW234578   2.280   0.109   2.715 -1.6609 -1.4906 -3.2095
 7648SOL     OW34579   0.273   0.349   8.985 -0.0181 -0.1941  0.8860
 7648SOL    HW134580   0.244   0.433   8.950 -0.6241 -0.3686  0.9637
 7648SOL    HW234581   0.199   0.322   9.040 -0.0159 -1.4017  0.3024
 7649SOL     OW34582   2.619   3.595  15.167 -0.1854 -0.4720  0.2089
 7649SOL    HW134583   2.635   3.683  15.132  0.8603  0.0605  2.0387
 7649SOL    HW234584   2.702   3.552  15.146  0.4132  0.7062  0.1531
 7650SOL     OW34585   0.262   1.061  14.519 -0.0223 -0.0340  0.4846
 7650SOL    HW134586   0.270   1.069  14.424 -1.3475 -0.2544  0.3647
 7650SOL    HW234587   0.337   1.108  14.555 -1.3995  1.5114  1.3319
 7651SOL     OW34588   1.494   2.403   8.930 -0.0527  0.2754 -0.5735
 7651SOL    HW134589   1.492   2.498   8.938 -0.1966 -0.0790  3.8233
 7651SOL    HW234590   1.543   2.387   8.849 -2.0776  0.5013 -1.8288
 7652SOL     OW34591   2.740   2.454   7.660  0.3688 -0.5883 -0.0015
 7652SOL    HW134592   2.724   2.500   7.743  1.2023  0.6053 -0.5063
 7652SOL    HW234593   2.716   2.363   7.675  2.1618 -0.9153  0.9655
 7653SOL     OW34594   4.120   1.751  17.703  0.1058  0.0923  0.7560
 7653SOL    HW134595   4.027   1.770  17.696 -0.0738 -0.7878  0.7846
 7653SOL    HW234596   4.121   1.702   0.039 -2.1349 -0.8344  0.2212
 7654SOL     OW34597   0.132   3.707   4.706 -1.0364 -0.2866 -0.4336
 7654SOL    HW134598   0.111   3.622   4.666 -2.6229  0.2227 -0.6922
 7654SOL    HW234599   0.214   3.726   4.660 -0.1635 -1.3217  0.6919
 7655SOL     OW34600   4.415   3.540   4.063 -0.0371 -0.5326 -0.3273
 7655SOL    HW134601   4.351   3.610   4.054 -0.7397 -1.1603 -0.2833
 7655SOL    HW234602   4.412   3.529   4.158  0.1917 -0.2689 -0.2904
 7656SOL     OW34603   2.379   4.666  10.450  1.0011  0.0423 -0.4924
 7656SOL    HW134604   2.420   0.012  10.472 -0.4903  0.6142  0.1312
 7656SOL    HW234605   2.330   4.663  10.533  0.6609  0.0312 -0.6924
 7657SOL     OW34606   3.627   2.207   7.615 -0.0137  0.2744  0.5357
 7657SOL    HW134607   3.554   2.259   7.648 -0.0761 -0.0935  0.9845
 7657SOL    HW234608   3.694   2.272   7.595 -0.1023  0.0961 -0.3243
 7658SOL     OW34609   0.007   1.433   9.729  0.0523 -0.3830 -0.3782
 7658SOL    HW134610   0.024   1.408   9.638 -2.5997 -1.3040 -0.6295
 7658SOL    HW234611   4.649   1.437   9.737 -0.0195 -0.9564 -0.9127
 7659SOL     OW34612   0.532   4.443  10.210  0.2342 -0.3298  0.3442
 7659SOL    HW134613   0.519   4.350  10.228 -0.7247 -0.5500 -1.5585
 7659SOL    HW234614   0.457   4.478  10.257 -1.5112 -2.1063 -1.1475
 7660SOL     OW34615   2.443   3.609   6.515 -0.5647 -0.1005 -0.2552
 7660SOL    HW134616   2.437   3.574   6.426 -1.4608 -1.7469  0.4424
 7660SOL    HW234617   2.491   3.690   6.502  0.2733 -0.6732 -0.7333
 7661SOL     OW34618   3.319   3.654   6.413  0.4669 -0.1734  0.2223
 7661SOL    HW134619   3.409   3.677   6.434  0.3207  1.1364 -0.5559
 7661SOL    HW234620   3.311   3.699   6.328 -1.3670  1.3245  1.1906
 7662SOL     OW34621   1.509   3.136   4.859 -0.1436 -0.2244  0.6175
 7662SOL    HW134622   1.429   3.177   4.826  1.4743  1.0330 -1.8271
 7662SOL    HW234623   1.538   3.207   4.917  1.7571 -0.5245  0.0386
 7663SOL     OW34624   3.388   3.866   4.591 -0.1540 -0.2116  0.6751
 7663SOL    HW134625   3.293   3.875   4.588 -0.1319 -0.6911 -1.3561
 7663SOL    HW234626   3.410   3.785   4.544 -0.9193 -0.2056  0.3047
 7664SOL     OW34627   3.622   3.676  17.151 -0.6513 -0.9218  0.4252
 7664SOL    HW134628   3.698   3.661  17.095 -0.8778  2.4584 -0.8092
 7664SOL    HW234629   3.654   3.646  17.236  0.6472  1.1071  0.6571
 7665SOL     OW34630   0.411   0.340   7.855  0.4438 -0.2824 -0.3064
 7665SOL    HW134631   0.385   0.252   7.829 -0.1680 -0.5617  1.2381
 7665SOL    HW234632   0.383   0.346   7.946  0.1932  0.0360 -0.4042
 7666SOL     OW34633   0.336   3.985   3.937  0.0336  0.4907 -0.1899
 7666SOL    HW134634   0.409   4.046   3.927 -1.2618  1.9007 -1.1127
 7666SOL    HW234635   0.347   3.929   3.861  2.1064  1.1968 -0.4086
 7667SOL     OW34636   3.788   2.999   9.500 -0.1083 -0.4735 -0.1458
 7667SOL    HW134637   3.784   3.048   9.582  3.9174 -0.0697 -0.1808
 7667SOL    HW234638   3.698   2.968   9.491 -0.4176  0.9906 -2.0784
 7668SOL     OW34639   2.467   0.996   8.370 -0.0878 -0.3607 -0.5953
 7668SOL    HW134640   2.474   1.054   8.447  2.6044 -2.6355  0.9048
 7668SOL    HW234641   2.532   1.040   8.315  0.8047 -1.2669 -0.2789
 7669SOL     OW34642   3.843   0.197   1.900 -0.2932 -0.1355 -0.3548
 7669SOL    HW134643   3.824   0.155   1.816 -1.2513 -1.1946  0.3924
 7669SOL    HW234644   3.786   0.157   1.966 -0.9615  0.0020 -0.8516
 7670SOL     OW34645   3.227   4.580  12.540  0.5024 -0.2132 -0.1037
 7670SOL    HW134646   3.171   4.585  12.618  0.0789  0.4468 -0.4540
 7670SOL    HW234647   3.299   4.622  12.586 -1.0567 -0.1003  2.2310
 7671SOL     OW34648   1.385   4.008   5.831  0.7434 -0.3649 -0.4859
 7671SOL    HW134649   1.399   3.913   5.832 -1.9510 -0.7599 -0.7236
 7671SOL    HW234650   1.291   4.024   5.822  1.3962  3.4340 -0.4599
 7672SOL     OW34651   0.285   3.478   7.213  0.6680 -0.0913 -0.1771
 7672SOL    HW134652   0.216   3.528   7.169 -0.3829 -0.5656  0.9263
 7672SOL    HW234653   0.361   3.533   7.196  0.8689 -0.2776  0.1309
 7673SOL     OW34654   2.061   1.476   5.269 -0.1698 -0.2934  0.2637
 7673SOL    HW134655   2.083   1.567   5.289 -0.9374 -0.3590  1.4372
 7673SOL    HW234656   2.032   1.489   5.179 -0.6093 -1.5245  0.2283
 7674SOL     OW34657   1.832   3.062   8.746  0.0617  0.0509 -0.1157
 7674SOL    HW134658   1.884   3.061   8.665 -0.4093  1.1117 -0.4149
 7674SOL    HW234659   1.903   3.086   8.805 -1.0145 -0.0832  1.2228
 7675SOL     OW34660   1.185   0.202   8.685 -0.3655  0.0091  0.3348
 7675SOL    HW134661   1.145   0.161   8.763 -0.9815  0.6779  0.3698
 7675SOL    HW234662   1.117   0.189   8.620 -0.5876  0.0763  0.5520
 7676SOL     OW34663   2.670   4.432   7.286 -0.1096 -0.0575  0.2351
 7676SOL    HW134664   2.719   4.359   7.249  0.3823 -0.3474  1.4637
 7676SOL    HW234665   2.705   4.442   7.375  0.7194 -0.8890  0.0054
 7677SOL     OW34666   4.526   1.037   4.104 -1.0000 -0.0355  0.2536
 7677SOL    HW134667   4.435   1.038   4.134 -0.8952  1.5441  0.4920
 7677SOL    HW234668   4.518   1.072   4.016 -2.7183 -1.9409 -0.3583
 7678SOL     OW34669   2.298   1.483   9.066 -0.6189 -0.2263 -0.2902
 7678SOL    HW134670   2.222   1.434   9.098  0.4669 -0.0905  2.4904
 7678SOL    HW234671   2.303   1.439   8.981  0.0375  0.2616 -0.5012
 7679SOL     OW34672   2.165   4.623   4.839 -0.0990 -0.0035 -0.4901
 7679SOL    HW134673   2.178   4.629   4.933  1.0102 -1.7249 -0.5355
 7679SOL    HW234674   2.247   4.661   4.807 -0.4775  1.4065  0.2417
 7680SOL     OW34675   4.607   3.322   3.704 -0.0488 -0.6054 -0.1334
 7680SOL    HW134676   4.607   3.368   3.788  0.3406 -0.1032 -0.4114
 7680SOL    HW234677   4.523   3.275   3.703 -0.8477  0.7546  1.4184
 7681SOL     OW34678   0.851   0.010  10.709 -0.0046  0.1061  0.1790
 7681SOL    HW134679   0.902   0.090  10.720 -1.5568  1.0592  0.5971
 7681SOL    HW234680   0.795   0.024  10.786  0.9755  0.5710  0.8021
 7682SOL     OW34681   2.958   3.722   1.661  0.1887 -0.4156 -0.8269
 7682SOL    HW134682   3.032   3.689   1.610 -0.2545 -0.9457 -1.1336
 7682SOL    HW234683   3.004   3.756   1.738 -1.1975 -0.7549  0.1774
 7683SOL     OW34684   4.112   4.716  15.037 -0.8359 -0.0910 -0.5205
 7683SOL    HW134685   4.075   0.061  15.071  0.5468  0.2654  0.1108
 7683SOL    HW234686   4.050   4.683  14.971  0.8060 -3.4006 -0.4085
 7684SOL     OW34687   0.946   0.880   2.791  0.3222  0.4383 -0.1150
 7684SOL    HW134688   0.975   0.839   2.710  1.7236 -0.0388  0.6297
 7684SOL    HW234689   0.912   0.964   2.761  0.0134  0.6508  0.7999
 7685SOL     OW34690   1.738   0.601   6.923  0.2686  0.0339 -0.1528
 7685SOL    HW134691   1.729   0.532   6.989  1.3016  0.2789  0.2411
 7685SOL    HW234692   1.670   0.659   6.957 -0.0289 -0.7423  0.5933
 7686SOL     OW34693   0.139   3.192   3.219  0.1896  0.5081  0.1034
 7686SOL    HW134694   0.231   3.206   3.241 -0.7063 -1.3652  5.2181
 7686SOL    HW234695   0.116   3.131   3.289  0.2889  0.3387 -0.0136
 7687SOL     OW34696   2.897   2.489   2.721 -0.0964  0.4503 -0.5605
 7687SOL    HW134697   2.985   2.456   2.701  0.5949  1.3039  0.9990
 7687SOL    HW234698   2.925   2.578   2.743 -0.0116  0.1583  0.4921
 7688SOL     OW34699   1.847   0.302   0.811  0.1989 -0.0206 -0.1712
 7688SOL    HW134700   1.835   0.294   0.717  2.6095 -0.6640 -0.4034
 7688SOL    HW234701   1.935   0.339   0.804  1.4257 -2.3518  2.9080
 7689SOL     OW34702   3.959   2.751   2.112  0.0958  0.0552  0.1254
 7689SOL    HW134703   3.906   2.787   2.041  0.4877  1.2174  0.4120
 7689SOL    HW234704   3.968   2.814   2.183 -1.7209  0.5854 -0.1292
 7690SOL     OW34705   1.415   0.555   6.401 -1.0309 -0.3639 -0.1924
 7690SOL    HW134706   1.370   0.619   6.457 -1.4036 -0.9125  0.1359
 7690SOL    HW234707   1.488   0.607   6.368 -1.4026  0.8389  0.8422
 7691SOL     OW34708   1.435   1.704   0.566  0.1841 -0.2482  0.4711
 7691SOL    HW134709   1.518   1.750   0.566 -0.9692  1.8404  0.2635
 7691SOL    HW234710   1.391   1.759   0.501 -2.2963 -2.2459  0.4375
 7692SOL     OW34711   2.943   4.045  14.094  0.5255 -0.0182 -0.3429
 7692SOL    HW134712   2.917   3.953  14.092  0.5611 -0.0458  0.6872
 7692SOL    HW234713   2.873   4.078  14.150  1.1379 -1.6089  1.3403
 7693SOL     OW34714   3.252   3.703  14.496  0.1040 -0.5674  0.2796
 7693SOL    HW134715   3.340   3.668  14.478  0.2186  0.2044 -0.6987
 7693SOL    HW234716   3.208   3.631  14.542 -0.2602 -0.3122  0.3285
 7694SOL     OW34717   1.812   1.839  16.115 -0.3618  1.0843  0.0742
 7694SOL    HW134718   1.779   1.795  16.037 -1.5196 -2.1099  2.3172
 7694SOL    HW234719   1.751   1.912  16.123  1.0804  2.0770  2.1256
 7695SOL     OW34720   2.675   0.931   7.502 -0.7877 -0.0532  0.4397
 7695SOL    HW134721   2.581   0.942   7.513 -0.6297  0.0079  1.7180
 7695SOL    HW234722   2.670   0.859   7.439  2.6997 -0.2923  0.4048
 7696SOL     OW34723   1.879   2.283  10.820 -0.0345 -0.2278 -0.3916
 7696SOL    HW134724   1.867   2.354  10.882 -1.5405 -1.5745  0.8931
 7696SOL    HW234725   1.954   2.232  10.850 -0.6197 -0.0782  1.3453
 7697SOL     OW34726   1.687   3.604   4.476 -0.0863 -0.3288 -0.2816
 7697SOL    HW134727   1.680   3.666   4.404  0.0431 -0.8348 -0.7298
 7697SOL    HW234728   1.742   3.657   4.534  0.1925 -0.9800  0.0447
 7698SOL     OW34729   4.074   2.809   0.958 -0.2260  0.0293 -0.5888
 7698SOL    HW134730   4.014   2.777   1.025  0.5695 -1.5100 -0.6269
 7698SOL    HW234731   4.071   2.901   0.985  2.9221  0.1375 -0.5581
 7699SOL     OW34732   0.350   2.176   9.457  0.0906  0.1469 -0.0323
 7699SOL    HW134733   0.259   2.149   9.448 -0.6229  2.2129  0.7632
 7699SOL    HW234734   0.331   2.269   9.443 -0.9562 -0.0498  0.1318
 7700SOL     OW34735   1.099   3.055   2.577  0.2949  0.1360  0.1439
 7700SOL    HW134736   1.157   3.132   2.578 -0.3180  0.5718  1.4849
 7700SOL    HW234737   1.159   2.984   2.553 -0.4217 -1.0821  2.0530
 7701SOL     OW34738   1.194   2.233   5.799 -0.2668 -0.2332 -0.4836
 7701SOL    HW134739   1.213   2.284   5.878  1.6266 -1.4810 -0.1444
 7701SOL    HW234740   1.281   2.207   5.769  0.2498  1.6800 -0.6769
 7702SOL     OW34741   4.255   0.675   2.755 -0.2839 -0.4443 -0.0108
 7702SOL    HW134742   4.283   0.657   2.844  2.1174  0.6724 -0.5557
 7702SOL    HW234743   4.342   0.696   2.722 -1.2343 -0.3600 -2.5216
 7703SOL     OW34744   2.189   2.583   8.558  0.8493 -0.1430 -0.4741
 7703SOL    HW134745   2.180   2.493   8.590 -0.8912  0.1861 -0.0538
 7703SOL    HW234746   2.249   2.628   8.617  0.3296 -2.0512  1.5160
 7704SOL     OW34747   3.377   1.513   5.438  0.5655  0.2363  0.1220
 7704SOL    HW134748   3.460   1.526   5.393 -0.4674  2.8985 -1.0343
 7704SOL    HW234749   3.383   1.423   5.470 -0.9312  0.5937  1.4236
 7705SOL     OW34750   0.855   3.309   6.709  0.0711  0.5464  0.3026
 7705SOL    HW134751   0.829   3.377   6.771 -2.5516 -0.0703 -0.1087
 7705SOL    HW234752   0.932   3.271   6.750  0.4375  0.4486 -0.4943
 7706SOL     OW34753   3.622   0.727   7.572 -0.5687 -0.0195 -0.0104
 7706SOL    HW134754   3.657   0.811   7.603 -2.1122  0.7344 -0.3323
 7706SOL    HW234755   3.574   0.693   7.648 -0.1460 -0.1874  0.1837
 7707SOL     OW34756   1.537   0.736   1.439  0.7076  0.3469  0.5585
 7707SOL    HW134757   1.530   0.697   1.526 -0.4352 -1.1415 -0.2086
 7707SOL    HW234758   1.629   0.761   1.437  0.7156  0.4268  1.9325
 7708SOL     OW34759   0.405   1.494   8.428  0.1468  0.3550 -0.1779
 7708SOL    HW134760   0.442   1.445   8.355  1.0347  1.2565 -0.3332
 7708SOL    HW234761   0.479   1.502   8.488  0.5637  1.1650 -0.8006
 7709SOL     OW34762   1.647   3.851  16.458  0.2724  0.3463 -0.0742
 7709SOL    HW134763   1.666   3.945  16.458 -1.1373  0.6358 -0.1282
 7709SOL    HW234764   1.586   3.844  16.532  1.5717 -2.2587  0.7385
 7710SOL     OW34765   4.654   4.343   2.513  0.3814  0.7114 -0.4323
 7710SOL    HW134766   4.620   4.433   2.520 -0.6469  0.3173 -0.4245
 7710SOL    HW234767   4.715   4.342   2.587  0.0984 -2.1617 -0.2634
 7711SOL     OW34768   2.257   3.631  11.476  0.1446  0.2417 -0.3524
 7711SOL    HW134769   2.281   3.674  11.559 -3.1282 -0.5333  1.0193
 7711SOL    HW234770   2.315   3.555  11.473 -1.1162 -0.7245 -0.3094
 7712SOL     OW34771   3.455   0.712  13.166  0.7381  0.1149 -0.1050
 7712SOL    HW134772   3.532   0.765  13.186 -0.2108  1.0766  1.0190
 7712SOL    HW234773   3.497   0.626  13.165  0.2028 -0.1090 -2.1642
 7713SOL     OW34774   0.750   1.741   8.304  0.7300 -0.1815 -0.4737
 7713SOL    HW134775   0.770   1.647   8.301  0.7075 -0.2411  1.4292
 7713SOL    HW234776   0.687   1.745   8.375 -2.7254 -0.8454 -3.4988
 7714SOL     OW34777   4.432   3.248   6.942  0.0117  0.0590 -0.5463
 7714SOL    HW134778   4.510   3.296   6.914 -0.6718  1.9137  0.7387
 7714SOL    HW234779   4.456   3.155   6.937  2.5786  0.6254  1.6604
 7715SOL     OW34780   3.918   3.125  12.758 -0.0058 -0.0424  0.3111
 7715SOL    HW134781   3.877   3.130  12.672  3.6800 -1.0934 -1.5177
 7715SOL    HW234782   3.957   3.038  12.748 -0.7333 -0.4979  1.4375
 7716SOL     OW34783   1.046   0.702   9.012 -0.1852 -0.2560  0.0617
 7716SOL    HW134784   1.054   0.747   8.928  1.6791 -0.9614 -0.1443
 7716SOL    HW234785   0.995   0.625   8.990  1.4352 -1.4749  0.5680
 7717SOL     OW34786   2.214   4.624  16.387 -0.6080  0.2000  0.0880
 7717SOL    HW134787   2.259   4.672  16.318 -0.1512 -1.5196 -0.8040
 7717SOL    HW234788   2.123   4.650  16.370 -0.1896  0.0092 -2.3670
 7718SOL     OW34789   1.094   4.363   7.360  0.1251 -0.2271  0.2279
 7718SOL    HW134790   1.082   4.433   7.296  0.0784  0.5147  1.0553
 7718SOL    HW234791   1.073   4.291   7.300  0.9976  0.9125 -1.4432
 7719SOL     OW34792   3.597   0.031   7.608  0.5084 -0.1061 -0.1382
 7719SOL    HW134793   3.665   0.074   7.660  2.1575 -2.4358 -0.3582
 7719SOL    HW234794   3.553   4.713   7.672 -1.8612  0.3802 -1.3753
 7720SOL     OW34795   2.973   4.497   6.721  0.4131  0.1948  0.0646
 7720SOL    HW134796   2.991   4.590   6.703  2.1453 -0.1749 -0.1291
 7720SOL    HW234797   3.057   4.459   6.695 -1.2432 -2.3894 -1.4258
 7721SOL     OW34798   4.539   1.822   7.081  0.3034  0.4279 -0.1891
 7721SOL    HW134799   4.456   1.867   7.068 -0.1498 -0.0063  1.0946
 7721SOL    HW234800   4.589   1.881   7.138  2.0936 -0.1560 -1.1304
 7722SOL     OW34801   0.680   1.240   9.171  0.1164  0.0561  0.0423
 7722SOL    HW134802   0.623   1.260   9.096  2.6593  2.3122 -1.2840
 7722SOL    HW234803   0.706   1.330   9.193  1.1603 -0.0491 -0.7552
 7723SOL     OW34804   0.068   1.923  14.560  0.5350 -0.1639  0.3982
 7723SOL    HW134805   0.085   1.872  14.639 -1.0969 -1.2764  0.0484
 7723SOL    HW234806   0.118   1.884  14.488 -1.8647 -1.9918 -0.2886
 7724SOL     OW34807   4.116   4.133   3.348  0.3637  0.0022  0.1321
 7724SOL    HW134808   4.120   4.041   3.375  1.2446 -0.1633 -0.5205
 7724SOL    HW234809   4.050   4.129   3.278  0.8586 -0.2165 -0.3259
 7725SOL     OW34810   2.035   2.830   4.765 -0.4100 -0.6444 -0.0612
 7725SOL    HW134811   2.097   2.766   4.730  0.0716 -0.4757  0.4941
 7725SOL    HW234812   2.044   2.906   4.707 -2.9858 -0.3919 -0.1707
 7726SOL     OW34813   3.793   2.707   1.436  0.0237 -0.1073  0.2967
 7726SOL    HW134814   3.847   2.786   1.425 -1.3317  0.6373 -0.9306
 7726SOL    HW234815   3.853   2.634   1.421 -0.5520 -0.8008  1.4120
 7727SOL     OW34816   2.921   3.483   9.218  0.0047  0.1798  0.2376
 7727SOL    HW134817   2.864   3.406   9.220  1.7649 -1.1364 -1.5016
 7727SOL    HW234818   2.867   3.559   9.197 -1.4267 -0.9188 -0.0539
 7728SOL     OW34819   4.145   4.142  11.779 -0.5878  0.2345 -0.2296
 7728SOL    HW134820   4.231   4.143  11.738 -0.9917  1.2013 -1.0465
 7728SOL    HW234821   4.158   4.106  11.867 -3.2931 -1.9380 -0.7325
 7729SOL     OW34822   3.705   1.746   3.696 -0.0452  0.1468  0.0065
 7729SOL    HW134823   3.718   1.760   3.603  0.9650  1.1704  0.2920
 7729SOL    HW234824   3.624   1.797   3.698  0.9312  1.6253  1.7840
 7730SOL     OW34825   3.246   4.731   8.281  0.0868  0.1751  0.6067
 7730SOL    HW134826   3.286   4.653   8.321  1.6602 -1.0875 -3.4122
 7730SOL    HW234827   3.181   4.688   8.226  1.2721  0.3033 -0.9122
 7731SOL     OW34828   3.744   0.321  17.068 -0.5466  0.1493  0.7808
 7731SOL    HW134829   3.700   0.353  17.147 -2.0721 -2.7326  1.1221
 7731SOL    HW234830   3.715   0.383  17.001 -1.0671  0.8530  1.6608
 7732SOL     OW34831   2.060   3.924  17.730  0.0404 -0.2478 -0.2991
 7732SOL    HW134832   2.082   3.991  17.665 -0.0467 -0.7132 -0.7999
 7732SOL    HW234833   1.965   3.920  17.720  0.1666  0.5056 -1.8335
 7733SOL     OW34834   3.079   4.649   2.011 -0.1361 -0.0615 -0.2718
 7733SOL    HW134835   3.089   4.610   1.924 -1.2577 -0.6533 -0.1346
 7733SOL    HW234836   3.067   4.572   2.066 -0.9198 -1.3134 -2.2121
 7734SOL     OW34837   4.022   2.508   1.435  0.0329 -0.2721  0.1247
 7734SOL    HW134838   3.941   2.472   1.473  1.5415 -0.5690  3.0990
 7734SOL    HW234839   4.066   2.519   1.520  1.5036 -0.5605 -0.5989
 7735SOL     OW34840   0.368   3.832   3.495 -0.7629 -0.0784 -0.4568
 7735SOL    HW134841   0.376   3.883   3.415  2.5873 -0.0708 -0.1147
 7735SOL    HW234842   0.354   3.747   3.453  1.2920 -0.7076  0.1232
 7736SOL     OW34843   4.185   2.968   7.401 -0.5358  0.2153  0.3797
 7736SOL    HW134844   4.195   3.018   7.482  1.8355 -0.0562  0.2428
 7736SOL    HW234845   4.106   2.917   7.421 -0.3064  0.2467  1.3236
 7737SOL     OW34846   4.129   3.981  10.815  0.0488 -0.4272  0.6174
 7737SOL    HW134847   4.069   3.910  10.791  2.0652 -2.8912  2.8066
 7737SOL    HW234848   4.076   4.032  10.876  1.3112  0.7948  0.6948
 7738SOL     OW34849   3.467   3.388   4.975 -0.4826 -0.0689 -0.7436
 7738SOL    HW134850   3.541   3.374   4.916  1.8578 -1.5758  2.5528
 7738SOL    HW234851   3.519   3.430   5.043  1.0293  0.6494 -2.3510
 7739SOL     OW34852   0.583   4.030  17.235 -0.0527 -0.0455  0.7835
 7739SOL    HW134853   0.521   4.046  17.165 -0.5790 -1.1725  0.9945
 7739SOL    HW234854   0.665   4.058  17.193 -0.0885 -0.9040  0.1355
 7740SOL     OW34855   2.773   4.714   3.849  0.0392  0.2353  0.6392
 7740SOL    HW134856   2.797   4.716   3.942  1.0083  0.3984  0.3841
 7740SOL    HW234857   2.719   0.055   3.844 -3.0294 -1.9913 -1.1076
 7741SOL     OW34858   4.315   1.292   9.130  0.1247 -0.0420 -0.1545
 7741SOL    HW134859   4.306   1.249   9.215 -3.0527  0.6224 -0.1703
 7741SOL    HW234860   4.408   1.277   9.112  0.6025 -1.8293  3.7929
 7742SOL     OW34861   3.096   4.283   6.929 -0.1327 -0.0303  0.9412
 7742SOL    HW134862   3.086   4.284   6.834 -0.2743 -1.2830  0.9409
 7742SOL    HW234863   3.177   4.331   6.945 -0.3725  0.1865  1.5395
 7743SOL     OW34864   1.937   0.090  16.083 -0.0942 -0.0955  0.0330
 7743SOL    HW134865   1.843   0.106  16.072 -0.1023 -1.8384 -2.4439
 7743SOL    HW234866   1.971   0.176  16.055 -2.1950  0.7216 -0.0171
 7744SOL     OW34867   4.654   1.258   1.347 -0.7662  0.6202 -0.3020
 7744SOL    HW134868   4.693   1.186   1.299 -0.5584  2.0064 -2.2259
 7744SOL    HW234869   4.560   1.242   1.352 -0.7997  0.9205  0.0301
 7745SOL     OW34870   3.548   2.533   9.445 -0.1505 -0.0148  0.2706
 7745SOL    HW134871   3.641   2.552   9.458 -0.7127  2.4218  0.5991
 7745SOL    HW234872   3.547   2.540   9.350 -1.6083 -1.9830  0.1195
 7746SOL     OW34873   0.251   1.366  17.101  0.4225 -0.2228 -0.0866
 7746SOL    HW134874   0.346   1.357  17.092  0.8208 -0.0506  3.6339
 7746SOL    HW234875   0.246   1.428  17.174  0.1789  0.3551 -0.5998
 7747SOL     OW34876   3.884   3.143   7.240 -0.2296 -0.4025 -0.5804
 7747SOL    HW134877   3.930   3.090   7.305 -2.8905 -0.7589  0.9807
 7747SOL    HW234878   3.957   3.172   7.184  0.4547  0.0807  0.5524
 7748SOL     OW34879   2.651   2.816  10.976 -0.4820 -0.3595  0.2924
 7748SOL    HW134880   2.643   2.726  10.944 -0.5365  0.4035 -1.8482
 7748SOL    HW234881   2.678   2.800  11.066 -2.0900 -0.9248  0.6821
 7749SOL     OW34882   4.221   0.100   4.718 -0.5835  0.4751  0.2830
 7749SOL    HW134883   4.300   0.135   4.758 -0.5600  0.8254 -0.0699
 7749SOL    HW234884   4.214   0.017   4.765 -1.8770  1.0086  1.0376
 7750SOL     OW34885   2.826   2.956   9.044 -0.2408  0.1326 -0.3013
 7750SOL    HW134886   2.914   2.978   9.013  0.2434 -0.6525  0.5013
 7750SOL    HW234887   2.830   3.000   9.129 -0.7621 -1.0395  0.3480
 7751SOL     OW34888   0.313   0.507   6.896 -0.3490  0.4166  0.3499
 7751SOL    HW134889   0.340   0.574   6.959 -1.2937 -0.6408  1.8700
 7751SOL    HW234890   0.237   0.466   6.937  0.6058 -0.9073  0.8119
 7752SOL     OW34891   0.413   4.015  17.011 -0.3551 -0.1062  0.3449
 7752SOL    HW134892   0.393   3.930  16.974  1.6212 -0.0323 -0.9193
 7752SOL    HW234893   0.330   4.044  17.049 -0.3460  0.9880 -0.4651
 7753SOL     OW34894   3.134   3.389   7.788  0.9563  0.2365  0.1340
 7753SOL    HW134895   3.184   3.337   7.725 -0.7936 -0.5526 -0.6123
 7753SOL    HW234896   3.195   3.449   7.831  0.3874  0.7535  0.2134
 7754SOL     OW34897   4.066   2.884   8.880  0.0376 -0.0127 -0.7306
 7754SOL    HW134898   4.110   2.869   8.796  1.3286 -0.5052  0.0317
 7754SOL    HW234899   4.095   2.801   8.918  1.7273 -0.5334 -3.1759
 7755SOL     OW34900   3.935   1.263   5.004  0.0419 -0.2151  0.2363
 7755SOL    HW134901   3.904   1.175   5.027 -2.5057 -0.1819 -3.0908
 7755SOL    HW234902   3.963   1.247   4.914  0.7803  2.3996 -0.0021
 7756SOL     OW34903   0.960   4.549   3.109  0.0710  0.0863 -0.0193
 7756SOL    HW134904   1.021   4.573   3.039  1.6470  1.1802  1.7161
 7756SOL    HW234905   0.924   4.634   3.133  1.7043  0.1093  2.4322
 7757SOL     OW34906   3.119   4.497  12.296  0.0170 -0.5570  0.0153
 7757SOL    HW134907   3.151   4.509  12.386 -1.0599  1.7480  0.1051
 7757SOL    HW234908   3.148   4.409  12.272  0.9958  0.6481 -3.1553
 7758SOL     OW34909   1.095   0.961   5.813 -0.2545 -0.3417  0.0756
 7758SOL    HW134910   1.142   0.925   5.888  1.4767 -0.3971 -1.0039
 7758SOL    HW234911   1.068   1.048   5.839  2.2684  0.7401 -0.9164
 7759SOL     OW34912   2.280   2.336  17.687  0.1095 -0.1655 -0.2147
 7759SOL    HW134913   2.206   2.311  17.631  1.7575 -0.9286 -2.0434
 7759SOL    HW234914   2.337   2.259  17.686  1.0755  0.5578 -0.0310
 7760SOL     OW34915   2.861   0.013   3.302 -0.1990 -0.4496 -0.2362
 7760SOL    HW134916   2.781   4.733   3.351 -0.7133  1.4729 -0.4189
 7760SOL    HW234917   2.884   4.658   3.286 -0.5314 -0.4798 -0.5358
 7761SOL     OW34918   0.282   3.293   5.386  0.0524 -0.2718  0.3197
 7761SOL    HW134919   0.303   3.383   5.361 -1.5158 -0.2786 -1.0029
 7761SOL    HW234920   0.223   3.302   5.460  1.0202 -0.1593  1.0783
 7762SOL     OW34921   3.653   1.948   5.753 -0.3572  0.2207  0.2554
 7762SOL    HW134922   3.701   2.023   5.719 -0.2655  0.4681  0.9279
 7762SOL    HW234923   3.728   1.910   5.798 -0.8046  1.3153  1.9249
 7763SOL     OW34924   4.641   4.153  10.814  0.3276 -0.2979  0.0416
 7763SOL    HW134925   4.551   4.143  10.845  0.1518 -0.7359 -0.6325
 7763SOL    HW234926   4.678   4.083  10.868 -0.9329 -1.4118 -0.5509
 7764SOL     OW34927   3.565   0.021   5.859 -0.0474  0.4758  0.0172
 7764SOL    HW134928   3.597   0.103   5.897 -0.0712 -0.3796  1.8981
 7764SOL    HW234929   3.493   0.003   5.919  0.2106  1.5536  0.6605
 7765SOL     OW34930   4.144   3.514   8.796 -0.0144  0.1182 -0.6834
 7765SOL    HW134931   4.098   3.558   8.724 -0.3771  1.1541  0.1834
 7765SOL    HW234932   4.209   3.582   8.812  2.1205 -1.9818 -0.4230
 7766SOL     OW34933   3.200   2.331   4.808 -0.6466  0.2404  0.0574
 7766SOL    HW134934   3.150   2.261   4.766 -0.3256  0.3176 -0.4533
 7766SOL    HW234935   3.240   2.277   4.877  1.0574  1.3709 -0.0471
 7767SOL     OW34936   1.674   0.187   3.701  0.5739  0.0422 -0.2015
 7767SOL    HW134937   1.740   0.161   3.765  1.1123 -0.4247 -0.9450
 7767SOL    HW234938   1.700   0.148   3.617 -0.4304 -0.1027 -0.4421
 7768SOL     OW34939   1.381   4.294   2.486  0.2434  0.1044  0.1916
 7768SOL    HW134940   1.448   4.235   2.451 -0.9339 -0.5103 -1.0060
 7768SOL    HW234941   1.312   4.236   2.518 -0.7092  1.4125  0.5254
 7769SOL     OW34942   4.031   3.848   4.057  0.4561 -0.3072 -0.8152
 7769SOL    HW134943   3.986   3.930   4.077  0.2052 -0.2225 -1.7728
 7769SOL    HW234944   4.120   3.875   4.076  0.4522  1.1247 -2.8902
 7770SOL     OW34945   3.679   0.244   1.628  0.3386  0.6387  0.2188
 7770SOL    HW134946   3.652   0.335   1.620  0.0658  0.5227 -0.1764
 7770SOL    HW234947   3.630   0.216   1.706 -0.8956 -1.6842 -1.3705
 7771SOL     OW34948   3.487   2.386   1.755 -0.5066 -0.1066 -0.0609
 7771SOL    HW134949   3.502   2.474   1.790  1.2062  0.5499 -2.4540
 7771SOL    HW234950   3.467   2.421   1.668 -0.3713 -0.1875 -0.1239
 7772SOL     OW34951   0.392   1.477   6.661  0.2577  1.0259  0.6682
 7772SOL    HW134952   0.484   1.502   6.650  0.4884 -0.4248 -0.5818
 7772SOL    HW234953   0.378   1.408   6.596 -1.8129 -0.1829  2.4069
 7773SOL     OW34954   3.590   1.721  10.638 -0.2636  0.3289  0.5604
 7773SOL    HW134955   3.661   1.721  10.703 -2.2799  0.1674  2.7674
 7773SOL    HW234956   3.632   1.676  10.565 -0.5422 -0.1361  0.6870
 7774SOL     OW34957   3.081   0.604  10.688  0.2632 -0.6778 -0.0366
 7774SOL    HW134958   3.112   0.686  10.727 -0.1223 -0.1107 -0.9154
 7774SOL    HW234959   3.129   0.598  10.606 -0.3900  2.6378 -0.6789
 7775SOL     OW34960   3.766   2.284  10.010 -0.0281  0.2206  0.8580
 7775SOL    HW134961   3.698   2.288  10.078  0.6687  2.5492  1.4136
 7775SOL    HW234962   3.844   2.282  10.065  0.6874  0.4399 -0.1648
 7776SOL     OW34963   1.096   2.246   6.800  0.5251 -0.2016 -0.5859
 7776SOL    HW134964   1.057   2.319   6.752  0.4793  0.3196  0.2426
 7776SOL    HW234965   1.061   2.170   6.753  1.3588  0.8508 -2.9173
 7777SOL     OW34966   1.339   2.452   3.153  0.8056 -0.2189 -0.1098
 7777SOL    HW134967   1.399   2.487   3.218  0.1422  1.8277 -0.5982
 7777SOL    HW234968   1.384   2.381   3.106  2.1214 -0.8934  2.1443
 7778SOL     OW34969   4.310   0.278   5.184  0.5663 -0.5119  0.0534
 7778SOL    HW134970   4.316   0.340   5.112  3.6308 -2.7745 -1.6534
 7778SOL    HW234971   4.260   0.209   5.139  0.8594 -0.7403  0.0740
 7779SOL     OW34972   3.049   1.993   2.662  0.2598 -1.0877  0.1913
 7779SOL    HW134973   3.075   1.902   2.674  1.3821 -0.7159  0.5337
 7779SOL    HW234974   2.954   1.982   2.662  0.2397 -0.9149  1.1448
 7780SOL     OW34975   2.045   2.445  10.401 -0.5822 -0.5475  0.3599
 7780SOL    HW134976   1.961   2.424  10.441 -1.5299 -0.8151 -1.7861
 7780SOL    HW234977   2.099   2.480  10.472  0.3729 -1.6923  0.1990
 7781SOL     OW34978   2.151   2.644   5.158  0.2292  0.2632  0.3653
 7781SOL    HW134979   2.192   2.558   5.171 -0.3608 -0.0805 -0.0272
 7781SOL    HW234980   2.203   2.673   5.083 -0.3409  0.8604  0.2027
 7782SOL     OW34981   0.532   0.375   4.565  0.1210  0.9758  0.1149
 7782SOL    HW134982   0.553   0.369   4.472  1.4217  0.4311  0.4388
 7782SOL    HW234983   0.625   0.374   4.588  1.2507  0.6751 -4.5964
 7783SOL     OW34984   4.244   1.053   4.946 -0.4093 -0.6085  0.2377
 7783SOL    HW134985   4.315   0.990   4.930 -0.2677 -0.4504  0.2525
 7783SOL    HW234986   4.285   1.108   5.013 -1.6413 -0.8838  1.2128
 7784SOL     OW34987   2.538   4.144  11.947  0.0310  0.1514 -0.0093
 7784SOL    HW134988   2.616   4.133  11.892  1.6355  1.4499  2.0211
 7784SOL    HW234989   2.497   4.059  11.927 -0.2517 -0.0151  1.2746
 7785SOL     OW34990   2.886   3.298  14.307  0.3603 -0.0875  0.1179
 7785SOL    HW134991   2.906   3.316  14.399  0.8314 -2.2057  0.4276
 7785SOL    HW234992   2.956   3.243  14.271  0.7400 -0.1764  0.9871
 7786SOL     OW34993   1.967   3.060   4.319 -0.0270 -0.3820 -0.0476
 7786SOL    HW134994   2.006   3.115   4.251 -1.6837 -0.3492 -0.9681
 7786SOL    HW234995   1.874   3.072   4.299 -0.4394 -0.3442  1.9124
 7787SOL     OW34996   0.812   0.841   2.257 -0.4399  0.3188 -0.3055
 7787SOL    HW134997   0.754   0.766   2.249  2.1888 -1.3019 -3.8238
 7787SOL    HW234998   0.857   0.816   2.338 -1.0643 -0.8247 -0.3099
 7788SOL     OW34999   0.888   0.055   1.801  0.2374 -0.4039 -0.0211
 7788SOL    HW135000   0.868   0.122   1.735 -0.5805  0.4279  1.0649
 7788SOL    HW235001   0.799   0.046   1.835  0.5900 -0.6722  0.8314
 7789SOL     OW35002   2.977   2.874  11.003 -0.4252  0.5882 -0.2335
 7789SOL    HW135003   3.059   2.869  11.052  0.4558 -1.4314 -1.8888
 7789SOL    HW235004   2.917   2.818  11.053 -2.7380  1.4644 -2.0684
 7790SOL     OW35005   2.183   2.294   6.061  0.1272  0.2531  0.3827
 7790SOL    HW135006   2.163   2.297   6.155 -0.4490 -0.6625  0.2964
 7790SOL    HW235007   2.244   2.220   6.056  1.0979  1.2763 -2.7260
 7791SOL     OW35008   3.408   2.282  10.605  0.5229  0.2826  0.0658
 7791SOL    HW135009   3.409   2.255  10.513  0.3606  1.9872 -0.4287
 7791SOL    HW235010   3.390   2.200  10.651 -0.8010 -0.2362 -1.3759
 7792SOL     OW35011   4.530   1.362   8.298 -0.5350  0.2079  0.3975
 7792SOL    HW135012   4.437   1.340   8.297 -0.0447 -1.8407 -2.8748
 7792SOL    HW235013   4.563   1.296   8.236  0.2302  1.9465 -1.0312
 7793SOL     OW35014   0.977   3.999   4.537 -0.2037 -0.3460 -0.8453
 7793SOL    HW135015   0.926   3.922   4.512  0.2925 -1.0634  0.3708
 7793SOL    HW235016   0.978   4.034   4.448  0.3790  1.2124 -0.2276
 7794SOL     OW35017   3.482   2.791  12.879 -0.0672  0.1027  0.3603
 7794SOL    HW135018   3.468   2.885  12.865 -1.6040  0.2090  2.5866
 7794SOL    HW235019   3.501   2.762  12.790  1.7098  0.0936  0.7319
 7795SOL     OW35020   1.491   1.190   2.539  0.0696  0.1672  0.3281
 7795SOL    HW135021   1.492   1.147   2.624 -2.2141 -0.0568  0.2206
 7795SOL    HW235022   1.577   1.233   2.532  0.7046 -0.7476  2.6021
 7796SOL     OW35023   2.010   4.519   0.294 -0.2313  0.2137 -0.2446
 7796SOL    HW135024   1.999   4.612   0.315  1.2476  0.4353 -0.4501
 7796SOL    HW235025   2.037   4.523   0.202  1.4707  2.1774  0.3522
 7797SOL     OW35026   0.872   4.713   9.071  1.0295  0.0855 -1.0282
 7797SOL    HW135027   0.779   4.711   9.049  0.7381 -0.3266  0.2614
 7797SOL    HW235028   0.877   4.651   9.143  1.6492  1.9610  0.5297
 7798SOL     OW35029   4.559   3.449  11.216  0.7330  0.1441 -0.0807
 7798SOL    HW135030   4.593   3.464  11.304  1.8760 -0.7771 -0.3598
 7798SOL    HW235031   4.504   3.373  11.237  0.7756  0.5784  1.5936
 7799SOL     OW35032   0.175   1.948   0.773 -0.3305 -0.0713  0.0896
 7799SOL    HW135033   0.250   1.982   0.823 -0.5355 -0.1153  0.4308
 7799SOL    HW235034   0.144   2.028   0.732 -0.1964 -0.3361 -0.5193
 7800SOL     OW35035   3.116   2.844   7.083  0.0454  0.4788  0.5124
 7800SOL    HW135036   3.204   2.816   7.107 -0.3226 -1.8820 -0.9233
 7800SOL    HW235037   3.067   2.800   7.153 -1.9287  1.5985 -0.1666
 7801SOL     OW35038   4.657   3.185   2.645 -0.1256  0.4797 -0.3953
 7801SOL    HW135039   4.701   3.215   2.565 -0.9738  1.5077 -0.4761
 7801SOL    HW235040   4.568   3.197   2.613  0.6509 -0.8778 -3.0341
 7802SOL     OW35041   4.158   2.032   6.373 -0.0077 -0.4330  0.2120
 7802SOL    HW135042   4.119   2.026   6.285 -1.5825 -0.8323  0.9329
 7802SOL    HW235043   4.110   1.963   6.418  1.0881 -0.0779  1.9251
 7803SOL     OW35044   1.322   0.845   8.066  0.1136  0.0345  0.2704
 7803SOL    HW135045   1.227   0.847   8.053 -0.0305 -0.1537  1.3682
 7803SOL    HW235046   1.331   0.786   8.141 -1.1547 -1.6111 -0.8684
 7804SOL     OW35047   4.689   0.396  10.613 -0.4257 -0.0334 -0.5462
 7804SOL    HW135048   4.687   0.481  10.570  0.3160 -0.0690 -0.6600
 7804SOL    HW235049   4.677   0.419  10.705 -1.3056 -0.6147 -0.5123
 7805SOL     OW35050   3.352   2.210   6.936 -0.2740  0.2537  0.5324
 7805SOL    HW135051   3.406   2.146   6.890 -0.5761 -0.1168  0.6932
 7805SOL    HW235052   3.273   2.214   6.881 -0.0053  1.9731  0.2746
 7806SOL     OW35053   1.710   0.348   7.028  0.1966 -0.0414  0.2499
 7806SOL    HW135054   1.660   0.272   6.999 -0.3989  1.0911 -1.6754
 7806SOL    HW235055   1.772   0.307   7.087 -1.0011 -1.6804  0.3801
 7807SOL     OW35056   2.895   0.999   6.044 -0.2152  0.1751 -0.2656
 7807SOL    HW135057   2.946   1.078   6.061 -0.1704  0.3560 -1.2363
 7807SOL    HW235058   2.955   0.949   5.988  0.7585  1.1092 -0.0714
 7808SOL     OW35059   2.803   0.953   7.743 -0.0489 -0.0529  0.4367
 7808SOL    HW135060   2.772   0.942   7.653 -2.6398  0.2982  1.2968
 7808SOL    HW235061   2.784   0.865   7.775  0.9661 -0.6240 -0.5267
 7809SOL     OW35062   3.621   0.481   9.671 -0.0230 -0.0136 -0.3529
 7809SOL    HW135063   3.612   0.408   9.733 -0.1184  0.0819 -0.2545
 7809SOL    HW235064   3.540   0.525   9.697  0.2053  0.4634 -0.4673
 7810SOL     OW35065   2.430   4.560   8.249 -1.4091  0.0987 -0.1522
 7810SOL    HW135066   2.445   4.495   8.317 -0.3189  0.0395 -0.4462
 7810SOL    HW235067   2.468   4.510   8.176  0.2333  0.1250  0.6819
 7811SOL     OW35068   3.932   1.798   7.606 -0.3453 -0.1175 -0.2373
 7811SOL    HW135069   3.863   1.822   7.667 -0.1246 -1.9191  0.7172
 7811SOL    HW235070   3.879   1.803   7.526 -0.7389  0.1153  0.0394
 7812SOL     OW35071   3.053   1.102   5.536  0.4440 -0.3329 -0.2445
 7812SOL    HW135072   2.973   1.140   5.572  1.4646  2.2731 -0.7525
 7812SOL    HW235073   3.074   1.024   5.589 -0.5297  0.1846  0.9005
 7813SOL     OW35074   4.126   3.426   9.404 -0.1029 -0.0165  0.5359
 7813SOL    HW135075   4.070   3.475   9.464  1.1438  0.1778  1.5116
 7813SOL    HW235076   4.066   3.408   9.331  0.5788  0.3936 -0.1216
 7814SOL     OW35077   1.394   4.611   5.454  0.5337  0.0819  0.4570
 7814SOL    HW135078   1.450   4.574   5.522  1.2766 -0.4644 -0.4593
 7814SOL    HW235079   1.336   4.655   5.516 -1.3729  0.0573 -1.3256
 7815SOL     OW35080   1.710   1.924   2.434  0.0953 -0.5014  0.4011
 7815SOL    HW135081   1.615   1.912   2.436 -0.1789  1.7019  0.7464
 7815SOL    HW235082   1.744   1.850   2.383 -0.1730 -1.0133  0.9583
 7816SOL     OW35083   3.075   2.504   4.990 -0.0269 -0.3906  0.1475
 7816SOL    HW135084   3.106   2.446   4.922  0.8627 -0.2852  0.4633
 7816SOL    HW235085   3.121   2.585   4.968  2.7796 -2.2891 -0.9654
 7817SOL     OW35086   3.973   2.785   6.232 -0.2167  0.1680  0.1491
 7817SOL    HW135087   4.066   2.780   6.254 -0.3442  0.9899  0.8309
 7817SOL    HW235088   3.946   2.845   6.301 -0.2180 -0.3638  0.6088
 7818SOL     OW35089   2.746   4.707   5.714 -0.1200 -0.0774 -0.1961
 7818SOL    HW135090   2.768   0.055   5.752 -2.7371  0.1451  0.8441
 7818SOL    HW235091   2.833   4.667   5.712 -0.5695 -1.0781  0.2232
 7819SOL     OW35092   0.854   4.282   2.558 -0.0379  0.1291  0.0821
 7819SOL    HW135093   0.911   4.212   2.526 -1.4221 -0.0542 -2.0026
 7819SOL    HW235094   0.901   4.319   2.633  0.2373 -0.1567  0.0508
 7820SOL     OW35095   3.035   3.870   3.698  0.2011  0.1928  0.5717
 7820SOL    HW135096   3.046   3.821   3.779  0.0173 -0.6280  0.1008
 7820SOL    HW235097   3.125   3.892   3.675 -0.0845  1.2715  0.4710
 7821SOL     OW35098   0.051   1.188   2.352 -0.2755  0.0973  0.2058
 7821SOL    HW135099   0.120   1.192   2.285 -0.7510  0.1793 -0.2753
 7821SOL    HW235100   4.713   1.150   2.307 -0.9109  0.4830  0.9412
 7822SOL     OW35101   1.099   2.001   8.545  0.5258  0.1292  0.4821
 7822SOL    HW135102   1.072   1.964   8.461  0.9526  0.3093  0.2626
 7822SOL    HW235103   1.178   1.947   8.547  0.8338  0.5069 -1.3285
 7823SOL     OW35104   3.289   0.685   6.763  0.0518 -0.4307  0.6291
 7823SOL    HW135105   3.308   0.778   6.771  2.4542 -0.8094 -0.9448
 7823SOL    HW235106   3.211   0.673   6.818  0.0008 -1.9713  0.2146
 7824SOL     OW35107   3.297   3.249  13.902  0.2334  0.1575  0.3439
 7824SOL    HW135108   3.244   3.209  13.972 -0.2246 -2.2633 -1.4065
 7824SOL    HW235109   3.373   3.192  13.893 -0.8544 -1.1619 -0.3812
 7825SOL     OW35110   2.586   1.814  17.732 -0.3161  0.1952 -0.1181
 7825SOL    HW135111   2.644   1.803  17.656  0.9158 -0.7882  0.9686
 7825SOL    HW235112   2.650   1.843   0.049 -0.4678  1.2460 -0.4415
 7826SOL     OW35113   3.927   3.655   6.656  0.0536 -0.2123 -0.4329
 7826SOL    HW135114   3.889   3.647   6.744 -0.2802 -0.5949 -0.6116
 7826SOL    HW235115   3.869   3.608   6.596  0.5930 -2.4216  0.7681
 7827SOL     OW35116   3.707   1.151   6.936 -0.9680 -0.0755 -0.1194
 7827SOL    HW135117   3.618   1.170   6.908  0.0837  2.2971 -1.8831
 7827SOL    HW235118   3.695   1.145   7.030 -0.7715 -0.3811 -0.1136
 7828SOL     OW35119   0.201   1.141   5.247 -0.0001  0.7897  0.2010
 7828SOL    HW135120   0.183   1.109   5.335 -0.4191  2.0296  0.5702
 7828SOL    HW235121   0.122   1.189   5.224  0.3598  1.1370 -0.3100
 7829SOL     OW35122   1.256   2.732   3.172  0.3685 -0.1134 -0.3105
 7829SOL    HW135123   1.260   2.811   3.225  0.6253 -0.2602 -0.1082
 7829SOL    HW235124   1.350   2.713   3.167  0.5040  0.4593  0.0607
 7830SOL     OW35125   3.017   4.230   5.061 -0.0879 -0.1731 -0.2634
 7830SOL    HW135126   2.961   4.308   5.067 -0.6497 -0.6718  0.9145
 7830SOL    HW235127   3.084   4.245   5.128  0.5993 -0.8369 -0.7912
 7831SOL     OW35128   0.716   0.995  15.655  0.3074  0.5058 -0.7625
 7831SOL    HW135129   0.745   1.080  15.622  2.9319 -0.5899 -1.2342
 7831SOL    HW235130   0.769   0.933  15.606  0.0355 -1.3181  1.2403
 7832SOL     OW35131   1.952   1.399  10.198 -0.0417  0.0677 -0.1070
 7832SOL    HW135132   1.967   1.466  10.132 -0.0381  1.0159  0.8592
 7832SOL    HW235133   1.895   1.338  10.152 -1.5653 -0.2253  2.1498
 7833SOL     OW35134   4.369   1.275   1.900  0.5192 -0.1601  0.1073
 7833SOL    HW135135   4.305   1.204   1.896  1.1314 -0.6878 -0.3853
 7833SOL    HW235136   4.312   1.352   1.904  0.4431 -0.1270 -1.7213
 7834SOL     OW35137   0.412   4.591  14.767  0.1426  0.7048  0.8558
 7834SOL    HW135138   0.417   4.510  14.819 -1.3647 -0.0327 -0.1522
 7834SOL    HW235139   0.478   4.642  14.813 -0.5142  4.9690 -3.0571
 7835SOL     OW35140   2.054   4.082   5.785  0.5095 -0.1978  0.1745
 7835SOL    HW135141   2.014   4.169   5.781  1.9927  0.4998  0.7939
 7835SOL    HW235142   2.037   4.046   5.698 -1.3538  0.4297  0.2744
 7836SOL     OW35143   4.095   3.040   3.249  0.0946 -0.1350 -0.5135
 7836SOL    HW135144   4.156   3.106   3.214 -0.0778  0.6239  0.6323
 7836SOL    HW235145   4.164   2.978   3.272  1.0679  0.2489 -2.3802
 7837SOL     OW35146   0.645   3.534   0.461 -0.3511 -0.7479 -0.0280
 7837SOL    HW135147   0.637   3.445   0.426 -1.6242 -0.8227  0.4411
 7837SOL    HW235148   0.560   3.569   0.435 -0.7879 -0.0103  2.4197
 7838SOL     OW35149   0.095   0.557   6.192 -0.3999  0.5137 -0.1154
 7838SOL    HW135150   0.120   0.646   6.216  1.5573 -0.1859  0.3922
 7838SOL    HW235151   0.088   0.557   6.097  0.0896  2.8270 -0.1453
 7839SOL     OW35152   3.379   0.242   8.297 -0.2938  0.3215 -0.2245
 7839SOL    HW135153   3.343   0.154   8.304 -0.3014  0.2158 -1.6825
 7839SOL    HW235154   3.355   0.274   8.384  2.8279  1.5292  0.2250
 7840SOL     OW35155   4.173   2.227  10.440  0.0407 -0.7374  0.5347
 7840SOL    HW135156   4.077   2.225  10.448  0.0559  0.2874  1.0179
 7840SOL    HW235157   4.194   2.139  10.410 -0.2817 -0.7914  0.4628
 7841SOL     OW35158   4.084   3.607   4.241  0.5519  0.2917 -0.6112
 7841SOL    HW135159   4.086   3.677   4.175 -0.9871  0.1482 -0.8086
 7841SOL    HW235160   4.028   3.646   4.308  0.8998 -0.0853 -0.1037
 7842SOL     OW35161   4.336   3.374   8.442  0.3678 -0.5317 -0.0839
 7842SOL    HW135162   4.347   3.378   8.537  0.5312  1.9137 -0.1996
 7842SOL    HW235163   4.374   3.458   8.417  1.6363 -0.6240  1.5389
 7843SOL     OW35164   1.900   4.564   3.157  0.7084  0.4704 -0.2948
 7843SOL    HW135165   1.832   4.497   3.150  0.8833  0.2022  0.5872
 7843SOL    HW235166   1.927   4.553   3.248  0.0702 -2.8473 -0.5000
 7844SOL     OW35167   0.601   2.259   2.778 -0.1781 -0.4725 -0.4710
 7844SOL    HW135168   0.674   2.241   2.837 -1.8572 -1.3088  1.3420
 7844SOL    HW235169   0.537   2.310   2.828  0.8218  1.1212 -0.8069
 7845SOL     OW35170   0.180   4.226   8.512  0.2388 -0.4082  0.4727
 7845SOL    HW135171   0.192   4.197   8.422  2.4463  1.4392  0.1441
 7845SOL    HW235172   0.176   4.144   8.560 -0.9935 -0.0908  0.9158
 7846SOL     OW35173   2.180   0.520   8.900  0.6101  0.3824 -0.1070
 7846SOL    HW135174   2.228   0.522   8.817  0.6081  0.4398 -0.1070
 7846SOL    HW235175   2.248   0.508   8.966  0.5452 -2.0962 -0.4884
 7847SOL     OW35176   3.753   0.878   1.965 -0.0576  0.1435 -0.1534
 7847SOL    HW135177   3.659   0.891   1.956 -0.3328 -0.7439  1.5844
 7847SOL    HW235178   3.752   0.783   1.976 -0.1683 -0.0418 -1.7248
 7848SOL     OW35179   1.885   1.801   7.630 -0.5181 -0.0838 -0.4396
 7848SOL    HW135180   1.854   1.884   7.595  0.9008  0.6598  0.0541
 7848SOL    HW235181   1.971   1.831   7.660 -0.9723 -0.4001  1.2065
 7849SOL     OW35182   0.131   3.766   6.503 -0.1882  0.2367  0.8059
 7849SOL    HW135183   0.195   3.731   6.441 -0.6729  0.7772  0.0105
 7849SOL    HW235184   0.051   3.772   6.450  0.8861 -0.0800 -0.8607
 7850SOL     OW35185   3.067   0.264   7.023  0.2347 -0.2160  0.5982
 7850SOL    HW135186   3.076   0.354   7.055 -0.7362  0.6377 -1.5264
 7850SOL    HW235187   2.981   0.243   7.059  0.5943 -2.2015  0.2897
 7851SOL     OW35188   1.000   1.809   1.937 -0.2115 -0.4870 -0.2364
 7851SOL    HW135189   1.013   1.828   1.844  1.0834 -0.0350  0.0345
 7851SOL    HW235190   0.913   1.769   1.935 -0.6034  0.4879 -2.8149
 7852SOL     OW35191   4.239   2.736  12.334 -0.1941  0.5845  0.6255
 7852SOL    HW135192   4.178   2.784  12.390 -0.4929  1.0095 -0.0600
 7852SOL    HW235193   4.221   2.772  12.247 -0.0320 -1.1718 -0.1225
 7853SOL     OW35194   0.277   4.277  11.038 -0.1683  0.8042 -0.6720
 7853SOL    HW135195   0.271   4.188  11.004 -1.4321  0.8036 -0.4561
 7853SOL    HW235196   0.318   4.269  11.124 -1.1641 -1.0057 -0.3667
 7854SOL     OW35197   2.301   2.530  12.505  0.4141 -0.1807  0.3098
 7854SOL    HW135198   2.367   2.545  12.573 -0.1320 -1.9626  1.2400
 7854SOL    HW235199   2.334   2.585  12.434  1.5079  0.1196  1.0427
 7855SOL     OW35200   0.416   0.447   5.977 -0.0103 -0.1493  0.0908
 7855SOL    HW135201   0.461   0.427   5.895 -0.0265  0.6821 -0.1180
 7855SOL    HW235202   0.365   0.524   5.954  1.2244  0.7092  0.2395
 7856SOL     OW35203   4.010   2.962   2.577  0.2329  0.0999  0.1640
 7856SOL    HW135204   3.920   2.961   2.608 -0.1371 -0.3773 -0.9166
 7856SOL    HW235205   4.038   2.870   2.571  0.0288  0.0122  0.5786
 7857SOL     OW35206   2.758   3.409  12.620 -0.1341 -0.0009 -0.1759
 7857SOL    HW135207   2.820   3.385  12.689  0.7492 -1.2566 -1.4211
 7857SOL    HW235208   2.672   3.380  12.652 -0.0266 -0.0065  0.1110
 7858SOL     OW35209   0.652   4.486  16.170  0.6509  0.3949 -0.2674
 7858SOL    HW135210   0.624   4.464  16.259 -0.0996  0.5495 -0.4667
 7858SOL    HW235211   0.735   4.533  16.174  0.2738  0.9992  0.3986
 7859SOL     OW35212   0.724   1.623   6.233  0.1825 -0.5403 -0.4595
 7859SOL    HW135213   0.671   1.640   6.156 -2.7697 -4.0801  0.7904
 7859SOL    HW235214   0.680   1.687   6.289  1.0025 -0.5529  0.2018
 7860SOL     OW35215   3.691   2.721  12.532 -0.1020 -0.7130 -0.0102
 7860SOL    HW135216   3.688   2.682  12.445  1.4086 -0.9964  0.0663
 7860SOL    HW235217   3.600   2.747  12.542  0.1801 -0.3585  1.6889
 7861SOL     OW35218   2.471   1.402   6.324 -0.3066  0.4875  0.0647
 7861SOL    HW135219   2.382   1.423   6.296 -0.5221  2.9821  2.5962
 7861SOL    HW235220   2.504   1.363   6.243  0.5553  0.6004  0.3523
 7862SOL     OW35221   0.075   0.770   1.625 -0.5899 -0.1377  0.3421
 7862SOL    HW135222   0.103   0.817   1.546 -0.2389 -1.1557 -0.1406
 7862SOL    HW235223   4.721   0.797   1.631 -1.1111 -1.7673 -0.3074
 7863SOL     OW35224   1.689   4.010   7.551 -0.4201  0.2936 -0.2282
 7863SOL    HW135225   1.645   4.027   7.467  1.5543  1.7556 -0.9518
 7863SOL    HW235226   1.613   3.974   7.597 -0.7775  1.5871  0.2109
 7864SOL     OW35227   0.853   0.341   5.697  0.1820 -0.2891 -0.5203
 7864SOL    HW135228   0.856   0.386   5.612 -2.0204 -1.0545 -1.0018
 7864SOL    HW235229   0.870   0.414   5.757 -1.5509  0.4726 -0.9575
 7865SOL     OW35230   0.917   2.162   5.857 -0.5467  0.4837  0.1599
 7865SOL    HW135231   0.983   2.114   5.906 -1.2951 -0.8191 -0.1064
 7865SOL    HW235232   0.841   2.104   5.863  0.2575 -0.5316  0.3393
 7866SOL     OW35233   3.230   4.135   2.776  0.1288 -0.1991  0.4363
 7866SOL    HW135234   3.292   4.120   2.847 -0.2053  1.7660  1.1344
 7866SOL    HW235235   3.263   4.086   2.700 -0.6289 -2.3641  1.4857
 7867SOL     OW35236   0.851   4.697   9.508  0.9176 -0.3580  0.2987
 7867SOL    HW135237   0.790   4.692   9.434  0.7787 -0.5965  0.4301
 7867SOL    HW235238   0.899   0.040   9.487  1.6321 -1.2084 -1.3072
 7868SOL     OW35239   3.693   0.426   6.413 -0.2349  0.3645  0.0613
 7868SOL    HW135240   3.730   0.342   6.384 -0.8785 -1.2149  3.7253
 7868SOL    HW235241   3.621   0.407   6.473  0.8420 -0.5507  1.0657
 7869SOL     OW35242   0.395   3.204   7.813 -0.3767  0.5056  0.0175
 7869SOL    HW135243   0.375   3.286   7.768 -0.1437  0.9751  0.7694
 7869SOL    HW235244   0.304   3.173   7.820 -0.7647  1.4067 -1.0496
 7870SOL     OW35245   3.516   2.244   2.005 -0.0066  0.6001  0.1580
 7870SOL    HW135246   3.566   2.166   1.980 -3.4839 -1.6020  0.0375
 7870SOL    HW235247   3.516   2.292   1.922 -0.1707 -0.8075 -0.6575
 7871SOL     OW35248   2.623   2.107   3.914  0.0934  0.6584  0.0708
 7871SOL    HW135249   2.614   2.014   3.894 -0.0945  1.0392 -1.5784
 7871SOL    HW235250   2.709   2.123   3.874  1.3329 -0.7477  2.1111
 7872SOL     OW35251   2.261   0.366   0.519 -1.0390 -0.4146  0.4839
 7872SOL    HW135252   2.170   0.385   0.544 -0.7151  1.6548  0.0816
 7872SOL    HW235253   2.312   0.387   0.597 -0.0937 -0.0710 -0.2350
 7873SOL     OW35254   1.844   2.684   5.178 -0.3227  0.2798  0.0632
 7873SOL    HW135255   1.874   2.711   5.091 -0.9430  2.5966  0.5702
 7873SOL    HW235256   1.923   2.647   5.218 -0.1544  0.4531 -0.1023
 7874SOL     OW35257   1.931   4.665   9.360 -0.5459 -0.0794  0.1617
 7874SOL    HW135258   1.922   4.713   9.442  2.9413 -1.0549  1.1264
 7874SOL    HW235259   1.866   4.596   9.377 -0.0507 -0.7317 -0.5784
 7875SOL     OW35260   1.725   3.789   6.321 -0.4833 -0.4137 -0.2905
 7875SOL    HW135261   1.699   3.881   6.313 -1.3712 -0.4857  1.6075
 7875SOL    HW235262   1.800   3.791   6.262 -1.6699  0.4418 -1.7684
 7876SOL     OW35263   0.255   1.680   1.662 -0.3316 -0.1830 -0.1899
 7876SOL    HW135264   0.246   1.672   1.567 -1.1345  1.6412 -0.2837
 7876SOL    HW235265   0.223   1.771   1.670  1.4235  0.3718  0.5145
 7877SOL     OW35266   1.356   0.987   4.235 -0.3717 -0.6788 -0.8409
 7877SOL    HW135267   1.265   1.013   4.246 -0.0673 -0.4009  1.0292
 7877SOL    HW235268   1.362   0.910   4.292 -1.3577 -1.3643 -1.6694
 7878SOL     OW35269   3.557   0.498   2.333 -0.3220  0.0343 -0.3618
 7878SOL    HW135270   3.649   0.518   2.351  0.0484 -0.6854 -1.4749
 7878SOL    HW235271   3.547   0.407   2.362 -0.9874  0.3703  0.4456
 7879SOL     OW35272   0.252   2.073   5.724 -0.2531 -0.3860  0.2460
 7879SOL    HW135273   0.193   2.097   5.796  1.4106  1.0123  1.1414
 7879SOL    HW235274   0.301   2.154   5.713 -0.0566 -0.4281  0.7883
 7880SOL     OW35275   4.314   0.800   1.913  0.7611  0.3892 -0.4016
 7880SOL    HW135276   4.279   0.887   1.894  0.5098  0.0628 -1.4671
 7880SOL    HW235277   4.260   0.772   1.987  2.5637  0.7313  1.0510
 7881SOL     OW35278   2.152   3.032   8.002  0.0630  0.0567 -0.1298
 7881SOL    HW135279   2.119   3.117   8.034  1.4719  0.7435 -0.5161
 7881SOL    HW235280   2.092   2.971   8.046  0.0755  1.4592  1.8484
 7882SOL     OW35281   4.629   0.718   4.491  0.3226 -0.1929 -0.2815
 7882SOL    HW135282   4.603   0.681   4.576  0.8719  0.3498  0.1211
 7882SOL    HW235283   4.602   0.645   4.435 -0.4574 -0.2218  0.1314
 7883SOL     OW35284   1.075   3.126   4.706 -0.0265 -0.2700 -0.1251
 7883SOL    HW135285   1.061   3.061   4.637  1.1766 -0.4326 -0.2203
 7883SOL    HW235286   1.065   3.067   4.781  1.1912 -1.3809 -0.8177
 7884SOL     OW35287   0.613   4.519   6.387 -0.1689  0.7677  0.0221
 7884SOL    HW135288   0.633   4.591   6.327  0.5454  0.1623 -0.4510
 7884SOL    HW235289   0.695   4.470   6.392 -0.9012 -0.5287 -0.5960
 7885SOL     OW35290   3.250   2.027  16.072 -0.4753 -0.2988  0.3996
 7885SOL    HW135291   3.157   2.053  16.072 -0.3640  0.1503 -1.7755
 7885SOL    HW235292   3.286   2.052  15.987 -0.4582  0.6629  0.6900
 7886SOL     OW35293   2.065   1.407   5.877 -0.4894  0.4132 -0.0825
 7886SOL    HW135294   1.974   1.381   5.887 -0.4439 -1.0395 -3.5064
 7886SOL    HW235295   2.047   1.497   5.848  2.4900  0.8585 -0.5725
 7887SOL     OW35296   0.917   2.722   6.716  0.1737 -0.0474 -0.2419
 7887SOL    HW135297   0.919   2.767   6.800 -2.8237  2.3645 -1.4732
 7887SOL    HW235298   0.909   2.631   6.745  1.8905 -0.1082  0.0914
 7888SOL     OW35299   4.696   1.217   4.363 -0.5293 -0.6303 -0.0357
 7888SOL    HW135300   4.648   1.134   4.370 -0.6177 -0.7413 -1.8593
 7888SOL    HW235301   0.000   1.208   4.449  0.6730 -0.6355 -0.6133
 7889SOL     OW35302   4.532   0.588   4.740  0.3425  0.1070  0.5748
 7889SOL    HW135303   4.571   0.502   4.722 -1.5199 -0.8965  1.3503
 7889SOL    HW235304   4.441   0.563   4.724  0.7981 -1.6445  0.6563
 7890SOL     OW35305   0.722   0.040   4.184 -0.6548  0.3270  0.2016
 7890SOL    HW135306   0.651   4.734   4.137  0.5591  0.2203 -1.5697
 7890SOL    HW235307   0.770   0.074   4.108  0.5905 -2.3929 -0.2401
 7891SOL     OW35308   1.653   4.659   4.178  0.0204  0.3073 -0.2698
 7891SOL    HW135309   1.733   4.700   4.147  0.7283 -0.6556  0.3113
 7891SOL    HW235310   1.590   4.684   4.110 -2.0759 -1.0965  1.1418
 7892SOL     OW35311   1.805   4.116  15.244  0.1735  0.4822  0.3697
 7892SOL    HW135312   1.727   4.074  15.279 -0.1663  2.6523  2.1752
 7892SOL    HW235313   1.854   4.156  15.315 -1.1411  1.0033  0.9793
 7893SOL     OW35314   4.118   3.471  16.792  0.7524  0.1435 -0.2039
 7893SOL    HW135315   4.203   3.468  16.747 -0.6202 -0.8287 -2.7699
 7893SOL    HW235316   4.127   3.546  16.850 -0.7635 -1.7189  2.4235
 7894SOL     OW35317   4.188   3.599   3.432  0.1397 -0.5081  0.2376
 7894SOL    HW135318   4.162   3.553   3.511 -0.3939 -1.4604 -0.4894
 7894SOL    HW235319   4.186   3.538   3.359 -1.0064  1.1418 -1.1129
 7895SOL     OW35320   0.483   1.145  10.922  0.1540 -0.0339 -0.0319
 7895SOL    HW135321   0.426   1.080  10.963  0.4670 -0.1117  0.2815
 7895SOL    HW235322   0.546   1.157  10.993 -0.7638 -0.0289  0.7852
 7896SOL     OW35323   0.227   4.726   5.354 -0.4090 -0.1455 -0.4490
 7896SOL    HW135324   0.171   4.688   5.287  0.0012  1.6470 -1.8150
 7896SOL    HW235325   0.167   4.730   5.429  1.7152  1.7198  1.1442
 7897SOL     OW35326   4.586   2.985   2.066 -0.5600  0.1179  0.5160
 7897SOL    HW135327   4.663   3.039   2.086  0.1265 -1.3889  1.9940
 7897SOL    HW235328   4.625   2.902   2.037  2.6048  2.4992 -1.9549
 7898SOL     OW35329   2.981   1.507   3.615 -0.2146  0.1613  0.1544
 7898SOL    HW135330   3.017   1.419   3.628 -0.4796 -0.0991 -0.8751
 7898SOL    HW235331   2.969   1.532   3.707  2.1540  0.3358  0.4085
 7899SOL     OW35332   1.028   1.976   3.233  0.1646 -0.0867  0.5108
 7899SOL    HW135333   0.977   1.941   3.160  0.6640 -1.0566  0.6265
 7899SOL    HW235334   1.008   1.903   3.292 -0.8254  0.9328  1.4421
 7900SOL     OW35335   2.400   1.694   7.942  0.3750  0.3810  0.2050
 7900SOL    HW135336   2.447   1.625   7.989  1.9077  1.2697 -0.0163
 7900SOL    HW235337   2.353   1.642   7.878  4.0148 -0.1955 -2.0340
 7901SOL     OW35338   3.567   2.921   4.314  0.0550 -0.9708  0.6355
 7901SOL    HW135339   3.639   2.880   4.266 -0.7935  1.1608 -2.4687
 7901SOL    HW235340   3.496   2.927   4.250  1.3121  1.8197 -0.4917
 7902SOL     OW35341   1.945   4.406   5.669  0.5091  0.2069  0.6006
 7902SOL    HW135342   1.893   4.326   5.675 -0.6513  0.9298  0.2340
 7902SOL    HW235343   1.890   4.455   5.608 -0.5702 -1.4774  0.2291
 7903SOL     OW35344   1.234   2.236   7.332 -0.3864  0.0957  0.0930
 7903SOL    HW135345   1.219   2.236   7.237  0.1614 -2.6324  0.0110
 7903SOL    HW235346   1.147   2.226   7.370 -0.4830  1.7679  0.3168
 7904SOL     OW35347   0.994   2.647   9.029 -0.1034  0.5328  0.1964
 7904SOL    HW135348   1.034   2.703   8.963  1.4611 -1.5693 -0.6624
 7904SOL    HW235349   0.940   2.594   8.970  1.8216  1.3590 -2.2990
 7905SOL     OW35350   4.174   1.075  17.513 -0.1674  0.5938  0.1194
 7905SOL    HW135351   4.107   1.044  17.453 -0.6426 -1.8113  1.9210
 7905SOL    HW235352   4.147   1.166  17.523 -0.7375  0.5574 -1.0806
 7906SOL     OW35353   3.118   1.021   2.082  0.3495 -0.3276 -0.5804
 7906SOL    HW135354   3.195   1.022   2.026  1.0160  0.1224  0.3372
 7906SOL    HW235355   3.144   0.983   2.167 -0.0190 -0.4057 -0.5032
 7907SOL     OW35356   3.823   4.299   3.094  0.4264 -0.2105 -0.4053
 7907SOL    HW135357   3.778   4.380   3.070 -1.0334 -1.1119 -0.7091
 7907SOL    HW235358   3.760   4.270   3.159 -0.2891 -0.4165 -1.1835
 7908SOL     OW35359   0.768   4.506  13.322 -0.3712 -0.8408 -0.8776
 7908SOL    HW135360   0.761   4.579  13.385  2.3262 -1.7550  0.4574
 7908SOL    HW235361   0.682   4.464  13.330 -0.5327 -0.3092  0.2644
 7909SOL     OW35362   4.519   4.732   2.889 -0.0381 -0.4121  0.0168
 7909SOL    HW135363   4.466   4.700   2.816 -1.1518 -0.5745  0.8855
 7909SOL    HW235364   4.446   0.004   2.951  1.0139  0.4619  1.1146
 7910SOL     OW35365   3.779   2.488   9.762  0.0452  0.2349 -0.3826
 7910SOL    HW135366   3.697   2.452   9.795 -0.7960  0.8765 -1.7730
 7910SOL    HW235367   3.792   2.555   9.830 -2.6550 -0.9266  1.2812
 7911SOL     OW35368   1.126   3.616  17.072 -0.7640 -0.7139  0.6509
 7911SOL    HW135369   1.036   3.623  17.041 -0.6405 -0.0663  0.4533
 7911SOL    HW235370   1.151   3.706  17.056 -1.3941 -0.6941 -0.2687
 7912SOL     OW35371   3.034   3.442   5.555  0.5705 -0.1637 -0.8564
 7912SOL    HW135372   3.069   3.363   5.513  0.4882 -0.3782 -0.5254
 7912SOL    HW235373   2.987   3.492   5.489 -0.0201 -0.2782 -0.5225
 7913SOL     OW35374   4.350   0.570  12.775  0.0417  0.3987  0.5349
 7913SOL    HW135375   4.283   0.568  12.843  1.2387  0.2249  1.7330
 7913SOL    HW235376   4.326   0.649  12.728  0.8346  2.1081  2.9811
 7914SOL     OW35377   2.553   4.533   3.780  0.2353 -0.5033  0.7211
 7914SOL    HW135378   2.632   4.558   3.829  1.3550 -0.3104 -1.1263
 7914SOL    HW235379   2.537   4.618   3.739 -1.0162 -1.2558 -0.3360
 7915SOL     OW35380   3.883   1.826  14.256  0.3013  0.6782  0.3779
 7915SOL    HW135381   3.954   1.773  14.220 -1.8816 -0.5313 -2.1321
 7915SOL    HW235382   3.920   1.913  14.241 -0.9854  1.3464  1.1319
 7916SOL     OW35383   4.530   2.459   3.939  0.4713  0.1447 -0.3180
 7916SOL    HW135384   4.456   2.443   3.996  0.7361  2.1235  0.5963
 7916SOL    HW235385   4.512   2.393   3.872 -0.4564  1.8106 -1.7022
 7917SOL     OW35386   2.687   0.440   1.486  0.1798  0.1375  1.0565
 7917SOL    HW135387   2.608   0.437   1.433  0.7004  0.9239  0.2361
 7917SOL    HW235388   2.664   0.510   1.547 -0.3514 -0.0047  1.0147
 7918SOL     OW35389   4.494   4.005   7.219  0.2531 -0.5007  1.6572
 7918SOL    HW135390   4.527   4.095   7.217  1.9564 -1.1900 -1.7063
 7918SOL    HW235391   4.454   3.999   7.132 -1.4781 -1.0620  2.4778
 7919SOL     OW35392   2.501   1.890   6.907  0.0692  0.5596  0.1880
 7919SOL    HW135393   2.484   1.881   6.813  0.3907 -2.4979  0.4107
 7919SOL    HW235394   2.545   1.975   6.912  0.0188  0.7190 -2.2808
 7920SOL     OW35395   4.448   0.666   8.362  0.3537  0.1695  0.3529
 7920SOL    HW135396   4.374   0.724   8.345  1.0631  1.3467  1.2802
 7920SOL    HW235397   4.450   0.632   8.451 -0.0245  0.7860  0.5993
 7921SOL     OW35398   4.597   2.132   5.947  0.5881 -0.6080 -0.3411
 7921SOL    HW135399   4.556   2.215   5.924  3.0919  0.7539  0.1723
 7921SOL    HW235400   4.690   2.154   5.949  0.9617 -2.1354 -0.9963
 7922SOL     OW35401   3.319   1.649  14.653  0.7153  0.5175 -0.3013
 7922SOL    HW135402   3.335   1.662  14.560  0.4413  2.1397 -0.1167
 7922SOL    HW235403   3.235   1.605  14.641 -0.0662  1.5719  1.2511
 7923SOL     OW35404   4.163   1.857  16.408  0.3106  0.2702 -0.4847
 7923SOL    HW135405   4.118   1.772  16.409  0.4580  0.1975  0.1290
 7923SOL    HW235406   4.147   1.867  16.314 -0.7439  1.1707 -0.2115
 7924SOL     OW35407   0.970   1.079   9.636 -0.2297  0.6778 -0.7822
 7924SOL    HW135408   0.933   1.082   9.724 -1.0766 -1.7121 -1.0672
 7924SOL    HW235409   0.905   1.040   9.577 -2.5956  2.2353  0.8198
 7925SOL     OW35410   2.090   2.244  17.510 -0.5581 -0.6714 -0.4492
 7925SOL    HW135411   2.048   2.160  17.530 -0.0668 -0.9774 -0.6918
 7925SOL    HW235412   2.014   2.293  17.481 -0.4856  0.0884  0.6413
 7926SOL     OW35413   4.064   2.919   0.564 -0.3356  0.3263  0.4944
 7926SOL    HW135414   3.973   2.925   0.533 -0.1804  2.5077  0.4230
 7926SOL    HW235415   4.058   2.832   0.603 -0.7228  0.7191  1.3120
 7927SOL     OW35416   2.856   2.700   3.393 -0.4216  0.2832  0.7199
 7927SOL    HW135417   2.818   2.656   3.316  2.1876 -0.8897  0.0698
 7927SOL    HW235418   2.815   2.655   3.466 -0.9558  1.0731  0.9056
 7928SOL     OW35419   0.528   0.561   4.990 -0.8792  0.0804  0.2204
 7928SOL    HW135420   0.513   0.494   4.924 -0.8833  0.3717 -0.0734
 7928SOL    HW235421   0.471   0.631   4.959 -3.3342 -1.6761  0.7395
 7929SOL     OW35422   1.699   4.696  12.354  0.0155 -0.0604  0.4589
 7929SOL    HW135423   1.633   0.016  12.316  0.0197 -1.9701 -2.4267
 7929SOL    HW235424   1.765   0.027  12.366 -0.5781  0.3407  1.4181
 7930SOL     OW35425   1.537   2.890  10.776  0.4074  0.2667 -0.1956
 7930SOL    HW135426   1.560   2.802  10.745  1.8217  1.0168 -1.2476
 7930SOL    HW235427   1.596   2.947  10.728  2.3709 -1.9382 -0.4146
 7931SOL     OW35428   2.965   2.344   6.269 -0.1275  0.0861  0.3541
 7931SOL    HW135429   3.005   2.390   6.343  0.9852  0.0639 -0.2262
 7931SOL    HW235430   2.872   2.363   6.276  0.2869  1.5812  1.7252
 7932SOL     OW35431   1.940   3.542   7.386 -0.8895 -0.3291 -0.2034
 7932SOL    HW135432   1.931   3.637   7.392 -3.4098 -0.6586  1.4629
 7932SOL    HW235433   1.895   3.536   7.301  2.7810 -0.1383 -2.1700
 7933SOL     OW35434   3.762   4.106  11.605  0.8596 -0.2434 -0.2533
 7933SOL    HW135435   3.793   4.158  11.680 -0.1835  0.3731 -0.2571
 7933SOL    HW235436   3.808   4.145  11.531  0.6159  2.2822  0.9253
 7934SOL     OW35437   0.805   3.603   0.709  0.4357  0.2390 -0.1798
 7934SOL    HW135438   0.759   3.555   0.641  0.6494 -0.6527  0.3138
 7934SOL    HW235439   0.730   3.642   0.755  0.7691  2.4113 -1.4884
 7935SOL     OW35440   0.186   4.162   5.143  0.5597 -0.6395 -0.1671
 7935SOL    HW135441   0.275   4.192   5.127  0.7360 -1.7440 -1.2610
 7935SOL    HW235442   0.166   4.201   5.228 -2.6119  0.0085 -1.2124
 7936SOL     OW35443   2.758   3.606   8.300 -0.6653  0.2152  0.0661
 7936SOL    HW135444   2.684   3.609   8.240 -1.6137  0.4079  1.2546
 7936SOL    HW235445   2.793   3.693   8.280  0.4575 -0.3655 -0.5128
 7937SOL     OW35446   2.068   4.635  10.570 -0.9671  0.1290 -0.3447
 7937SOL    HW135447   2.087   4.612  10.479  0.4853  1.7561 -0.4487
 7937SOL    HW235448   1.978   4.603  10.581 -0.3544 -0.8059  1.8945
 7938SOL     OW35449   0.022   2.622   2.360 -0.0274  0.1949 -0.4106
 7938SOL    HW135450   0.012   2.704   2.408 -1.3086  0.1333 -0.5885
 7938SOL    HW235451   0.087   2.578   2.415 -0.3364  1.4190  0.9126
 7939SOL     OW35452   0.120   3.993   3.524  0.9958 -0.1577  0.1517
 7939SOL    HW135453   0.202   3.945   3.529  0.6561 -0.6200  1.3062
 7939SOL    HW235454   0.099   3.988   3.431 -0.5744 -2.2647  0.6155
 7940SOL     OW35455   0.250   2.303   7.922  0.0215 -0.3916  0.1045
 7940SOL    HW135456   0.196   2.296   8.001 -1.2228  2.6891 -0.4639
 7940SOL    HW235457   0.341   2.304   7.953 -0.2893 -3.1727  1.1238
 7941SOL     OW35458   4.729   2.690   0.104  0.3464  0.0829  0.1207
 7941SOL    HW135459   0.026   2.618   0.050 -1.7748  0.0137 -1.1091
 7941SOL    HW235460   0.003   2.653   0.192 -3.3194 -1.7964 -0.2158
 7942SOL     OW35461   4.220   4.611   7.035 -0.1586  0.0079  0.3099
 7942SOL    HW135462   4.240   4.532   6.985  0.3284 -0.0865  0.6557
 7942SOL    HW235463   4.145   4.652   6.991  0.6304  0.2574 -0.7749
 7943SOL     OW35464   2.956   3.949   8.588 -0.3484 -0.1546  0.4239
 7943SOL    HW135465   2.931   3.945   8.680  1.0543  0.9989  0.8555
 7943SOL    HW235466   2.876   3.936   8.538  0.3233  1.7054 -1.1364
 7944SOL     OW35467   1.089   0.853  11.680  0.3296  0.0410  0.0419
 7944SOL    HW135468   1.175   0.857  11.638 -0.4966 -1.2586 -1.7817
 7944SOL    HW235469   1.095   0.909  11.757 -0.8743  0.8405 -0.4560
 7945SOL     OW35470   2.717   3.884   3.336 -0.0281 -0.0520  0.2639
 7945SOL    HW135471   2.674   3.962   3.371 -0.1455  0.3476 -0.7885
 7945SOL    HW235472   2.790   3.923   3.288 -0.9816  0.6555 -0.6066
 7946SOL     OW35473   0.078   3.131   2.113  0.3172  0.3550  0.1530
 7946SOL    HW135474   0.154   3.132   2.171  0.1642  0.8385  0.3438
 7946SOL    HW235475   0.111   3.173   2.034 -1.8614  1.0002 -0.4123
 7947SOL     OW35476   4.449   2.487   8.723 -0.2968  0.6496  0.8915
 7947SOL    HW135477   4.391   2.422   8.763 -0.3727 -1.0132 -1.8914
 7947SOL    HW235478   4.534   2.443   8.720 -0.8237 -0.2719 -0.7397
 7948SOL     OW35479   4.088   0.105   5.793  0.0691 -0.3665  0.0251
 7948SOL    HW135480   4.059   0.190   5.826 -1.3757 -1.1103  0.6694
 7948SOL    HW235481   4.024   0.088   5.724 -1.2061  0.1775  1.0772
 7949SOL     OW35482   1.987   1.509   6.235 -0.4844  0.5457 -0.1658
 7949SOL    HW135483   1.976   1.586   6.179 -0.8070  0.7760  0.2091
 7949SOL    HW235484   1.911   1.455   6.217 -0.1626 -0.5386  1.6762
 7950SOL     OW35485   4.322   3.516   2.472 -0.6360 -0.0461 -0.0097
 7950SOL    HW135486   4.315   3.612   2.473 -0.8811 -0.0109 -2.9407
 7950SOL    HW235487   4.411   3.495   2.445 -0.0189  0.9458  1.2883
 7951SOL     OW35488   2.084   2.329  16.521  0.3220 -0.0045  0.1460
 7951SOL    HW135489   2.090   2.241  16.484 -1.5645  0.8160 -2.0735
 7951SOL    HW235490   2.016   2.315  16.587 -1.7782  1.9219 -1.6309
 7952SOL     OW35491   3.077   3.254  13.341  0.4633 -0.2505  1.3638
 7952SOL    HW135492   3.097   3.205  13.262  1.2013  0.4591  1.1122
 7952SOL    HW235493   2.981   3.254  13.342  0.4572  1.0514 -0.1730
 7953SOL     OW35494   2.773   1.608   2.539  0.0330  0.3830 -0.2088
 7953SOL    HW135495   2.699   1.669   2.528 -1.2833 -1.5894 -2.2179
 7953SOL    HW235496   2.844   1.666   2.510 -0.2869 -0.1551 -2.0607
 7954SOL     OW35497   3.355   4.577   4.004 -0.1428  0.1160  0.4548
 7954SOL    HW135498   3.275   4.526   4.015  1.1306 -2.3282 -1.4956
 7954SOL    HW235499   3.368   4.608   4.094  1.2709 -0.1015  0.3268
 7955SOL     OW35500   4.531   1.440  13.068  0.8009 -0.0850 -0.4446
 7955SOL    HW135501   4.583   1.433  13.148 -0.7444 -3.1263  0.3092
 7955SOL    HW235502   4.577   1.377  13.012  0.8430  0.1393 -0.6648
 7956SOL     OW35503   0.376   4.301   4.869 -0.1400  0.3641 -0.0347
 7956SOL    HW135504   0.339   4.214   4.857 -0.8822  0.9184 -1.7684
 7956SOL    HW235505   0.413   4.330   4.786  1.5460  2.5145  1.4622
 7957SOL     OW35506   1.954   4.068   7.265 -0.0817  0.0750 -0.6689
 7957SOL    HW135507   1.987   3.992   7.216  2.1277 -0.0104  0.9524
 7957SOL    HW235508   1.864   4.044   7.288 -0.5603  0.3463 -2.2447
 7958SOL     OW35509   1.301   1.997   6.739  0.1120  0.4594  0.5152
 7958SOL    HW135510   1.312   1.986   6.833 -1.1210 -2.9990  0.2500
 7958SOL    HW235511   1.389   2.009   6.703  0.3617 -0.1707  0.9135
 7959SOL     OW35512   2.573   1.049  13.799  0.0757  0.4998  0.6149
 7959SOL    HW135513   2.653   0.999  13.781 -0.4715  0.4653 -1.7182
 7959SOL    HW235514   2.594   1.079  13.887 -0.3256  1.7448  0.2874
 7960SOL     OW35515   0.675   1.033  14.568  0.2723  0.6990 -0.4255
 7960SOL    HW135516   0.655   1.109  14.513 -1.3677 -0.8304 -1.9552
 7960SOL    HW235517   0.703   1.070  14.651  0.1694 -3.0027  1.2474
 7961SOL     OW35518   2.828   3.186   5.500 -0.1923  0.3596  0.1002
 7961SOL    HW135519   2.777   3.170   5.421 -0.5738 -2.5459  0.9192
 7961SOL    HW235520   2.916   3.199   5.465 -0.3838  3.7938  0.9000
 7962SOL     OW35521   0.704   0.106   1.992 -0.7442 -0.0261 -0.1714
 7962SOL    HW135522   0.618   0.148   1.994  0.3518  2.1485  2.4482
 7962SOL    HW235523   0.774   0.169   1.975 -1.9450  1.1179 -0.8475
 7963SOL     OW35524   3.194   4.000   1.976  0.3004  0.3044  0.2535
 7963SOL    HW135525   3.108   4.033   2.005  0.0810  0.7068 -0.8824
 7963SOL    HW235526   3.251   4.056   2.030  2.2652 -1.0983 -0.3793
 7964SOL     OW35527   4.291   2.650   1.011  0.5200  0.6047  0.2712
 7964SOL    HW135528   4.217   2.711   1.000 -1.5895 -1.8058  1.0479
 7964SOL    HW235529   4.317   2.622   0.923 -1.3810  1.9251 -0.7358
 7965SOL     OW35530   1.605   3.700   0.379 -0.1777 -0.2421  0.3791
 7965SOL    HW135531   1.628   3.607   0.377 -2.0534 -0.7305  1.3711
 7965SOL    HW235532   1.525   3.690   0.326 -0.2291 -0.7484  0.5498
 7966SOL     OW35533   2.558   4.677  10.078  0.3621 -0.0128  0.1108
 7966SOL    HW135534   2.584   4.643  10.164  0.8461 -1.4539 -0.6044
 7966SOL    HW235535   2.630   4.734  10.053 -1.1822  1.5307 -0.7951
 7967SOL     OW35536   3.980   0.748   8.129  0.6298  0.1066  0.1428
 7967SOL    HW135537   4.026   0.709   8.055 -0.4885 -0.3190 -0.3315
 7967SOL    HW235538   4.032   0.826   8.149 -0.2087  0.5303  0.6610
 7968SOL     OW35539   2.516   1.838  16.332 -0.0514 -0.1220 -0.5707
 7968SOL    HW135540   2.520   1.761  16.275 -1.4427 -1.2927  0.9153
 7968SOL    HW235541   2.423   1.827  16.353  0.0050  0.1176 -0.2061
 7969SOL     OW35542   4.343   2.757   4.118  0.4520  0.0688  0.7184
 7969SOL    HW135543   4.439   2.759   4.109  0.3278 -1.2426 -0.9391
 7969SOL    HW235544   4.332   2.698   4.194  0.8965  1.5208  1.9063
 7970SOL     OW35545   4.249   3.450  13.828  0.2628  0.5422  0.2664
 7970SOL    HW135546   4.211   3.533  13.858 -0.5038  0.1280  0.4472
 7970SOL    HW235547   4.283   3.416  13.910 -0.7826 -2.1165 -0.3751
 7971SOL     OW35548   1.838   1.694   8.326 -0.8120  0.2960  0.1788
 7971SOL    HW135549   1.799   1.775   8.293 -2.5863 -0.1997  1.0486
 7971SOL    HW235550   1.778   1.666   8.395  1.9015 -0.4450  2.2285
 7972SOL     OW35551   2.031   3.919   3.924  0.1094 -0.3642  0.1459
 7972SOL    HW135552   2.019   3.837   3.971  2.0459  1.2628  3.5105
 7972SOL    HW235553   2.009   3.984   3.991  3.9115 -0.6108  1.6252
 7973SOL     OW35554   2.503   2.392  14.862  0.1037 -0.3923  0.0724
 7973SOL    HW135555   2.509   2.298  14.879 -2.2623 -0.6129 -0.3974
 7973SOL    HW235556   2.597   2.410  14.851 -0.1705 -1.6603 -4.4482
 7974SOL     OW35557   1.330   0.912  14.609  0.0968  0.3398  0.0334
 7974SOL    HW135558   1.373   0.997  14.617 -1.2139  1.1678 -1.7831
 7974SOL    HW235559   1.405   0.852  14.613  1.2718  1.8478  0.6956
 7975SOL     OW35560   3.564   2.021   4.718 -0.0634  0.5382  0.0539
 7975SOL    HW135561   3.498   2.067   4.666 -2.3515 -0.9385  1.6474
 7975SOL    HW235562   3.614   1.968   4.656  0.9950  1.2186  0.3276
 7976SOL     OW35563   0.752   0.780   9.189 -0.2274  0.7386 -0.0645
 7976SOL    HW135564   0.798   0.710   9.236  1.6522 -0.0212 -3.0329
 7976SOL    HW235565   0.667   0.737   9.184 -0.1295  0.5705 -0.2813
 7977SOL     OW35566   4.130   1.424   1.930  0.2121  0.7878  0.0186
 7977SOL    HW135567   4.132   1.516   1.957  0.5171  0.4599  1.1005
 7977SOL    HW235568   4.054   1.383   1.971  1.1420 -0.8918  0.0520
 7978SOL     OW35569   0.777   3.280   2.613  0.4440  0.2134  0.2541
 7978SOL    HW135570   0.779   3.361   2.664  1.7958 -0.9219  2.0267
 7978SOL    HW235571   0.742   3.309   2.529 -0.7642 -1.0391  0.3263
 7979SOL     OW35572   1.083   3.526   0.613 -0.0375 -0.0142 -0.6906
 7979SOL    HW135573   1.106   3.540   0.705 -0.3541  1.2650 -0.7935
 7979SOL    HW235574   0.990   3.506   0.611 -0.5240  1.9389  2.2654
 7980SOL     OW35575   3.621   0.935   9.072  0.3775 -0.5198  0.0834
 7980SOL    HW135576   3.672   1.015   9.079 -2.7873  1.5437 -0.1958
 7980SOL    HW235577   3.634   0.913   8.980  0.1756  2.2067 -0.5966
 7981SOL     OW35578   2.061   2.616   4.432  0.1875  0.4299 -0.4109
 7981SOL    HW135579   2.114   2.644   4.507  0.8637  1.3086 -1.2178
 7981SOL    HW235580   2.074   2.694   4.378 -0.7112  0.3890 -0.6854
 7982SOL     OW35581   1.436   1.878   2.430 -0.8604 -0.1552  0.5569
 7982SOL    HW135582   1.420   1.789   2.463 -0.2914 -0.8935 -1.1386
 7982SOL    HW235583   1.417   1.870   2.336  0.8450 -2.4969  0.4011
 7983SOL     OW35584   1.789   2.603   7.885 -0.3429  0.8103  0.0655
 7983SOL    HW135585   1.822   2.544   7.818  3.2071  1.8744  0.9074
 7983SOL    HW235586   1.792   2.543   7.960 -0.1041 -1.1242 -1.4897
 7984SOL     OW35587   2.119   3.508   0.186  0.2831  0.4644  0.4817
 7984SOL    HW135588   2.154   3.525   0.273  1.3228  1.1833 -0.0815
 7984SOL    HW235589   2.042   3.452   0.194  1.5090 -1.1392  1.0631
 7985SOL     OW35590   0.213   4.261  14.809 -0.3501 -0.5097  0.2097
 7985SOL    HW135591   0.215   4.174  14.850 -2.3581 -1.0924 -0.9608
 7985SOL    HW235592   0.259   4.315  14.874 -0.4914  0.5394 -0.5696
 7986SOL     OW35593   2.356   3.970   7.473  0.2965 -0.4202 -0.3323
 7986SOL    HW135594   2.363   4.034   7.544  0.9498 -0.6998 -0.1376
 7986SOL    HW235595   2.304   3.911   7.527 -1.1478  0.3362 -0.9147
 7987SOL     OW35596   2.901   3.767  14.117  0.0255 -0.4062 -0.1305
 7987SOL    HW135597   2.964   3.742  14.050  1.8369  0.0826  1.3771
 7987SOL    HW235598   2.819   3.746  14.073 -0.3560  1.2045 -0.2025
 7988SOL     OW35599   2.443   2.144   4.197 -0.1581  0.6142  0.0695
 7988SOL    HW135600   2.367   2.154   4.140  1.0151  2.8456 -1.1472
 7988SOL    HW235601   2.471   2.235   4.185 -5.2361  2.1419  0.1250
 7989SOL     OW35602   4.498   2.388  13.324 -0.0380 -0.0527 -0.4704
 7989SOL    HW135603   4.573   2.339  13.290 -1.1913 -0.4165 -2.4881
 7989SOL    HW235604   4.484   2.353  13.412 -2.3984  0.8290 -0.5060
 7990SOL     OW35605   1.622   3.872   2.880 -0.0919  0.3901 -0.2310
 7990SOL    HW135606   1.595   3.964   2.886 -1.6175  0.0461 -1.7910
 7990SOL    HW235607   1.543   3.834   2.842 -1.5857  4.1498 -0.8743
 7991SOL     OW35608   4.010   4.494  16.164 -0.2315 -0.2886  0.5835
 7991SOL    HW135609   4.050   4.554  16.227  2.0765 -1.1563 -0.0274
 7991SOL    HW235610   4.069   4.508  16.090 -2.4010 -0.9339 -1.2547
 7992SOL     OW35611   3.666   1.420   8.047 -0.0472  0.0089 -0.4180
 7992SOL    HW135612   3.744   1.475   8.038 -1.6428  2.1498 -1.1708
 7992SOL    HW235613   3.666   1.358   7.974  1.2981  0.0281 -0.4258
 7993SOL     OW35614   4.430   0.290   7.193 -0.1287  0.3363 -0.1100
 7993SOL    HW135615   4.367   0.284   7.121 -3.1205  1.4474  2.4343
 7993SOL    HW235616   4.509   0.252   7.155 -1.0422 -1.3289 -0.3832
 7994SOL     OW35617   1.837   4.571  15.255  0.7152  0.1788 -0.7168
 7994SOL    HW135618   1.773   4.522  15.306  2.1424 -1.3048 -0.3247
 7994SOL    HW235619   1.914   4.514  15.258  0.9507  0.6377  1.6731
 7995SOL     OW35620   1.462   1.251   6.839 -0.3013  0.2495 -0.5973
 7995SOL    HW135621   1.435   1.240   6.930  2.9501  0.9563  0.4293
 7995SOL    HW235622   1.519   1.328   6.837  1.1791 -0.8109  1.5506
 7996SOL     OW35623   1.894   3.411   7.596  0.7155  0.4016  1.1293
 7996SOL    HW135624   1.850   3.477   7.649 -0.9666 -1.7902  2.4603
 7996SOL    HW235625   1.913   3.453   7.512  0.1528 -0.6546  0.4694
 7997SOL     OW35626   1.176   1.165   9.163 -0.1670 -0.1444 -0.0895
 7997SOL    HW135627   1.124   1.096   9.121 -0.0687 -0.4154  0.2365
 7997SOL    HW235628   1.252   1.113   9.191 -0.7068  0.2556  2.0380
 7998SOL     OW35629   0.824   3.822   5.830 -0.0319 -0.0905  0.0489
 7998SOL    HW135630   0.806   3.889   5.764  0.4076  1.0113  1.0434
 7998SOL    HW235631   0.911   3.791   5.804 -1.1835 -2.2596 -1.3017
 7999SOL     OW35632   1.367   1.877  12.481  0.0734  0.0214 -0.2027
 7999SOL    HW135633   1.339   1.786  12.468 -1.0980  0.4343 -0.6153
 7999SOL    HW235634   1.293   1.919  12.436  0.3266  0.3875 -0.2812
 8000SOL     OW35635   3.861   3.697   4.791  0.3206 -0.0627 -0.2245
 8000SOL    HW135636   3.893   3.649   4.867  1.8892 -0.9797 -1.4476
 8000SOL    HW235637   3.844   3.624   4.732 -1.7221  0.0941  0.1841
 8001SOL     OW35638   4.686   3.368   8.369 -0.7263  0.0557  0.1767
 8001SOL    HW135639   0.035   3.360   8.327 -0.3048 -0.4237  1.1594
 8001SOL    HW235640   4.708   3.397   8.457  1.4505 -1.1983  0.0362
 8002SOL     OW35641   1.044   1.862   4.267  0.2179 -0.9200 -0.2739
 8002SOL    HW135642   1.001   1.854   4.352  0.4083 -1.7809 -0.2596
 8002SOL    HW235643   1.096   1.941   4.281  0.6447 -1.1755 -0.4135
 8003SOL     OW35644   0.017   3.434   8.643  0.5390  0.2024  0.1368
 8003SOL    HW135645   4.692   3.396   8.705  1.6222 -1.2536  0.3358
 8003SOL    HW235646   0.066   3.486   8.706  1.0190  1.0297 -0.9183
 8004SOL     OW35647   1.607   0.599   9.442  0.1559  0.1081 -0.0152
 8004SOL    HW135648   1.639   0.553   9.365  0.1408  0.6012 -0.3141
 8004SOL    HW235649   1.652   0.541   9.503 -2.1185 -2.7075 -0.9747
 8005SOL     OW35650   0.892   1.155   2.721 -0.5104 -0.1521 -0.3080
 8005SOL    HW135651   0.840   1.233   2.742 -0.2226 -0.0971  0.2142
 8005SOL    HW235652   0.853   1.134   2.636 -0.6187 -0.8516 -0.0823
 8006SOL     OW35653   2.807   2.809  12.924  0.4108 -0.0305  0.1429
 8006SOL    HW135654   2.796   2.902  12.903  1.4374  0.3667  1.3870
 8006SOL    HW235655   2.794   2.761  12.842 -1.6488 -0.4852  0.7447
 8007SOL     OW35656   2.063   0.051   7.544  0.5404  0.0597  0.2843
 8007SOL    HW135657   1.997   0.003   7.595 -0.9522  1.1530 -0.6269
 8007SOL    HW235658   2.053   0.131   7.595 -1.0239  0.0023  0.0615
 8008SOL     OW35659   3.415   0.029   3.822  0.0091  0.8463  0.2707
 8008SOL    HW135660   3.510   0.020   3.812 -0.3008  0.1652 -2.1627
 8008SOL    HW235661   3.391   4.696   3.882  0.8818  1.5027  1.3985
 8009SOL     OW35662   3.651   3.995  10.435 -0.1189 -0.0507 -0.4287
 8009SOL    HW135663   3.660   4.090  10.446 -2.3360  0.0740  0.2084
 8009SOL    HW235664   3.682   3.970  10.522  0.0145  0.7494 -0.2467
 8010SOL     OW35665   3.387   0.752  17.523 -0.3049  0.2904 -0.3060
 8010SOL    HW135666   3.362   0.665  17.552  2.3483 -0.4749 -0.3209
 8010SOL    HW235667   3.317   0.766  17.460 -1.0745 -1.1207  0.2335
 8011SOL     OW35668   2.772   2.924   2.429  0.1471 -0.0100 -0.5018
 8011SOL    HW135669   2.715   2.851   2.455  0.7287 -0.5406 -0.7147
 8011SOL    HW235670   2.827   2.952   2.502  0.8529  0.8670 -1.3872
 8012SOL     OW35671   3.027   4.335   5.381  0.2761 -0.1091 -0.3049
 8012SOL    HW135672   3.105   4.334   5.325  0.5682  1.7284  0.0624
 8012SOL    HW235673   3.062   4.287   5.456  0.2728  0.8416  0.3078
 8013SOL     OW35674   2.421   2.773   6.453 -0.4655  0.1781 -0.1702
 8013SOL    HW135675   2.341   2.823   6.472 -0.7818  0.0080 -1.0509
 8013SOL    HW235676   2.394   2.694   6.501 -0.6751 -0.9471 -2.1607
 8014SOL     OW35677   4.601   2.652   2.780  0.9796 -0.3316 -1.1488
 8014SOL    HW135678   4.639   2.708   2.712  1.6884  0.1382 -0.3740
 8014SOL    HW235679   4.515   2.636   2.743  0.0991  0.9699  0.3517
 8015SOL     OW35680   4.591   3.911  13.217 -0.2996  0.1783 -0.5085
 8015SOL    HW135681   4.502   3.888  13.191  0.4808 -1.5389 -1.6792
 8015SOL    HW235682   4.615   3.968  13.144 -0.8192  0.6975 -0.2697
 8016SOL     OW35683   3.333   1.541   4.799 -0.0355  0.2063  0.0583
 8016SOL    HW135684   3.257   1.567   4.746 -1.0063 -3.5010 -0.3245
 8016SOL    HW235685   3.400   1.604   4.770 -0.9832  0.7652 -0.9345
 8017SOL     OW35686   0.011   4.670   6.594 -0.0312  0.3109  0.0098
 8017SOL    HW135687   0.087   4.690   6.648 -1.8191 -0.3677  2.8490
 8017SOL    HW235688   0.049   4.660   6.507  0.0062  0.9605 -0.0481
 8018SOL     OW35689   2.912   3.035   7.032  1.0434 -0.1590 -0.3053
 8018SOL    HW135690   2.884   3.055   7.122 -2.3848 -1.2749 -1.1138
 8018SOL    HW235691   2.984   2.977   7.057  1.3557  0.0938 -0.6195
 8019SOL     OW35692   3.997   3.242   6.688  0.2238  0.0990  0.1082
 8019SOL    HW135693   4.009   3.290   6.771 -2.8400  0.0265  0.6017
 8019SOL    HW235694   4.032   3.155   6.704 -0.7595 -0.0420  1.4740
 8020SOL     OW35695   1.397   3.725   2.764  0.0036  0.0024  0.1965
 8020SOL    HW135696   1.386   3.748   2.672  1.4254  0.6954  0.1964
 8020SOL    HW235697   1.328   3.781   2.799  1.9850  1.1982  2.2438
 8021SOL     OW35698   4.110   1.818   2.028  0.0285  0.4746  0.2500
 8021SOL    HW135699   4.135   1.779   2.112 -0.9359 -0.0408  0.3007
 8021SOL    HW235700   4.198   1.853   2.016  0.0696  0.2439 -0.1178
 8022SOL     OW35701   1.559   0.687   8.647  0.2426 -0.3123  0.7670
 8022SOL    HW135702   1.512   0.644   8.718 -1.7037  0.6725  0.0834
 8022SOL    HW235703   1.479   0.711   8.600 -1.1698  0.3951  3.5346
 8023SOL     OW35704   0.383   1.936   6.672 -0.4282  0.3586 -0.0130
 8023SOL    HW135705   0.339   1.861   6.712  0.9025 -0.0569  0.6820
 8023SOL    HW235706   0.389   1.913   6.579  0.6813  2.5119 -0.4838
 8024SOL     OW35707   0.198   1.453  16.261 -0.0735  0.5447 -0.2107
 8024SOL    HW135708   0.181   1.383  16.324 -0.0032  0.7442  0.0299
 8024SOL    HW235709   0.294   1.455  16.262 -0.0589  0.2893 -1.8749
 8025SOL     OW35710   2.652   4.377   9.008 -0.3639  0.2283  0.5805
 8025SOL    HW135711   2.623   4.463   8.977 -0.1216  0.3549  0.7071
 8025SOL    HW235712   2.734   4.368   8.960  0.1134  0.2787  1.4057
 8026SOL     OW35713   2.908   0.708   9.269 -0.0913  0.2919  0.2107
 8026SOL    HW135714   3.001   0.727   9.283  0.3960 -0.0907 -2.4899
 8026SOL    HW235715   2.880   0.793   9.235 -0.4553  0.7952  1.8047
 8027SOL     OW35716   3.978   3.908   2.355  0.1358  0.0326  0.4388
 8027SOL    HW135717   3.943   3.825   2.388 -0.0583  0.3231  0.9674
 8027SOL    HW235718   4.055   3.881   2.305  0.0794  0.3204  0.2004
 8028SOL     OW35719   1.509   1.994   7.872 -0.1201 -0.3412 -0.2060
 8028SOL    HW135720   1.512   1.900   7.856  0.8782 -0.4527  0.6908
 8028SOL    HW235721   1.447   2.021   7.804  0.5149  3.0345  0.5565
 8029SOL     OW35722   1.505   3.196   4.443 -0.1262  0.1212 -0.1472
 8029SOL    HW135723   1.483   3.287   4.461 -0.3155  0.1174 -0.3614
 8029SOL    HW235724   1.459   3.150   4.514  2.1760  1.6322  2.3385
 8030SOL     OW35725   1.235   3.107   5.156 -0.0663 -0.4040 -0.3977
 8030SOL    HW135726   1.311   3.057   5.127  1.6485  1.7380  0.4011
 8030SOL    HW235727   1.258   3.115   5.249  0.0856  1.9974 -0.6576
 8031SOL     OW35728   4.682   0.159  17.532  0.1352  0.5278  0.0685
 8031SOL    HW135729   4.646   0.211  17.460 -0.1463  1.2749  0.7548
 8031SOL    HW235730   0.019   0.111  17.494  0.4090 -0.3655  1.7459
 8032SOL     OW35731   0.397   1.085   9.656  0.1049 -0.1243 -0.4498
 8032SOL    HW135732   0.438   1.104   9.740 -0.7745 -0.0318 -0.0410
 8032SOL    HW235733   0.465   1.110   9.595 -0.4344 -0.8977 -1.3699
 8033SOL     OW35734   2.531   3.943   4.363  0.1576  0.2980 -0.0342
 8033SOL    HW135735   2.456   3.949   4.423 -0.2040  2.2136 -0.6790
 8033SOL    HW235736   2.598   3.932   4.430 -0.3045 -1.0276  0.2101
 8034SOL     OW35737   0.357   1.769   8.842 -0.1843 -0.2142  0.2070
 8034SOL    HW135738   0.344   1.864   8.840  0.3456 -0.1271  0.9547
 8034SOL    HW235739   0.311   1.749   8.761 -0.4359 -1.9366  0.7758
 8035SOL     OW35740   3.419   4.272   2.503 -0.1064  0.3332  0.4555
 8035SOL    HW135741   3.499   4.220   2.510  0.0617  0.3325 -1.4026
 8035SOL    HW235742   3.440   4.348   2.450 -0.3105  0.2595  0.2695
 8036SOL     OW35743   0.440   4.498  17.695  0.3011  0.6297 -0.2211
 8036SOL    HW135744   0.470   4.496  17.605  0.1383 -1.1262 -0.2439
 8036SOL    HW235745   0.392   4.579  17.683 -2.0432 -0.7313 -0.0612
 8037SOL     OW35746   1.088   1.742   2.986 -0.3024  0.3389 -0.3677
 8037SOL    HW135747   1.083   1.649   3.007  1.6309 -0.0763 -1.6546
 8037SOL    HW235748   1.036   1.746   2.906  0.0628 -2.9024 -0.7575
 8038SOL     OW35749   2.162   2.802   5.969  0.3882 -0.0039 -0.3743
 8038SOL    HW135750   2.081   2.782   6.017 -0.5729  1.3943 -1.4043
 8038SOL    HW235751   2.219   2.727   5.984 -0.8111 -1.3404 -2.6282
 8039SOL     OW35752   3.076   3.777   9.719  0.1623  0.5207 -0.1010
 8039SOL    HW135753   3.026   3.708   9.676 -0.1968 -0.6580  2.2527
 8039SOL    HW235754   3.005   3.818   9.768  2.4267  2.1916  1.7615
 8040SOL     OW35755   4.456   0.184  16.353 -0.7517 -0.4311 -0.3449
 8040SOL    HW135756   4.516   0.256  16.333 -0.5862 -0.8796 -1.4599
 8040SOL    HW235757   4.435   0.151  16.266  0.3699  0.6698 -1.0303
 8041SOL     OW35758   4.436   3.332  14.841  0.0954 -0.6214 -0.4116
 8041SOL    HW135759   4.532   3.336  14.835  0.0978 -2.3612 -1.3775
 8041SOL    HW235760   4.410   3.266  14.905  0.6072  0.5582  1.0179
 8042SOL     OW35761   4.219   2.397  10.063  0.5764  0.0234 -0.0252
 8042SOL    HW135762   4.258   2.442  10.138  1.5877  1.0342 -1.1625
 8042SOL    HW235763   4.300   2.354  10.034 -0.8997 -2.0623 -1.0845
 8043SOL     OW35764   1.549   3.742   6.045 -0.4171  0.0945  0.0486
 8043SOL    HW135765   1.513   3.810   6.103 -1.7159  0.0387 -0.6905
 8043SOL    HW235766   1.617   3.784   5.991  1.3247 -1.6902  0.8590
 8044SOL     OW35767   1.233   3.014   3.351  0.1261  0.3860  0.1967
 8044SOL    HW135768   1.170   3.083   3.330 -0.7151 -0.8163 -1.2561
 8044SOL    HW235769   1.314   3.059   3.327  1.2039 -0.7499  1.6928
 8045SOL     OW35770   3.894   0.570   9.085  0.0622 -0.2375  0.4051
 8045SOL    HW135771   3.861   0.646   9.132 -1.2012 -0.1752 -0.5788
 8045SOL    HW235772   3.874   0.502   9.149 -1.9064  0.4340  0.5085
 8046SOL     OW35773   0.106   4.505   3.255 -0.2322  0.1449  0.0087
 8046SOL    HW135774   0.144   4.439   3.313 -0.4759 -0.4959 -0.5588
 8046SOL    HW235775   0.070   4.574   3.310 -0.2317  0.1571 -0.0063
 8047SOL     OW35776   3.772   3.407   1.015  0.0207 -0.3169 -0.2854
 8047SOL    HW135777   3.768   3.413   0.919  1.0807  1.9936 -0.1879
 8047SOL    HW235778   3.863   3.435   1.018 -0.0834 -0.0228  0.0977
 8048SOL     OW35779   3.206   3.975   6.319 -0.0632  0.0083  0.2021
 8048SOL    HW135780   3.170   3.990   6.231 -0.0424  0.3036  0.2470
 8048SOL    HW235781   3.167   3.892   6.347  1.1856 -1.2837 -1.9129
 8049SOL     OW35782   1.938   3.397   8.593  0.6594 -0.6875 -0.0190
 8049SOL    HW135783   2.028   3.417   8.570  1.4978 -3.9634  0.3839
 8049SOL    HW235784   1.926   3.316   8.543 -1.0309 -0.0684 -0.6279
 8050SOL     OW35785   2.406   2.707   7.909 -0.4027 -0.5061 -0.3870
 8050SOL    HW135786   2.347   2.725   7.982  1.4808  2.0696  0.5236
 8050SOL    HW235787   2.362   2.724   7.826 -0.6126  2.1841  0.2511
 8051SOL     OW35788   2.696   0.030   9.643 -0.3316  0.0279  0.0727
 8051SOL    HW135789   2.762   4.701   9.661  1.2911  1.7501  0.5109
 8051SOL    HW235790   2.626   4.716   9.602  0.1423 -0.9856  0.5308
 8052SOL     OW35791   1.501   0.489   2.380 -0.1776  0.0477 -0.0974
 8052SOL    HW135792   1.565   0.547   2.339 -3.9156  2.3236 -2.7185
 8052SOL    HW235793   1.519   0.404   2.340 -2.2321 -0.8656  0.8968
 8053SOL     OW35794   0.679   0.737  10.257 -0.3204 -0.2519 -0.0789
 8053SOL    HW135795   0.667   0.794  10.333 -0.5888  0.2404 -0.4880
 8053SOL    HW235796   0.587   0.710  10.252 -0.5856  0.5443  0.3359
 8054SOL     OW35797   2.383   4.145   3.915 -0.1307 -0.6142 -0.3008
 8054SOL    HW135798   2.449   4.084   3.950 -1.1055 -1.3384  0.3014
 8054SOL    HW235799   2.317   4.089   3.874 -2.0447  1.7744 -0.4630
 8055SOL     OW35800   3.803   3.203  12.052 -0.1882 -1.0331  0.4507
 8055SOL    HW135801   3.869   3.154  12.102 -1.6692 -4.7741 -1.3255
 8055SOL    HW235802   3.739   3.209  12.122 -1.0797  0.9754 -0.5250
 8056SOL     OW35803   0.246   4.142   2.788  0.0760 -0.1056  0.1027
 8056SOL    HW135804   0.276   4.177   2.704 -0.3472  0.1647  0.0647
 8056SOL    HW235805   0.200   4.063   2.758  0.4387  0.0352 -0.8016
 8057SOL     OW35806   1.357   4.373   8.513  0.6289  0.9877  0.3610
 8057SOL    HW135807   1.390   4.460   8.491  0.5550  1.0990  0.6881
 8057SOL    HW235808   1.268   4.386   8.547  0.4439 -1.1974  0.7305
 8058SOL     OW35809   2.229   3.062   1.749 -0.2794 -0.3200  0.0894
 8058SOL    HW135810   2.144   3.057   1.706 -1.1439  0.5187  1.6847
 8058SOL    HW235811   2.289   3.055   1.674  0.7387 -0.5223  0.9187
 8059SOL     OW35812   3.826   3.472  12.393 -0.0805  0.4356 -0.0501
 8059SOL    HW135813   3.759   3.538  12.376  2.0922  2.7507  0.3433
 8059SOL    HW235814   3.905   3.526  12.398  0.9329 -1.0991  0.5006
 8060SOL     OW35815   0.118   2.547   2.109 -0.8856  0.2820  0.2303
 8060SOL    HW135816   0.200   2.591   2.133 -0.3198 -0.9542  0.6102
 8060SOL    HW235817   0.074   2.546   2.194 -0.3821  0.4047  0.4955
 8061SOL     OW35818   3.609   2.380   2.224 -0.1445  0.3254  0.1216
 8061SOL    HW135819   3.573   2.336   2.148  0.0472  0.6965 -0.1824
 8061SOL    HW235820   3.620   2.471   2.195  1.7964 -0.4414 -1.5431
 8062SOL     OW35821   1.398   4.648   4.507 -0.4700  0.2537 -0.0585
 8062SOL    HW135822   1.466   4.597   4.462 -0.8579  0.2116 -0.5967
 8062SOL    HW235823   1.434   4.645   4.595  0.7013 -0.3194 -0.5512
 8063SOL     OW35824   3.110   2.733   9.120  0.1625  0.4686 -0.5170
 8063SOL    HW135825   3.146   2.795   9.184 -0.8023 -1.7918  2.2050
 8063SOL    HW235826   3.055   2.672   9.170  3.0865 -0.2856  1.7580
 8064SOL     OW35827   4.010   4.286  16.444  0.2056 -0.2706  0.0323
 8064SOL    HW135828   3.943   4.218  16.436  0.3044 -0.1292 -2.1835
 8064SOL    HW235829   4.050   4.280  16.357 -1.5527  0.2799 -0.8034
 8065SOL     OW35830   3.357   2.123  11.184 -0.3881 -0.0755  0.1786
 8065SOL    HW135831   3.306   2.043  11.191 -1.6029  0.6946  0.1696
 8065SOL    HW235832   3.292   2.193  11.194 -0.6600 -0.1907 -0.7551
 8066SOL     OW35833   1.954   1.020  12.542 -0.1651 -0.3867 -0.4540
 8066SOL    HW135834   2.019   1.084  12.570 -2.5538  2.2350 -0.8130
 8066SOL    HW235835   1.878   1.067  12.577  0.4756  0.7551 -0.5909
 8067SOL     OW35836   0.400   3.853  16.688 -0.1231 -0.3265 -0.5759
 8067SOL    HW135837   0.446   3.936  16.682  1.3212 -1.2691 -2.8130
 8067SOL    HW235838   0.443   3.809  16.614  1.5555 -0.5472  0.5296
 8068SOL     OW35839   4.440   1.649   9.036  0.0038  0.4091  0.5818
 8068SOL    HW135840   4.381   1.720   9.007 -1.9963 -1.2665  0.5596
 8068SOL    HW235841   4.429   1.680   9.126 -0.5321 -0.3922  0.7934
 8069SOL     OW35842   0.638   4.703   6.186 -0.5715 -0.7162 -0.2467
 8069SOL    HW135843   0.623   0.060   6.172  1.2771 -0.8610 -3.2139
 8069SOL    HW235844   0.556   4.677   6.144 -1.6957 -1.6585  2.5801
 8070SOL     OW35845   2.163   3.012   0.383 -0.2742 -0.3778  0.3089
 8070SOL    HW135846   2.134   3.006   0.474 -1.1759 -0.5811  0.0073
 8070SOL    HW235847   2.251   2.973   0.385 -0.7981 -1.6292 -1.6679
 8071SOL     OW35848   2.802   1.382   7.793 -0.4166 -0.0232 -0.3785
 8071SOL    HW135849   2.732   1.360   7.732  0.4092  0.6151 -1.5479
 8071SOL    HW235850   2.767   1.342   7.873 -0.8095  1.8715  0.3968
 8072SOL     OW35851   1.463   1.207   6.242 -0.9100 -0.5515 -0.0022
 8072SOL    HW135852   1.454   1.297   6.212  1.1843 -0.6459 -0.9342
 8072SOL    HW235853   1.450   1.210   6.337 -1.1859 -2.7337  0.0414
 8073SOL     OW35854   0.353   3.504   7.997  0.2021  0.0315 -0.1579
 8073SOL    HW135855   0.331   3.498   7.904 -2.4018  2.5594  0.2851
 8073SOL    HW235856   0.447   3.520   7.991  0.6591 -2.5070  0.1325
 8074SOL     OW35857   2.052   1.017   7.005  0.0420  0.1362 -0.1133
 8074SOL    HW135858   2.084   0.931   6.977  1.6537 -0.2588  2.9013
 8074SOL    HW235859   1.983   1.032   6.941  1.4526 -1.4977 -2.0342
 8075SOL     OW35860   0.239   2.269  10.555 -0.0170 -0.2056 -0.0380
 8075SOL    HW135861   0.328   2.301  10.570  0.1080 -0.2865 -0.6348
 8075SOL    HW235862   0.211   2.260  10.646  0.2653  1.5708  0.2272
 8076SOL     OW35863   0.684   2.131   7.875  0.4903 -0.0978  0.3273
 8076SOL    HW135864   0.750   2.065   7.894  0.0865 -0.6814 -0.2591
 8076SOL    HW235865   0.740   2.205   7.852  0.4583 -0.7926 -2.0340
 8077SOL     OW35866   3.845   2.603   9.078 -0.3844  0.0106  0.3274
 8077SOL    HW135867   3.904   2.528   9.069  1.6135  1.4809  1.1709
 8077SOL    HW235868   3.902   2.653   9.136 -0.5131  1.7544 -1.0703
 8078SOL     OW35869   2.093   3.857  12.823 -0.5716  0.8478  0.1604
 8078SOL    HW135870   2.047   3.875  12.742 -2.4496 -1.8676  0.6086
 8078SOL    HW235871   2.030   3.894  12.885 -0.2752 -0.0977  1.0374
 8079SOL     OW35872   0.896   0.761  11.889  0.3785  0.5146  0.4304
 8079SOL    HW135873   0.898   0.849  11.927  2.1702  0.4226  0.5500
 8079SOL    HW235874   0.986   0.750  11.858 -0.5901  0.6303 -2.4565
 8080SOL     OW35875   4.445   0.502   5.333  0.1822 -0.1831  0.0422
 8080SOL    HW135876   4.452   0.429   5.272 -1.2118 -0.2183 -0.0687
 8080SOL    HW235877   4.537   0.525   5.350 -0.0702  1.7164 -1.1301
 8081SOL     OW35878   1.477   2.269   6.527 -0.3877 -0.2001 -0.3682
 8081SOL    HW135879   1.521   2.187   6.551  0.5515 -0.0378 -1.5724
 8081SOL    HW235880   1.552   2.312   6.486  0.0052 -0.9696 -0.4504
 8082SOL     OW35881   1.658   3.440   0.325  0.0610 -0.5114 -0.2433
 8082SOL    HW135882   1.743   3.403   0.300  0.1322  0.1200 -0.9323
 8082SOL    HW235883   1.611   3.362   0.354  1.1704 -1.6623 -1.4832
 8083SOL     OW35884   0.844   3.610  16.992 -0.2411  0.5047  0.0095
 8083SOL    HW135885   0.796   3.691  17.008 -2.0239 -0.8608  1.5499
 8083SOL    HW235886   0.849   3.608  16.897  0.9437 -0.8235  0.0972
 8084SOL     OW35887   4.009   0.389   5.074 -0.0179  0.1805  0.5197
 8084SOL    HW135888   4.025   0.308   5.122 -0.9631 -0.2709  0.0633
 8084SOL    HW235889   4.008   0.443   5.154 -3.6076  2.4887 -1.1123
 8085SOL     OW35890   1.607   0.995   6.157  0.4758 -0.1933 -0.2670
 8085SOL    HW135891   1.543   1.060   6.187  0.2049 -1.1059  1.1115
 8085SOL    HW235892   1.589   0.992   6.063 -1.7348  0.0522  0.1545
 8086SOL     OW35893   3.059   3.235   5.356 -0.3095  0.3476 -0.1764
 8086SOL    HW135894   3.105   3.271   5.281 -0.0491 -1.1447 -0.7222
 8086SOL    HW235895   3.074   3.142   5.341  0.2955  0.6376 -1.3096
 8087SOL     OW35896   3.265   4.325   1.701 -0.7142 -0.4246  0.0773
 8087SOL    HW135897   3.201   4.278   1.648  0.2003 -0.9280 -0.5574
 8087SOL    HW235898   3.320   4.354   1.629  1.2613 -0.4325  1.5834
 8088SOL     OW35899   4.006   1.883  16.670  0.0494  0.4620 -0.2389
 8088SOL    HW135900   3.912   1.871  16.657 -0.2603  1.3667  1.1151
 8088SOL    HW235901   4.033   1.899  16.580  2.7797  2.2847  0.8894
 8089SOL     OW35902   2.465   3.580   2.344  0.1782  0.0068  0.1263
 8089SOL    HW135903   2.439   3.583   2.436  1.6843  2.1363  0.4824
 8089SOL    HW235904   2.488   3.487   2.339  1.7847  0.5063 -1.7959
 8090SOL     OW35905   4.386   4.573   8.911  0.2294 -0.5933 -0.1820
 8090SOL    HW135906   4.451   4.626   8.865 -0.7700  0.7197 -0.0814
 8090SOL    HW235907   4.416   4.485   8.885 -3.1788 -1.8669  0.2287
 8091SOL     OW35908   4.335   1.550   6.328 -0.7241 -0.7241 -0.5503
 8091SOL    HW135909   4.400   1.550   6.399  0.2896  0.5865 -1.4666
 8091SOL    HW235910   4.360   1.637   6.297  0.9190 -0.3949  1.6294
 8092SOL     OW35911   4.400   3.073   7.890 -0.0275 -0.0763 -0.1467
 8092SOL    HW135912   4.477   3.080   7.946 -0.4015 -0.0940  0.3711
 8092SOL    HW235913   4.356   2.999   7.934  1.3484 -0.5333  0.4651
 8093SOL     OW35914   3.226   4.030  17.175 -0.2810 -0.2189  0.4001
 8093SOL    HW135915   3.222   4.090  17.250 -2.6518 -0.9405  0.8591
 8093SOL    HW235916   3.281   3.964  17.218 -0.5113 -0.4591  0.3276
 8094SOL     OW35917   0.185   0.734  10.762 -0.1286 -0.1996 -0.0969
 8094SOL    HW135918   0.279   0.748  10.775 -0.5812  2.2561  0.6555
 8094SOL    HW235919   0.171   0.674  10.835  1.0564 -2.3577 -1.6732
 8095SOL     OW35920   4.621   4.225   8.033 -0.1789 -0.2861  0.0822
 8095SOL    HW135921   4.569   4.174   7.971 -0.4811  0.4465 -0.2660
 8095SOL    HW235922   4.666   4.159   8.085 -1.5274 -1.3525 -0.1045
 8096SOL     OW35923   3.068   3.181  10.558  0.5711 -0.1499  0.1316
 8096SOL    HW135924   3.006   3.231  10.612 -1.2569  0.3124 -2.4181
 8096SOL    HW235925   3.099   3.124  10.628 -0.4108  0.3971  1.0135
 8097SOL     OW35926   2.566   0.159   9.852  0.0580 -0.2894  0.0979
 8097SOL    HW135927   2.630   0.153   9.923 -1.9558  0.2150  1.9573
 8097SOL    HW235928   2.614   0.104   9.790 -0.0132  0.1960 -0.3854
 8098SOL     OW35929   1.418   1.249  10.626  0.4079  0.1729  0.2333
 8098SOL    HW135930   1.485   1.249  10.693  0.4468  0.4940  0.1973
 8098SOL    HW235931   1.367   1.169  10.636  0.5368  0.2004  1.0518
 8099SOL     OW35932   1.181   2.088  17.185 -0.1998 -0.4923  0.2972
 8099SOL    HW135933   1.105   2.065  17.239 -0.0739 -0.5962  0.4332
 8099SOL    HW235934   1.171   2.033  17.107 -0.6768  0.9477 -0.6388
 8100SOL     OW35935   0.633   0.574  13.354 -0.3230 -0.2665 -0.1177
 8100SOL    HW135936   0.585   0.655  13.340  1.7595  0.7663 -1.3406
 8100SOL    HW235937   0.696   0.591  13.425 -0.3357 -0.0111 -0.1693
 8101SOL     OW35938   4.642   0.550  17.477  0.2163 -0.2502  0.9709
 8101SOL    HW135939   4.720   0.519  17.525  2.0437  0.9040 -1.2677
 8101SOL    HW235940   4.626   0.474  17.420  2.6004 -0.1273  0.1410
 8102SOL     OW35941   1.861   0.190   8.203  0.3933 -0.5002  0.8000
 8102SOL    HW135942   1.823   0.162   8.119  1.5279 -0.4881  0.2782
 8102SOL    HW235943   1.931   0.243   8.165  0.9884 -1.7574  0.1194
 8103SOL     OW35944   0.699   2.745   8.749  0.2314  0.0353 -0.2588
 8103SOL    HW135945   0.659   2.747   8.836  0.8872  0.7085  0.0268
 8103SOL    HW235946   0.760   2.673   8.754 -1.8962 -1.7692 -0.2613
 8104SOL     OW35947   2.606   0.318   8.321 -0.4185  1.1643  0.0223
 8104SOL    HW135948   2.618   0.296   8.413  1.7520  0.7696 -0.3589
 8104SOL    HW235949   2.569   0.234   8.293 -0.7947 -0.1637  4.5248
 8105SOL     OW35950   4.293   1.846   6.124  0.6861 -0.3066 -0.1263
 8105SOL    HW135951   4.339   1.801   6.053 -0.8622 -3.3066  0.7577
 8105SOL    HW235952   4.205   1.837   6.090  0.2097  1.4002  0.6627
 8106SOL     OW35953   2.135   4.581   0.052 -0.2083  0.4068 -0.6428
 8106SOL    HW135954   2.146   4.671   0.084  0.1279  0.7132 -1.6337
 8106SOL    HW235955   2.120   4.608  17.709  0.1290 -0.3924 -0.9367
 8107SOL     OW35956   0.341   3.973   4.642 -1.0303 -0.1938  0.1545
 8107SOL    HW135957   0.380   3.904   4.588  0.2844  0.2227  0.5778
 8107SOL    HW235958   0.273   3.980   4.575  0.7589  2.1453 -1.4190
 8108SOL     OW35959   0.988   2.281  17.321 -1.0280 -0.0785  0.2882
 8108SOL    HW135960   1.073   2.272  17.278 -0.5334  1.5288  0.9198
 8108SOL    HW235961   0.924   2.274  17.250 -0.9489  0.9003  0.1118
 8109SOL     OW35962   1.817   3.613   2.420 -0.0692  0.2366 -0.0236
 8109SOL    HW135963   1.816   3.707   2.434 -2.0924  0.6175 -2.8013
 8109SOL    HW235964   1.876   3.619   2.345 -0.3913 -3.4283 -0.5971
 8110SOL     OW35965   3.658   1.761   7.933 -0.0413  0.1827  0.2285
 8110SOL    HW135966   3.720   1.743   8.003  1.4778  0.0271 -1.1753
 8110SOL    HW235967   3.579   1.777   7.985  0.9224 -0.6017  1.9128
 8111SOL     OW35968   0.698   2.665   2.131  0.1634  0.5266  0.2543
 8111SOL    HW135969   0.779   2.616   2.146  0.4754  0.4831 -1.5516
 8111SOL    HW235970   0.727   2.755   2.142 -0.9094  1.2441 -2.7535
 8112SOL     OW35971   1.364   3.437   5.766  0.3291 -0.1327 -0.2115
 8112SOL    HW135972   1.348   3.406   5.855  0.1511 -0.2780 -0.2944
 8112SOL    HW235973   1.275   3.453   5.735  0.1374  1.5541  1.1860
 8113SOL     OW35974   3.925   3.032   1.025  0.5732  0.3860 -0.2942
 8113SOL    HW135975   3.884   3.021   0.940  0.9444  1.0158 -0.5569
 8113SOL    HW235976   3.856   3.064   1.082 -0.2732 -5.0258  1.7034
 8114SOL     OW35977   3.341   3.381   6.340 -0.5154 -0.0425  0.5542
 8114SOL    HW135978   3.314   3.329   6.415 -2.0016  0.9955  0.7368
 8114SOL    HW235979   3.326   3.470   6.372 -0.6524 -0.5774  1.9891
 8115SOL     OW35980   0.863   3.085  11.829 -0.3936  0.2044  0.7899
 8115SOL    HW135981   0.929   3.139  11.786 -2.5794  1.5516 -0.8869
 8115SOL    HW235982   0.845   3.015  11.766  0.7911  0.1774  0.4921
 8116SOL     OW35983   0.838   3.334   0.040 -0.1511  0.7755 -0.3455
 8116SOL    HW135984   0.785   3.412   0.027 -0.1508  0.8055 -0.1708
 8116SOL    HW235985   0.767   3.271   0.039  1.4530 -1.0530  0.3594
 8117SOL     OW35986   4.716   2.747   1.970 -0.2208  0.4733  1.0948
 8117SOL    HW135987   4.640   2.690   1.957  0.8727 -0.4801 -1.1201
 8117SOL    HW235988   0.035   2.684   2.016 -1.9964 -0.1409  2.4275
 8118SOL     OW35989   4.072   4.631  15.654 -0.3196  0.1025 -0.3365
 8118SOL    HW135990   3.999   4.609  15.711 -1.6189 -2.4586 -3.0302
 8118SOL    HW235991   4.132   4.557  15.656  0.1484  0.4825  0.1440
 8119SOL     OW35992   0.057   1.282   0.837 -0.5115  0.7554 -0.5709
 8119SOL    HW135993   0.020   1.358   0.792  0.5942 -0.0114 -2.7391
 8119SOL    HW235994   4.728   1.213   0.841 -0.3279  0.5599 -0.8976
 8120SOL     OW35995   3.029   0.144  17.495 -0.2057 -0.2077  0.4569
 8120SOL    HW135996   3.076   0.082  17.550  0.8115  1.1695  1.1490
 8120SOL    HW235997   3.091   0.216  17.484 -1.7435  1.2122  1.0446
 8121SOL     OW35998   3.340   1.251   3.235  0.0628 -0.2974 -0.0885
 8121SOL    HW135999   3.337   1.191   3.160  1.6853 -0.6363  0.1111
 8121SOL    HW236000   3.275   1.318   3.213  2.0683  1.7892  0.3967
 8122SOL     OW36001   1.942   1.399   2.680 -0.2544  0.0085 -0.3586
 8122SOL    HW136002   2.005   1.356   2.738 -1.1214 -0.2430  0.3950
 8122SOL    HW236003   1.871   1.339   2.657  0.1679 -0.9487  0.8389
 8123SOL     OW36004   2.535   1.018   2.472  0.0213 -0.4082  0.3990
 8123SOL    HW136005   2.578   1.070   2.540 -0.4101 -0.4467  0.7029
 8123SOL    HW236006   2.456   1.067   2.449  1.3502  1.6336  0.1674
 8124SOL     OW36007   0.771   2.886   9.893 -0.1167 -0.7629  0.0314
 8124SOL    HW136008   0.795   2.794   9.907 -0.9742 -0.7219  1.8282
 8124SOL    HW236009   0.816   2.914   9.814 -0.4189  0.5309  0.3224
 8125SOL     OW36010   4.553   3.618   5.121 -0.1525  0.1886 -0.0461
 8125SOL    HW136011   4.529   3.561   5.194  0.4902  0.3096  0.2609
 8125SOL    HW236012   4.634   3.582   5.086  0.5665 -0.8704  2.6814
 8126SOL     OW36013   1.376   3.595   7.211 -0.1436  0.0919 -0.4732
 8126SOL    HW136014   1.449   3.535   7.196 -1.1706 -1.0824 -0.7127
 8126SOL    HW236015   1.301   3.536   7.212 -1.5175  1.9016  2.4133
 8127SOL     OW36016   0.683   3.796   6.639  1.0340 -0.2887 -0.1562
 8127SOL    HW136017   0.755   3.755   6.591  1.6689  0.9624 -0.2863
 8127SOL    HW236018   0.703   3.889   6.650 -0.3857 -0.3879  3.4254
 8128SOL     OW36019   0.979   2.506   7.247 -0.3365  0.2886  0.3055
 8128SOL    HW136020   1.040   2.579   7.239  0.6150 -0.3622  1.6885
 8128SOL    HW236021   0.961   2.493   7.340  0.1305 -2.7105 -0.0021
 8129SOL     OW36022   2.773   1.853  16.450  0.1800  0.1995  0.3089
 8129SOL    HW136023   2.758   1.941  16.483  2.6767 -0.2649  2.7192
 8129SOL    HW236024   2.689   1.844  16.404  0.5706  0.9142 -0.5554
 8130SOL     OW36025   1.858   1.644   4.288  0.0613  0.4392 -0.3596
 8130SOL    HW136026   1.867   1.736   4.311  0.7740  0.7478 -1.8617
 8130SOL    HW236027   1.947   1.610   4.289  0.2521  0.9864  0.4812
 8131SOL     OW36028   3.391   2.825   8.242  0.3630 -0.2422 -0.1131
 8131SOL    HW136029   3.336   2.778   8.305  1.4909 -0.3581  0.7814
 8131SOL    HW236030   3.476   2.781   8.251  0.2626 -0.3686  0.2038
 8132SOL     OW36031   4.106   1.406   0.376  0.1063  0.2709  0.3889
 8132SOL    HW136032   4.101   1.311   0.371 -0.2018  0.1523  3.1934
 8132SOL    HW236033   4.153   1.421   0.458  2.0875  2.0722 -1.0628
 8133SOL     OW36034   3.104   0.024   5.801  0.2474  0.5809  0.3167
 8133SOL    HW136035   3.118   0.105   5.752 -1.8076  0.7223 -0.0532
 8133SOL    HW236036   3.087   4.703   5.727  0.2774 -2.1169  2.4130
 8134SOL     OW36037   1.146   0.752   5.141  0.0363 -0.3180 -0.5253
 8134SOL    HW136038   1.182   0.782   5.224 -0.8216 -0.0120 -0.2581
 8134SOL    HW236039   1.052   0.765   5.155 -0.2207  1.1726 -3.6560
 8135SOL     OW36040   3.465   4.461   0.027 -0.1135  0.1608  0.4904
 8135SOL    HW136041   3.518   4.537   0.051 -0.4883  0.6437 -0.1956
 8135SOL    HW236042   3.493   4.399   0.094  0.6021 -0.3139 -0.2517
 8136SOL     OW36043   2.030   2.671   9.699 -0.6411  0.1392 -0.1301
 8136SOL    HW136044   2.066   2.630   9.777 -0.1238 -1.5292 -1.2571
 8136SOL    HW236045   1.980   2.599   9.663 -0.0104  0.2541 -1.2260
 8137SOL     OW36046   3.142   1.383  14.086 -0.0648 -0.1498  0.2358
 8137SOL    HW136047   3.231   1.349  14.098  0.8453  2.1527  0.0756
 8137SOL    HW236048   3.094   1.301  14.072 -0.9980  0.8043 -2.1831
 8138SOL     OW36049   0.865   4.484   9.228  0.6602 -0.0801 -0.1797
 8138SOL    HW136050   0.901   4.453   9.311  0.0898 -0.7017 -0.1673
 8138SOL    HW236051   0.770   4.485   9.237  0.4810 -0.1855 -2.0119
 8139SOL     OW36052   0.177   2.277  13.876 -0.0674  0.1508  0.1460
 8139SOL    HW136053   0.108   2.320  13.926 -0.0327  1.9774 -1.3639
 8139SOL    HW236054   0.114   2.214  13.841  1.1936 -0.9475 -0.1797
 8140SOL     OW36055   3.889   2.578   4.819  0.3149  0.2044  0.4103
 8140SOL    HW136056   3.965   2.525   4.794  0.3162 -0.0512  0.9486
 8140SOL    HW236057   3.931   2.652   4.863  1.3570 -0.4821  0.5852
 8141SOL     OW36058   2.098   1.435   2.919 -0.0764 -0.0164  0.4863
 8141SOL    HW136059   2.063   1.409   3.004 -1.0066  0.1852  0.1721
 8141SOL    HW236060   2.188   1.405   2.913  0.8288  2.4693  1.9577
 8142SOL     OW36061   4.206   0.901  10.384 -0.4361  0.1585  0.4573
 8142SOL    HW136062   4.231   0.974  10.327 -1.1677  0.1478  0.1211
 8142SOL    HW236063   4.291   0.897  10.428  0.1523  1.2254 -0.5967
 8143SOL     OW36064   3.398   3.356   2.483  0.9103 -0.1084 -0.7284
 8143SOL    HW136065   3.411   3.401   2.566 -2.4388 -0.3939 -0.0370
 8143SOL    HW236066   3.487   3.322   2.476  0.9056 -0.8257  2.7051
 8144SOL     OW36067   2.343   4.252   2.352  0.2700  0.7559  0.8563
 8144SOL    HW136068   2.368   4.317   2.287 -0.3887  3.5027  3.3263
 8144SOL    HW236069   2.249   4.238   2.335  0.0268  1.9441  1.1783
 8145SOL     OW36070   4.214   1.438   6.826 -0.1156  0.6154  0.0011
 8145SOL    HW136071   4.227   1.353   6.869 -1.1409 -0.5931 -2.1050
 8145SOL    HW236072   4.270   1.496   6.877 -1.2856  1.4187  0.3645
 8146SOL     OW36073   0.592   1.234   6.739  0.2405  0.9137 -0.5269
 8146SOL    HW136074   0.636   1.245   6.655  0.3034 -0.6635 -0.7043
 8146SOL    HW236075   0.647   1.283   6.800  0.1557  1.2122 -0.6938
 8147SOL     OW36076   4.485   2.967   5.616  0.2552 -0.1895 -0.2657
 8147SOL    HW136077   4.577   2.981   5.635  0.0381  0.5347  0.2591
 8147SOL    HW236078   4.464   2.881   5.650 -1.2555  0.1146 -0.4018
 8148SOL     OW36079   1.914   0.582  11.872 -0.6980 -0.2647  0.0057
 8148SOL    HW136080   1.942   0.672  11.888 -0.0094  0.1173 -3.5133
 8148SOL    HW236081   1.859   0.572  11.950 -0.3789  1.0160  0.3944
 8149SOL     OW36082   2.523   4.224  16.967 -0.2641 -0.6112  0.3965
 8149SOL    HW136083   2.556   4.292  16.908  0.1433 -0.0287  1.3155
 8149SOL    HW236084   2.591   4.157  16.958  1.3674  1.4083 -2.6887
 8150SOL     OW36085   0.679   3.989  17.634  0.9890  0.2542  0.5545
 8150SOL    HW136086   0.615   4.059  17.618  1.8433  1.5877  3.0005
 8150SOL    HW236087   0.760   4.040  17.628  1.5000 -0.3601  2.1796
 8151SOL     OW36088   1.674   1.615   7.624 -0.4116  0.1188  0.1229
 8151SOL    HW136089   1.716   1.538   7.660 -2.0014  0.8697  3.6222
 8151SOL    HW236090   1.751   1.668   7.605  1.2513 -3.0751 -1.9559
 8152SOL     OW36091   2.080   3.763   3.064  0.1552 -0.2926 -0.5455
 8152SOL    HW136092   2.076   3.682   3.115 -1.1719 -0.6437 -1.1944
 8152SOL    HW236093   2.001   3.750   3.011  1.0356 -2.2911 -1.3543
 8153SOL     OW36094   1.991   3.293   9.422 -0.4173  0.5657 -0.4418
 8153SOL    HW136095   1.947   3.376   9.442 -0.2910  0.5950 -0.2794
 8153SOL    HW236096   2.071   3.296   9.475 -0.6737 -0.6269  0.0142
 8154SOL     OW36097   2.537   1.784   4.522  0.6617 -0.2463 -0.1120
 8154SOL    HW136098   2.512   1.783   4.430  0.7416 -2.6033 -0.0943
 8154SOL    HW236099   2.550   1.879   4.531 -4.3448  0.3241  1.2985
 8155SOL     OW36100   0.311   0.737   7.054 -0.3449  0.1801 -0.0369
 8155SOL    HW136101   0.221   0.743   7.086 -0.4112  0.1294 -0.2150
 8155SOL    HW236102   0.298   0.788   6.974 -2.1974 -1.5150 -0.8082
 8156SOL     OW36103   2.966   0.419  15.527  0.3280  0.1973  0.0764
 8156SOL    HW136104   3.056   0.406  15.559  0.4633 -1.0464 -0.7867
 8156SOL    HW236105   2.918   0.457  15.600  0.5327  0.6167 -0.0052
 8157SOL     OW36106   3.107   2.182   6.763 -0.7819 -0.3692  0.6478
 8157SOL    HW136107   3.020   2.214   6.788  0.3405  0.8246  3.0162
 8157SOL    HW236108   3.097   2.100   6.715  2.1129  0.3632 -1.1851
 8158SOL     OW36109   0.515   0.862  13.361  0.2221  1.3114  0.1447
 8158SOL    HW136110   0.541   0.826  13.446 -2.0475 -0.1922  0.2035
 8158SOL    HW236111   0.497   0.949  13.398  0.4213  1.7706 -0.8528
 8159SOL     OW36112   1.899   1.578  13.270 -0.3033 -0.2420 -0.0982
 8159SOL    HW136113   1.864   1.623  13.193  0.1647  0.5586  0.1616
 8159SOL    HW236114   1.830   1.590  13.337  1.0980  1.5766  1.0131
 8160SOL     OW36115   1.366   2.281   9.220 -0.2122  0.0410  0.1380
 8160SOL    HW136116   1.282   2.326   9.235 -0.8765 -1.1352 -0.0928
 8160SOL    HW236117   1.429   2.352   9.212 -1.2417  1.2078  2.1935
 8161SOL     OW36118   1.787   2.191   0.191 -0.1920 -0.1985 -0.6218
 8161SOL    HW136119   1.749   2.277   0.172  1.0284 -0.0143 -2.2101
 8161SOL    HW236120   1.715   2.132   0.212  2.1045 -3.0157 -0.7757
 8162SOL     OW36121   0.112   4.569   2.393  0.0630 -0.3375  0.0560
 8162SOL    HW136122   0.139   4.655   2.424 -0.5539  0.0609 -0.5047
 8162SOL    HW236123   0.195   4.522   2.394  0.7225  0.8581  1.3187
 8163SOL     OW36124   0.903   2.212   8.649 -0.0575 -0.2651  0.0134
 8163SOL    HW136125   0.900   2.121   8.681  2.4341 -0.2106  0.4280
 8163SOL    HW236126   0.979   2.208   8.591  0.2405 -1.9088  0.4916
 8164SOL     OW36127   4.218   0.582   4.109 -0.0613 -0.0417  0.6377
 8164SOL    HW136128   4.185   0.543   4.190  0.2817 -0.3989  0.6076
 8164SOL    HW236129   4.253   0.502   4.070  2.6160  2.6722 -2.5338
 8165SOL     OW36130   3.166   1.320   9.101  0.4361  0.0585 -0.2535
 8165SOL    HW136131   3.110   1.338   9.176  0.5050  1.0454 -0.4368
 8165SOL    HW236132   3.190   1.231   9.123 -2.3769 -0.6449 -0.0419
 8166SOL     OW36133   1.482   2.923   1.329  0.3395  0.1154  0.1794
 8166SOL    HW136134   1.388   2.934   1.340 -0.3413 -0.9885 -4.3209
 8166SOL    HW236135   1.485   2.958   1.240  1.1860  0.2908  0.2780
 8167SOL     OW36136   3.635   1.860   4.153 -0.2505 -0.6566 -0.5117
 8167SOL    HW136137   3.579   1.810   4.094 -0.2682 -1.7142  0.4019
 8167SOL    HW236138   3.713   1.806   4.145  0.0201 -0.1626 -1.2361
 8168SOL     OW36139   1.278   1.418   9.012 -0.1923  0.4721 -0.7462
 8168SOL    HW136140   1.246   1.364   9.084 -0.0848  1.0971 -0.2304
 8168SOL    HW236141   1.350   1.452   9.065 -0.3103  0.9043 -0.8699
 8169SOL     OW36142   1.317   4.374   5.148 -0.0554  0.7188 -0.2127
 8169SOL    HW136143   1.281   4.287   5.134  0.5520  0.6787 -1.5733
 8169SOL    HW236144   1.387   4.362   5.212 -0.3092  1.4312  0.1971
 8170SOL     OW36145   3.922   3.241  12.310 -0.0249  0.1921  0.1731
 8170SOL    HW136146   4.016   3.260  12.317 -0.2104  2.1208 -2.7510
 8170SOL    HW236147   3.891   3.327  12.337  1.3894  0.8734 -0.3883
 8171SOL     OW36148   1.407   4.230   4.197 -0.1633  0.6915 -0.6038
 8171SOL    HW136149   1.401   4.142   4.161  0.3566  0.6200 -0.5151
 8171SOL    HW236150   1.385   4.225   4.290  3.2452  0.5984  0.2158
 8172SOL     OW36151   4.328   4.126   5.965 -0.0071  0.4357 -0.0494
 8172SOL    HW136152   4.291   4.055   6.018  0.9356  0.5602  0.7652
 8172SOL    HW236153   4.403   4.079   5.928 -1.5015 -1.7993 -0.2993
 8173SOL     OW36154   3.901   4.619   4.781  0.2116 -0.1330  0.3280
 8173SOL    HW136155   3.935   4.547   4.834  2.8417  0.0333 -1.1242
 8173SOL    HW236156   3.962   4.610   4.708 -0.5013  1.5763 -0.4838
 8174SOL     OW36157   0.183   1.065   5.499 -0.0672 -0.2339 -0.4375
 8174SOL    HW136158   0.250   1.056   5.567  0.9897 -0.2192 -1.4585
 8174SOL    HW236159   0.158   0.973   5.497  0.2975 -0.4029  2.9818
 8175SOL     OW36160   4.542   4.385  14.988  0.1442 -0.0230 -0.4846
 8175SOL    HW136161   4.456   4.356  15.017  0.0409 -0.8907 -1.6306
 8175SOL    HW236162   4.519   4.462  14.936  1.6221  1.7503  1.5142
 8176SOL     OW36163   0.299   2.845   0.308 -0.0438 -0.0673  0.0724
 8176SOL    HW136164   0.332   2.934   0.299 -2.3456  0.9774  1.7767
 8176SOL    HW236165   0.326   2.802   0.227 -0.9425 -3.1662  1.4022
 8177SOL     OW36166   3.644   4.375   5.887  0.8549 -0.3785  0.3008
 8177SOL    HW136167   3.670   4.464   5.912 -1.9794  0.0150  1.9304
 8177SOL    HW236168   3.575   4.341   5.945 -1.1184  1.0236 -1.2192
 8178SOL     OW36169   4.299   0.900   1.472  0.0191 -0.7217 -0.0337
 8178SOL    HW136170   4.304   0.809   1.502  0.5942 -0.3154  1.0684
 8178SOL    HW236171   4.390   0.929   1.476  0.5965 -2.5136  0.1989
 8179SOL     OW36172   4.646   3.636   2.570 -0.1984  0.1298 -0.7568
 8179SOL    HW136173   4.648   3.549   2.530  0.7305 -0.5911  0.8767
 8179SOL    HW236174   0.002   3.652   2.581 -0.5282  1.9095 -0.5160
 8180SOL     OW36175   4.215   4.306   5.016 -0.2334  0.9619  0.2487
 8180SOL    HW136176   4.282   4.246   5.048 -1.1961 -1.2535 -1.9109
 8180SOL    HW236177   4.231   4.287   4.924  0.7066 -0.1456  0.6416
 8181SOL     OW36178   2.794   1.597   9.583 -0.9228 -0.1313  0.1348
 8181SOL    HW136179   2.761   1.592   9.493  0.5050  2.6921 -0.5440
 8181SOL    HW236180   2.756   1.675   9.624 -1.1974 -0.4918  0.5703
 8182SOL     OW36181   1.061   0.856  14.616  0.3136 -0.3624  0.3061
 8182SOL    HW136182   1.065   0.845  14.521 -1.3910  1.3466  0.0103
 8182SOL    HW236183   1.152   0.882  14.627 -0.1138  1.9786 -1.6562
 8183SOL     OW36184   1.418   4.129   8.850  0.9226  0.1145  0.2978
 8183SOL    HW136185   1.386   4.080   8.925  1.7935  0.4529  0.8923
 8183SOL    HW236186   1.362   4.085   8.786  1.8001 -0.3597 -0.1520
 8184SOL     OW36187   4.277   1.351   4.360 -0.0168 -0.4594  0.6709
 8184SOL    HW136188   4.267   1.406   4.437  0.2015  0.1643  0.2484
 8184SOL    HW236189   4.302   1.270   4.405  1.2698 -0.3134  0.2059
 8185SOL     OW36190   2.359   0.398  13.899 -0.0242  0.0813 -0.1535
 8185SOL    HW136191   2.312   0.411  13.816  0.8528  0.8290 -0.5417
 8185SOL    HW236192   2.412   0.478  13.904  1.7648 -1.0926 -0.1341
 8186SOL     OW36193   4.493   1.443  15.883  0.3582 -0.2863 -0.5390
 8186SOL    HW136194   4.469   1.524  15.839  2.5870  0.3446 -0.5980
 8186SOL    HW236195   4.432   1.377  15.848 -0.9769  1.0473 -0.7040
 8187SOL     OW36196   2.740   1.041  10.168  0.1818  0.1665 -0.5376
 8187SOL    HW136197   2.683   0.966  10.154  1.1095 -0.1664 -2.4789
 8187SOL    HW236198   2.717   1.063  10.259  1.8832  2.4011 -0.6337
 8188SOL     OW36199   2.560   4.172   8.576  0.1017  0.1788  0.0761
 8188SOL    HW136200   2.644   4.181   8.620  1.2347 -2.9736 -1.4273
 8188SOL    HW236201   2.541   4.079   8.591  1.1833 -0.2022 -0.9665
 8189SOL     OW36202   1.682   3.540   5.575 -0.3262 -0.1892 -0.0978
 8189SOL    HW136203   1.629   3.462   5.589 -0.9957  0.1584 -0.6596
 8189SOL    HW236204   1.669   3.576   5.663  0.7106 -1.0713  0.4174
 8190SOL     OW36205   0.562   2.262   0.060  0.0540  0.1338  0.1521
 8190SOL    HW136206   0.529   2.336   0.111 -1.1557 -0.2841 -0.0171
 8190SOL    HW236207   0.538   2.300  17.722  0.8345 -1.3404 -0.7200
 8191SOL     OW36208   2.582   0.951   9.416 -0.2952 -0.3182  0.3001
 8191SOL    HW136209   2.641   0.878   9.434  2.5210  2.0708  0.8202
 8191SOL    HW236210   2.500   0.925   9.459 -0.2574 -2.6969 -1.0595
 8192SOL     OW36211   3.072   1.315   5.797 -0.1329 -0.0168 -0.2694
 8192SOL    HW136212   3.052   1.306   5.890 -1.4566 -0.6988 -0.6202
 8192SOL    HW236213   3.144   1.254   5.783  0.9697  0.7364  2.0894
 8193SOL     OW36214   2.534   2.491   6.807 -0.0707  0.7865 -0.1199
 8193SOL    HW136215   2.596   2.454   6.745  0.5997  2.6292 -0.5432
 8193SOL    HW236216   2.500   2.405   6.834  0.0811  0.9216  0.4972
 8194SOL     OW36217   1.385   1.646   8.658  0.3074 -0.0642 -0.0645
 8194SOL    HW136218   1.378   1.569   8.602 -3.2090 -0.4797  0.9551
 8194SOL    HW236219   1.384   1.728   8.609  1.6656 -0.3565 -0.5962
 8195SOL     OW36220   3.715   3.338   8.748 -0.4918  0.2515 -0.1167
 8195SOL    HW136221   3.786   3.341   8.811  0.5015 -0.2736 -1.2203
 8195SOL    HW236222   3.740   3.403   8.681 -0.2024 -2.5853 -2.7759
 8196SOL     OW36223   3.624   0.310  14.364 -0.2117 -0.1632 -0.4223
 8196SOL    HW136224   3.589   0.280  14.448 -0.4843  1.8178  0.1732
 8196SOL    HW236225   3.569   0.385  14.341 -1.2363 -1.2537 -1.5069
 8197SOL     OW36226   3.684   1.240   8.804  0.2997  0.4431 -0.0044
 8197SOL    HW136227   3.662   1.181   8.732  1.8357 -0.9694  0.6860
 8197SOL    HW236228   3.742   1.305   8.765  0.5710  0.0557 -0.2529
 8198SOL     OW36229   3.866   4.640  16.725 -0.0120  0.5837 -0.3655
 8198SOL    HW136230   3.822   4.724  16.737 -1.0682 -0.0230 -0.0452
 8198SOL    HW236231   3.800   4.579  16.757 -0.4855  0.5727 -1.3658
 8199SOL     OW36232   3.225   0.104  13.450  0.7330  0.0520 -0.0331
 8199SOL    HW136233   3.244   0.090  13.357 -2.8734  2.3459 -1.1116
 8199SOL    HW236234   3.150   0.162  13.440  0.4622 -0.0374  1.4066
 8200SOL     OW36235   0.030   4.485   1.018 -0.2116  0.3078 -0.0066
 8200SOL    HW136236   0.103   4.459   1.074  0.9768  2.3452 -0.6164
 8200SOL    HW236237   0.088   4.520   0.951  0.5537  0.7297  0.8810
 8201SOL     OW36238   1.182   1.627   8.850  0.4353 -0.4776 -0.4889
 8201SOL    HW136239   1.240   1.590   8.917  2.0915  1.2602 -0.9528
 8201SOL    HW236240   1.247   1.626   8.780  0.3579  2.4339 -0.5961
 8202SOL     OW36241   4.660   4.582  11.532 -0.0875  0.0329 -0.5293
 8202SOL    HW136242   4.684   4.610  11.444 -3.5920  0.5245 -1.3419
 8202SOL    HW236243   4.569   4.611  11.536 -0.5515 -1.5385  0.3741
 8203SOL     OW36244   3.294   0.495   2.515  0.1405 -0.0491 -0.3797
 8203SOL    HW136245   3.262   0.422   2.461  0.3020  0.6177 -1.3821
 8203SOL    HW236246   3.384   0.511   2.487 -0.2148  2.8948  0.1818
 8204SOL     OW36247   2.086   1.620   8.408  0.1579 -0.4898  0.2606
 8204SOL    HW136248   2.007   1.631   8.357 -0.6463 -0.1267  1.5864
 8204SOL    HW236249   2.053   1.623   8.498 -1.0074  1.3659 -0.2355
 8205SOL     OW36250   3.475   1.221   1.132 -0.2972 -0.1347  0.3021
 8205SOL    HW136251   3.563   1.213   1.167  1.3959  2.7366 -3.2047
 8205SOL    HW236252   3.448   1.310   1.155  0.6468  0.6040 -1.4193
 8206SOL     OW36253   1.025   1.301  13.682 -0.6087  0.1035  0.0083
 8206SOL    HW136254   0.974   1.301  13.601 -0.0423  1.7158 -0.3504
 8206SOL    HW236255   0.969   1.304  13.759  1.2508 -1.1852  1.3933
 8207SOL     OW36256   1.321   1.011   7.018 -0.2709 -0.5676  0.3936
 8207SOL    HW136257   1.281   1.090   7.054 -0.3055 -1.1041  1.5409
 8207SOL    HW236258   1.377   0.980   7.090  0.9487 -0.4227 -0.4879
 8208SOL     OW36259   1.851   3.219  13.708 -0.0561 -0.4953  0.2265
 8208SOL    HW136260   1.862   3.136  13.755  0.4063 -0.2195  0.6060
 8208SOL    HW236261   1.766   3.255  13.732 -0.0029  1.0548 -1.8569
 8209SOL     OW36262   4.401   2.383   1.599 -0.1882 -0.5568 -0.7773
 8209SOL    HW136263   4.403   2.343   1.512 -0.2279 -2.3951  0.0844
 8209SOL    HW236264   4.496   2.384   1.614 -0.7553  2.2631  2.7087
 8210SOL     OW36265   3.396   0.207   7.536  0.1759 -0.2639 -0.0046
 8210SOL    HW136266   3.458   0.140   7.566 -0.3987 -0.5352  0.6001
 8210SOL    HW236267   3.435   0.281   7.581 -2.3586  0.8216  0.4026
 8211SOL     OW36268   1.984   3.851   7.078  0.2463 -0.0165  0.0617
 8211SOL    HW136269   1.965   3.926   7.023  1.0590  1.2282  1.4907
 8211SOL    HW236270   1.914   3.788   7.061 -0.3444  0.3309  1.1985
 8212SOL     OW36271   0.279   0.443   7.331  0.3593 -0.4101  0.2548
 8212SOL    HW136272   0.304   0.521   7.381  0.6630 -0.2489 -0.1520
 8212SOL    HW236273   0.361   0.395   7.332  0.4616 -0.2373  0.1315
 8213SOL     OW36274   2.452   4.203  11.357  0.1125  0.0869  0.5020
 8213SOL    HW136275   2.443   4.215  11.263  1.9097 -1.4253  0.1309
 8213SOL    HW236276   2.408   4.118  11.368  0.8360 -0.7772 -3.3427
 8214SOL     OW36277   0.728   4.502   7.960 -0.0207 -0.6072 -0.1699
 8214SOL    HW136278   0.716   4.409   7.976  2.5338 -1.4236 -2.9898
 8214SOL    HW236279   0.803   4.506   7.901 -0.0121 -1.5375 -0.2123
 8215SOL     OW36280   1.263   2.696  14.894  0.4995 -0.7525 -0.2735
 8215SOL    HW136281   1.188   2.658  14.849 -0.7255  1.0030  0.2804
 8215SOL    HW236282   1.332   2.669  14.833  0.9829 -1.2374  0.4754
 8216SOL     OW36283   0.846   0.021  12.677  0.8302  0.5691 -0.5453
 8216SOL    HW136284   0.793   4.710  12.739  3.7377 -1.0928  0.6679
 8216SOL    HW236285   0.891   0.085  12.732  1.0766  0.9445 -1.1753
 8217SOL     OW36286   3.597   2.555   9.163 -0.2449  0.3549  0.1653
 8217SOL    HW136287   3.574   2.466   9.135  0.3921  0.1556  0.2623
 8217SOL    HW236288   3.683   2.550   9.122 -0.9206  0.4465 -1.2592
 8218SOL     OW36289   2.586   1.732   3.348  0.2437  0.3961  0.4200
 8218SOL    HW136290   2.629   1.674   3.285 -1.4553 -1.1988  0.7293
 8218SOL    HW236291   2.561   1.669   3.415 -1.3992 -0.8892 -1.4161
 8219SOL     OW36292   4.565   2.511   9.403  0.1355 -0.1281  0.3012
 8219SOL    HW136293   4.527   2.459   9.474  1.0152  0.4054  1.1581
 8219SOL    HW236294   4.528   2.469   9.325  0.2694  1.5691 -0.6777
 8220SOL     OW36295   2.779   1.927   2.655  0.1185  0.1422 -0.4878
 8220SOL    HW136296   2.753   2.019   2.650  1.0277  0.4080 -0.1381
 8220SOL    HW236297   2.701   1.883   2.620  0.6884 -0.3925 -1.0718
 8221SOL     OW36298   4.109   2.436   2.653 -0.1165  0.4493  0.0415
 8221SOL    HW136299   4.116   2.419   2.559 -0.9409 -1.2282  0.2922
 8221SOL    HW236300   4.177   2.385   2.696 -0.3399 -0.3943 -0.6048
 8222SOL     OW36301   3.316   1.370   6.400  0.0947  1.0845 -0.0885
 8222SOL    HW136302   3.326   1.378   6.306  0.0904 -2.1438 -0.3539
 8222SOL    HW236303   3.239   1.427   6.410 -0.0460  1.1535 -1.5888
 8223SOL     OW36304   1.518   3.032  11.192  0.0548 -0.0087  0.0479
 8223SOL    HW136305   1.547   3.009  11.280  1.1329  2.2400  0.2847
 8223SOL    HW236306   1.426   3.006  11.199  0.8788 -2.6381  1.0073
 8224SOL     OW36307   2.788   4.556   2.965  0.5082 -0.0822 -0.5331
 8224SOL    HW136308   2.709   4.524   3.008  0.6119  1.8927  1.1380
 8224SOL    HW236309   2.853   4.521   3.027  0.3373  1.5091  0.5317
 8225SOL     OW36310   4.461   0.468   2.375 -0.5682 -0.3896  0.0993
 8225SOL    HW136311   4.467   0.446   2.468  1.6534  0.6371  0.1852
 8225SOL    HW236312   4.432   0.382   2.344 -1.6950 -0.5498  1.5584
 8226SOL     OW36313   0.494   0.546   8.850  0.2782 -0.7521  0.2922
 8226SOL    HW136314   0.501   0.590   8.934 -0.8795 -1.2456  0.6402
 8226SOL    HW236315   0.459   0.609   8.787  0.1215 -0.4079  0.7302
 8227SOL     OW36316   3.297   3.426   9.715 -0.2770 -0.3705 -0.5579
 8227SOL    HW136317   3.348   3.500   9.682 -0.5158  0.0895  0.1178
 8227SOL    HW236318   3.246   3.467   9.785 -2.2829  1.5357 -3.1374
 8228SOL     OW36319   0.348   2.008   4.557  0.1019  0.1943  0.3604
 8228SOL    HW136320   0.291   1.932   4.539 -0.5913  0.6345  0.6797
 8228SOL    HW236321   0.341   2.064   4.480  1.4500  0.4409  0.4345
 8229SOL     OW36322   1.515   3.402   3.418 -0.6575 -0.1891 -0.0153
 8229SOL    HW136323   1.505   3.424   3.325  3.7089  2.4272  0.1828
 8229SOL    HW236324   1.608   3.386   3.428 -0.4776  0.4969 -0.5718
 8230SOL     OW36325   0.046   1.677   3.981  0.2294 -0.1543 -0.2891
 8230SOL    HW136326   0.106   1.645   3.914  0.8305 -0.8370  0.5824
 8230SOL    HW236327   4.735   1.597   4.001  1.7363 -0.7053  1.0397
 8231SOL     OW36328   1.838   3.785   7.423  0.3790  0.1232 -0.1304
 8231SOL    HW136329   1.752   3.769   7.382  0.2327  1.0494 -0.2008
 8231SOL    HW236330   1.821   3.843   7.497  0.6889 -0.0581  0.0780
 8232SOL     OW36331   4.062   2.500  17.608  0.0344  0.1402  0.1139
 8232SOL    HW136332   4.130   2.481  17.672 -1.1173  0.5816  1.4634
 8232SOL    HW236333   4.012   2.419  17.600 -0.8197  0.6157  0.6535
 8233SOL     OW36334   4.486   3.759   4.877 -0.4044  0.0829  0.7610
 8233SOL    HW136335   4.563   3.810   4.853 -1.1576  1.4309  1.2476
 8233SOL    HW236336   4.520   3.710   4.952  1.0487  0.8224  0.5823
 8234SOL     OW36337   2.541   3.943   6.772 -0.1236 -0.0358  0.5175
 8234SOL    HW136338   2.530   3.927   6.679 -3.3722 -0.1510  0.9281
 8234SOL    HW236339   2.633   3.916   6.782 -0.5486 -1.3348  0.9095
 8235SOL     OW36340   2.519   1.486   8.062  0.3125  0.2669  0.2534
 8235SOL    HW136341   2.466   1.433   8.121 -1.5944  1.4354 -0.4345
 8235SOL    HW236342   2.599   1.434   8.049  1.0011  1.4958 -0.4037
 8236SOL     OW36343   1.421   4.425   3.240  0.4259 -0.9146  0.3348
 8236SOL    HW136344   1.482   4.478   3.291 -0.2809 -0.0178  0.2373
 8236SOL    HW236345   1.446   4.339   3.276 -1.5665 -1.2415  0.9486
 8237SOL     OW36346   3.094   3.477   0.884  0.0003 -0.1096  0.4870
 8237SOL    HW136347   3.007   3.508   0.857 -0.6739 -1.5463  1.0108
 8237SOL    HW236348   3.096   3.395   0.834  0.7709  0.8542 -1.0659
 8238SOL     OW36349   2.329   1.853   3.783 -0.1472 -0.2345  0.0191
 8238SOL    HW136350   2.325   1.792   3.709  2.9176 -0.8984  0.3928
 8238SOL    HW236351   2.423   1.844   3.797 -0.1623  0.8121  0.7361
 8239SOL     OW36352   2.210   0.470   2.601  0.4988  0.7112  0.2850
 8239SOL    HW136353   2.199   0.441   2.692 -0.1722 -1.0940 -0.3774
 8239SOL    HW236354   2.296   0.430   2.586  0.3257 -0.2550  1.7740
 8240SOL     OW36355   2.915   3.349  12.856  0.2294 -0.6862  0.1542
 8240SOL    HW136356   2.861   3.371  12.932 -2.3003 -1.3034 -1.4738
 8240SOL    HW236357   3.002   3.369  12.891  0.1269  0.5015 -0.2817
 8241SOL     OW36358   4.667   0.610   5.004  0.2625  0.4179 -0.0542
 8241SOL    HW136359   0.019   0.647   5.002  0.0279  1.1091  2.8915
 8241SOL    HW236360   4.635   0.639   4.918 -0.7547  1.7666  0.7876
 8242SOL     OW36361   2.400   1.573   7.255 -0.5043 -0.3303 -0.0015
 8242SOL    HW136362   2.447   1.589   7.337  1.6055  0.1343 -1.3103
 8242SOL    HW236363   2.469   1.602   7.195 -2.4787  2.3305 -1.0141
 8243SOL     OW36364   2.825   0.264   3.574 -0.5297  0.0912  0.0019
 8243SOL    HW136365   2.763   0.335   3.589  1.0958  1.8082 -1.4568
 8243SOL    HW236366   2.865   0.249   3.660 -1.7169  0.5081  0.6190
 8244SOL     OW36367   2.318   4.726   4.068 -0.1607  0.3604  0.9506
 8244SOL    HW136368   2.303   0.062   4.007 -0.4051 -2.0731 -1.8738
 8244SOL    HW236369   2.235   4.682   4.054 -0.2035  1.3817 -2.0922
 8245SOL     OW36370   1.777   0.358   0.323 -0.1338 -0.6513 -0.5224
 8245SOL    HW136371   1.712   0.424   0.298 -1.0465 -1.5735 -0.5979
 8245SOL    HW236372   1.845   0.387   0.262 -0.6271  1.5272 -0.0209
 8246SOL     OW36373   4.226   0.100   7.365 -0.2903  0.1499  0.4415
 8246SOL    HW136374   4.312   0.141   7.378  0.3753 -0.6027 -1.6958
 8246SOL    HW236375   4.189   0.104   7.453 -1.6523 -0.4682 -0.1087
 8247SOL     OW36376   4.471   4.642   4.275 -0.1557 -0.1135 -0.8367
 8247SOL    HW136377   4.518   4.587   4.213  2.7675  1.2934  0.1422
 8247SOL    HW236378   4.409   4.679   4.213 -0.3262  1.5683  0.3291
 8248SOL     OW36379   4.493   1.161   8.725 -0.0475  0.1307  0.0990
 8248SOL    HW136380   4.498   1.257   8.720  0.8885  0.0542 -0.5629
 8248SOL    HW236381   4.566   1.139   8.782 -1.0289 -1.5802  0.6857
 8249SOL     OW36382   1.877   1.376   9.820  0.6088 -0.1853 -0.0897
 8249SOL    HW136383   1.966   1.368   9.785  0.3053  2.0020 -1.3704
 8249SOL    HW236384   1.895   1.325   9.899 -0.1109  0.3557  0.4275
 8250SOL     OW36385   0.562   1.058   3.666  0.5687  0.0478 -0.0360
 8250SOL    HW136386   0.638   1.018   3.625 -0.6496 -1.1679 -1.1395
 8250SOL    HW236387   0.576   1.148   3.637 -1.1672  0.9394  1.8742
 8251SOL     OW36388   4.211   4.371   4.340  0.1445  0.5964 -0.2239
 8251SOL    HW136389   4.267   4.354   4.416  0.4423 -0.1323 -0.6071
 8251SOL    HW236390   4.270   4.399   4.270  0.3047 -0.8587 -0.6826
 8252SOL     OW36391   4.016   4.529   8.363  0.1052 -0.4399 -0.5692
 8252SOL    HW136392   3.968   4.503   8.441  0.8765  2.7759  0.9914
 8252SOL    HW236393   3.961   4.605   8.343 -3.8181 -3.1134  0.0620
 8253SOL     OW36394   3.749   2.267   3.694 -0.3300  0.4346 -0.5872
 8253SOL    HW136395   3.780   2.315   3.618  0.2590 -0.3015 -0.8088
 8253SOL    HW236396   3.708   2.193   3.650 -1.9194  0.5172  0.7520
 8254SOL     OW36397   3.098   1.696   3.472 -0.4159  0.4555  0.5415
 8254SOL    HW136398   3.125   1.768   3.529  1.6563  0.0092  0.1065
 8254SOL    HW236399   3.068   1.632   3.536  1.2609 -0.1442  0.7123
 8255SOL     OW36400   1.209   2.484   2.067  0.3258 -0.0219  0.4563
 8255SOL    HW136401   1.280   2.548   2.060 -1.4552  2.2783  3.6566
 8255SOL    HW236402   1.243   2.421   2.130 -1.5787 -2.2706 -0.7824
 8256SOL     OW36403   0.984   4.291   7.933 -0.1211 -0.0820 -0.3574
 8256SOL    HW136404   1.011   4.366   7.878 -0.5963  1.7176  1.8675
 8256SOL    HW236405   1.069   4.249   7.945 -1.0866 -2.1059 -0.7361
 8257SOL     OW36406   0.868   2.618   8.456  0.1307  0.8299 -0.1402
 8257SOL    HW136407   0.936   2.571   8.503 -0.4002  0.1270 -0.0719
 8257SOL    HW236408   0.898   2.708   8.466 -0.2979  0.9733 -0.1647
 8258SOL     OW36409   0.751   2.158   4.042 -0.1377 -0.2274  0.5268
 8258SOL    HW136410   0.810   2.085   4.024 -0.3735 -0.1062 -0.7027
 8258SOL    HW236411   0.767   2.208   3.962  3.8435 -0.5772  1.0803
 8259SOL     OW36412   2.410   4.010   7.191 -0.0716 -0.0620  0.2423
 8259SOL    HW136413   2.411   4.104   7.170  0.8607 -0.8134 -3.2107
 8259SOL    HW236414   2.397   4.009   7.285 -0.8006  1.0910  0.1527
 8260SOL     OW36415   4.591   1.482   5.690 -0.3174 -0.2851 -0.0960
 8260SOL    HW136416   4.517   1.461   5.633  0.9831  0.2856 -1.9996
 8260SOL    HW236417   4.640   1.540   5.632 -3.5410  1.6528 -0.8743
 8261SOL     OW36418   3.212   0.618   8.102  0.3489 -0.1458 -0.7193
 8261SOL    HW136419   3.162   0.620   8.020  0.7744 -0.3083 -0.9845
 8261SOL    HW236420   3.287   0.673   8.078  1.2700 -1.7708 -1.6413
 8262SOL     OW36421   2.882   1.954   8.145  0.6710  0.3845  0.0235
 8262SOL    HW136422   2.885   2.046   8.120  0.1348  0.0369 -1.2996
 8262SOL    HW236423   2.860   1.908   8.064  2.2072  1.0013 -0.7414
 8263SOL     OW36424   3.100   2.109   4.699  0.4056 -0.3791  0.3588
 8263SOL    HW136425   3.059   2.031   4.737 -2.2209  0.5158 -0.6530
 8263SOL    HW236426   3.055   2.108   4.615 -0.1907 -1.0650  0.6800
 8264SOL     OW36427   1.932   3.507   5.247 -0.3637  0.4587 -0.5056
 8264SOL    HW136428   1.960   3.472   5.331 -1.2950  0.2330 -0.2850
 8264SOL    HW236429   1.859   3.450   5.224  0.3796 -1.4428  1.9002
 8265SOL     OW36430   1.242   4.400   3.565 -0.4924  0.2310  0.4085
 8265SOL    HW136431   1.253   4.495   3.554  0.2397  0.3286  2.0300
 8265SOL    HW236432   1.323   4.375   3.608  0.4005  2.1013 -0.1629
 8266SOL     OW36433   4.299   1.117   5.952 -0.5358  0.1410  0.2972
 8266SOL    HW136434   4.394   1.128   5.950 -0.4008 -1.0841  0.3943
 8266SOL    HW236435   4.282   1.095   5.860  0.4793  0.3487  0.0615
 8267SOL     OW36436   3.526   1.629  13.013  0.2869 -0.0598  0.6835
 8267SOL    HW136437   3.515   1.583  12.930  2.4397  1.8862 -0.6463
 8267SOL    HW236438   3.487   1.561  13.069  0.4922 -2.6316 -2.3000
 8268SOL     OW36439   0.468   4.623   1.226  0.3488 -0.0640 -0.7217
 8268SOL    HW136440   0.482   4.706   1.272  2.5375 -0.4876 -0.5854
 8268SOL    HW236441   0.381   4.639   1.190 -0.3894 -1.4721  0.4806
 8269SOL     OW36442   2.377   0.491   9.069  0.1073 -0.2328 -0.4127
 8269SOL    HW136443   2.426   0.570   9.092 -0.6147 -0.2117  1.0358
 8269SOL    HW236444   2.343   0.462   9.154 -0.3751  2.8613  0.4689
 8270SOL     OW36445   2.603   3.649   6.984 -0.5665 -0.0315  0.2353
 8270SOL    HW136446   2.649   3.655   6.900  0.6619  0.6321  0.9579
 8270SOL    HW236447   2.637   3.725   7.031 -2.1070 -0.0589  1.4141
 8271SOL     OW36448   4.103   3.803   6.971 -0.6656  0.1139  0.1521
 8271SOL    HW136449   4.152   3.768   6.897  0.5629 -1.5598  1.7585
 8271SOL    HW236450   4.084   3.730   7.030 -0.5661  0.6605  0.8691
 8272SOL     OW36451   1.179   3.268   2.162 -0.4596  0.4737 -0.0492
 8272SOL    HW136452   1.250   3.240   2.220 -1.1710  1.9897  1.5669
 8272SOL    HW236453   1.106   3.210   2.183  0.7625 -0.6150  1.1723
 8273SOL     OW36454   1.358   0.425  16.232 -0.3160 -0.0579  0.2582
 8273SOL    HW136455   1.341   0.500  16.289 -2.3136  0.3381 -0.8240
 8273SOL    HW236456   1.270   0.386  16.236 -0.8512  1.3511  2.0162
 8274SOL     OW36457   3.538   2.965   5.494 -0.3991 -0.2475 -0.0282
 8274SOL    HW136458   3.496   2.936   5.414 -2.0055  1.4562  0.2063
 8274SOL    HW236459   3.502   2.892   5.544 -2.9911  1.5671  0.7388
 8275SOL     OW36460   3.505   2.437   6.146 -0.3748  0.4962  0.0379
 8275SOL    HW136461   3.418   2.466   6.122  0.4221 -0.9405 -4.6111
 8275SOL    HW236462   3.561   2.437   6.068 -0.3972  0.1400  0.0218
 8276SOL     OW36463   3.245   2.441   7.352  0.1784  0.1361 -0.3010
 8276SOL    HW136464   3.255   2.536   7.345  2.1344  0.0149  1.0136
 8276SOL    HW236465   3.200   2.426   7.436  2.2858  1.8267  1.0982
 8277SOL     OW36466   0.095   1.024  12.870  0.4525  0.7053  0.3509
 8277SOL    HW136467   0.085   0.929  12.876  0.7404  0.6334 -0.2698
 8277SOL    HW236468   0.170   1.036  12.928 -0.4266  2.8396  1.0682
 8278SOL     OW36469   2.790   0.615   4.400 -0.5484 -0.0862 -0.4999
 8278SOL    HW136470   2.880   0.649   4.399 -0.7221  0.3383 -1.7503
 8278SOL    HW236471   2.767   0.635   4.491  0.2710 -3.8014  0.5120
 8279SOL     OW36472   4.722   3.558   6.094  0.1286  0.2679 -0.1428
 8279SOL    HW136473   0.065   3.522   6.055 -1.5372  0.3099 -3.6344
 8279SOL    HW236474   4.651   3.519   6.043  1.2336 -1.9661  0.0178
 8280SOL     OW36475   2.089   3.477   3.165  0.3389  0.1249 -0.4585
 8280SOL    HW136476   2.166   3.431   3.132  0.9774 -1.2833  3.0092
 8280SOL    HW236477   2.100   3.443   3.254  3.2869 -0.5068 -1.0476
 8281SOL     OW36478   1.099   0.350   0.627 -0.7264 -0.4068 -0.6838
 8281SOL    HW136479   1.050   0.422   0.589 -0.4908 -0.7194 -1.5845
 8281SOL    HW236480   1.158   0.330   0.555 -0.1469  1.5031 -0.7377
 8282SOL     OW36481   4.338   0.791   5.853  0.1362  0.0061 -0.0512
 8282SOL    HW136482   4.339   0.846   5.775  0.2088 -0.2408 -0.2242
 8282SOL    HW236483   4.431   0.772   5.865  0.3043  0.9214  0.0911
 8283SOL     OW36484   1.699   3.044   1.681 -0.2253 -0.1441  0.3231
 8283SOL    HW136485   1.648   3.108   1.730 -0.0827 -2.5443  3.6551
 8283SOL    HW236486   1.776   3.094   1.653 -0.8505 -1.6996 -4.0882
 8284SOL     OW36487   0.818   2.348  17.548  0.7154 -0.0568  0.4713
 8284SOL    HW136488   0.861   2.298  17.480 -1.7931 -0.5914 -0.7036
 8284SOL    HW236489   0.754   2.397  17.496  0.6051  1.2653  1.8126
 8285SOL     OW36490   3.070   1.390  16.527  0.2916  0.0788  0.8198
 8285SOL    HW136491   3.055   1.316  16.467  0.0784  0.2313  0.6871
 8285SOL    HW236492   3.151   1.426  16.491 -0.1073  1.7350  1.5932
 8286SOL     OW36493   0.135   3.158   6.580 -0.0429 -0.2311 -0.1181
 8286SOL    HW136494   0.226   3.151   6.610  0.6475  0.9247 -1.9225
 8286SOL    HW236495   0.096   3.158   6.667  0.3593  0.6165  0.0649
 8287SOL     OW36496   1.567   4.409   9.307 -0.0136  0.3486 -0.0984
 8287SOL    HW136497   1.539   4.338   9.250 -1.4919  0.9010 -0.0545
 8287SOL    HW236498   1.484   4.412   9.355  0.5824  0.1567  0.9578
 8288SOL     OW36499   0.983   1.836  17.250  0.4875  0.5327 -0.1381
 8288SOL    HW136500   1.047   1.828  17.321 -0.1182  0.8017  0.4280
 8288SOL    HW236501   1.019   1.766  17.194 -0.1090 -0.1893  0.3883
 8289SOL     OW36502   3.855   1.126  15.258 -0.1417  0.1621  0.2713
 8289SOL    HW136503   3.888   1.165  15.177 -0.7218  3.0804  1.4302
 8289SOL    HW236504   3.930   1.096  15.309 -1.2025 -1.6542  0.7538
 8290SOL     OW36505   3.624   1.130   8.122  0.3085 -0.0468  0.2867
 8290SOL    HW136506   3.538   1.158   8.154  0.5959 -1.2158  2.0718
 8290SOL    HW236507   3.635   1.187   8.046  2.1304 -0.0672  0.5305
 8291SOL     OW36508   2.999   4.478   5.707 -0.4377  0.2317 -0.3392
 8291SOL    HW136509   2.905   4.470   5.687 -0.5427 -0.0989  0.3099
 8291SOL    HW236510   3.013   4.384   5.697  1.6221  0.7733 -2.3227
 8292SOL     OW36511   2.852   1.657   0.672  0.4294 -0.2502 -0.5893
 8292SOL    HW136512   2.942   1.667   0.703 -0.1003 -2.8565  1.7431
 8292SOL    HW236513   2.862   1.675   0.579  1.5680 -1.0910 -0.6300
 8293SOL     OW36514   0.656   1.327   5.444 -0.3821 -0.2055 -0.2630
 8293SOL    HW136515   0.638   1.242   5.484 -3.4289  1.1967  1.3050
 8293SOL    HW236516   0.567   1.343   5.412 -0.4329  2.3674  1.1978
 8294SOL     OW36517   1.290   0.983  17.745 -0.5450 -0.2008 -0.5536
 8294SOL    HW136518   1.255   1.063   0.039 -0.8178  0.4749 -2.1078
 8294SOL    HW236519   1.323   0.945   0.079  1.0392  1.2242 -0.5392
 8295SOL     OW36520   2.475   0.360   8.859  0.3140 -0.4860 -0.3472
 8295SOL    HW136521   2.570   0.366   8.849  0.0656 -1.3168 -3.2285
 8295SOL    HW236522   2.450   0.405   8.940 -0.4826  0.5320 -1.1482
 8296SOL     OW36523   1.648   4.119   6.227 -0.3822  0.1027 -0.2009
 8296SOL    HW136524   1.556   4.107   6.201 -0.0941 -0.8804 -0.7628
 8296SOL    HW236525   1.682   4.117   6.138  1.3573 -0.2199  0.4824
 8297SOL     OW36526   4.177   2.455   0.117  0.5141 -0.2523  0.0641
 8297SOL    HW136527   4.137   2.520   0.174 -0.4623  1.3982 -2.5158
 8297SOL    HW236528   4.251   2.502   0.079  0.4546  1.2377  1.8321
 8298SOL     OW36529   3.670   4.646   3.337  0.2997  0.5009 -0.2753
 8298SOL    HW136530   3.749   4.683   3.376  0.2720 -0.7300  0.9399
 8298SOL    HW236531   3.701   4.615   3.252 -0.6163 -4.4944  1.2159
 8299SOL     OW36532   2.213   4.360  11.831  0.3512 -0.2510  0.6912
 8299SOL    HW136533   2.154   4.288  11.851  0.2264 -0.0825  0.9290
 8299SOL    HW236534   2.280   4.309  11.785  0.9593  0.3991  0.8631
 8300SOL     OW36535   1.940   1.922  17.033 -0.3741  0.1705  0.9047
 8300SOL    HW136536   1.955   2.004  17.079  0.6963 -0.2161  1.2609
 8300SOL    HW236537   2.018   1.932  16.977 -1.0846  0.9186  0.0511
 8301SOL     OW36538   0.221   3.420   6.064 -0.0160 -0.0339 -0.4317
 8301SOL    HW136539   0.256   3.385   6.147 -0.0276  0.4581 -0.2213
 8301SOL    HW236540   0.297   3.427   6.007  0.4364 -2.7654 -0.1898
 8302SOL     OW36541   3.742   2.400   5.779 -0.8920 -0.3459 -0.0931
 8302SOL    HW136542   3.650   2.410   5.755 -0.7824  0.9079  0.0189
 8302SOL    HW236543   3.770   2.488   5.753 -0.1317  0.5445  3.6310
 8303SOL     OW36544   3.270   2.006  13.658 -0.8461  0.0434  0.8509
 8303SOL    HW136545   3.248   1.950  13.583  0.7341 -3.2572  2.8266
 8303SOL    HW236546   3.191   2.059  13.660 -0.9698 -0.1515  1.1366
 8304SOL     OW36547   3.269   4.345   1.973  0.6595  0.6575 -0.6235
 8304SOL    HW136548   3.257   4.327   1.880  0.4408  0.3651 -0.5403
 8304SOL    HW236549   3.295   4.260   2.009 -2.3823  0.4200  1.0369
 8305SOL     OW36550   4.724   0.139   1.869 -0.1987  0.5872  0.1256
 8305SOL    HW136551   4.700   0.119   1.779 -0.0791 -1.4037  0.5241
 8305SOL    HW236552   0.023   0.056   1.901  0.7014  0.6148 -0.8451
 8306SOL     OW36553   4.338   3.622  13.276 -0.4125  0.1163 -0.2706
 8306SOL    HW136554   4.389   3.642  13.354 -1.1834  2.9273 -0.4815
 8306SOL    HW236555   4.341   3.702  13.224  0.5196  0.0318 -0.3391
 8307SOL     OW36556   3.058   4.609   7.786  0.7885  0.0383 -0.4236
 8307SOL    HW136557   3.096   4.692   7.757  0.0841  0.9552  1.3073
 8307SOL    HW236558   3.129   4.580   7.842  0.7857 -0.3336 -0.6096
 8308SOL     OW36559   0.650   2.654   3.855 -0.2243 -0.5464  0.0314
 8308SOL    HW136560   0.637   2.612   3.770  3.7584 -0.7206 -0.5036
 8308SOL    HW236561   0.745   2.656   3.867 -0.2495 -0.1622  0.1812
 8309SOL     OW36562   2.717   1.519   6.866  0.0993 -0.0168  0.1851
 8309SOL    HW136563   2.740   1.427   6.871  1.6925  0.3625 -0.0914
 8309SOL    HW236564   2.798   1.551   6.825 -0.2995  0.4870 -0.2134
 8310SOL     OW36565   4.066   4.452   9.005 -0.2101 -0.4833  0.3499
 8310SOL    HW136566   4.042   4.383   9.067 -2.0672 -0.9007 -0.8067
 8310SOL    HW236567   4.100   4.512   9.071  0.1113 -1.0988  0.7394
 8311SOL     OW36568   3.751   1.465   1.650  0.2036  0.3951 -0.1092
 8311SOL    HW136569   3.706   1.420   1.722  0.6865 -1.9091 -1.2199
 8311SOL    HW236570   3.812   1.396   1.622 -0.1583  0.5117 -1.1939
 8312SOL     OW36571   1.419   4.547   7.779 -0.5880 -0.2945  0.0556
 8312SOL    HW136572   1.417   4.617   7.713  1.7021 -1.1378 -0.8981
 8312SOL    HW236573   1.514   4.539   7.780 -0.6010 -0.6823 -1.6640
 8313SOL     OW36574   4.426   1.810   6.365 -0.0433 -0.1171  0.0171
 8313SOL    HW136575   4.397   1.849   6.282  1.9443 -2.9357 -1.9641
 8313SOL    HW236576   4.513   1.776   6.347  0.5594  1.4254 -0.0379
 8314SOL     OW36577   3.037   2.379  14.788 -0.3416  0.3860  0.0434
 8314SOL    HW136578   3.106   2.317  14.813 -0.7314  0.4629  1.3097
 8314SOL    HW236579   3.061   2.440  14.858  0.3989 -0.9157  0.9270
 8315SOL     OW36580   1.427   3.063  15.648 -0.1350 -0.2048  0.4451
 8315SOL    HW136581   1.375   3.080  15.727  0.6420  0.3510  0.8326
 8315SOL    HW236582   1.355   3.057  15.585 -1.3297 -0.4972  1.8131
 8316SOL     OW36583   3.790   1.755   5.017  0.1411 -0.4612 -0.3391
 8316SOL    HW136584   3.801   1.708   5.100  0.7177  0.6688  0.2235
 8316SOL    HW236585   3.817   1.688   4.954 -0.9863  0.6365 -1.9672
 8317SOL     OW36586   3.240   3.126   4.296  0.0421  0.1530 -0.2793
 8317SOL    HW136587   3.224   3.081   4.213  0.0733 -0.1641 -0.1120
 8317SOL    HW236588   3.154   3.125   4.338  0.5757 -1.1636  0.8097
 8318SOL     OW36589   0.312   3.797  17.594 -0.0069 -0.6347 -0.0007
 8318SOL    HW136590   0.311   3.819  17.500  2.6171  0.1370  0.1641
 8318SOL    HW236591   0.264   3.876  17.620 -3.1749 -2.3735 -0.6113
 8319SOL     OW36592   1.906   4.480   1.651 -0.2446 -0.3157  0.1655
 8319SOL    HW136593   1.862   4.521   1.726  1.0043 -0.8347  1.1891
 8319SOL    HW236594   1.890   4.542   1.580 -0.0263 -0.2189  0.2000
 8320SOL     OW36595   2.820   3.058  12.827 -0.2027  0.0284 -0.2517
 8320SOL    HW136596   2.807   3.153  12.828  0.0608  0.0687 -0.6249
 8320SOL    HW236597   2.775   3.032  12.746  0.6560  2.1672 -1.4093
 8321SOL     OW36598   3.819   2.647  11.010  0.0935 -0.0732  0.3401
 8321SOL    HW136599   3.849   2.643  11.102  0.1840 -0.8096  0.2795
 8321SOL    HW236600   3.858   2.731  10.983  1.4225 -1.4304 -1.9152
 8322SOL     OW36601   2.541   3.700  15.819 -0.3711 -0.1627 -0.2620
 8322SOL    HW136602   2.600   3.656  15.757  1.2506 -0.3599  1.4111
 8322SOL    HW236603   2.453   3.669  15.800 -0.3114  1.8511 -3.9018
 8323SOL     OW36604   0.018   2.062   8.644 -0.1283 -0.2853 -0.0266
 8323SOL    HW136605   0.111   2.049   8.665 -0.8271 -1.6440  2.1699
 8323SOL    HW236606   0.003   2.155   8.661 -4.3634 -1.5209  2.9006
 8324SOL     OW36607   1.898   1.679   4.645  0.3941  1.0885 -0.2548
 8324SOL    HW136608   1.882   1.740   4.572 -1.0841  1.1393  0.1240
 8324SOL    HW236609   1.815   1.647   4.680  1.4539  0.6906  1.8738
 8325SOL     OW36610   2.454   1.055   7.847 -0.0168  0.4242 -0.3586
 8325SOL    HW136611   2.404   0.985   7.890 -0.6782  1.8127  1.1353
 8325SOL    HW236612   2.481   0.996   7.777 -2.1487  0.6298 -1.3465
 8326SOL     OW36613   2.620   4.455  13.226  0.4218 -0.2010  0.4658
 8326SOL    HW136614   2.544   4.465  13.283  0.6698  0.0014  0.7654
 8326SOL    HW236615   2.600   4.370  13.187 -0.5681  0.0850  0.3548
 8327SOL     OW36616   2.083   0.585   7.086  0.0195  0.5465  0.6318
 8327SOL    HW136617   2.075   0.506   7.032  1.0369 -0.9420  2.6438
 8327SOL    HW236618   2.148   0.552   7.149 -0.8791 -3.9844 -0.7876
 8328SOL     OW36619   3.183   1.232  16.822  0.1921  0.2618 -0.1038
 8328SOL    HW136620   3.227   1.206  16.741  2.2833 -1.2314  1.5020
 8328SOL    HW236621   3.248   1.221  16.891 -0.7526 -0.6720  0.6390
 8329SOL     OW36622   1.836   3.779  10.192  0.0271 -0.4967 -0.0080
 8329SOL    HW136623   1.887   3.858  10.173 -1.7989  0.7109  0.1383
 8329SOL    HW236624   1.902   3.728  10.239 -0.2793 -1.1796 -0.3161
 8330SOL     OW36625   4.254   2.500   3.182  0.4396  0.7986 -0.2370
 8330SOL    HW136626   4.258   2.534   3.093 -1.4494  1.4098 -0.0878
 8330SOL    HW236627   4.172   2.541   3.210 -0.5559 -0.2914 -1.5798
 8331SOL     OW36628   1.702   1.691   3.813 -0.1267  0.1595 -0.0064
 8331SOL    HW136629   1.788   1.728   3.827  0.1812 -0.6485  0.2564
 8331SOL    HW236630   1.683   1.732   3.728 -1.6000 -0.1982  0.1458
 8332SOL     OW36631   3.583   3.235   2.847 -0.2598 -0.0807 -0.2489
 8332SOL    HW136632   3.547   3.305   2.793  2.5211  1.4093 -0.2130
 8332SOL    HW236633   3.500   3.211   2.888  0.0869 -0.1546  0.4215
 8333SOL     OW36634   3.817   4.478   4.141  0.1108  0.2926  0.7080
 8333SOL    HW136635   3.774   4.493   4.226  1.0080  0.1121  1.1866
 8333SOL    HW236636   3.891   4.539   4.146  0.7222 -0.4091 -0.0300
 8334SOL     OW36637   3.943   3.490   1.923  0.1616 -0.7197 -0.7029
 8334SOL    HW136638   4.024   3.506   1.971 -1.1187  3.1273  0.1607
 8334SOL    HW236639   3.956   3.396   1.913 -1.6568 -1.0423 -0.0035
 8335SOL     OW36640   2.973   1.049   7.940 -0.3409  0.1426  0.0442
 8335SOL    HW136641   2.899   1.046   7.880  0.3281  0.7774 -0.8227
 8335SOL    HW236642   2.966   0.976   8.000  1.8418 -2.4161 -2.7992
 8336SOL     OW36643   0.271   2.498   6.168 -0.4342 -0.3474 -0.3997
 8336SOL    HW136644   0.235   2.454   6.246 -0.8558  0.2158 -0.2804
 8336SOL    HW236645   0.362   2.472   6.183 -0.3521  1.5332  2.3374
 8337SOL     OW36646   0.677   1.661   9.650 -0.1509  0.3903  0.2886
 8337SOL    HW136647   0.748   1.699   9.702 -0.9910  0.2178  1.5344
 8337SOL    HW236648   0.695   1.567   9.642 -1.3543  0.0949  1.1814
 8338SOL     OW36649   2.544   0.253  13.504 -0.3459  0.3333 -0.4668
 8338SOL    HW136650   2.465   0.295  13.469 -1.2077 -1.2726 -0.4346
 8338SOL    HW236651   2.508   0.175  13.546 -0.6032  0.8207  0.2194
 8339SOL     OW36652   3.208   1.547  16.330  0.3102  0.6215 -0.1760
 8339SOL    HW136653   3.195   1.521  16.239  1.7032 -1.1208  0.1147
 8339SOL    HW236654   3.249   1.633  16.321 -1.7608  1.5868 -0.4094
 8340SOL     OW36655   3.194   4.411   6.579  0.3035  0.1996 -0.2084
 8340SOL    HW136656   3.283   4.426   6.547  0.8823  1.0183  1.7897
 8340SOL    HW236657   3.163   4.335   6.530  2.5508 -0.4604 -0.6012
 8341SOL     OW36658   1.268   3.898   4.951 -0.6228  0.0765 -0.2990
 8341SOL    HW136659   1.176   3.875   4.950 -0.4310 -0.7039  1.5486
 8341SOL    HW236660   1.286   3.911   4.857 -0.5454  0.0177 -0.2918
 8342SOL     OW36661   2.424   4.550   2.265 -0.0291 -0.3263  0.4027
 8342SOL    HW136662   2.400   4.575   2.355  0.4643  0.5524  0.2815
 8342SOL    HW236663   2.398   4.630   2.220  1.2462 -1.1681 -1.8109
 8343SOL     OW36664   2.653   3.214  15.054 -0.7872  0.4927  0.4842
 8343SOL    HW136665   2.712   3.286  15.032 -0.1753 -0.2493 -0.2720
 8343SOL    HW236666   2.575   3.238  15.003 -2.3029 -3.1593  1.0912
 8344SOL     OW36667   0.706   3.468   5.273 -0.0973 -0.2121  0.1150
 8344SOL    HW136668   0.678   3.387   5.230 -1.3691 -1.2586  2.8868
 8344SOL    HW236669   0.677   3.459   5.364 -0.8282 -0.9819 -0.2001
 8345SOL     OW36670   0.031   1.999   1.164 -0.0194 -0.9272  0.0234
 8345SOL    HW136671   4.674   2.004   1.149 -0.1950  0.1195  1.4944
 8345SOL    HW236672   0.040   1.904   1.164 -1.9648 -1.1279 -1.5985
 8346SOL     OW36673   4.658   4.181   5.255  0.4063  0.5416  0.1245
 8346SOL    HW136674   4.719   4.113   5.283  0.2825  1.5345  2.8717
 8346SOL    HW236675   4.579   4.162   5.306 -0.5420  1.8426 -0.8337
 8347SOL     OW36676   4.047   4.087   9.310  0.8512 -0.3126 -0.1371
 8347SOL    HW136677   4.028   4.121   9.222 -0.9298  2.0009  1.1366
 8347SOL    HW236678   4.041   3.993   9.295 -1.9431 -0.1525 -0.0232
 8348SOL     OW36679   3.847   1.460  11.858  0.1805 -0.1266  0.0939
 8348SOL    HW136680   3.773   1.512  11.889  0.0363  0.0182 -0.4993
 8348SOL    HW236681   3.803   1.374  11.862 -0.7069  0.3383  0.4371
 8349SOL     OW36682   3.223   4.025   0.125 -0.1222 -0.0475 -0.1332
 8349SOL    HW136683   3.317   4.019   0.137 -0.1310  0.8655  0.4033
 8349SOL    HW236684   3.207   4.109   0.169  1.8352  0.2843 -0.0680
 8350SOL     OW36685   0.306   2.623   0.865 -0.9868  0.8425 -0.6236
 8350SOL    HW136686   0.361   2.699   0.850 -0.6389  1.0492  1.7634
 8350SOL    HW236687   0.272   2.644   0.952 -0.0656  1.0327 -0.3105
 8351SOL     OW36688   3.986   4.197   9.080  0.4681  0.0539 -0.3771
 8351SOL    HW136689   4.035   4.186   8.998  1.1677  0.3621 -0.0018
 8351SOL    HW236690   3.900   4.160   9.058  0.4698 -0.4794  0.5094
 8352SOL     OW36691   3.509   1.950  11.619  0.4861  0.4936  0.0391
 8352SOL    HW136692   3.535   2.002  11.543  1.6342  2.7370  1.9802
 8352SOL    HW236693   3.431   1.999  11.644 -0.3646 -2.2958  2.9041
 8353SOL     OW36694   0.285   1.952   2.904 -1.4214 -0.3084 -0.4232
 8353SOL    HW136695   0.293   1.986   2.994  0.1019 -1.6440 -0.0441
 8353SOL    HW236696   0.210   2.002   2.873 -0.6535 -0.2426 -2.1360
 8354SOL     OW36697   1.615   3.492   1.977 -0.0009 -0.2419 -0.4132
 8354SOL    HW136698   1.610   3.578   2.019  1.4050 -0.4892  0.2887
 8354SOL    HW236699   1.684   3.506   1.912 -1.5410 -0.8543 -2.1772
 8355SOL     OW36700   3.186   2.304   9.425  0.3838 -0.1858 -0.1186
 8355SOL    HW136701   3.147   2.367   9.485  0.2475  1.7749 -2.2662
 8355SOL    HW236702   3.237   2.360   9.367 -1.3349  3.1530  1.6469
 8356SOL     OW36703   1.924   2.413  17.682 -0.0131 -0.4279 -0.1828
 8356SOL    HW136704   1.868   2.335  17.689 -0.8131  0.1240 -0.5014
 8356SOL    HW236705   1.937   2.437   0.027  0.4219 -1.4643  0.0275
 8357SOL     OW36706   0.179   2.063   5.076  0.3663  0.5600  0.2513
 8357SOL    HW136707   0.107   2.115   5.043  0.1468  0.1225  0.0430
 8357SOL    HW236708   0.150   2.068   5.167 -0.8670  0.6058 -0.1521
 8358SOL     OW36709   2.993   1.018   3.312  0.1073 -0.5841  0.9207
 8358SOL    HW136710   3.042   1.085   3.360  1.6423  0.2981 -1.8908
 8358SOL    HW236711   2.905   1.028   3.349  0.9386  1.2587  2.3770
 8359SOL     OW36712   1.537   4.586   5.233  0.1824 -0.8309 -0.4194
 8359SOL    HW136713   1.487   4.605   5.313 -0.3952  0.4115 -1.0674
 8359SOL    HW236714   1.580   4.670   5.215  0.4412 -0.4771  1.8422
 8360SOL     OW36715   0.442   2.811   6.615 -0.1260  0.2273 -0.0375
 8360SOL    HW136716   0.409   2.898   6.635  1.8581  0.3246  2.7658
 8360SOL    HW236717   0.531   2.813   6.581 -0.5850  2.2151 -1.0854
 8361SOL     OW36718   2.620   4.646   5.352  0.0546  0.2507  0.2567
 8361SOL    HW136719   2.530   4.643   5.385  0.3887  0.3201  1.1718
 8361SOL    HW236720   2.659   4.599   5.425  1.4795 -0.2110 -0.7891
 8362SOL     OW36721   2.150   0.258  10.192 -0.1977 -0.0993  0.1934
 8362SOL    HW136722   2.152   0.211  10.276 -0.4755 -1.0477 -0.3355
 8362SOL    HW236723   2.124   0.343  10.228 -1.0170  0.4704 -1.7646
 8363SOL     OW36724   0.857   0.629   7.438 -0.4863  0.1460  0.1894
 8363SOL    HW136725   0.928   0.631   7.373  0.9260 -1.9567  1.6814
 8363SOL    HW236726   0.816   0.715   7.427  0.2066  0.7132  1.9842
 8364SOL     OW36727   2.488   4.356   5.012 -0.7279 -0.1773 -0.7225
 8364SOL    HW136728   2.429   4.390   5.080 -0.6805 -0.5289 -0.5070
 8364SOL    HW236729   2.542   4.286   5.048 -0.2858 -0.1332 -1.2902
 8365SOL     OW36730   1.692   0.891   0.949  0.0004  0.8078 -0.0666
 8365SOL    HW136731   1.673   0.884   1.043  0.4378  0.5635  0.0017
 8365SOL    HW236732   1.605   0.917   0.919 -1.2337 -0.1802  2.5182
 8366SOL     OW36733   2.895   3.660  13.344 -0.0082  0.5502  0.7024
 8366SOL    HW136734   2.824   3.672  13.407  0.9458  0.5674  1.7565
 8366SOL    HW236735   2.938   3.592  13.395  0.8852  0.8345  0.3326
 8367SOL     OW36736   4.189   0.759   3.884  0.3488  0.4754 -0.3595
 8367SOL    HW136737   4.244   0.703   3.939 -0.5221 -1.4491 -1.4429
 8367SOL    HW236738   4.233   0.756   3.799 -0.9349  0.2675 -1.0243
 8368SOL     OW36739   0.519   1.507   0.517  0.0019  0.4461  0.1105
 8368SOL    HW136740   0.561   1.593   0.510  0.6091  0.0089 -1.5058
 8368SOL    HW236741   0.553   1.475   0.601  1.9125  0.3019 -0.7126
 8369SOL     OW36742   2.774   0.126   4.079  0.1364 -0.4822  0.2512
 8369SOL    HW136743   2.732   0.208   4.104  1.6629  0.2497  0.4217
 8369SOL    HW236744   2.754   0.078   4.160 -2.6829  0.8012  0.3015
 8370SOL     OW36745   4.436   2.428   6.244  0.1584 -0.2368  0.3164
 8370SOL    HW136746   4.408   2.336   6.242  2.3118 -0.8307 -1.8246
 8370SOL    HW236747   4.359   2.463   6.290  0.7232 -0.7939  1.6683
 8371SOL     OW36748   4.582   2.249   1.225  0.2473  0.3779 -0.5073
 8371SOL    HW136749   4.500   2.282   1.262  0.2639  0.1212 -0.2494
 8371SOL    HW236750   4.596   2.172   1.279 -0.0379  1.4115  1.0365
 8372SOL     OW36751   1.466   3.844   2.523  0.4585 -0.3778 -0.4209
 8372SOL    HW136752   1.510   3.926   2.501 -1.2779  0.0657 -2.2072
 8372SOL    HW236753   1.402   3.847   2.451 -0.8765  0.4690  0.8022
 8373SOL     OW36754   3.396   0.359   4.270  0.4537  0.1932 -0.1109
 8373SOL    HW136755   3.370   0.296   4.338  0.8943  0.2400  0.1045
 8373SOL    HW236756   3.423   0.423   4.337  0.2380 -0.2960  0.4430
 8374SOL     OW36757   2.580   4.086   0.500 -0.3725  0.0522  0.0808
 8374SOL    HW136758   2.632   4.091   0.580 -1.1423  0.9381  0.5261
 8374SOL    HW236759   2.542   3.999   0.505  1.7080 -0.9066 -0.9024
 8375SOL     OW36760   3.791   0.097  11.813  0.3416 -0.4601 -0.9366
 8375SOL    HW136761   3.799   0.180  11.765 -1.8492 -0.0277 -0.5711
 8375SOL    HW236762   3.872   0.110  11.863 -1.0053 -1.3545  1.4585
 8376SOL     OW36763   1.105   1.656   2.603  0.2734 -0.2371  0.7297
 8376SOL    HW136764   1.046   1.699   2.664 -0.2672  0.2698 -0.1574
 8376SOL    HW236765   1.064   1.676   2.519 -0.5531  0.2454  1.2455
 8377SOL     OW36766   1.703   3.054  17.083  0.4482  0.0259  0.5928
 8377SOL    HW136767   1.760   3.059  17.006  0.9669 -0.7906  0.9167
 8377SOL    HW236768   1.627   3.017  17.039  0.4621  0.2276  0.4016
 8378SOL     OW36769   2.440   4.460  16.625 -0.3714  0.4635 -0.0581
 8378SOL    HW136770   2.415   4.399  16.556 -0.0916  1.7928 -1.3329
 8378SOL    HW236771   2.354   4.500  16.636  1.4724  3.8308  2.3529
 8379SOL     OW36772   0.025   3.646  10.062  0.2265 -0.0266 -0.1898
 8379SOL    HW136773   4.723   3.574  10.012  0.0073 -0.1957  0.2258
 8379SOL    HW236774   0.114   3.624  10.088  0.2507  1.0845  0.6500
 8380SOL     OW36775   0.585   3.866  15.856  0.2691  0.1789  0.2467
 8380SOL    HW136776   0.515   3.931  15.852  0.5381  0.4122 -0.6144
 8380SOL    HW236777   0.658   3.903  15.806 -2.0492  0.3846 -3.0148
 8381SOL     OW36778   1.436   3.041   8.051  0.0599 -0.4667 -0.0839
 8381SOL    HW136779   1.446   3.015   8.142  1.8025  0.1848 -0.0818
 8381SOL    HW236780   1.478   2.960   8.020  1.7534  0.2892  0.2304
 8382SOL     OW36781   1.970   3.374  14.469  0.1330 -0.4323 -0.5723
 8382SOL    HW136782   1.899   3.320  14.504 -1.0915 -0.2075 -2.7261
 8382SOL    HW236783   2.008   3.315  14.405 -0.4892 -1.6476  0.1833
 8383SOL     OW36784   1.310   0.199   4.787  1.1283 -0.3402 -0.5224
 8383SOL    HW136785   1.384   0.235   4.738  0.7467 -1.2035 -1.7282
 8383SOL    HW236786   1.361   0.137   4.840  0.8730  0.1604  0.3034
 8384SOL     OW36787   3.492   1.153   7.555  0.3888 -0.2207 -0.3944
 8384SOL    HW136788   3.400   1.148   7.581  0.9038 -1.0968  1.2312
 8384SOL    HW236789   3.503   1.247   7.572 -1.7412 -0.1355  0.5206
 8385SOL     OW36790   2.840   0.715  17.223 -0.3048  0.2261  0.1287
 8385SOL    HW136791   2.838   0.771  17.301 -1.2251 -0.1803  0.3998
 8385SOL    HW236792   2.778   0.644  17.242  0.6253 -0.7681 -0.5512
 8386SOL     OW36793   3.734   1.655   0.779 -0.1108  0.6946  0.1632
 8386SOL    HW136794   3.734   1.567   0.743  0.7027  1.0084 -0.6321
 8386SOL    HW236795   3.828   1.660   0.797 -0.2314 -2.3589  1.6063
 8387SOL     OW36796   0.625   0.345  16.936 -0.1904 -0.1085 -0.1360
 8387SOL    HW136797   0.619   0.368  16.843  0.1601 -2.0798 -0.6543
 8387SOL    HW236798   0.713   0.308  16.945 -0.8718 -2.3931 -2.7927
 8388SOL     OW36799   1.613   0.840   2.639 -0.2589  0.2950  0.0813
 8388SOL    HW136800   1.588   0.748   2.648  0.9285  0.1652  2.3210
 8388SOL    HW236801   1.672   0.837   2.564  1.5496 -1.2322  1.5618
 8389SOL     OW36802   3.581   0.134   9.871 -0.2164  0.0404  0.1944
 8389SOL    HW136803   3.659   0.189   9.877  1.5116 -2.2905 -0.9568
 8389SOL    HW236804   3.615   0.084   9.797  0.8621 -0.9051  1.3398
 8390SOL     OW36805   4.366   0.055   6.745  0.1530  0.5325  0.1090
 8390SOL    HW136806   4.347   4.721   6.805  2.2995 -0.4426 -0.3311
 8390SOL    HW236807   4.290   0.056   6.687  1.4919 -1.7129 -1.6905
 8391SOL     OW36808   4.133   1.097   1.606 -0.0656  0.9320 -0.2724
 8391SOL    HW136809   4.182   1.024   1.568  0.5726  1.2584 -0.0857
 8391SOL    HW236810   4.208   1.144   1.642  0.1125  0.6419 -0.2592
 8392SOL     OW36811   1.219   0.642  10.102 -0.0708  0.3925  0.2897
 8392SOL    HW136812   1.222   0.671  10.011  1.3684  1.2809  0.6292
 8392SOL    HW236813   1.126   0.647  10.127 -0.4540  1.5663 -1.4044
 8393SOL     OW36814   0.109   3.695   0.955 -0.1019  0.2542 -0.2540
 8393SOL    HW136815   0.069   3.748   1.024  0.9357 -0.1780  0.6592
 8393SOL    HW236816   0.181   3.658   1.005  0.8438  2.2370 -0.1485
 8394SOL     OW36817   1.627   2.089   8.498  0.1783 -0.3957 -0.2177
 8394SOL    HW136818   1.709   2.110   8.454 -1.5153  1.8715 -2.2918
 8394SOL    HW236819   1.640   2.126   8.585  0.4827  0.5900 -0.6766
 8395SOL     OW36820   4.643   0.971   6.896  0.1634 -0.3960  0.0172
 8395SOL    HW136821   4.572   1.021   6.938 -0.6285 -0.4318 -1.2863
 8395SOL    HW236822   4.586   0.909   6.851 -0.5526  2.0092 -2.3944
 8396SOL     OW36823   0.535   2.882  12.767 -0.9171  0.6282  0.0571
 8396SOL    HW136824   0.485   2.963  12.772  0.9137  1.7258  0.7600
 8396SOL    HW236825   0.495   2.822  12.830 -0.3589  0.7826  0.5651
 8397SOL     OW36826   1.131   1.708   8.136  0.1515 -0.2089 -0.1313
 8397SOL    HW136827   1.168   1.623   8.160  0.9982 -0.1688 -1.2711
 8397SOL    HW236828   1.107   1.697   8.044  0.8859 -0.5115 -0.2849
 8398SOL     OW36829   4.445   1.849   1.459 -0.0852  0.2469  0.1015
 8398SOL    HW136830   4.372   1.817   1.512 -0.4826 -1.0221 -1.2041
 8398SOL    HW236831   4.404   1.820   1.378 -0.0953  0.8338 -0.1016
 8399SOL     OW36832   4.078   1.076   6.083  0.4656  0.1913 -0.3034
 8399SOL    HW136833   4.145   1.106   6.022 -1.3560  0.9786 -1.9210
 8399SOL    HW236834   4.013   1.023   6.036  0.6434 -0.5922  0.3344
 8400SOL     OW36835   0.808   1.171   4.609 -0.3698 -0.3866 -0.0987
 8400SOL    HW136836   0.870   1.224   4.558 -2.6934  0.5841 -1.9553
 8400SOL    HW236837   0.733   1.230   4.604 -0.4154 -0.6310 -2.5515
 8401SOL     OW36838   2.229   0.272  10.496 -0.1137  0.2575  0.1945
 8401SOL    HW136839   2.316   0.240  10.471 -0.9917 -1.6649 -0.3779
 8401SOL    HW236840   2.252   0.357  10.533 -1.8903  0.8820 -0.1276
 8402SOL     OW36841   4.699   3.502   6.351  0.1594  0.1735  0.3767
 8402SOL    HW136842   4.712   3.524   6.258 -0.3602 -1.8529 -0.1806
 8402SOL    HW236843   0.027   3.432   6.359 -1.3451 -1.2292  0.3245
 8403SOL     OW36844   2.160   3.598   6.600 -0.3918  0.4733  0.1352
 8403SOL    HW136845   2.121   3.566   6.518  2.3905 -0.6276 -0.7711
 8403SOL    HW236846   2.249   3.566   6.582 -0.8133 -0.4750 -0.2433
 8404SOL     OW36847   1.943   2.830   9.465 -0.0050 -0.3013 -0.4693
 8404SOL    HW136848   1.980   2.773   9.533 -0.2709  1.0394  0.7892
 8404SOL    HW236849   2.014   2.830   9.400  1.7573  0.8874  1.4418
 8405SOL     OW36850   0.256   3.072   3.758 -0.3076 -0.5871 -0.1178
 8405SOL    HW136851   0.296   3.117   3.684  0.9618  0.4712  1.2138
 8405SOL    HW236852   0.314   2.996   3.767  0.7942  0.2302 -0.4240
 8406SOL     OW36853   0.999   0.048   4.453 -0.0452 -0.0180 -0.2963
 8406SOL    HW136854   1.029   0.128   4.410 -2.2122 -0.0579 -1.8970
 8406SOL    HW236855   0.911   0.039   4.416  0.1767 -1.1369 -0.5623
 8407SOL     OW36856   3.231   4.122   7.321  0.0975  0.5000  0.4506
 8407SOL    HW136857   3.152   4.132   7.374 -2.6369 -0.3681 -3.4388
 8407SOL    HW236858   3.283   4.193   7.358 -0.2146  0.6093  0.6796
 8408SOL     OW36859   2.751   4.422   6.578  0.0082  0.1013  0.0175
 8408SOL    HW136860   2.830   4.439   6.628  1.4812 -1.6964 -1.7026
 8408SOL    HW236861   2.688   4.434   6.649  0.5243 -0.2117  0.5298
 8409SOL     OW36862   4.116   1.458   0.669 -0.2748  0.3978 -0.6937
 8409SOL    HW136863   4.066   1.474   0.749 -0.7081  1.8368 -1.2529
 8409SOL    HW236864   4.089   1.541   0.632  0.5130  0.0714 -2.0140
 8410SOL     OW36865   2.637   0.547   5.068  0.6830  0.0530  0.0009
 8410SOL    HW136866   2.612   0.518   4.980 -0.8496  3.2637 -0.6583
 8410SOL    HW236867   2.705   0.485   5.095  0.1895 -1.1100 -1.4143
 8411SOL     OW36868   2.129   2.398  11.235  0.3377 -0.1614  0.0705
 8411SOL    HW136869   2.182   2.459  11.183 -1.4869  0.5869 -0.9080
 8411SOL    HW236870   2.151   2.429  11.323 -0.0224 -2.9474  1.1357
 8412SOL     OW36871   3.013   3.329  11.554 -0.1150 -0.0676  0.2577
 8412SOL    HW136872   3.084   3.296  11.500  1.2066  2.9808  0.1681
 8412SOL    HW236873   2.946   3.347  11.488 -0.2253  0.9404  0.6506
 8413SOL     OW36874   1.459   3.518   8.468 -0.1467 -0.5019  0.3368
 8413SOL    HW136875   1.367   3.491   8.477 -0.8124  1.4683 -0.6037
 8413SOL    HW236876   1.486   3.494   8.557 -1.2219  2.9884  1.6267
 8414SOL     OW36877   1.622   2.749   1.975 -0.6102  0.2324  0.3917
 8414SOL    HW136878   1.527   2.750   1.989 -0.5517 -4.3414  1.1950
 8414SOL    HW236879   1.652   2.837   1.996 -1.1519  0.6368 -0.5164
 8415SOL     OW36880   1.398   3.925  17.298  0.2675 -0.3994  0.5312
 8415SOL    HW136881   1.408   3.832  17.277 -1.6825 -0.2952 -0.9032
 8415SOL    HW236882   1.410   3.966  17.212  2.3762  0.4980  1.2567
 8416SOL     OW36883   3.951   1.068  16.000  0.2820  0.0334 -0.0869
 8416SOL    HW136884   3.908   1.145  15.963 -1.4944 -1.0818 -0.3216
 8416SOL    HW236885   3.885   0.999  15.989  2.1931 -1.9875  1.1429
 8417SOL     OW36886   2.729   2.446  10.899 -0.2937  0.2183 -0.4289
 8417SOL    HW136887   2.813   2.488  10.882 -0.5864  1.1309  0.3972
 8417SOL    HW236888   2.741   2.423  10.991  2.7455  0.3293 -0.7904
 8418SOL     OW36889   1.311   1.516   8.294 -0.3286 -0.3988 -0.3616
 8418SOL    HW136890   1.241   1.451   8.287 -3.3213  2.7124  1.0977
 8418SOL    HW236891   1.338   1.487   8.381 -0.2649  0.8326  0.0283
 8419SOL     OW36892   1.403   4.046   6.935 -0.3657 -0.0094  0.5356
 8419SOL    HW136893   1.452   4.002   6.866  1.2673  3.5409 -0.5517
 8419SOL    HW236894   1.360   3.980   6.990  1.1915 -0.9964  0.5806
 8420SOL     OW36895   4.722   2.530   3.462 -0.3428  0.3245 -0.2503
 8420SOL    HW136896   4.727   2.579   3.543  3.7509  1.8831 -1.4810
 8420SOL    HW236897   0.072   2.540   3.425  0.9630  0.7832  3.0540
 8421SOL     OW36898   0.708   2.715   2.896  0.0884 -0.5786  0.1157
 8421SOL    HW136899   0.621   2.723   2.935  0.3031 -2.4852  0.9926
 8421SOL    HW236900   0.760   2.769   2.956 -0.5375 -1.4414  1.4322
 8422SOL     OW36901   3.203   4.444   7.956  0.1532 -0.3461 -0.0065
 8422SOL    HW136902   3.268   4.408   8.016 -0.1141 -0.1818  0.3815
 8422SOL    HW236903   3.149   4.485   8.023  0.4860  1.4412 -0.8212
 8423SOL     OW36904   3.858   4.167   6.556  0.1031  0.1285  0.1463
 8423SOL    HW136905   3.916   4.117   6.498  2.1661 -0.5435  2.8048
 8423SOL    HW236906   3.873   4.128   6.642  1.8163 -1.6894 -0.9569
 8424SOL     OW36907   0.357   1.643   0.827 -0.1892 -0.0494  0.2216
 8424SOL    HW136908   0.300   1.683   0.761  0.4327  1.7318  0.7680
 8424SOL    HW236909   0.294   1.611   0.891 -0.3135  0.5581  0.3999
 8425SOL     OW36910   4.155   2.541   1.661  0.5093  0.1624 -0.4945
 8425SOL    HW136911   4.235   2.489   1.651  1.1661  0.9210  0.8316
 8425SOL    HW236912   4.195   2.626   1.642 -1.4858  0.9657 -1.1358
 8426SOL     OW36913   0.534   2.024   0.988  0.3002  0.5891 -0.3308
 8426SOL    HW136914   0.589   1.968   1.043 -0.4475  1.1497  0.9883
 8426SOL    HW236915   0.577   2.020   0.903  1.7062 -0.0445  0.4178
 8427SOL     OW36916   3.871   0.136   4.693  0.2790 -0.3306 -0.4013
 8427SOL    HW136917   3.786   0.165   4.727  0.3495  0.1565 -0.6435
 8427SOL    HW236918   3.865   0.049   4.732  0.6569 -0.8403 -1.4752
 8428SOL     OW36919   1.704   3.201   4.258  0.1599  0.7692  1.0645
 8428SOL    HW136920   1.741   3.287   4.274  3.6006 -0.3543 -0.8958
 8428SOL    HW236921   1.640   3.185   4.327  0.0778 -0.8095  0.6317
 8429SOL     OW36922   0.146   2.187  14.267 -0.2789  0.2940  0.5141
 8429SOL    HW136923   0.203   2.168  14.191  2.4627  0.0907  2.6113
 8429SOL    HW236924   0.191   2.261  14.307 -1.7968  2.1845 -1.2728
 8430SOL     OW36925   2.778   1.296   8.059 -0.0467  0.6216 -0.1942
 8430SOL    HW136926   2.776   1.221   8.119 -1.7941  1.0537  0.2917
 8430SOL    HW236927   2.834   1.353   8.112  0.0658  0.3487 -0.0198
 8431SOL     OW36928   3.259   2.130   3.716 -0.5950  0.6217 -0.3919
 8431SOL    HW136929   3.246   2.225   3.712  2.6667  0.9815 -1.9452
 8431SOL    HW236930   3.292   2.117   3.805 -1.0860  0.0502 -0.2930
 8432SOL     OW36931   2.634   4.406  12.440  0.0032 -0.1492  0.2491
 8432SOL    HW136932   2.611   4.445  12.355 -3.1037  1.2131  1.6923
 8432SOL    HW236933   2.549   4.382  12.478 -0.7334  1.7831 -0.1667
 8433SOL     OW36934   4.603   1.902   2.572  0.4055 -0.1031 -0.3181
 8433SOL    HW136935   4.642   1.829   2.524  1.8310 -0.2495  1.0578
 8433SOL    HW236936   4.528   1.856   2.611  1.5391 -0.1158  1.8307
 8434SOL     OW36937   2.493   4.042   8.324 -0.0112  0.3743 -0.2980
 8434SOL    HW136938   2.434   4.085   8.386  1.7902 -0.1375  1.7617
 8434SOL    HW236939   2.444   3.960   8.319  1.3688 -0.4950  0.7414
 8435SOL     OW36940   1.869   0.746   8.174  0.2986 -0.9371  0.2740
 8435SOL    HW136941   1.928   0.698   8.231  0.7724 -1.4316 -0.6466
 8435SOL    HW236942   1.805   0.771   8.241  0.9697  1.5838 -0.0291
 8436SOL     OW36943   1.970   3.170   9.872  0.3032 -0.2998 -0.6212
 8436SOL    HW136944   1.948   3.085   9.834 -1.7674  0.0791 -0.3006
 8436SOL    HW236945   2.057   3.148   9.904  0.2766  0.7624  0.1696
 8437SOL     OW36946   0.147   3.002  17.082 -0.3048  0.3761  0.3463
 8437SOL    HW136947   0.175   3.094  17.078 -1.7384  0.8861  2.5063
 8437SOL    HW236948   0.115   2.997  16.992 -1.8319  1.7893  0.8258
 8438SOL     OW36949   0.708   4.127   6.305  0.0509 -0.2186 -0.5055
 8438SOL    HW136950   0.718   4.108   6.211 -0.3599 -1.2130 -0.3477
 8438SOL    HW236951   0.795   4.142   6.343 -0.9451  0.7883  1.3878
 8439SOL     OW36952   1.550   3.244   1.859  0.0051 -0.7366  0.2077
 8439SOL    HW136953   1.598   3.323   1.883  2.4701 -1.7657 -1.3284
 8439SOL    HW236954   1.469   3.270   1.816  0.3114 -0.6891 -0.3486
 8440SOL     OW36955   4.493   3.980   7.492  0.0807 -0.1177 -0.1293
 8440SOL    HW136956   4.407   4.013   7.520  0.0657 -0.1375 -0.1517
 8440SOL    HW236957   4.493   3.991   7.397  1.6755 -2.9021 -0.4599
 8441SOL     OW36958   3.417   4.715  16.316  0.2319  0.9304  0.0833
 8441SOL    HW136959   3.390   4.625  16.336  0.5558  0.6828 -0.5841
 8441SOL    HW236960   3.385   0.026  16.392 -1.7052 -1.1098  0.5546
 8442SOL     OW36961   2.177   2.099   7.313  0.2957 -0.2365 -0.2910
 8442SOL    HW136962   2.125   2.101   7.232 -1.0539 -0.4668  0.5837
 8442SOL    HW236963   2.142   2.025   7.362  1.0816 -0.2682  0.2276
 8443SOL     OW36964   4.160   1.450  11.561 -0.1832 -0.1923  0.6132
 8443SOL    HW136965   4.194   1.509  11.629  0.3240  0.7196 -0.4149
 8443SOL    HW236966   4.251   1.429  11.538 -0.3035  1.4662 -1.4153
 8444SOL     OW36967   4.071   1.867   8.513  0.2509 -0.4900  0.5573
 8444SOL    HW136968   4.077   1.891   8.421  1.8830 -0.6830  0.6071
 8444SOL    HW236969   3.981   1.834   8.519  0.5942 -1.6694 -0.6917
 8445SOL     OW36970   2.752   1.153  16.461 -0.3456  0.4343  0.4652
 8445SOL    HW136971   2.666   1.129  16.496  0.2320 -0.1843  1.4707
 8445SOL    HW236972   2.791   1.073  16.497 -0.2324 -0.0359 -0.7177
 8446SOL     OW36973   3.197   3.429  16.892  0.5314  0.3775  0.1638
 8446SOL    HW136974   3.252   3.377  16.835 -1.7132 -1.1370 -0.6300
 8446SOL    HW236975   3.256   3.466  16.957  0.1373  0.9281  0.2201
 8447SOL     OW36976   0.938   4.567   6.795 -0.1490 -0.1512  0.4116
 8447SOL    HW136977   0.864   4.580   6.735 -0.6726  1.2585  1.3655
 8447SOL    HW236978   1.014   4.570   6.735 -0.6350  0.8453 -0.1701
 8448SOL     OW36979   0.016   0.126   5.936  0.0611 -0.3136 -0.3969
 8448SOL    HW136980   0.051   0.130   6.025 -1.5664  0.5643  0.2013
 8448SOL    HW236981   4.703   0.046   5.946  0.0053 -0.1517  0.6824
 8449SOL     OW36982   1.297   1.834   4.896 -0.1882  0.0083  0.1595
 8449SOL    HW136983   1.264   1.843   4.985  0.2386  3.1904 -0.0088
 8449SOL    HW236984   1.281   1.925   4.869  1.0258  0.2809  0.3520
 8450SOL     OW36985   4.595   4.561  12.864  0.1567  0.4359  0.6682
 8450SOL    HW136986   4.681   4.557  12.822 -0.8221  0.1806 -1.3341
 8450SOL    HW236987   4.623   4.593  12.949 -0.0370 -1.7702  1.5342
 8451SOL     OW36988   0.197   0.235   6.515 -0.1025  0.0396  0.2760
 8451SOL    HW136989   0.227   0.164   6.571  1.4324  0.6345  0.2002
 8451SOL    HW236990   0.164   0.294   6.583 -3.0234 -2.3207  0.9248
 8452SOL     OW36991   3.494   0.998   2.021 -0.3483 -0.1177  0.4050
 8452SOL    HW136992   3.561   1.037   2.077 -1.5258  3.1597 -0.4764
 8452SOL    HW236993   3.469   0.914   2.057 -1.1215  0.5038  1.3041
 8453SOL     OW36994   0.370   4.076  15.882 -0.2942  0.1919 -0.0646
 8453SOL    HW136995   0.317   4.010  15.927 -0.2529  0.7071  0.7414
 8453SOL    HW236996   0.289   4.115  15.848 -0.6233  0.0295  0.5218
 8454SOL     OW36997   3.461   4.584   9.554 -0.2193  0.1124  0.2443
 8454SOL    HW136998   3.477   4.677   9.542 -1.3686 -0.0186 -2.2715
 8454SOL    HW236999   3.543   4.562   9.511 -1.5561 -3.3777 -0.5007
 8455SOL     OW37000   0.817   2.123  14.482 -0.5961  0.2941  0.1289
 8455SOL    HW137001   0.835   2.029  14.471  0.8287  0.6060 -0.1459
 8455SOL    HW237002   0.846   2.150  14.395 -0.6390 -2.1486 -0.6575
 8456SOL     OW37003   0.443   2.725   6.198  0.1581 -0.1281 -0.1447
 8456SOL    HW137004   0.449   2.782   6.122 -1.2187  2.7995  1.9830
 8456SOL    HW237005   0.385   2.653   6.172 -0.1407  1.2544 -3.2026
 8457SOL     OW37006   0.070   1.375   5.842 -0.7951 -0.5409 -0.3387
 8457SOL    HW137007   0.029   1.297   5.803 -1.0493 -1.8566  2.5961
 8457SOL    HW237008   0.007   1.439   5.809 -0.3595 -0.1718 -0.4554
 8458SOL     OW37009   0.314   4.660   8.688 -0.0942  0.1280  0.1119
 8458SOL    HW137010   0.348   4.571   8.674 -1.8908 -0.6693  0.8046
 8458SOL    HW237011   0.252   4.660   8.615  0.6439 -0.2743 -0.5073
 8459SOL     OW37012   3.220   2.007   8.392 -0.3044  0.3231 -0.1235
 8459SOL    HW137013   3.202   2.084   8.339  2.1021  1.3499  0.5846
 8459SOL    HW237014   3.149   2.012   8.456  0.9431  1.0176  1.1966
 8460SOL     OW37015   4.332   1.893   5.046 -0.8384 -0.0654 -0.1182
 8460SOL    HW137016   4.247   1.920   5.011 -1.1854 -2.1124 -0.8641
 8460SOL    HW237017   4.383   1.898   4.965 -0.9992  1.5826 -0.1168
 8461SOL     OW37018   0.338   3.318  17.346  0.8319 -0.4563  1.0482
 8461SOL    HW137019   0.344   3.413  17.349  2.4028 -0.5010 -0.2591
 8461SOL    HW237020   0.289   3.317  17.263  0.1146 -1.0730  1.4810
 8462SOL     OW37021   1.750   2.837   5.674 -0.5274 -0.2386 -0.2083
 8462SOL    HW137022   1.775   2.744   5.671 -0.3057 -0.1908  0.2934
 8462SOL    HW237023   1.817   2.877   5.729  1.2131 -1.9519 -1.0724
 8463SOL     OW37024   3.331   1.008   4.733 -0.3928  0.6305 -0.1041
 8463SOL    HW137025   3.427   1.002   4.734 -0.4526 -0.3845  0.3588
 8463SOL    HW237026   3.308   1.045   4.647  0.6969  0.1389 -0.6096
 8464SOL     OW37027   4.023   4.330  14.657  0.1984  0.0474 -0.3968
 8464SOL    HW137028   4.062   4.321  14.744 -1.8233  1.4891  0.6737
 8464SOL    HW237029   4.092   4.377  14.610  1.5315 -0.2291  1.2876
 8465SOL     OW37030   0.313   1.274   4.788  0.2231 -0.3861 -0.2867
 8465SOL    HW137031   0.348   1.185   4.793  2.3348  0.5847  2.8363
 8465SOL    HW237032   0.399   1.317   4.785  1.3894 -2.6049  0.8578
 8466SOL     OW37033   0.239   3.810  12.473 -0.7884  0.6335  0.4284
 8466SOL    HW137034   0.313   3.749  12.464 -0.8618  0.4958  0.7603
 8466SOL    HW237035   0.290   3.883  12.509  0.8233 -0.8905  1.2324
 8467SOL     OW37036   2.273   3.162   3.808  0.1544  0.0222 -0.4642
 8467SOL    HW137037   2.201   3.210   3.766  1.3492  2.6138  0.4932
 8467SOL    HW237038   2.353   3.211   3.790  0.6464 -0.3164  0.8074
 8468SOL     OW37039   0.448   1.595   7.504  0.4537 -0.2331  0.7347
 8468SOL    HW137040   0.443   1.501   7.486  2.8580 -0.5786  1.8135
 8468SOL    HW237041   0.391   1.602   7.581  1.0347  0.5523  1.0975
 8469SOL     OW37042   2.026   4.067   1.771 -0.0011  0.8048  0.4155
 8469SOL    HW137043   2.016   4.088   1.864 -1.4396 -0.0594  0.4484
 8469SOL    HW237044   1.947   4.019   1.746  0.5041 -0.1185  0.6113
 8470SOL     OW37045   3.674   3.965   5.347  0.5137  0.0607  0.0742
 8470SOL    HW137046   3.709   3.878   5.366  3.3276  0.8922 -1.3747
 8470SOL    HW237047   3.605   3.985   5.410  0.2470  0.1324 -0.2392
 8471SOL     OW37048   3.085   3.496  13.484  0.3612  1.0172  0.4648
 8471SOL    HW137049   3.096   3.452  13.568 -2.1128 -1.6266 -0.6112
 8471SOL    HW237050   3.090   3.415  13.433 -0.1072  1.4065 -0.1991
 8472SOL     OW37051   4.476   1.138   7.012 -0.5442  0.2845 -0.0194
 8472SOL    HW137052   4.384   1.111   7.016 -0.1335 -1.1235  0.0304
 8472SOL    HW237053   4.474   1.207   6.946 -2.0063 -3.3293 -3.8159
 8473SOL     OW37054   4.004   0.586  16.957  0.9276 -0.0900 -0.3234
 8473SOL    HW137055   4.028   0.580  17.050  0.4989 -2.0369 -0.3421
 8473SOL    HW237056   3.914   0.553  16.960  0.6494  0.8405  1.7655
 8474SOL     OW37057   0.541   1.431   4.749  0.2727 -0.7976  0.3878
 8474SOL    HW137058   0.596   1.427   4.670 -2.9385 -2.5237 -1.7446
 8474SOL    HW237059   0.514   1.523   4.746  0.4798 -0.7296  0.6116
 8475SOL     OW37060   3.983   4.263  13.633 -0.2108  0.0826 -0.2554
 8475SOL    HW137061   4.015   4.175  13.648 -1.5722 -0.5349 -0.9683
 8475SOL    HW237062   3.908   4.249  13.575  0.3107  1.2828 -1.2239
 8476SOL     OW37063   0.044   1.724   2.444 -0.0674  0.0366 -0.5593
 8476SOL    HW137064   0.084   1.715   2.358  0.5315 -0.4911 -0.2253
 8476SOL    HW237065   0.033   1.632   2.468 -0.2554  0.1733 -0.1091
 8477SOL     OW37066   0.815   1.151   4.878  0.1489  0.3048 -0.2606
 8477SOL    HW137067   0.819   1.244   4.898  0.3676  0.0117  1.0385
 8477SOL    HW237068   0.826   1.163   4.784 -1.9158 -1.9068 -0.8099
 8478SOL     OW37069   2.262   0.953   2.672  0.0658 -0.1960  0.4304
 8478SOL    HW137070   2.273   1.016   2.601  0.2383  0.6762  1.2272
 8478SOL    HW237071   2.195   1.000   2.721  0.8658  0.5713  0.8001
 8479SOL     OW37072   3.250   0.316  14.660  0.0526  0.5699 -0.0285
 8479SOL    HW137073   3.265   0.350  14.748 -0.3139  0.1126  0.2102
 8479SOL    HW237074   3.164   0.276  14.667  0.5615 -1.0763 -3.4171
 8480SOL     OW37075   0.616   4.714   4.556  0.5644  0.1661  0.2880
 8480SOL    HW137076   0.688   4.670   4.510 -0.7951 -1.1938 -0.5411
 8480SOL    HW237077   0.659   0.011   4.634  1.4798 -1.0005  0.2989
 8481SOL     OW37078   2.801   3.693  17.603  0.4704  0.1136  0.5982
 8481SOL    HW137079   2.707   3.708  17.593  0.8850  0.3658 -2.7645
 8481SOL    HW237080   2.823   3.707  17.511  2.1154 -0.7614  0.8637
 8482SOL     OW37081   4.359   0.408  12.417 -0.8865 -0.7154  0.3044
 8482SOL    HW137082   4.417   0.481  12.438  0.3837 -1.5579 -0.2288
 8482SOL    HW237083   4.385   0.396  12.325  1.3492 -0.3721  0.9008
 8483SOL     OW37084   1.035   2.461  14.824  0.0118 -0.3674  0.1158
 8483SOL    HW137085   1.004   2.412  14.900  0.2037 -1.5245 -0.5476
 8483SOL    HW237086   1.110   2.407  14.799  0.9931  1.1007 -0.1176
 8484SOL     OW37087   1.308   1.800   6.501  0.4346  0.1468 -0.1339
 8484SOL    HW137088   1.388   1.763   6.462  1.2933  1.5924  0.2548
 8484SOL    HW237089   1.347   1.849   6.573  0.6430 -1.2521  0.7067
 8485SOL     OW37090   1.215   2.498   6.666 -0.6565  0.1091 -0.0790
 8485SOL    HW137091   1.204   2.500   6.761 -0.7790  0.4806 -0.1039
 8485SOL    HW237092   1.141   2.446   6.635 -0.4798 -1.4814  2.1455
 8486SOL     OW37093   4.075   1.929   2.859 -0.1633 -0.7119  0.1440
 8486SOL    HW137094   4.163   1.908   2.890  0.1363  0.1489 -0.1441
 8486SOL    HW237095   4.028   1.895   2.936 -2.0873  1.6701  0.0089
 8487SOL     OW37096   2.749   0.932   2.306 -0.1424 -0.0100 -0.3801
 8487SOL    HW137097   2.672   0.945   2.361  1.1114 -1.0992  1.5954
 8487SOL    HW237098   2.823   0.921   2.365 -1.1369  1.3574  1.1258
 8488SOL     OW37099   2.617   2.377  11.165 -0.0453  0.1296 -0.1218
 8488SOL    HW137100   2.611   2.292  11.208 -0.9721 -0.6821 -1.8566
 8488SOL    HW237101   2.622   2.430  11.245 -1.1304  0.3417 -0.1951
 8489SOL     OW37102   1.839   1.924   2.004  0.0148  0.1218 -0.2925
 8489SOL    HW137103   1.753   1.942   1.965 -0.6876 -0.7719  0.8585
 8489SOL    HW237104   1.881   2.003   1.969 -0.4234 -0.2047 -1.5411
 8490SOL     OW37105   4.186   2.338  12.231  0.6398 -0.3141 -0.1323
 8490SOL    HW137106   4.179   2.280  12.155  1.0089 -2.7247  1.6773
 8490SOL    HW237107   4.099   2.316  12.265  0.4842  2.0166  0.9884
 8491SOL     OW37108   3.554   4.642   1.819 -0.0298  0.4368  0.4261
 8491SOL    HW137109   3.640   4.630   1.860 -0.9669 -0.4708  2.1112
 8491SOL    HW237110   3.563   4.580   1.747 -0.3447 -0.2134  0.9418
 8492SOL     OW37111   3.690   0.033   3.737  0.0558  0.0448  0.5963
 8492SOL    HW137112   3.733   4.721   3.666  0.5004  1.6376 -0.2361
 8492SOL    HW237113   3.668   0.119   3.700 -0.6762 -1.4107 -2.4098
 8493SOL     OW37114   3.200   1.849   9.168 -0.3424  0.2017  0.1395
 8493SOL    HW137115   3.173   1.855   9.076 -1.1826  0.8073  0.4286
 8493SOL    HW237116   3.143   1.919   9.200 -0.9082 -0.3710  0.3735
 8494SOL     OW37117   0.609   3.604   6.468  0.3538  0.2108  0.3907
 8494SOL    HW137118   0.644   3.650   6.392 -0.6768  0.0404 -0.1747
 8494SOL    HW237119   0.620   3.661   6.545 -0.5772  1.8607 -0.7125
 8495SOL     OW37120   0.579   3.291   8.230  0.2715 -0.6973 -0.4220
 8495SOL    HW137121   0.587   3.290   8.135 -0.5606  0.3895 -0.5009
 8495SOL    HW237122   0.620   3.209   8.258  1.3369  0.6434  2.0026
 8496SOL     OW37123   4.197   4.700   9.090  0.3043 -0.1174 -0.5942
 8496SOL    HW137124   4.256   4.721   9.162  0.6327 -0.2472 -0.8223
 8496SOL    HW237125   4.255   4.666   9.022  0.7552  1.0415 -0.7729
 8497SOL     OW37126   3.215   2.744   4.950  0.2008 -0.1017  0.4945
 8497SOL    HW137127   3.221   2.839   4.943  4.7663 -0.4263  0.1916
 8497SOL    HW237128   3.298   2.710   4.983  0.6770  0.3210 -0.2712
 8498SOL     OW37129   4.091   1.160   8.112 -0.9279  0.8691  0.3295
 8498SOL    HW137130   4.167   1.212   8.087 -2.1933  1.2461 -2.6559
 8498SOL    HW237131   4.043   1.168   8.030 -0.7688 -0.8712  0.0627
 8499SOL     OW37132   2.281   4.273   7.136  0.2239 -0.0532 -0.3403
 8499SOL    HW137133   2.344   4.303   7.071  0.0217  0.8575 -0.1173
 8499SOL    HW237134   2.232   4.216   7.078  0.3470 -1.5485  1.0230
 8500SOL     OW37135   0.311   2.402   3.608 -0.1305 -0.3096 -0.0001
 8500SOL    HW137136   0.238   2.411   3.668  0.3953 -1.7850  0.8637
 8500SOL    HW237137   0.339   2.310   3.609 -0.0804 -0.3028 -1.0230
 8501SOL     OW37138   4.014   2.361   4.063  0.1498 -0.1395 -0.1741
 8501SOL    HW137139   3.973   2.304   3.998 -0.5311  0.1707 -0.0164
 8501SOL    HW237140   3.935   2.400   4.101  0.1277 -0.5380  0.1957
 8502SOL     OW37141   0.031   0.059  15.393  0.2812  0.0424  0.0244
 8502SOL    HW137142   0.002   0.051  15.302 -0.1304  0.1993  0.1418
 8502SOL    HW237143   4.704   0.117  15.434  1.6120  2.5150 -1.3996
 8503SOL     OW37144   0.135   0.323   9.584  0.7389 -0.1131 -0.4677
 8503SOL    HW137145   0.110   0.386   9.517 -2.2287 -0.8165 -0.0168
 8503SOL    HW237146   0.050   0.289   9.614 -0.3226  2.2830 -0.7896
 8504SOL     OW37147   2.014   1.425   1.352 -0.2320 -0.5107  0.2675
 8504SOL    HW137148   1.975   1.511   1.368  1.8788  0.2957  1.0242
 8504SOL    HW237149   2.083   1.417   1.417 -1.6612 -1.0006  1.7137
 8505SOL     OW37150   3.137   4.700   2.594 -0.0412  0.2105 -0.5097
 8505SOL    HW137151   3.116   4.680   2.502  2.8250 -0.0241 -1.1121
 8505SOL    HW237152   3.115   0.056   2.591  1.8689  0.7042  1.3398
 8506SOL     OW37153   3.276   4.594  15.223  0.1323 -0.0812 -0.2241
 8506SOL    HW137154   3.257   4.666  15.282  0.7453 -1.6050  1.8306
 8506SOL    HW237155   3.210   4.540  15.266 -0.4351  1.7477  1.1822
 8507SOL     OW37156   3.058   2.483   7.143 -0.5685 -0.6585  0.5847
 8507SOL    HW137157   3.112   2.457   7.218  1.0705 -1.5792 -0.9067
 8507SOL    HW237158   2.973   2.445   7.164  0.4105 -3.3110 -0.1766
 8508SOL     OW37159   3.735   1.753   7.042 -0.0707 -0.6722  0.2405
 8508SOL    HW137160   3.822   1.730   7.009  0.5108 -0.2240  1.4749
 8508SOL    HW237161   3.696   1.670   7.070  0.3404 -0.8583  0.2649
 8509SOL     OW37162   1.721   3.895   5.896  0.6135  0.2373 -0.0769
 8509SOL    HW137163   1.746   3.874   5.806 -0.7430  0.9058 -0.6105
 8509SOL    HW237164   1.763   3.981   5.901  0.9314  0.1206 -0.8645
 8510SOL     OW37165   2.251   2.546   5.941 -0.0252 -0.4031 -0.8731
 8510SOL    HW137166   2.249   2.457   5.978  0.7797  0.9864  2.4503
 8510SOL    HW237167   2.228   2.521   5.851 -1.2046 -0.0304 -0.6719
 8511SOL     OW37168   4.282   3.629  16.497 -0.2258 -0.4552  0.2254
 8511SOL    HW137169   4.200   3.665  16.531 -0.8171 -1.9356  0.3808
 8511SOL    HW237170   4.332   3.609  16.576  2.0184 -0.5224 -1.2115
 8512SOL     OW37171   4.369   0.854   6.557 -0.0408  0.0682 -0.1425
 8512SOL    HW137172   4.281   0.819   6.543  0.3656 -0.4437 -1.3611
 8512SOL    HW237173   4.415   0.843   6.474  0.0638 -1.4952  0.1249
 8513SOL     OW37174   3.109   0.365   4.220 -0.3653 -0.0720  0.2455
 8513SOL    HW137175   3.201   0.375   4.195 -0.4829  0.5758  0.0573
 8513SOL    HW237176   3.105   0.282   4.267 -1.9530 -0.5012 -0.6315
 8514SOL     OW37177   1.109   0.134   5.191  0.0050 -0.1213 -0.4984
 8514SOL    HW137178   1.139   0.044   5.202  1.4112  0.4113 -0.0861
 8514SOL    HW237179   1.192   0.171   5.220  0.5427 -1.2846 -0.5636
 8515SOL     OW37180   0.763   1.663   1.902  0.0459 -0.0306  0.7140
 8515SOL    HW137181   0.697   1.686   1.837  1.9655  0.1297 -1.2184
 8515SOL    HW237182   0.775   1.574   1.868  0.2032  0.3442 -0.2116
 8516SOL     OW37183   2.752   3.456   8.533 -0.0097 -0.8957 -0.0669
 8516SOL    HW137184   2.765   3.536   8.584 -0.7003 -1.6638  1.3181
 8516SOL    HW237185   2.724   3.499   8.453  1.7379  0.3284 -0.0178
 8517SOL     OW37186   2.994   3.192   0.014  0.3961  0.0343  0.0709
 8517SOL    HW137187   2.907   3.184   0.053  0.4064  1.8699  0.4779
 8517SOL    HW237188   2.981   3.281  17.727 -0.2692 -0.8244 -1.9529
 8518SOL     OW37189   4.365   2.582   9.158  0.3262  0.2348  0.2647
 8518SOL    HW137190   4.364   2.492   9.190  0.4865  0.3042  0.4716
 8518SOL    HW237191   4.355   2.637   9.236 -1.1432  0.4061 -0.0444
 8519SOL     OW37192   1.596   4.606   4.704  0.0103 -0.8481 -0.4132
 8519SOL    HW137193   1.537   4.568   4.769  0.0181 -0.1142  0.0116
 8519SOL    HW237194   1.674   4.595   4.759  1.2659 -0.8679 -2.1885
 8520SOL     OW37195   0.186   3.544   3.318  0.3426 -0.1809  0.2700
 8520SOL    HW137196   0.109   3.528   3.264  0.5521 -1.7560  0.4397
 8520SOL    HW237197   0.160   3.518   3.407  1.9435 -0.9390  0.5138
 8521SOL     OW37198   0.986   4.171   3.899  0.2345  0.2106  0.3387
 8521SOL    HW137199   1.042   4.231   3.948 -0.7921  0.5602  1.0651
 8521SOL    HW237200   1.036   4.152   3.819 -0.2026 -1.6829  0.5048
 8522SOL     OW37201   0.468   4.446  10.528 -0.2858 -0.4896  1.0000
 8522SOL    HW137202   0.382   4.424  10.563 -1.8416  0.9625 -1.9629
 8522SOL    HW237203   0.495   4.357  10.504  3.9234  1.5635 -1.9950
 8523SOL     OW37204   2.242   2.741  13.302  0.2669 -0.1032 -0.3165
 8523SOL    HW137205   2.306   2.714  13.236  0.5699  0.2962 -0.1902
 8523SOL    HW237206   2.202   2.656  13.319  0.7055 -0.3272 -0.4146
 8524SOL     OW37207   1.970   0.417   5.052  0.9212  0.5621 -0.0936
 8524SOL    HW137208   2.056   0.378   5.042  0.0362 -1.1459 -1.1238
 8524SOL    HW237209   1.990   0.502   5.090 -0.7285 -0.3606  2.8084
 8525SOL     OW37210   4.278   1.834  11.665 -0.3282  0.3897  0.2847
 8525SOL    HW137211   4.320   1.869  11.744  1.4937 -0.9850 -0.0651
 8525SOL    HW237212   4.213   1.777  11.705  1.2836 -1.9782 -0.4662
 8526SOL     OW37213   3.182   0.732   9.562 -0.0083 -0.2634  0.4884
 8526SOL    HW137214   3.168   0.826   9.561 -0.8296 -0.3791  0.5223
 8526SOL    HW237215   3.148   0.696   9.479  2.0836 -0.6628 -0.1884
 8527SOL     OW37216   2.851   1.191   7.537  0.0572  0.0399  0.8548
 8527SOL    HW137217   2.837   1.113   7.591  1.1572 -0.1228  0.9050
 8527SOL    HW237218   2.766   1.235   7.540 -0.2138 -0.6047  2.3815
 8528SOL     OW37219   0.690   1.320   6.311 -0.8143 -0.9286  0.4675
 8528SOL    HW137220   0.697   1.413   6.289  0.3120 -1.4375 -1.3023
 8528SOL    HW237221   0.712   1.313   6.404 -1.2275 -1.2442  0.5402
 8529SOL     OW37222   3.034   0.050   5.506 -0.0719 -0.4290 -0.1527
 8529SOL    HW137223   2.946   0.013   5.496 -0.5485  0.9973 -1.3623
 8529SOL    HW237224   3.077   0.015   5.428 -0.3511 -0.2057 -0.4095
 8530SOL     OW37225   3.804   3.907   9.904 -0.9159  0.9569  0.0901
 8530SOL    HW137226   3.711   3.921   9.885 -1.5529  0.5129  2.7612
 8530SOL    HW237227   3.801   3.899  10.000  1.4956  1.4101  0.1903
 8531SOL     OW37228   1.450   1.721   3.943  0.7288  0.2125 -0.9717
 8531SOL    HW137229   1.438   1.645   4.001  1.3475 -1.0203 -2.4496
 8531SOL    HW237230   1.538   1.710   3.908  0.9370 -2.2101  0.3118
 8532SOL     OW37231   0.763   3.971  15.665 -0.1965  0.4065 -0.4736
 8532SOL    HW137232   0.727   3.918  15.593  0.2366 -1.5197  0.7470
 8532SOL    HW237233   0.841   4.007  15.623  0.5755  0.0429  0.6665
 8533SOL     OW37234   1.628   3.782  10.552  0.6450 -0.2033  0.4256
 8533SOL    HW137235   1.612   3.693  10.522 -1.1053  0.4136 -0.4924
 8533SOL    HW237236   1.540   3.820  10.547 -0.1066 -1.7125  2.3387
 8534SOL     OW37237   0.915   1.450   4.887 -0.3253  0.1645  0.1534
 8534SOL    HW137238   0.889   1.531   4.843 -1.8821  0.3005  1.3204
 8534SOL    HW237239   0.911   1.487   4.975  0.8424  1.0936 -0.1949
 8535SOL     OW37240   1.154   1.234   7.052 -0.5550  0.0945 -0.3645
 8535SOL    HW137241   1.117   1.317   7.023 -0.8204 -0.2391 -0.9916
 8535SOL    HW237242   1.094   1.165   7.023 -2.6499  1.3068  1.0714
 8536SOL     OW37243   0.395   2.454   9.404  0.1627  0.7259 -0.4219
 8536SOL    HW137244   0.415   2.495   9.489  1.6295 -0.5356 -0.1620
 8536SOL    HW237245   0.314   2.499   9.379 -0.5763 -1.2836 -1.6701
 8537SOL     OW37246   2.922   2.100   4.468  1.0248  0.1076  0.2154
 8537SOL    HW137247   2.974   2.157   4.412 -0.8013  0.1439 -1.4582
 8537SOL    HW237248   2.865   2.059   4.403  1.2762 -0.8543  0.5966
 8538SOL     OW37249   1.246   2.060   2.055  0.1393 -0.5553 -0.1063
 8538SOL    HW137250   1.308   2.122   2.092  0.1850 -0.2411 -0.7024
 8538SOL    HW237251   1.218   2.009   2.131 -4.0901 -0.3573 -1.5193
 8539SOL     OW37252   4.532   3.817  14.230 -0.3051  0.6496 -0.2914
 8539SOL    HW137253   4.492   3.868  14.300  1.9980  2.4188 -0.2685
 8539SOL    HW237254   4.621   3.800  14.261 -0.5466  0.0132  0.0499
 8540SOL     OW37255   4.588   0.469   3.304 -0.5211 -0.6802 -0.1530
 8540SOL    HW137256   4.508   0.456   3.253  0.8160  1.3270 -2.8051
 8540SOL    HW237257   4.623   0.380   3.298  0.5527 -0.2303 -0.4708
 8541SOL     OW37258   1.658   2.189   4.443 -0.2790 -0.5719 -0.3038
 8541SOL    HW137259   1.670   2.260   4.381 -0.9629 -0.8889 -0.8004
 8541SOL    HW237260   1.746   2.181   4.480  0.1342 -0.0880 -1.1860
 8542SOL     OW37261   3.756   3.588   5.881 -0.1716 -0.3903 -0.2989
 8542SOL    HW137262   3.752   3.578   5.976 -0.0524 -2.0733 -0.4723
 8542SOL    HW237263   3.778   3.680   5.869 -1.1951  0.1235  1.9219
 8543SOL     OW37264   4.225   2.152   6.799 -0.4390 -0.2678 -0.2394
 8543SOL    HW137265   4.282   2.205   6.743 -0.3257 -0.0238  0.1081
 8543SOL    HW237266   4.176   2.221   6.844  1.0724  0.2826  0.5568
 8544SOL     OW37267   3.645   0.558   3.564  0.2541 -0.0442  0.1554
 8544SOL    HW137268   3.614   0.606   3.488  0.3360  0.5511  0.5015
 8544SOL    HW237269   3.638   0.630   3.626  0.1931 -1.6369  2.0070
 8545SOL     OW37270   0.075   2.599   8.681  0.0282 -0.5952 -0.2725
 8545SOL    HW137271   0.106   2.631   8.765  0.1033 -1.3019 -0.0307
 8545SOL    HW237272   4.728   2.643   8.670 -0.3635 -1.0372  0.9202
 8546SOL     OW37273   4.219   3.978  17.404 -0.6646 -0.4944  0.3753
 8546SOL    HW137274   4.269   3.897  17.409  0.1937 -0.0542 -1.2264
 8546SOL    HW237275   4.177   3.983  17.490 -0.5174  0.8406  0.3764
 8547SOL     OW37276   1.552   0.302  14.123  0.3694 -0.0326  0.0219
 8547SOL    HW137277   1.479   0.268  14.175 -1.4608  0.5491 -2.1790
 8547SOL    HW237278   1.583   0.364  14.189 -3.4854 -0.6016  2.3414
 8548SOL     OW37279   1.567   4.259   4.976 -0.4092 -0.0538  0.0471
 8548SOL    HW137280   1.603   4.335   4.930 -3.6242 -0.6505 -3.4533
 8548SOL    HW237281   1.475   4.287   4.976 -0.9612 -1.8927  0.0926
 8549SOL     OW37282   0.177   2.742  10.149 -0.0285 -0.3207 -0.4312
 8549SOL    HW137283   0.250   2.732  10.210 -0.3953 -2.5410 -0.3513
 8549SOL    HW237284   0.223   2.703  10.075  1.7421  2.6520 -0.9063
 8550SOL     OW37285   3.645   1.781   6.255 -0.1041 -0.5279 -0.9527
 8550SOL    HW137286   3.601   1.815   6.177  1.2836 -1.2275 -2.0417
 8550SOL    HW237287   3.731   1.817   6.235 -1.4015  3.6769  1.0548
 8551SOL     OW37288   1.818   3.193   0.491  0.2787 -0.8206  0.1948
 8551SOL    HW137289   1.856   3.145   0.565 -0.2980  1.5616  2.0439
 8551SOL    HW237290   1.728   3.207   0.518 -0.3768 -2.4675 -1.1473
 8552SOL     OW37291   2.242   2.011   9.035 -0.2510 -0.2768 -0.0477
 8552SOL    HW137292   2.169   1.965   8.993 -0.3438 -0.7553  0.6345
 8552SOL    HW237293   2.204   2.097   9.048  0.2180 -0.0737 -0.0004
 8553SOL     OW37294   4.029   4.600   6.421 -0.1959 -0.2562 -0.1270
 8553SOL    HW137295   4.100   4.541   6.394 -1.5238 -1.8601 -0.1863
 8553SOL    HW237296   3.977   4.612   6.341 -1.3128  1.7416  0.8959
 8554SOL     OW37297   3.918   1.524  10.558  0.1198 -0.3073  0.4815
 8554SOL    HW137298   3.992   1.580  10.582  0.9318  0.0976 -3.1067
 8554SOL    HW237299   3.906   1.487  10.646  0.7269 -0.9563  0.2843
 8555SOL     OW37300   3.978   1.210   7.081  0.0709  0.0940  0.3171
 8555SOL    HW137301   3.891   1.184   7.113  0.4770 -1.2083  0.3847
 8555SOL    HW237302   4.011   1.257   7.158  0.4050 -0.2699  0.3986
 8556SOL     OW37303   4.123   2.529   0.473 -0.1807  0.8948 -0.2075
 8556SOL    HW137304   4.054   2.543   0.409 -0.4314 -0.6045 -0.2528
 8556SOL    HW237305   4.089   2.550   0.560  0.1339  0.3978  0.0330
 8557SOL     OW37306   1.278   3.908  14.458  0.0221 -0.9141  0.5711
 8557SOL    HW137307   1.198   3.890  14.409  0.2480  0.1447 -0.1892
 8557SOL    HW237308   1.244   3.932  14.544 -1.5835 -0.8270 -0.0825
 8558SOL     OW37309   3.479   4.214   0.396 -0.1199  0.0811 -0.0886
 8558SOL    HW137310   3.436   4.175   0.320 -0.6413 -0.2737  0.3925
 8558SOL    HW237311   3.571   4.184   0.396  0.2881  1.3524 -0.3598
 8559SOL     OW37312   3.885   2.670   6.960 -0.5922 -0.6931 -0.5533
 8559SOL    HW137313   3.865   2.579   6.981 -0.7612 -1.1593 -2.7572
 8559SOL    HW237314   3.967   2.675   7.009 -0.4847 -0.1053 -0.8003
 8560SOL     OW37315   0.605   4.636  14.287  0.6760  0.5578  0.0844
 8560SOL    HW137316   0.601   4.731  14.283 -1.1973  0.5391  1.0748
 8560SOL    HW237317   0.526   4.606  14.334 -0.3878  1.6384 -1.0126
 8561SOL     OW37318   1.418   1.333   8.085  0.1904 -0.1322 -0.0198
 8561SOL    HW137319   1.331   1.345   8.046 -0.0696 -0.1243  0.5552
 8561SOL    HW237320   1.419   1.392   8.161 -1.5514 -1.1528  0.8021
 8562SOL     OW37321   1.472   0.459   3.891  0.0149  0.3053 -0.0142
 8562SOL    HW137322   1.489   0.547   3.926  3.0714 -0.2617 -0.0832
 8562SOL    HW237323   1.554   0.416   3.917  0.4922  0.2982 -1.5473
 8563SOL     OW37324   4.141   0.541   1.540  0.4233 -0.1544 -0.3594
 8563SOL    HW137325   4.148   0.446   1.539 -1.7876 -0.3092 -0.5966
 8563SOL    HW237326   4.091   0.552   1.621  0.3591  0.0754 -0.4290
 8564SOL     OW37327   3.522   3.263  10.116  0.1826 -0.5585  0.5764
 8564SOL    HW137328   3.480   3.181  10.089  1.2435 -1.2732  1.0883
 8564SOL    HW237329   3.505   3.319  10.040 -0.7643  0.0247  1.2130
 8565SOL     OW37330   3.938   1.124  10.164 -0.1700 -0.1153  0.0762
 8565SOL    HW137331   3.896   1.209  10.154 -3.3377 -1.6520  0.5102
 8565SOL    HW237332   3.914   1.089  10.249 -2.0222  0.5532 -0.1748
 8566SOL     OW37333   3.475   2.841   9.835 -0.2653 -0.5621 -0.5817
 8566SOL    HW137334   3.423   2.864   9.759  2.0092  1.5058 -1.4985
 8566SOL    HW237335   3.563   2.831   9.799 -0.0041  0.0043 -0.1131
 8567SOL     OW37336   4.275   3.945   6.708 -0.0495 -0.3250  0.3414
 8567SOL    HW137337   4.195   3.972   6.754 -0.3540 -1.7770  0.6503
 8567SOL    HW237338   4.261   3.850   6.711  0.5214 -0.4100  0.2765
 8568SOL     OW37339   1.007   3.373   3.727  0.4390 -0.3811  0.1531
 8568SOL    HW137340   1.095   3.389   3.694  0.6995 -0.0558  1.0093
 8568SOL    HW237341   1.026   3.294   3.778  3.7639 -0.0522 -0.5408
 8569SOL     OW37342   0.269   0.512   2.943  0.0476 -0.5804  0.2008
 8569SOL    HW137343   0.351   0.512   2.993  0.3015 -0.3506 -0.2151
 8569SOL    HW237344   0.296   0.465   2.864  1.0281 -0.7264  0.6196
 8570SOL     OW37345   1.479   1.575   5.005 -0.6562  0.3346 -0.1212
 8570SOL    HW137346   1.482   1.501   4.944  1.1589  0.1096  0.2389
 8570SOL    HW237347   1.521   1.640   4.949 -2.9051  0.1613 -2.0127
 8571SOL     OW37348   2.113   0.985   4.728  0.2087  0.3953 -0.3852
 8571SOL    HW137349   2.025   0.983   4.766  1.1631  1.6287  1.8986
 8571SOL    HW237350   2.155   0.909   4.768 -0.9069  0.1037  0.2362
 8572SOL     OW37351   1.808   1.698  13.023 -0.8741 -0.3105 -0.4649
 8572SOL    HW137352   1.867   1.633  12.983 -1.6748 -1.1609 -0.2417
 8572SOL    HW237353   1.806   1.764  12.953  0.1968 -0.4512 -0.6389
 8573SOL     OW37354   2.924   2.754   6.766 -0.0281  0.2684  0.1791
 8573SOL    HW137355   2.867   2.736   6.691 -0.0320  1.4454 -0.1071
 8573SOL    HW237356   2.982   2.679   6.776 -0.9774 -0.1920  2.1439
 8574SOL     OW37357   1.641   3.697   2.188 -0.4544 -0.6978 -0.1819
 8574SOL    HW137358   1.729   3.692   2.152  0.2398  0.1557  1.4411
 8574SOL    HW237359   1.672   3.730   2.272  2.6792  2.3365 -2.5563
 8575SOL     OW37360   4.473   4.511   3.145  0.0096 -0.6046  0.4369
 8575SOL    HW137361   4.510   4.482   3.061 -1.5390 -3.9627  0.9257
 8575SOL    HW237362   4.503   4.451   3.213 -1.3755  1.3862  2.8043
 8576SOL     OW37363   1.467   0.358   7.948  0.2589 -0.6119 -0.6558
 8576SOL    HW137364   1.504   0.414   8.016  1.7606 -2.3252 -0.0887
 8576SOL    HW237365   1.473   0.269   7.983  5.4181 -0.7049 -1.8075
 8577SOL     OW37366   1.094   0.057   9.349  0.0328  0.1613 -0.4624
 8577SOL    HW137367   1.098   0.070   9.254 -1.6852 -0.7622 -0.6592
 8577SOL    HW237368   1.038   0.127   9.381  0.1753  0.3703 -0.6734
 8578SOL     OW37369   1.773   0.104  15.271  0.0582 -0.2238  0.9552
 8578SOL    HW137370   1.805   0.016  15.249  0.5764  0.0664  0.5606
 8578SOL    HW237371   1.755   0.077  15.361 -0.2635  1.0632  1.2704
 8579SOL     OW37372   4.073   1.270  17.223 -0.0824 -0.4502  0.1424
 8579SOL    HW137373   4.031   1.244  17.141 -2.1409  0.2728  0.9497
 8579SOL    HW237374   4.157   1.225  17.215  0.0172 -0.1767 -0.3298
 8580SOL     OW37375   1.781   3.765   4.260 -0.4247  0.1515 -0.1560
 8580SOL    HW137376   1.863   3.732   4.297  0.6376 -1.2119 -3.7632
 8580SOL    HW237377   1.780   3.860   4.273  1.1713  0.4156 -2.1016
 8581SOL     OW37378   3.063   3.677  13.038 -0.1658  0.0213  0.1681
 8581SOL    HW137379   3.069   3.671  13.133 -2.3791  1.0660  0.3555
 8581SOL    HW237380   3.091   3.765  13.012  1.7857 -0.3953  0.8171
 8582SOL     OW37381   2.678   0.761   8.268  0.4328 -0.1122 -0.1707
 8582SOL    HW137382   2.710   0.677   8.235 -0.0128 -0.6768  0.8275
 8582SOL    HW237383   2.603   0.777   8.212 -1.8620 -1.3190  2.5437
 8583SOL     OW37384   3.689   2.853   2.958  0.4075  0.0845 -0.0184
 8583SOL    HW137385   3.745   2.928   2.979  1.3910 -0.3752 -1.0508
 8583SOL    HW237386   3.663   2.846   3.050  1.3267  0.9098  0.3154
 8584SOL     OW37387   4.026   1.063   1.046  0.1416 -0.4824 -0.3946
 8584SOL    HW137388   4.087   1.015   0.990  0.6268  0.6222 -0.8286
 8584SOL    HW237389   4.061   1.052   1.135 -1.3220  0.1789  0.2734
 8585SOL     OW37390   1.162   2.918  15.007 -0.0565 -0.4487 -0.2159
 8585SOL    HW137391   1.178   2.826  14.987  0.6702 -0.2684 -0.4802
 8585SOL    HW237392   1.076   2.939  14.970  0.5318  0.0424 -1.2923
 8586SOL     OW37393   0.427   0.082   7.375  0.1875  0.3656 -0.1889
 8586SOL    HW137394   0.447   0.110   7.464 -0.5951 -0.7139  0.3261
 8586SOL    HW237395   0.498   0.019   7.362  0.0021  0.0703  0.2475
 8587SOL     OW37396   3.646   2.981  16.814 -0.5114  0.2848 -0.2825
 8587SOL    HW137397   3.685   2.968  16.901  0.3167 -0.1250 -0.7175
 8587SOL    HW237398   3.718   2.951  16.758  0.5530  1.7958  0.2640
 8588SOL     OW37399   3.773   2.869  14.884 -0.5012  0.3710 -0.4105
 8588SOL    HW137400   3.856   2.827  14.908  0.2084  1.9703 -0.0553
 8588SOL    HW237401   3.799   2.960  14.871  0.3759  0.1131 -0.4221
 8589SOL     OW37402   1.239   3.981   8.660  0.5451 -0.5489  0.3483
 8589SOL    HW137403   1.219   3.892   8.689  2.3936 -1.5485 -1.4339
 8589SOL    HW237404   1.287   3.957   8.580  1.6875  2.3599  0.1677
 8590SOL     OW37405   1.220   1.774  10.545 -0.3888  0.2767 -0.0367
 8590SOL    HW137406   1.262   1.687  10.546 -0.3040  0.2993 -1.6694
 8590SOL    HW237407   1.281   1.824  10.599 -0.0883 -2.1679  1.9259
 8591SOL     OW37408   0.127   0.261  16.831 -0.3107  0.3992  0.0404
 8591SOL    HW137409   0.181   0.232  16.758  0.7347 -0.1692  1.0282
 8591SOL    HW237410   0.110   0.350  16.799  0.1609  0.4734 -0.0034
 8592SOL     OW37411   4.366   4.714   2.217 -0.0283 -0.2689  0.4958
 8592SOL    HW137412   4.356   4.700   2.123  0.1271 -0.7283  0.5501
 8592SOL    HW237413   4.461   4.720   2.221 -0.0891  0.8437  0.3973
 8593SOL     OW37414   2.895   2.754   4.218  0.8888 -0.2292  0.6494
 8593SOL    HW137415   2.910   2.765   4.312  1.9420  0.3141  0.4155
 8593SOL    HW237416   2.920   2.662   4.216  0.9440 -0.2025  0.1764
 8594SOL     OW37417   0.798   4.673   4.807 -0.0195 -0.0457 -0.2360
 8594SOL    HW137418   0.791   4.579   4.822 -2.1073  0.3001  1.0151
 8594SOL    HW237419   0.885   4.687   4.769 -0.0254 -2.5174 -1.1412
 8595SOL     OW37420   0.613   1.595   4.266 -0.0517 -0.1747  0.0111
 8595SOL    HW137421   0.548   1.560   4.205 -1.8978  0.7486  1.4352
 8595SOL    HW237422   0.697   1.586   4.222  0.0557  2.7281 -0.3915
 8596SOL     OW37423   3.856   3.497   8.258  0.1492  0.4583 -0.6704
 8596SOL    HW137424   3.941   3.526   8.291  1.4638 -0.6639 -3.1204
 8596SOL    HW237425   3.793   3.558   8.297  0.9298  1.5991 -1.2108
 8597SOL     OW37426   3.755   1.645  10.349 -0.0267  0.1774 -0.5232
 8597SOL    HW137427   3.814   1.599  10.410 -2.1549 -0.5242  0.9858
 8597SOL    HW237428   3.801   1.729  10.348 -0.5439  0.4602  0.0665
 8598SOL     OW37429   1.378   3.946  10.199  0.0863 -0.6016  0.2757
 8598SOL    HW137430   1.373   3.921  10.291 -1.6293  2.5962  1.0454
 8598SOL    HW237431   1.398   3.859  10.165  2.4483 -0.4663  1.3557
 8599SOL     OW37432   1.965   4.339   7.161 -0.6402 -0.1242 -0.0151
 8599SOL    HW137433   2.051   4.361   7.124  0.1915  0.4948  2.2841
 8599SOL    HW237434   1.971   4.244   7.175  2.4743  0.1017  0.2173
 8600SOL     OW37435   1.027   0.525   0.108 -0.2713  1.2350  0.0607
 8600SOL    HW137436   1.106   0.557   0.152  1.3866 -1.4459 -0.9966
 8600SOL    HW237437   1.010   0.443   0.153  0.6132  0.7598 -0.4811
 8601SOL     OW37438   1.646   2.612  12.705  0.4808 -0.1233 -0.1289
 8601SOL    HW137439   1.667   2.643  12.617  1.1172  0.8125  0.3541
 8601SOL    HW237440   1.551   2.599  12.701  0.1796  2.0253  0.4124
 8602SOL     OW37441   1.801   3.147   7.546 -0.0143 -0.0470  0.2850
 8602SOL    HW137442   1.868   3.083   7.569 -0.5979 -1.0616 -0.8351
 8602SOL    HW237443   1.838   3.235   7.556 -0.6902  0.4318 -1.4597
 8603SOL     OW37444   1.112   4.386   6.996  0.2205  0.3600 -0.1395
 8603SOL    HW137445   1.045   4.326   7.029  2.1511 -1.6428  0.1446
 8603SOL    HW237446   1.086   4.413   6.908  2.3048  0.6027 -0.6903
 8604SOL     OW37447   3.560   3.120   4.494  0.5284  0.3735 -0.7458
 8604SOL    HW137448   3.548   3.061   4.419  0.0389 -1.0160  0.4209
 8604SOL    HW237449   3.480   3.100   4.543  1.4767  0.8883  1.0138
 8605SOL     OW37450   1.341   0.646  11.761  0.5341 -0.1598 -0.1622
 8605SOL    HW137451   1.430   0.611  11.773  0.2067 -0.4353  1.4159
 8605SOL    HW237452   1.363   0.710  11.694  0.0180  0.4137  0.2139
 8606SOL     OW37453   0.851   2.414   3.601  0.3160  0.2227 -0.2886
 8606SOL    HW137454   0.919   2.455   3.654 -0.0543  1.4098 -0.7206
 8606SOL    HW237455   0.817   2.494   3.559 -2.0018 -0.2838  0.6146
 8607SOL     OW37456   3.810   3.985   9.012  0.5284 -0.0844  0.0635
 8607SOL    HW137457   3.766   3.958   9.092  2.3506 -1.3151  0.6662
 8607SOL    HW237458   3.858   3.907   8.982 -1.0716 -0.1990 -2.2272
 8608SOL     OW37459   4.192   1.709   4.739 -0.0441  0.0170  0.3836
 8608SOL    HW137460   4.203   1.681   4.648 -0.3072 -2.3670  1.0834
 8608SOL    HW237461   4.153   1.796   4.734 -2.8997 -1.2510  0.5178
 8609SOL     OW37462   2.164   0.817   3.338  0.1093 -0.1094 -0.3327
 8609SOL    HW137463   2.131   0.839   3.251 -0.9953  0.8770  0.3391
 8609SOL    HW237464   2.215   0.896   3.357  1.0075 -0.4049 -1.5370
 8610SOL     OW37465   1.742   1.435   6.120 -0.1429  0.9136  0.0502
 8610SOL    HW137466   1.766   1.391   6.039  2.2163  1.0714  0.6638
 8610SOL    HW237467   1.652   1.465   6.110 -0.2553  0.2940 -0.7459
 8611SOL     OW37468   2.496   3.128   7.188  0.2171  0.1741 -0.4120
 8611SOL    HW137469   2.419   3.151   7.134 -0.9737  2.4846  2.2857
 8611SOL    HW237470   2.560   3.121   7.117  0.3194 -2.7705 -0.0135
 8612SOL     OW37471   0.871   3.379   8.578 -0.3389 -0.2908 -0.0371
 8612SOL    HW137472   0.843   3.403   8.490  2.1362  0.4879 -0.5974
 8612SOL    HW237473   0.794   3.385   8.636 -0.4493 -2.2776  0.0359
 8613SOL     OW37474   4.239   2.410   5.080  0.2927 -0.4413 -0.1202
 8613SOL    HW137475   4.322   2.362   5.071  0.0243 -0.5153 -2.2344
 8613SOL    HW237476   4.188   2.401   5.000 -2.9952 -0.3987  1.9801
 8614SOL     OW37477   3.013   0.142   4.786 -0.2755 -0.5888  0.1907
 8614SOL    HW137478   3.047   0.200   4.855 -0.9770 -0.1006  0.1227
 8614SOL    HW237479   3.072   0.171   4.716  1.3447 -0.4082  1.6309
 8615SOL     OW37480   4.462   2.410  12.191 -0.1020  0.0331  0.0050
 8615SOL    HW137481   4.486   2.392  12.100 -0.1124  0.0257  0.0037
 8615SOL    HW237482   4.368   2.395  12.197 -0.1286  1.1038  2.0172
 8616SOL     OW37483   2.232   0.627   4.524  0.2343 -0.7543  0.3244
 8616SOL    HW137484   2.294   0.700   4.520 -1.3630  0.6591  1.7153
 8616SOL    HW237485   2.234   0.614   4.618 -0.4592  1.2185  0.6176
 8617SOL     OW37486   4.245   0.700  12.560  0.5988 -1.1637 -1.1429
 8617SOL    HW137487   4.333   0.670  12.541  0.7606 -0.9881 -0.6816
 8617SOL    HW237488   4.231   0.783  12.514  0.2657 -0.7737 -0.3553
 8618SOL     OW37489   0.536   4.043   5.324  0.3373 -0.2688  0.3966
 8618SOL    HW137490   0.479   4.082   5.258 -1.7177 -1.2447  1.6115
 8618SOL    HW237491   0.605   4.002   5.272 -0.0587 -2.0801  1.3102
 8619SOL     OW37492   4.644   4.460   5.354 -0.2142  0.1723 -0.5341
 8619SOL    HW137493   4.657   4.441   5.447 -1.1138 -0.0961 -0.4618
 8619SOL    HW237494   4.678   4.381   5.313  0.7504 -0.0429  0.6897
 8620SOL     OW37495   2.016   4.698  12.425 -0.2228 -0.2557  0.0335
 8620SOL    HW137496   2.094   4.648  12.450  0.7308  1.7904  1.0902
 8620SOL    HW237497   1.976   4.636  12.363  0.4130  1.4573 -2.1031
 8621SOL     OW37498   4.115   1.674   7.193 -0.1998 -0.7737 -1.2670
 8621SOL    HW137499   4.208   1.655   7.201  0.0079  1.1977  0.9437
 8621SOL    HW237500   4.083   1.586   7.210 -2.2047  0.3323  0.7049
 8622SOL     OW37501   3.205   1.943   0.760  0.3837 -0.3726  0.0173
 8622SOL    HW137502   3.248   1.945   0.674 -1.6530  0.5435 -0.9720
 8622SOL    HW237503   3.282   1.959   0.815  1.1124  0.1814 -1.1565
 8623SOL     OW37504   2.172   4.336   3.817 -0.1623 -0.6270 -0.2473
 8623SOL    HW137505   2.245   4.278   3.797  1.0402  0.0253  2.1442
 8623SOL    HW237506   2.183   4.407   3.754  0.9632  0.3921  1.0860
 8624SOL     OW37507   3.293   4.698  12.989  0.2094  0.5333 -0.3157
 8624SOL    HW137508   3.365   4.686  12.927  0.9725  0.1338  0.6460
 8624SOL    HW237509   3.223   4.733  12.933 -0.3170  0.0055  0.0099
 8625SOL     OW37510   1.470   3.180  12.199  0.0348  0.1740 -0.2635
 8625SOL    HW137511   1.421   3.190  12.281 -0.5416 -2.5424 -0.2624
 8625SOL    HW237512   1.507   3.092  12.198  0.5886  0.4019  1.4250
 8626SOL     OW37513   0.393   1.419   2.585 -0.1698  0.3552  0.3192
 8626SOL    HW137514   0.423   1.413   2.494 -0.8098  1.8890  0.0071
 8626SOL    HW237515   0.399   1.514   2.600 -0.3901  0.8039 -2.3973
 8627SOL     OW37516   1.356   4.513  15.596  0.1211 -0.7595 -0.1608
 8627SOL    HW137517   1.375   4.458  15.521 -2.6280  2.3862 -3.1889
 8627SOL    HW237518   1.387   4.593  15.555  0.3127 -0.8790 -0.2470
 8628SOL     OW37519   2.542   4.365  13.588 -0.5795 -0.7142 -0.0705
 8628SOL    HW137520   2.545   4.269  13.584  1.6295 -0.6382 -0.2316
 8628SOL    HW237521   2.628   4.384  13.626 -0.7928  1.0619 -0.4879
 8629SOL     OW37522   3.652   1.329   3.124 -0.0704  0.5362 -0.3556
 8629SOL    HW137523   3.636   1.251   3.178 -0.4556 -0.6746 -2.2355
 8629SOL    HW237524   3.577   1.320   3.065  0.9175 -1.6404 -1.2435
 8630SOL     OW37525   4.217   1.202  13.774 -0.4625  0.0488  0.0542
 8630SOL    HW137526   4.279   1.274  13.781  0.5247 -1.2247  4.2307
 8630SOL    HW237527   4.220   1.149  13.854  2.4839  2.3533  1.4323
 8631SOL     OW37528   0.355   3.151   6.000 -0.2222 -0.2889  0.7027
 8631SOL    HW137529   0.370   3.110   6.085 -0.2291 -0.7787  0.4696
 8631SOL    HW237530   0.387   3.082   5.941  0.7657 -1.5305  2.6759
 8632SOL     OW37531   3.462   2.058   8.593  0.1184  0.0117  0.3499
 8632SOL    HW137532   3.420   2.039   8.509  0.9468 -0.7153  0.1044
 8632SOL    HW237533   3.400   2.119   8.631  1.0295  1.9077 -1.1781
 8633SOL     OW37534   0.347   3.879  15.149 -0.2782  0.9508  0.5278
 8633SOL    HW137535   0.269   3.894  15.095  1.2539  2.7552 -1.2207
 8633SOL    HW237536   0.397   3.958  15.125 -1.4618  1.4622 -0.2715
 8634SOL     OW37537   3.838   0.433   8.486  0.1725  0.0188  0.0619
 8634SOL    HW137538   3.831   0.435   8.582 -0.8170  1.1560 -0.0256
 8634SOL    HW237539   3.916   0.488   8.479 -0.6533  1.1958  0.1080
 8635SOL     OW37540   3.175   2.780   4.624 -0.0027 -0.1211  0.2351
 8635SOL    HW137541   3.192   2.839   4.697  1.4422  0.8748 -0.9030
 8635SOL    HW237542   3.267   2.756   4.607  0.6100  2.6987 -0.3837
 8636SOL     OW37543   4.539   4.320   9.112  0.3743 -0.2077 -0.7046
 8636SOL    HW137544   4.527   4.316   9.017 -1.0908  0.4094 -0.5474
 8636SOL    HW237545   4.633   4.303   9.116  0.7704  1.7264 -2.1212
 8637SOL     OW37546   1.236   1.905   4.561  0.3280  0.4847 -0.0861
 8637SOL    HW137547   1.247   1.869   4.649  0.5625  2.1774  0.5771
 8637SOL    HW237548   1.318   1.889   4.515  0.2834  1.9192 -0.6783
 8638SOL     OW37549   0.072   1.861   5.787  0.4298  0.3752  0.1834
 8638SOL    HW137550   4.727   1.893   5.750  1.1893  1.0780 -0.8842
 8638SOL    HW237551   0.139   1.923   5.761  1.8750 -0.8681  0.9282
 8639SOL     OW37552   0.740   2.128   2.372 -0.0442 -0.3297 -0.3514
 8639SOL    HW137553   0.826   2.145   2.335 -0.5921  0.9012 -1.0650
 8639SOL    HW237554   0.705   2.209   2.408  0.4704 -0.1430 -0.2734
 8640SOL     OW37555   3.669   2.531   7.938 -0.4857 -0.3884 -0.0661
 8640SOL    HW137556   3.635   2.540   7.849  1.1193 -1.3888 -0.7736
 8640SOL    HW237557   3.678   2.622   7.966 -0.7057  0.2116 -1.9111
 8641SOL     OW37558   3.184   0.034  12.282  0.8748  0.3178 -0.0077
 8641SOL    HW137559   3.158   4.679  12.288  1.2257  0.1973 -0.3179
 8641SOL    HW237560   3.135   0.071  12.209  3.3023  0.1205 -1.7407
 8642SOL     OW37561   0.153   4.041   5.844  0.0812  0.0614 -0.3705
 8642SOL    HW137562   0.199   3.961   5.868  0.8256  0.1378 -1.5166
 8642SOL    HW237563   0.183   4.050   5.753  0.8517  2.2951  0.1091
 8643SOL     OW37564   0.907   1.987  15.872  0.3649 -0.0231  0.6466
 8643SOL    HW137565   0.860   2.069  15.864  1.1916  0.6536  2.8896
 8643SOL    HW237566   0.939   1.978  15.782 -1.6218  1.2050 -0.1762
 8644SOL     OW37567   4.186   1.217  11.718 -0.3566 -0.4107 -0.3325
 8644SOL    HW137568   4.156   1.284  11.656  0.9404  0.1061 -0.4058
 8644SOL    HW237569   4.223   1.281  11.779 -0.6946  1.6341 -2.2666
 8645SOL     OW37570   4.519   1.988   5.252 -0.0620  0.2985  0.0503
 8645SOL    HW137571   4.571   2.023   5.180 -0.0063 -0.3780 -0.2367
 8645SOL    HW237572   4.446   1.956   5.199 -0.6801 -0.5215  1.4249
 8646SOL     OW37573   1.560   0.509   4.440  0.5483  0.9858  0.2419
 8646SOL    HW137574   1.564   0.467   4.526  1.0812 -0.7159 -0.6282
 8646SOL    HW237575   1.649   0.510   4.406  0.5802 -1.0775  0.2836
 8647SOL     OW37576   0.599   1.088   8.437  0.3899  0.4397 -0.0794
 8647SOL    HW137577   0.515   1.101   8.393 -0.3570  1.4971  1.7034
 8647SOL    HW237578   0.583   1.123   8.524  1.6467  0.6875  0.0560
 8648SOL     OW37579   3.353   1.768  14.381 -0.0201  0.7084  0.0220
 8648SOL    HW137580   3.303   1.730  14.310  0.9107 -1.5383  0.5682
 8648SOL    HW237581   3.426   1.786  14.322 -1.0967 -0.5991 -1.6865
 8649SOL     OW37582   4.187   4.433   2.287  0.0711 -0.7653  0.1675
 8649SOL    HW137583   4.253   4.364   2.283  0.0192 -0.8091  0.0721
 8649SOL    HW237584   4.128   4.414   2.215 -0.1714 -2.9641  0.9379
 8650SOL     OW37585   0.713   2.707  16.907  0.0666 -0.4130 -0.0349
 8650SOL    HW137586   0.678   2.791  16.879  1.6183  0.3820  0.3840
 8650SOL    HW237587   0.762   2.738  16.984 -0.5491 -3.0515  1.4448
 8651SOL     OW37588   1.639   4.430  15.607 -0.8655  0.3918  0.0521
 8651SOL    HW137589   1.587   4.502  15.641 -0.2903  0.4183  0.8962
 8651SOL    HW237590   1.624   4.365  15.676  0.5364  1.0922  1.0022
 8652SOL     OW37591   2.346   4.074  11.729 -0.6926  0.2021  0.3811
 8652SOL    HW137592   2.395   4.155  11.712 -0.2393 -0.6671 -2.4962
 8652SOL    HW237593   2.372   4.030  11.649  2.5274  0.0916  1.4757
 8653SOL     OW37594   1.674   3.469   8.094 -0.1890 -0.3447  0.1601
 8653SOL    HW137595   1.672   3.404   8.024 -0.0441 -0.8645  0.6406
 8653SOL    HW237596   1.589   3.457   8.136 -1.2369  1.8455 -1.3324
 8654SOL     OW37597   3.810   1.653   4.108 -0.0836  0.0898 -0.2390
 8654SOL    HW137598   3.894   1.692   4.084 -0.8067  1.9293  0.2183
 8654SOL    HW237599   3.801   1.592   4.036 -1.8187  1.1277 -0.8940
 8655SOL     OW37600   0.861   1.546   2.162  0.4901  0.0377 -0.0483
 8655SOL    HW137601   0.899   1.496   2.090 -0.0619 -0.5899  0.0977
 8655SOL    HW237602   0.799   1.597   2.111  0.1208 -0.4469 -0.0836
 8656SOL     OW37603   2.575   4.357   3.545  0.5597 -0.2573  0.0773
 8656SOL    HW137604   2.571   4.425   3.478 -0.7728 -0.0038  0.4257
 8656SOL    HW237605   2.583   4.399   3.631  0.4858 -0.6952  0.2984
 8657SOL     OW37606   3.727   1.422   2.567  0.3460  0.3281  0.4058
 8657SOL    HW137607   3.772   1.341   2.544  2.4495  0.7333  3.1288
 8657SOL    HW237608   3.797   1.464   2.616 -1.8004  0.6047  3.2431
 8658SOL     OW37609   2.145   0.799   3.930  0.2655 -0.0923  0.3022
 8658SOL    HW137610   2.232   0.820   3.963 -0.2413  1.4897  0.6281
 8658SOL    HW237611   2.091   0.812   4.008  0.0942  3.8169 -0.5017
 8659SOL     OW37612   1.747   3.894   2.378 -0.3855  0.1204  0.0268
 8659SOL    HW137613   1.779   3.945   2.303 -0.7608  1.0153  0.4725
 8659SOL    HW237614   1.784   3.953   2.444 -1.4094  3.0665 -2.0448
 8660SOL     OW37615   3.319   2.736   8.007  0.5683 -0.2875 -0.2658
 8660SOL    HW137616   3.368   2.789   7.944  2.4311 -0.3504  1.1326
 8660SOL    HW237617   3.352   2.770   8.091  2.1313 -0.3267 -0.8755
 8661SOL     OW37618   3.494   4.019   0.158 -0.5011 -0.0219 -0.3714
 8661SOL    HW137619   3.580   4.042   0.195  0.2083 -0.7437 -1.5480
 8661SOL    HW237620   3.516   3.965   0.082 -0.0773 -0.3447 -0.0138
 8662SOL     OW37621   1.139   0.654  12.113 -0.2525 -0.3700 -0.3644
 8662SOL    HW137622   1.098   0.643  12.027  1.1265 -3.0076 -0.6591
 8662SOL    HW237623   1.234   0.659  12.115 -0.2792 -0.4519  0.7850
 8663SOL     OW37624   3.660   4.486   7.232  0.3226 -0.1222 -0.0076
 8663SOL    HW137625   3.590   4.428   7.201  0.8498 -1.0136  0.4462
 8663SOL    HW237626   3.739   4.432   7.226 -1.2273 -2.5457  1.3171
 8664SOL     OW37627   4.401   2.713   7.573 -0.3771 -0.1446 -0.6114
 8664SOL    HW137628   4.477   2.695   7.628 -0.9577  0.9041  0.5386
 8664SOL    HW237629   4.431   2.766   7.500 -1.9117  1.2545 -0.2178
 8665SOL     OW37630   0.931   4.098   3.519 -0.0652 -0.1853  0.6969
 8665SOL    HW137631   0.905   4.009   3.496  0.0498 -0.1183  0.3129
 8665SOL    HW237632   0.993   4.082   3.590 -0.2050  1.2692  1.1461
 8666SOL     OW37633   1.608   3.641   9.889  0.2595  0.2161 -0.5950
 8666SOL    HW137634   1.567   3.708   9.834  1.3407  1.0830 -0.3368
 8666SOL    HW237635   1.609   3.680   9.976  1.0365 -1.9442  0.3617
 8667SOL     OW37636   3.664   1.448   8.310  0.2948 -0.2991 -0.5264
 8667SOL    HW137637   3.752   1.416   8.332 -0.0613 -2.5129 -2.3569
 8667SOL    HW237638   3.664   1.436   8.215 -0.5088  1.6570 -0.7645
 8668SOL     OW37639   2.274   0.738   5.816  0.0020  0.5035 -0.6772
 8668SOL    HW137640   2.306   0.681   5.746  1.4428  1.0093 -0.4298
 8668SOL    HW237641   2.338   0.724   5.886 -1.9064  1.6294  1.2921
 8669SOL     OW37642   0.771   2.534   4.210 -0.5275 -0.2664 -0.6443
 8669SOL    HW137643   0.714   2.496   4.143  0.3998 -1.1605 -0.9257
 8669SOL    HW237644   0.741   2.625   4.208  1.0841  0.2751 -0.1465
 8670SOL     OW37645   2.113   2.952   2.423  0.1738 -0.1011 -0.2136
 8670SOL    HW137646   2.205   2.927   2.432  0.4370  1.0961  0.4101
 8670SOL    HW237647   2.106   3.039   2.463 -0.7373 -0.0772 -0.4084
 8671SOL     OW37648   0.464   0.341   6.744  0.1608  0.2034 -0.1197
 8671SOL    HW137649   0.504   0.308   6.824 -0.7422  0.2367  0.3322
 8671SOL    HW237650   0.389   0.385   6.783  1.4884  0.2776  2.3083
 8672SOL     OW37651   2.575   0.388  15.666 -0.1544  0.2173  0.3359
 8672SOL    HW137652   2.647   0.451  15.659  1.1554 -1.3916 -0.7112
 8672SOL    HW237653   2.593   0.345  15.582 -0.3303 -0.0415  0.4330
 8673SOL     OW37654   3.359   1.146  17.000  0.1002 -0.1911  0.3444
 8673SOL    HW137655   3.368   1.135  17.095 -1.6115 -0.7636  0.4513
 8673SOL    HW237656   3.446   1.140  16.963 -0.4605 -0.9158 -0.8505
 8674SOL     OW37657   0.356   3.027   9.878  0.0749  0.5481  0.0987
 8674SOL    HW137658   0.411   3.057   9.805 -1.0963 -2.1823 -1.8928
 8674SOL    HW237659   0.372   3.100   9.939  0.6783  1.2761 -0.9162
 8675SOL     OW37660   2.206   4.362   6.340 -0.2785 -0.4055  0.2501
 8675SOL    HW137661   2.165   4.419   6.405  0.4468  1.4332 -0.8898
 8675SOL    HW237662   2.131   4.372   6.281  1.0655  3.7920 -0.7720
 8676SOL     OW37663   1.364   2.448   2.481  0.6291 -0.1142 -0.5621
 8676SOL    HW137664   1.453   2.440   2.447  1.6684  1.9247  1.6536
 8676SOL    HW237665   1.361   2.505   2.558 -0.4022  1.7312 -1.9687
 8677SOL     OW37666   3.497   1.287   4.382 -0.2561 -0.5084  0.6117
 8677SOL    HW137667   3.578   1.244   4.357  0.6824  1.0517  0.9420
 8677SOL    HW237668   3.449   1.272   4.300  0.9747 -0.5412 -0.0973
 8678SOL     OW37669   2.748   3.275   9.057 -0.2654  0.5678  0.1462
 8678SOL    HW137670   2.679   3.257   9.121 -1.9276 -0.4249 -1.9174
 8678SOL    HW237671   2.762   3.193   9.009  2.2026  1.4498 -0.6415
 8679SOL     OW37672   3.734   1.190   5.976 -0.2162 -0.2814  0.7086
 8679SOL    HW137673   3.659   1.182   5.917  0.2149  0.3823  0.0712
 8679SOL    HW237674   3.696   1.231   6.054 -2.1268 -0.9385  0.1066
 8680SOL     OW37675   2.729   3.394   0.619  0.0927 -0.4753  0.2050
 8680SOL    HW137676   2.780   3.419   0.697  0.1456  2.1276 -0.6587
 8680SOL    HW237677   2.639   3.399   0.651 -0.5475 -0.5145 -1.6267
 8681SOL     OW37678   3.209   0.119   2.265 -0.0212  0.2512  0.5897
 8681SOL    HW137679   3.278   0.077   2.318 -0.6116 -1.2684  0.1538
 8681SOL    HW237680   3.152   0.047   2.237  0.4451  0.6521 -1.4246
 8682SOL     OW37681   3.144   3.920  15.925 -0.3238  0.0865 -0.5182
 8682SOL    HW137682   3.128   3.867  15.847 -0.8761  0.3986 -0.6186
 8682SOL    HW237683   3.107   3.999  15.885  0.2281  0.2156 -0.7767
 8683SOL     OW37684   0.095   2.722   8.946 -0.2850  0.0690 -0.3805
 8683SOL    HW137685   0.036   2.757   8.880 -0.2878  1.7045  0.4928
 8683SOL    HW237686   0.036   2.675   9.004 -0.8150 -0.2763 -1.2009
 8684SOL     OW37687   3.354   0.215   4.518  0.0317  0.0713 -0.1426
 8684SOL    HW137688   3.383   0.214   4.610 -1.8821 -0.3925  0.4512
 8684SOL    HW237689   3.259   0.224   4.518  0.1049  0.7504 -1.9076
 8685SOL     OW37690   0.136   3.515   4.210  0.6466  0.1032 -0.0346
 8685SOL    HW137691   0.217   3.527   4.162  1.9074 -0.3378  1.9853
 8685SOL    HW237692   0.166   3.461   4.283  0.8153 -1.4917 -1.2791
 8686SOL     OW37693   2.416   0.868   7.509 -0.0297 -0.6693  0.6502
 8686SOL    HW137694   2.391   0.856   7.600  1.3244  1.0512  1.2591
 8686SOL    HW237695   2.346   0.825   7.461  0.6087 -0.2942 -0.6263
 8687SOL     OW37696   1.995   4.097  15.950  0.0164  0.2329  0.1157
 8687SOL    HW137697   1.994   4.001  15.959 -0.7377  0.0930 -1.4911
 8687SOL    HW237698   2.057   4.111  16.022 -0.8741 -1.5719  1.2456
 8688SOL     OW37699   3.249   0.949  14.895 -0.1446 -0.6690 -0.5999
 8688SOL    HW137700   3.308   0.879  14.921  1.7399  0.4269 -1.9212
 8688SOL    HW237701   3.296   0.999  14.827  3.3134  0.4870  2.6594
 8689SOL     OW37702   2.219   4.158   8.400 -0.4620  0.0864  0.1985
 8689SOL    HW137703   2.125   4.156   8.383 -0.2555  0.1487 -0.9180
 8689SOL    HW237704   2.213   4.200   8.486 -0.2295  0.9124 -0.1852
 8690SOL     OW37705   1.293   4.250   6.800 -0.2466 -0.3597  0.2267
 8690SOL    HW137706   1.307   4.333   6.845  0.7195  0.0382 -0.7960
 8690SOL    HW237707   1.337   4.185   6.856 -1.6965 -1.4617  0.0647
 8691SOL     OW37708   0.166   2.229   8.165 -0.1342 -0.4844 -0.4760
 8691SOL    HW137709   0.145   2.150   8.214  2.0456  0.0461  1.2988
 8691SOL    HW237710   0.187   2.284   8.241  0.3704 -0.6956 -0.4654
 8692SOL     OW37711   2.598   3.123   5.336 -0.2298  0.4073 -0.0205
 8692SOL    HW137712   2.539   3.183   5.289  1.9456  2.5741 -0.0051
 8692SOL    HW237713   2.591   3.039   5.290  0.2003  0.9167 -1.0324
 8693SOL     OW37714   0.488   0.644   2.579  0.0009 -0.2358  0.3696
 8693SOL    HW137715   0.408   0.625   2.529  0.6899 -1.4396 -0.2551
 8693SOL    HW237716   0.469   0.587   2.654 -0.8541 -0.4969 -0.0351
 8694SOL     OW37717   4.474   2.301   3.687 -0.1590 -0.0889  0.4062
 8694SOL    HW137718   4.523   2.244   3.746  0.6588 -0.8317 -0.9677
 8694SOL    HW237719   4.528   2.301   3.608 -0.3248 -0.9773  0.2952
 8695SOL     OW37720   3.591   0.561   8.921 -0.0080  0.3013  0.3829
 8695SOL    HW137721   3.548   0.575   9.005  0.1826  0.6909  0.4123
 8695SOL    HW237722   3.656   0.630   8.909 -3.1200  2.8998 -1.2604
 8696SOL     OW37723   4.158   4.490   5.447  0.4774 -0.3828 -0.1038
 8696SOL    HW137724   4.250   4.507   5.423 -0.0015  1.8077 -0.3960
 8696SOL    HW237725   4.174   4.432   5.521  0.1196 -0.0596  0.2246
 8697SOL     OW37726   4.193   3.952   9.044  0.3133 -0.3997  0.1634
 8697SOL    HW137727   4.258   3.957   9.114 -0.1667  1.7691  0.4341
 8697SOL    HW237728   4.124   3.914   9.100  0.1372 -4.0280 -2.5146
 8698SOL     OW37729   4.610   2.143   6.277 -0.5074  0.1779  0.1213
 8698SOL    HW137730   4.540   2.148   6.212 -0.4915  0.2271  0.1071
 8698SOL    HW237731   4.559   2.174   6.351 -1.5623  0.0365 -0.5446
 8699SOL     OW37732   0.104   4.557   7.191  0.1083 -0.0232 -0.3107
 8699SOL    HW137733   0.078   4.648   7.180  2.3788  0.5625 -0.8241
 8699SOL    HW237734   0.188   4.558   7.145 -1.2162  1.5019 -2.6569
 8700SOL     OW37735   2.457   2.447   6.155  0.1716  0.6075 -0.4552
 8700SOL    HW137736   2.485   2.524   6.205 -1.5017  0.0225  1.3609
 8700SOL    HW237737   2.364   2.467   6.159 -0.0068 -0.5548  1.7172
 8701SOL     OW37738   0.817   1.473   5.953  0.1268  0.2461 -0.1061
 8701SOL    HW137739   0.809   1.554   5.903 -1.2184 -0.5076 -1.1352
 8701SOL    HW237740   0.728   1.439   5.942  0.5607 -1.0714  0.4059
 8702SOL     OW37741   3.399   4.576   1.535 -0.9017  0.5554  0.1232
 8702SOL    HW137742   3.473   4.629   1.565 -0.2796 -0.6834  0.8114
 8702SOL    HW237743   3.439   4.493   1.507 -3.4764 -0.4094 -0.6794
 8703SOL     OW37744   0.409   0.420  12.110  0.3600 -0.2824 -0.4574
 8703SOL    HW137745   0.435   0.369  12.034 -0.0912  0.5630 -1.1767
 8703SOL    HW237746   0.452   0.502  12.086  0.1862 -0.2717 -0.7270
 8704SOL     OW37747   0.631   4.488   2.510  0.2824  0.2045 -0.3376
 8704SOL    HW137748   0.597   4.418   2.566 -0.4211  0.1785 -0.7980
 8704SOL    HW237749   0.707   4.445   2.472  1.7206  0.1993  2.5627
 8705SOL     OW37750   0.059   3.750   5.312  0.0145  0.1428 -0.0673
 8705SOL    HW137751   0.090   3.792   5.232 -0.6149  0.0040 -0.3838
 8705SOL    HW237752   0.031   3.661   5.288 -1.3068  0.6790 -0.5464
 8706SOL     OW37753   3.498   3.351   7.878  0.3459 -0.0589  0.1490
 8706SOL    HW137754   3.484   3.433   7.831 -2.9483  0.1887  1.5625
 8706SOL    HW237755   3.467   3.377   7.965  0.4990 -1.0850  0.5160
 8707SOL     OW37756   3.960   1.021  14.097  0.1743 -0.7213  0.2325
 8707SOL    HW137757   4.054   1.036  14.093  0.2697 -1.0042  1.3426
 8707SOL    HW237758   3.946   0.982  14.011  0.3858 -0.8029  0.2337
 8708SOL     OW37759   2.035   4.151   4.152  0.7613 -0.5559  0.5326
 8708SOL    HW137760   2.115   4.199   4.132  0.0806  1.0975  1.7363
 8708SOL    HW237761   2.012   4.193   4.234 -3.2839 -0.8912 -0.4183
 8709SOL     OW37762   1.468   1.111   9.023 -0.1630 -0.2197  0.5487
 8709SOL    HW137763   1.403   1.040   9.029  1.0039 -1.4904 -1.6422
 8709SOL    HW237764   1.478   1.123   9.117 -1.1569  3.6584  0.1241
 8710SOL     OW37765   4.069   0.611   8.890 -0.3841 -0.2427 -0.2177
 8710SOL    HW137766   3.994   0.606   8.949 -0.5594 -0.9320 -0.5061
 8710SOL    HW237767   4.056   0.701   8.860  1.0700  0.0764  0.0732
 8711SOL     OW37768   0.303   4.287   2.542 -0.6248  0.4375 -1.0059
 8711SOL    HW137769   0.325   4.346   2.470 -4.1400 -0.9781 -3.2525
 8711SOL    HW237770   0.302   4.203   2.496 -1.2189  0.1245 -0.4372
 8712SOL     OW37771   3.951   2.388   9.307 -0.1495 -0.0883 -0.5141
 8712SOL    HW137772   3.940   2.397   9.212 -1.7504 -3.0341 -0.6413
 8712SOL    HW237773   3.915   2.301   9.326 -0.9548 -0.1342 -2.2180
 8713SOL     OW37774   1.832   3.742   5.173  0.9146  0.1729 -0.2421
 8713SOL    HW137775   1.745   3.718   5.204  1.1226 -0.6305 -0.2899
 8713SOL    HW237776   1.874   3.659   5.197 -0.2078  0.1603  1.6393
 8714SOL     OW37777   1.441   3.171   8.447  0.4064 -0.0341  0.1536
 8714SOL    HW137778   1.489   3.240   8.493  1.1808 -0.9009  0.6415
 8714SOL    HW237779   1.468   3.092   8.492  0.7524 -0.0499 -0.0826
 8715SOL     OW37780   1.282   2.743   5.156 -0.1415  0.5450  0.2459
 8715SOL    HW137781   1.354   2.802   5.136  1.2405 -1.7068 -1.3856
 8715SOL    HW237782   1.243   2.783   5.234 -4.0012  0.9247 -1.8585
 8716SOL     OW37783   3.559   0.015   2.735  0.0888 -0.4506 -0.5232
 8716SOL    HW137784   3.513   4.687   2.683 -2.7168  0.7009  0.5138
 8716SOL    HW237785   3.493   0.036   2.802 -0.6775  0.0960 -1.4584
 8717SOL     OW37786   0.950   4.662  10.014 -0.2182 -0.1704 -0.1983
 8717SOL    HW137787   0.870   4.643  10.063  0.0726  1.2857  0.8604
 8717SOL    HW237788   0.910   4.664   9.927  0.6466  1.5535 -0.5648
 8718SOL     OW37789   2.491   2.528   4.924 -0.1518 -0.8650 -0.0648
 8718SOL    HW137790   2.462   2.455   4.869  1.0350 -0.3097 -1.4294
 8718SOL    HW237791   2.530   2.484   4.999 -1.6880 -0.3935  1.0157
 8719SOL     OW37792   2.152   1.226   5.166 -0.6041 -0.3198  0.6194
 8719SOL    HW137793   2.071   1.239   5.116 -0.4706  0.3369  0.5631
 8719SOL    HW237794   2.133   1.277   5.245 -3.7410 -0.1699 -0.2117
 8720SOL     OW37795   3.933   1.934   5.544  0.0680 -0.1879  0.6446
 8720SOL    HW137796   3.997   2.002   5.522 -0.3543  0.2331  0.7120
 8720SOL    HW237797   3.873   1.941   5.469  3.3027 -0.0197 -1.8967
 8721SOL     OW37798   1.615   0.910  12.105 -0.4047  0.3427  0.0397
 8721SOL    HW137799   1.612   0.988  12.050  1.6204  0.1572 -0.3592
 8721SOL    HW237800   1.663   0.937  12.183  2.7672  0.8633 -2.0732
 8722SOL     OW37801   4.216   1.153  16.419  0.3949 -0.1625  0.0568
 8722SOL    HW137802   4.268   1.103  16.482  0.2215 -0.4256 -0.0068
 8722SOL    HW237803   4.170   1.081  16.376 -0.1210  0.4140 -0.3422
 8723SOL     OW37804   1.580   2.803   7.975 -0.2013  0.4460 -0.1413
 8723SOL    HW137805   1.662   2.797   7.926  0.1893  1.1220  0.4297
 8723SOL    HW237806   1.524   2.746   7.923 -0.7139 -0.3387  1.2755
 8724SOL     OW37807   1.796   1.353  13.046 -0.0316 -0.4225 -0.7630
 8724SOL    HW137808   1.787   1.258  13.054  1.3207 -0.1615  3.7303
 8724SOL    HW237809   1.765   1.389  13.129  0.4817 -0.6841 -0.4629
 8725SOL     OW37810   4.623   3.492   6.932  0.0849 -0.2077 -0.6201
 8725SOL    HW137811   4.551   3.546   6.899  0.3340  1.4643  1.5292
 8725SOL    HW237812   4.665   3.547   6.998  1.8595 -1.6458 -0.5406
 8726SOL     OW37813   0.991   2.663   2.608  0.2427  0.4719  0.0074
 8726SOL    HW137814   1.014   2.717   2.684  0.6894  1.3633 -0.7598
 8726SOL    HW237815   1.033   2.702   2.532  0.0467 -2.4765 -1.6126
 8727SOL     OW37816   2.543   3.434   4.293  0.0530  0.0790 -0.2283
 8727SOL    HW137817   2.531   3.421   4.200  0.1113 -1.6566  0.0126
 8727SOL    HW237818   2.483   3.508   4.305 -1.3576 -1.3116  1.3611
 8728SOL     OW37819   2.415   3.451   5.118  0.5817  0.2922 -0.6295
 8728SOL    HW137820   2.337   3.486   5.076  0.4642  0.5973 -0.1543
 8728SOL    HW237821   2.382   3.372   5.159 -0.5416  0.6398 -0.8742
 8729SOL     OW37822   0.248   3.741   0.720  0.6129 -0.4803 -0.2270
 8729SOL    HW137823   0.215   3.693   0.796 -1.0754  0.8726 -0.1047
 8729SOL    HW237824   0.343   3.732   0.727  0.4931 -1.0164  0.6574
 8730SOL     OW37825   3.083   2.450   7.579  0.5429 -0.0834 -0.3270
 8730SOL    HW137826   3.101   2.519   7.642  3.2462  2.0994 -3.4778
 8730SOL    HW237827   3.017   2.494   7.525  1.2519  2.5440  0.9533
 8731SOL     OW37828   3.835   0.195   6.935 -0.2756 -0.2351 -0.3797
 8731SOL    HW137829   3.790   0.117   6.968 -0.1265  0.3149  1.0994
 8731SOL    HW237830   3.764   0.251   6.905 -2.1170 -2.0256  0.6839
 8732SOL     OW37831   2.304   1.228   0.995 -0.5931 -0.2523 -0.6888
 8732SOL    HW137832   2.244   1.295   0.963 -0.5054  0.7316  1.1853
 8732SOL    HW237833   2.380   1.281   1.014 -1.5895  0.8721  0.1655
 8733SOL     OW37834   3.823   0.563   2.170  0.4916 -0.0378  0.0803
 8733SOL    HW137835   3.813   0.548   2.264 -0.8009 -1.2212 -0.2544
 8733SOL    HW237836   3.866   0.649   2.171 -2.6425  1.5136  0.5659
 8734SOL     OW37837   3.581   2.449  13.977 -0.1680  0.0384 -0.1260
 8734SOL    HW137838   3.659   2.469  14.029  0.6319 -1.6471 -0.6507
 8734SOL    HW237839   3.587   2.354  13.990  0.8201  0.1172 -0.0116
 8735SOL     OW37840   2.957   3.013   6.746  0.0486 -0.0048  0.0920
 8735SOL    HW137841   2.944   3.017   6.840 -2.2093 -1.4550 -0.1519
 8735SOL    HW237842   2.960   2.918   6.732  0.0221  0.0015  0.0449
 8736SOL     OW37843   4.725   2.870   3.190  0.0530 -0.2553  0.2670
 8736SOL    HW137844   0.051   2.925   3.238 -0.8163  1.1918 -0.2677
 8736SOL    HW237845   0.046   2.800   3.159 -2.1302 -0.2958 -3.6877
 8737SOL     OW37846   1.762   1.901  13.850  0.1763  0.3427  1.0229
 8737SOL    HW137847   1.677   1.918  13.889 -0.0267 -1.0350  1.2007
 8737SOL    HW237848   1.733   1.824  13.799 -2.6294  1.0842  1.5226
 8738SOL     OW37849   0.394   2.489   2.641  0.0937 -0.3588 -0.0784
 8738SOL    HW137850   0.489   2.498   2.640 -0.1151  1.8935 -0.2962
 8738SOL    HW237851   0.373   2.515   2.730  4.2109  0.7232  0.5832
 8739SOL     OW37852   1.262   4.627   7.405 -0.0125 -0.1975  0.1784
 8739SOL    HW137853   1.201   4.695   7.374 -2.1492 -0.8769  2.9591
 8739SOL    HW237854   1.215   4.544   7.400  0.1865 -0.2066 -1.8185
 8740SOL     OW37855   3.399   2.647   3.753  0.3962  0.1572 -0.4192
 8740SOL    HW137856   3.413   2.667   3.845 -0.1423 -0.2097 -0.2576
 8740SOL    HW237857   3.487   2.623   3.722  0.5733  1.5317 -0.9762
 8741SOL     OW37858   2.355   0.777   7.756 -0.4148 -0.1940  0.1823
 8741SOL    HW137859   2.262   0.773   7.781 -0.6386  0.2549 -0.5724
 8741SOL    HW237860   2.375   0.686   7.734  2.4059  0.8535 -1.4869
 8742SOL     OW37861   3.893   4.371   9.255 -0.0173 -0.2521 -0.3444
 8742SOL    HW137862   3.975   4.396   9.296  0.1900  1.1218 -1.6040
 8742SOL    HW237863   3.921   4.300   9.197 -2.9855 -2.2051  0.5941
 8743SOL     OW37864   4.659   1.668   1.758 -0.1399 -0.6729 -0.0936
 8743SOL    HW137865   4.610   1.587   1.745 -0.2421 -1.2424  3.8498
 8743SOL    HW237866   4.692   1.692   1.671  1.3904  2.4968  1.3668
 8744SOL     OW37867   4.306   3.769   3.810  0.2482  0.0236  0.6051
 8744SOL    HW137868   4.345   3.698   3.759 -0.7145  0.0976 -0.2329
 8744SOL    HW237869   4.358   3.765   3.890 -0.9208 -0.2848  1.3461
 8745SOL     OW37870   4.323   4.248   2.999  0.0475 -0.1248  0.4631
 8745SOL    HW137871   4.266   4.311   3.043  0.4079  0.3787  0.2131
 8745SOL    HW237872   4.318   4.281   2.909 -1.3560 -1.4196  0.0654
 8746SOL     OW37873   0.689   2.308   3.801  0.2893 -0.4009 -0.4848
 8746SOL    HW137874   0.603   2.325   3.762 -1.5094  0.7443  3.9058
 8746SOL    HW237875   0.746   2.350   3.737 -0.4339  3.6092  1.5100
 8747SOL     OW37876   4.289   0.800   7.741  0.6373 -0.4767 -0.5752
 8747SOL    HW137877   4.348   0.746   7.689  3.6252  1.0146  1.2791
 8747SOL    HW237878   4.200   0.774   7.718  0.1771 -0.1760  0.8550
 8748SOL     OW37879   4.142   4.094   5.397  0.3174 -0.1772  0.2532
 8748SOL    HW137880   4.081   4.106   5.470  0.0931  0.7514 -0.0897
 8748SOL    HW237881   4.082   4.089   5.323 -0.4019 -2.1495  0.9772
 8749SOL     OW37882   1.493   2.045   9.212  0.2470 -0.1503  0.4785
 8749SOL    HW137883   1.427   1.998   9.160 -1.5590  2.4135  0.4526
 8749SOL    HW237884   1.458   2.134   9.214  1.6170  0.3614  1.3254
 8750SOL     OW37885   0.418   0.670  14.090 -0.0791 -0.1162  0.2019
 8750SOL    HW137886   0.335   0.662  14.138  2.0658  1.1776  4.1615
 8750SOL    HW237887   0.465   0.726  14.152  2.6021 -0.5078 -1.4952
 8751SOL     OW37888   1.840   2.336  15.592 -0.0231 -0.1005 -0.2928
 8751SOL    HW137889   1.868   2.395  15.662 -0.6060 -1.6042  1.2243
 8751SOL    HW237890   1.817   2.404  15.528  1.0303 -0.3834 -0.9752
 8752SOL     OW37891   1.182   0.506   2.633  0.0087  0.1345  0.1008
 8752SOL    HW137892   1.186   0.527   2.726  1.6097  1.5419 -0.3001
 8752SOL    HW237893   1.089   0.493   2.617 -0.3019  0.0894  1.9225
 8753SOL     OW37894   0.479   0.199  11.695 -0.2547 -0.7490  0.1721
 8753SOL    HW137895   0.434   0.236  11.619 -1.6308  0.6759  1.6718
 8753SOL    HW237896   0.535   0.135  11.651 -0.8363 -0.2324 -1.3305
 8754SOL     OW37897   2.992   2.097  11.140  0.5966  0.3596  0.0443
 8754SOL    HW137898   3.050   2.029  11.174  0.5312  0.5564  0.5451
 8754SOL    HW237899   2.999   2.103  11.045 -0.6624  0.3904 -0.0478
 8755SOL     OW37900   3.165   2.697   7.664 -0.5381  0.2123 -0.0309
 8755SOL    HW137901   3.216   2.751   7.725 -0.5903  0.6804 -0.3999
 8755SOL    HW237902   3.211   2.721   7.584 -1.5329  0.3677 -0.5670
 8756SOL     OW37903   3.199   3.514   4.434 -0.1153 -0.2373 -0.2922
 8756SOL    HW137904   3.235   3.603   4.424  0.8471 -0.4426  1.3475
 8756SOL    HW237905   3.259   3.481   4.501  0.7863  0.0249 -0.9693
 8757SOL     OW37906   3.511   4.084   7.697 -0.3531  0.4098 -0.3682
 8757SOL    HW137907   3.516   4.167   7.649 -2.3700 -0.4109 -2.0068
 8757SOL    HW237908   3.420   4.055   7.685  0.0997 -1.6226  1.2067
 8758SOL     OW37909   4.275   4.643  10.122 -0.1188  0.1899  0.1892
 8758SOL    HW137910   4.185   4.669  10.101  0.1047  1.5846  0.9447
 8758SOL    HW237911   4.289   4.601  10.038  2.3495 -0.5956  0.9981
 8759SOL     OW37912   1.391   0.290  13.890  0.1098  0.0004  0.1049
 8759SOL    HW137913   1.449   0.313  13.962  3.9448 -0.7490 -2.7932
 8759SOL    HW237914   1.447   0.242  13.829  0.8294  1.2529 -0.2165
 8760SOL     OW37915   3.346   3.143   3.661 -0.0289 -0.0656  0.0048
 8760SOL    HW137916   3.327   3.220   3.607 -0.5966  1.3703  2.2366
 8760SOL    HW237917   3.267   3.091   3.649  0.6494 -1.0625 -0.1715
 8761SOL     OW37918   1.536   4.448   4.348  0.3637 -0.1488  0.0601
 8761SOL    HW137919   1.519   4.379   4.284  1.8169 -1.5642  1.1848
 8761SOL    HW237920   1.594   4.502   4.295  0.2623 -0.5669 -0.4694
 8762SOL     OW37921   2.116   1.188   8.245  0.1823  0.1390  0.3066
 8762SOL    HW137922   2.102   1.095   8.224 -0.7322  0.7340 -1.7503
 8762SOL    HW237923   2.084   1.232   8.166  0.7812  1.8735  1.0421
 8763SOL     OW37924   3.135   2.410  11.062  0.4409 -0.4438  0.5437
 8763SOL    HW137925   3.229   2.427  11.069  0.4570  0.6578 -2.0854
 8763SOL    HW237926   3.133   2.345  10.992  0.5324 -1.3359  1.3647
 8764SOL     OW37927   0.018   0.653  14.843 -0.3248  0.0073 -0.1286
 8764SOL    HW137928   0.058   0.688  14.764 -0.3318 -2.4604 -1.2314
 8764SOL    HW237929   0.052   0.565  14.828  1.0257  0.3456  0.9321
 8765SOL     OW37930   4.721   4.250   5.880 -0.0305 -0.5066  0.2220
 8765SOL    HW137931   0.032   4.331   5.898 -0.7736 -0.2920  1.3100
 8765SOL    HW237932   0.059   4.191   5.879  0.8814  0.6198  1.9472
 8766SOL     OW37933   0.528   2.731  12.420 -0.1125 -1.2824 -0.0938
 8766SOL    HW137934   0.521   2.732  12.325  2.0567 -1.0984 -0.2621
 8766SOL    HW237935   0.468   2.795  12.457 -0.7679 -1.6260 -0.5706
 8767SOL     OW37936   4.263   1.295   1.040 -0.1715 -0.3003 -0.3461
 8767SOL    HW137937   4.199   1.268   1.106 -0.0184  0.8487  0.2647
 8767SOL    HW237938   4.230   1.257   0.958  2.0130  1.0208 -1.8469
 8768SOL     OW37939   3.128   0.757  17.416  0.3686  0.6178  0.7878
 8768SOL    HW137940   3.129   0.771  17.510  3.6418  1.0392  0.6945
 8768SOL    HW237941   3.103   0.842  17.380 -0.6965  0.0245  0.1182
 8769SOL     OW37942   2.118   0.016   9.150 -0.0088  0.2243 -0.1741
 8769SOL    HW137943   2.206   4.719   9.164 -0.4123  0.1198  2.0783
 8769SOL    HW237944   2.062   4.716   9.218 -0.1373 -0.3114 -0.5694
 8770SOL     OW37945   3.729   0.660   4.362 -0.4843  0.2780  0.4607
 8770SOL    HW137946   3.654   0.677   4.306 -0.7583 -0.1111  0.7102
 8770SOL    HW237947   3.777   0.605   4.299  0.5989 -0.0906  1.5977
 8771SOL     OW37948   4.201   4.691   1.456 -0.6083 -0.3621  0.5082
 8771SOL    HW137949   4.276   4.640   1.425 -1.4091 -0.1904 -1.6975
 8771SOL    HW237950   4.197   0.022   1.389 -1.4910 -1.1122 -0.1852
 8772SOL     OW37951   1.636   2.515   8.242 -0.0583 -1.1052 -0.0286
 8772SOL    HW137952   1.565   2.513   8.178 -0.1148  1.0911 -0.0409
 8772SOL    HW237953   1.714   2.490   8.192  0.8481  0.0936  0.7743
 8773SOL     OW37954   1.218   0.710   7.044  0.0263 -0.3811 -0.4635
 8773SOL    HW137955   1.263   0.792   7.025 -2.2256  0.7511 -0.9157
 8773SOL    HW237956   1.182   0.708   6.955 -1.5028 -1.6417  0.1939
 8774SOL     OW37957   2.249   0.226   4.329 -0.7128 -0.1910 -0.2747
 8774SOL    HW137958   2.170   0.220   4.275  0.3253 -1.6532 -1.6634
 8774SOL    HW237959   2.267   0.318   4.309 -1.6515 -0.0496 -0.4695
 8775SOL     OW37960   3.724   2.797   2.656  0.7154  0.4670 -0.3058
 8775SOL    HW137961   3.796   2.736   2.642 -1.7601 -2.6638  0.6604
 8775SOL    HW237962   3.657   2.740   2.695 -0.1300  0.1689 -2.1761
 8776SOL     OW37963   1.667   3.020   2.017 -0.1988 -0.0124 -0.0116
 8776SOL    HW137964   1.706   3.101   2.049  0.8412  0.3209 -2.1204
 8776SOL    HW237965   1.604   3.071   1.965  0.7398 -0.3172 -1.4531
 8777SOL     OW37966   2.995   0.423  10.882  0.2629  0.2125 -0.0090
 8777SOL    HW137967   3.087   0.439  10.859  0.6131  0.3816  1.4890
 8777SOL    HW237968   2.954   0.504  10.853 -1.2954 -0.9892 -1.1789
 8778SOL     OW37969   3.949   2.376  10.191 -0.6565 -0.0043 -0.3571
 8778SOL    HW137970   4.040   2.371  10.161 -0.6852 -2.0233 -0.1338
 8778SOL    HW237971   3.946   2.460  10.236 -0.8158  0.1690 -0.6896
 8779SOL     OW37972   4.622   3.307   1.902 -0.0426  0.1747 -0.0293
 8779SOL    HW137973   4.577   3.228   1.871 -1.4142  1.1158 -0.4236
 8779SOL    HW237974   4.603   3.366   1.829 -3.0413 -1.4179 -0.5525
 8780SOL     OW37975   3.621   0.475  16.000 -0.3544 -0.0547  1.0249
 8780SOL    HW137976   3.696   0.501  16.054 -0.3977  0.3226  0.9020
 8780SOL    HW237977   3.631   0.381  15.990 -0.4259 -0.2070  2.3528
 8781SOL     OW37978   4.696   0.071   3.901 -0.5530  0.0684  0.8438
 8781SOL    HW137979   4.685   0.154   3.854 -1.9617 -0.3040  0.5183
 8781SOL    HW237980   0.034   0.102   3.951  1.0922 -0.9730 -1.0014
 8782SOL     OW37981   3.537   1.874   0.124 -0.0336 -0.6034 -0.8242
 8782SOL    HW137982   3.553   1.814   0.197  0.0489  0.7641  0.2779
 8782SOL    HW237983   3.604   1.841   0.065 -0.3043  0.9809 -1.9919
 8783SOL     OW37984   1.285   1.994  16.082 -0.5164 -0.0579 -0.2252
 8783SOL    HW137985   1.323   2.076  16.114  0.5651 -0.6734  0.0531
 8783SOL    HW237986   1.367   1.965  16.041 -0.4166 -1.3966  0.9037
 8784SOL     OW37987   1.065   1.370   3.662 -0.0916  0.2763 -0.3446
 8784SOL    HW137988   1.009   1.302   3.699 -1.2038  0.3379 -1.9242
 8784SOL    HW237989   1.105   1.338   3.582 -0.1438  2.1082 -1.1116
 8785SOL     OW37990   2.748   2.073   9.335 -0.5928 -0.3770 -0.1662
 8785SOL    HW137991   2.700   2.154   9.320 -0.6806 -0.3107  0.4875
 8785SOL    HW237992   2.707   2.036   9.414  0.7496  1.3997  1.3488
 8786SOL     OW37993   4.118   0.838   4.182  0.1411  0.5582  0.5309
 8786SOL    HW137994   4.147   0.776   4.115 -0.4417  2.2194 -1.2788
 8786SOL    HW237995   4.131   0.779   4.256  1.2935  0.7658  0.4897
 8787SOL     OW37996   4.051   2.714   5.584 -0.3957 -0.2002  0.0052
 8787SOL    HW137997   4.139   2.753   5.588 -0.7829  0.9902 -3.0120
 8787SOL    HW237998   4.073   2.628   5.548  1.1974 -0.2565  1.1174
 8788SOL     OW37999   4.293   2.374   4.076 -0.1482  0.2662  0.3205
 8788SOL    HW138000   4.205   2.382   4.039 -0.5481 -0.4390  1.1144
 8788SOL    HW238001   4.277   2.342   4.165  0.9207 -0.7678  0.1430
 8789SOL     OW38002   3.235   3.720   1.342  0.3575 -0.6533 -0.1508
 8789SOL    HW138003   3.230   3.642   1.398 -0.5709 -0.0281  0.6333
 8789SOL    HW238004   3.194   3.792   1.390  0.6730  0.1274 -1.0371
 8790SOL     OW38005   1.008   2.377   5.698 -0.3139 -0.6421 -0.2374
 8790SOL    HW138006   1.083   2.327   5.732 -0.8300 -1.3178 -0.0978
 8790SOL    HW238007   0.945   2.321   5.743 -1.1924  1.4388  1.1176
 8791SOL     OW38008   2.765   2.914   8.483 -0.3319  0.0237  0.2014
 8791SOL    HW138009   2.773   3.009   8.477  0.7581 -0.0871 -0.1305
 8791SOL    HW238010   2.848   2.891   8.441 -2.3735 -1.1824 -3.1678
 8792SOL     OW38011   2.280   3.695   5.011  0.2764 -0.0660  0.3993
 8792SOL    HW138012   2.242   3.703   4.923 -0.8734 -0.5958  0.8518
 8792SOL    HW238013   2.369   3.729   5.005  0.3246 -0.2230  0.1896
 8793SOL     OW38014   0.888   1.726  15.917 -0.2425 -0.3976 -0.5080
 8793SOL    HW138015   0.887   1.820  15.903 -0.4103 -0.1124  1.4351
 8793SOL    HW238016   0.896   1.693  15.828 -0.9236 -0.1524 -0.6585
 8794SOL     OW38017   0.911   4.015   4.259 -0.1891  0.2265 -0.1311
 8794SOL    HW138018   0.894   3.933   4.213  0.0890  1.9800 -3.3467
 8794SOL    HW238019   0.890   4.077   4.189 -0.2224 -0.3681 -0.6476
 8795SOL     OW38020   2.968   0.939   2.814 -0.4545  0.1984  0.0889
 8795SOL    HW138021   3.009   0.921   2.899 -0.0563 -3.2169 -0.8427
 8795SOL    HW238022   2.888   0.979   2.847 -1.4229  0.4851 -2.6502
 8796SOL     OW38023   1.796   3.893   7.973 -0.4144 -0.3620 -0.0475
 8796SOL    HW138024   1.775   3.853   8.058  1.2918 -0.7722  0.1759
 8796SOL    HW238025   1.789   3.988   7.979  1.0890 -0.3061  0.7249
 8797SOL     OW38026   4.063   4.429   3.006 -0.0740  0.2381 -0.0853
 8797SOL    HW138027   4.021   4.467   2.929 -0.5105 -0.9102 -0.4071
 8797SOL    HW238028   3.992   4.368   3.028 -1.3378  0.6422 -3.1238
 8798SOL     OW38029   4.504   4.247   6.632  0.1977  0.2674  0.2339
 8798SOL    HW138030   4.519   4.217   6.722  2.0975  1.1446  0.2173
 8798SOL    HW238031   4.593   4.240   6.598 -0.5351 -0.8010 -1.4363
 8799SOL     OW38032   3.678   2.396   0.983  0.3190  0.3079 -0.1080
 8799SOL    HW138033   3.645   2.485   0.968  1.9152  1.4807  3.3457
 8799SOL    HW238034   3.606   2.363   1.037 -0.9773  0.0375 -1.9748
 8800SOL     OW38035   3.515   4.422  11.852  0.0599 -0.2375  0.5206
 8800SOL    HW138036   3.466   4.443  11.931 -0.8276  1.6055 -0.5147
 8800SOL    HW238037   3.578   4.494  11.847 -1.9380  1.3580 -1.5461
 8801SOL     OW38038   0.718   4.570  10.068  0.1092 -0.0383 -0.3233
 8801SOL    HW138039   0.671   4.522  10.135 -2.0770  2.1698 -0.2463
 8801SOL    HW238040   0.675   4.545   9.986 -1.3122 -0.5287  0.5890
 8802SOL     OW38041   0.106   2.274   6.904 -0.8204  0.6837 -0.0898
 8802SOL    HW138042   0.138   2.256   6.816  1.3175  1.9484  0.4462
 8802SOL    HW238043   0.016   2.243   6.891 -0.7920 -0.2680  2.0279
 8803SOL     OW38044   1.985   1.681   1.398  0.5486  0.2505  0.1111
 8803SOL    HW138045   2.020   1.716   1.480  1.8428 -1.6873  0.3851
 8803SOL    HW238046   1.930   1.747   1.357  1.3994  0.9279  0.0509
 8804SOL     OW38047   2.391   2.246   7.168  0.1529 -0.4944  0.2767
 8804SOL    HW138048   2.320   2.219   7.227  0.7956 -0.3591  1.1186
 8804SOL    HW238049   2.371   2.339   7.177 -0.4243 -0.5304 -0.6516
 8805SOL     OW38050   2.338   3.022   7.374 -0.2098 -0.0347 -0.1799
 8805SOL    HW138051   2.323   3.094   7.436  2.5240  0.5882 -0.2601
 8805SOL    HW238052   2.410   3.056   7.321 -0.8300  1.8005  0.1214
 8806SOL     OW38053   3.198   1.476  10.193 -0.2900  0.0674 -0.1739
 8806SOL    HW138054   3.119   1.429  10.169 -0.3966  0.9873 -1.6826
 8806SOL    HW238055   3.255   1.401  10.173  1.7163  1.6284 -0.3306
 8807SOL     OW38056   1.822   1.607   2.562  0.1147 -0.0212 -0.0892
 8807SOL    HW138057   1.880   1.671   2.604 -1.8419  0.7590  1.3867
 8807SOL    HW238058   1.847   1.536   2.620 -0.6111  2.1563  2.8750
 8808SOL     OW38059   4.446   4.316   8.825  0.1431  1.0460 -0.2257
 8808SOL    HW138060   4.489   4.308   8.740 -0.6931 -0.3188 -0.5235
 8808SOL    HW238061   4.375   4.252   8.817  0.8875  0.0722  0.8639
 8809SOL     OW38062   3.270   3.785   4.061  0.7051  0.2064  0.3388
 8809SOL    HW138063   3.297   3.859   4.007  0.6637  1.0992  1.5536
 8809SOL    HW238064   3.343   3.725   4.042  0.4531 -0.6512  2.0443
 8810SOL     OW38065   4.492   1.495   8.541 -0.6954 -0.4618 -0.0288
 8810SOL    HW138066   4.470   1.574   8.590  0.9138  1.2165 -2.0272
 8810SOL    HW238067   4.586   1.503   8.526 -0.9424  0.3544 -1.1108
 8811SOL     OW38068   1.381   4.005   9.346 -0.2256 -0.1039  0.4165
 8811SOL    HW138069   1.398   4.058   9.424  0.8396  0.6462 -0.3337
 8811SOL    HW238070   1.440   4.040   9.279 -0.5545 -1.6174 -0.6530
 8812SOL     OW38071   1.879   3.128   5.542 -0.2541 -0.2357  0.3390
 8812SOL    HW138072   1.790   3.107   5.515 -0.9795  2.4286  0.6638
 8812SOL    HW238073   1.903   3.036   5.553 -1.6100 -0.7104 -0.7746
 8813SOL     OW38074   4.171   3.700  14.871 -0.0457  0.1403 -0.2772
 8813SOL    HW138075   4.127   3.640  14.810 -0.2743  1.7759 -1.7074
 8813SOL    HW238076   4.210   3.629  14.923  1.0462  0.4997 -0.5976
 8814SOL     OW38077   4.496   3.450   5.976 -0.4877 -0.7765 -0.0002
 8814SOL    HW138078   4.409   3.487   5.988 -1.5073 -2.9510 -0.7326
 8814SOL    HW238079   4.474   3.380   5.914 -0.6747  0.3212 -1.1698
 8815SOL     OW38080   1.789   4.155   7.955  0.0957 -0.0508 -0.2911
 8815SOL    HW138081   1.855   4.211   7.994  1.0269 -0.1791 -1.6749
 8815SOL    HW238082   1.812   4.151   7.862  0.7309 -1.1039 -0.0886
 8816SOL     OW38083   0.754   2.313   3.009 -0.1383 -0.2978 -0.2810
 8816SOL    HW138084   0.690   2.371   3.049 -0.6283 -1.3666  0.4817
 8816SOL    HW238085   0.828   2.370   2.990 -1.0742  1.2206  0.6664
 8817SOL     OW38086   0.995   1.557   8.394  0.4865 -0.5112  0.9554
 8817SOL    HW138087   0.944   1.531   8.317  2.0538 -0.1249 -0.2287
 8817SOL    HW238088   1.042   1.635   8.364  1.4076 -1.4695 -0.1037
 8818SOL     OW38089   0.594   2.277   5.191 -0.1108 -0.4197 -0.0761
 8818SOL    HW138090   0.587   2.274   5.096  3.0822  1.0412 -0.3546
 8818SOL    HW238091   0.690   2.273   5.197 -0.2342  1.4908  3.0644
 8819SOL     OW38092   4.002   1.956  11.627 -0.0431 -0.7628 -0.0902
 8819SOL    HW138093   3.963   1.875  11.660 -1.1350  0.2152  1.0513
 8819SOL    HW238094   4.077   1.928  11.574 -0.5709  0.8649 -1.6905
 8820SOL     OW38095   3.081   2.952  12.922 -0.2504 -0.2722 -0.1957
 8820SOL    HW138096   3.030   3.026  12.888 -0.8951 -1.2417 -1.3274
 8820SOL    HW238097   3.021   2.878  12.917 -1.3081  0.5545  0.1487
 8821SOL     OW38098   4.067   4.584   4.525 -0.0514 -0.1092  0.8540
 8821SOL    HW138099   4.162   4.574   4.533 -0.1523 -1.0103  0.8615
 8821SOL    HW238100   4.075   4.636   4.445 -0.1770  0.4537  1.2079
 8822SOL     OW38101   1.365   2.952   7.499 -0.0967 -0.3125  0.6044
 8822SOL    HW138102   1.322   2.943   7.413  2.6895 -0.7021 -0.7444
 8822SOL    HW238103   1.293   2.976   7.557  0.8353  1.8886  0.8625
 8823SOL     OW38104   2.961   0.454  12.923  0.0395 -0.5022  0.1623
 8823SOL    HW138105   2.908   0.380  12.955 -0.9326  0.6581  1.2450
 8823SOL    HW238106   3.021   0.458  12.998  0.0750 -0.9185  0.1573
 8824SOL     OW38107   1.490   3.458   8.721  0.6863  0.0116 -0.0478
 8824SOL    HW138108   1.432   3.483   8.792 -2.8760 -2.4723 -2.0652
 8824SOL    HW238109   1.492   3.362   8.720 -0.8648 -0.0049 -3.7861
 8825SOL     OW38110   0.188   2.830   8.463 -0.5984  0.2331 -0.3386
 8825SOL    HW138111   0.195   2.867   8.551 -0.1607  0.9917 -0.6893
 8825SOL    HW238112   0.208   2.738   8.481  2.2165  0.6469 -1.3313
 8826SOL     OW38113   3.368   2.209   7.378  0.0904 -0.1270 -0.3120
 8826SOL    HW138114   3.418   2.208   7.460 -0.2336 -0.6153 -0.1168
 8826SOL    HW238115   3.339   2.300   7.370  1.0968  0.0867 -1.5905
 8827SOL     OW38116   0.074   0.562   2.073 -0.5871  0.1116 -0.4514
 8827SOL    HW138117   0.147   0.622   2.055  0.4945 -1.5140 -1.4965
 8827SOL    HW238118   0.057   0.543   1.981  2.2177  0.0193 -0.9636
 8828SOL     OW38119   0.347   0.939  11.032  0.3970  0.1283  0.6044
 8828SOL    HW138120   0.317   0.891  11.109 -0.0953 -0.6637 -0.0806
 8828SOL    HW238121   0.353   0.870  10.967  2.3669 -0.1042  1.0432
 8829SOL     OW38122   1.197   4.689   3.614 -0.0422 -0.1806 -0.4775
 8829SOL    HW138123   1.274   4.667   3.666 -0.9860 -0.6513  0.7125
 8829SOL    HW238124   1.223   0.034   3.572  1.4923  1.0022  2.8437
 8830SOL     OW38125   4.248   0.234   2.929 -0.3559 -0.2079  0.4802
 8830SOL    HW138126   4.158   0.265   2.938  0.1298  1.0106  1.0350
 8830SOL    HW238127   4.248   0.154   2.983  1.0190  0.9954  2.2690
 8831SOL     OW38128   0.854   3.140   8.094  0.4018 -0.6232 -0.0149
 8831SOL    HW138129   0.879   3.227   8.124 -0.3699 -0.5346  0.3545
 8831SOL    HW238130   0.761   3.139   8.071  0.0568  1.2715  1.3032
 8832SOL     OW38131   2.128   3.426   9.944  0.8209  0.3266  1.0028
 8832SOL    HW138132   2.060   3.386   9.890 -0.6492  2.5818  1.2171
 8832SOL    HW238133   2.142   3.354  10.006 -0.5972  0.8881  1.9667
 8833SOL     OW38134   3.778   3.211   6.940  0.1382  0.4711  0.3253
 8833SOL    HW138135   3.827   3.131   6.928  0.5580  0.7731  0.0447
 8833SOL    HW238136   3.724   3.219   6.862  1.1668 -0.5886 -0.4820
 8834SOL     OW38137   1.754   4.160   5.942  0.1289 -0.3080  0.9532
 8834SOL    HW138138   1.700   4.171   5.864  0.8862  1.0787  0.6346
 8834SOL    HW238139   1.775   4.250   5.964 -0.2729  0.1518 -0.5643
 8835SOL     OW38140   1.983   1.223   7.348  0.0296  0.0759  0.6273
 8835SOL    HW138141   1.994   1.304   7.398  1.8269 -0.0351  0.4023
 8835SOL    HW238142   2.062   1.236   7.296 -0.2006  3.0577  0.9881
 8836SOL     OW38143   1.668   1.895   8.239  0.3238  0.1487 -0.0548
 8836SOL    HW138144   1.582   1.863   8.212  0.7063  0.0549 -1.1873
 8836SOL    HW238145   1.662   1.989   8.223  1.2645  0.2203 -0.0064
 8837SOL     OW38146   4.245   3.948  11.502  0.6764 -0.6728 -0.6846
 8837SOL    HW138147   4.162   3.911  11.531  0.6991 -0.8949 -0.9063
 8837SOL    HW238148   4.211   4.035  11.485 -1.9370 -1.3999  0.8692
 8838SOL     OW38149   0.193   4.410   1.232  0.1490  0.2248 -0.2374
 8838SOL    HW138150   0.229   4.342   1.288 -0.4322 -0.4965 -0.7522
 8838SOL    HW238151   0.273   4.463   1.226 -1.5435  2.5994 -1.8519
 8839SOL     OW38152   0.149   2.719   5.465 -0.5195 -0.0831 -0.3444
 8839SOL    HW138153   0.054   2.728   5.474 -0.4751 -0.7517  0.7740
 8839SOL    HW238154   0.155   2.722   5.370  0.0701  1.4875 -0.2509
 8840SOL     OW38155   0.693   2.457   4.888 -0.3022 -0.0574 -0.0764
 8840SOL    HW138156   0.627   2.389   4.906  0.0042 -0.3507 -0.0728
 8840SOL    HW238157   0.737   2.443   4.804 -0.7286 -0.2741 -0.2629
 8841SOL     OW38158   2.858   4.723   7.021 -0.1504  0.0524 -0.4700
 8841SOL    HW138159   2.952   4.703   7.014 -0.3808 -1.0986 -0.2675
 8841SOL    HW238160   2.825   4.637   6.995  0.1964  0.3449 -1.8725
 8842SOL     OW38161   0.897   0.448   2.768  0.5381 -0.0961  0.4253
 8842SOL    HW138162   0.926   0.508   2.837  1.4435 -1.5629  1.3282
 8842SOL    HW238163   0.843   0.388   2.819 -0.8258  0.4281 -0.3886
 8843SOL     OW38164   0.872   1.926   2.997  0.0492  0.0111  0.2624
 8843SOL    HW138165   0.807   1.928   2.927  0.6493  0.1698 -0.2994
 8843SOL    HW238166   0.939   1.981   2.956 -0.7052  0.8904  0.2231
 8844SOL     OW38167   0.150   3.266   6.335 -0.0124  0.1059 -0.6341
 8844SOL    HW138168   0.206   3.195   6.303 -0.3164 -0.1638 -0.5710
 8844SOL    HW238169   0.146   3.239   6.427  2.9229 -2.4672 -1.2910
 8845SOL     OW38170   4.669   1.485  11.326 -0.8197 -0.2860  0.3819
 8845SOL    HW138171   4.684   1.562  11.381  1.7259 -0.9676  0.6561
 8845SOL    HW238172   4.736   1.486  11.257 -1.5394 -0.8411 -0.3199
 8846SOL     OW38173   2.908   4.512  13.017 -0.3340  0.7944  0.0027
 8846SOL    HW138174   2.861   4.550  13.092  1.0294  2.4996 -0.0115
 8846SOL    HW238175   2.909   4.420  13.042  0.0930  0.7338 -0.2299
 8847SOL     OW38176   3.856   0.834  16.810 -0.0522  0.2295 -0.2292
 8847SOL    HW138177   3.949   0.853  16.822 -0.0405 -0.1733  0.3553
 8847SOL    HW238178   3.829   0.810  16.899 -1.0179  0.3225 -0.5039
 8848SOL     OW38179   2.511   3.103   6.043 -0.2171  0.0979  0.2840
 8848SOL    HW138180   2.463   3.086   5.962  0.9375  1.7354 -0.7333
 8848SOL    HW238181   2.447   3.149   6.097 -0.4333  0.5604 -0.3680
 8849SOL     OW38182   0.433   1.039   4.336 -0.3891  0.3358 -0.5683
 8849SOL    HW138183   0.440   1.095   4.259 -1.1008  0.9351 -0.1912
 8849SOL    HW238184   0.457   0.956   4.295  0.3148  1.0559 -1.5944
 8850SOL     OW38185   0.825   0.882   5.746  0.2292  0.2000  0.4394
 8850SOL    HW138186   0.842   0.803   5.798 -1.3477 -1.1491 -1.0870
 8850SOL    HW238187   0.907   0.927   5.768 -1.7214  2.6984  2.5373
 8851SOL     OW38188   3.873   3.410   3.567  0.1634 -0.4165 -0.6341
 8851SOL    HW138189   3.967   3.416   3.586  0.3540 -0.7008 -1.4897
 8851SOL    HW238190   3.848   3.501   3.554 -1.3073 -0.3926  2.3107
 8852SOL     OW38191   0.426   2.365   2.113 -0.3650  0.5912  0.3464
 8852SOL    HW138192   0.477   2.446   2.109 -2.8575  2.1378  0.1165
 8852SOL    HW238193   0.412   2.358   2.207 -1.3912 -0.8986  0.0774
 8853SOL     OW38194   0.320   0.374   6.309  0.1557 -0.0065 -0.5570
 8853SOL    HW138195   0.262   0.447   6.285  0.9910  1.1122  0.8181
 8853SOL    HW238196   0.279   0.339   6.387  1.1475  0.6757  0.2698
 8854SOL     OW38197   3.834   0.430   7.158  0.5460  0.2416  0.6980
 8854SOL    HW138198   3.900   0.363   7.139 -1.4761 -1.2744 -0.9371
 8854SOL    HW238199   3.799   0.394   7.239  1.6981 -2.4840  0.0174
 8855SOL     OW38200   0.158   0.378   7.085 -0.3670 -0.2653  0.2296
 8855SOL    HW138201   0.183   0.285   7.082 -0.4906 -0.2779 -0.3968
 8855SOL    HW238202   0.196   0.407   7.168  0.2772  2.8619 -1.1525
 8856SOL     OW38203   3.872   1.688   6.497 -0.5148  0.6860 -0.1083
 8856SOL    HW138204   3.967   1.683   6.494 -0.5055 -0.1346  1.3746
 8856SOL    HW238205   3.852   1.775   6.531  0.6571  1.1728 -0.6900
 8857SOL     OW38206   2.501   3.742   5.667 -0.3312  0.6730  0.0551
 8857SOL    HW138207   2.452   3.779   5.593  1.3304 -0.8246 -1.8017
 8857SOL    HW238208   2.587   3.782   5.651 -0.3753  0.8267  0.1955
 8858SOL     OW38209   2.721   4.138   0.169 -0.5336 -0.2344 -0.6735
 8858SOL    HW138210   2.633   4.175   0.164 -0.8032 -0.8413 -0.4491
 8858SOL    HW238211   2.698   4.057   0.124  0.8451 -0.6420 -0.6417
 8859SOL     OW38212   2.448   2.948   0.435 -0.3485  0.6060 -0.1795
 8859SOL    HW138213   2.452   2.930   0.529  0.0076 -1.0015 -0.5051
 8859SOL    HW238214   2.475   2.860   0.408  0.9074  0.2089  2.3830
 8860SOL     OW38215   0.149   2.968   5.003 -0.9604  0.2703  0.4170
 8860SOL    HW138216   0.085   3.025   5.046  0.2857 -0.7938  3.7114
 8860SOL    HW238217   0.233   2.972   5.049  0.2185 -1.8081 -1.5307
 8861SOL     OW38218   0.943   3.192   9.913  0.6508  0.8428  0.2531
 8861SOL    HW138219   0.929   3.105   9.876  0.6011  1.1930 -0.5304
 8861SOL    HW238220   0.966   3.174  10.005  1.5206  0.3160 -0.0645
 8862SOL     OW38221   0.076   0.180   9.078 -0.1454 -0.4339  0.1913
 8862SOL    HW138222   0.044   0.154   9.165 -1.3891  1.3363  0.2569
 8862SOL    HW238223   0.149   0.117   9.071 -0.8389 -1.2736  0.5063
 8863SOL     OW38224   3.968   0.462   7.888  0.1835 -0.6509 -0.0914
 8863SOL    HW138225   4.009   0.547   7.903 -1.2770 -0.1312  0.8928
 8863SOL    HW238226   4.041   0.421   7.840 -0.4055  0.6162 -2.0531
 8864SOL     OW38227   1.437   2.852  13.520 -0.3199  0.0670  0.1424
 8864SOL    HW138228   1.372   2.793  13.559 -0.6088  0.7191  0.6407
 8864SOL    HW238229   1.477   2.795  13.455 -2.4207  0.5772 -1.5861
 8865SOL     OW38230   1.979   3.497   6.796 -0.4136  0.0999 -0.1162
 8865SOL    HW138231   2.039   3.522   6.867 -1.1458  1.6332 -0.0599
 8865SOL    HW238232   2.032   3.537   6.728 -1.1216  1.0113 -0.1187
 8866SOL     OW38233   2.624   2.666  11.670  0.4673 -0.2966 -0.3140
 8866SOL    HW138234   2.657   2.608  11.740 -0.3296 -1.7142 -1.1168
 8866SOL    HW238235   2.655   2.753  11.696 -0.5302 -0.4178  1.2441
 8867SOL     OW38236   3.230   1.832  13.146  0.1831  0.1066  0.0554
 8867SOL    HW138237   3.313   1.808  13.187 -0.1383  0.9193  1.1663
 8867SOL    HW238238   3.246   1.806  13.055  1.0731  0.5516  0.0827
 8868SOL     OW38239   4.284   1.737  11.250 -0.1461  0.2504 -0.2414
 8868SOL    HW138240   4.192   1.743  11.223  0.0555 -0.1716 -1.0389
 8868SOL    HW238241   4.334   1.695  11.179  2.8124  1.5674  1.0718
 8869SOL     OW38242   0.405   2.578  15.763 -0.7325 -0.0290  0.2966
 8869SOL    HW138243   0.500   2.579  15.774 -0.7632  0.3877  0.5177
 8869SOL    HW238244   0.377   2.576  15.855 -0.0450 -0.7172  0.4898
 8870SOL     OW38245   0.724   2.550   7.820  0.7960 -0.3255  0.4444
 8870SOL    HW138246   0.795   2.486   7.808  0.3846 -1.2724  3.0420
 8870SOL    HW238247   0.685   2.558   7.733 -3.3432  1.0235  2.4530
 8871SOL     OW38248   4.461   4.247   8.478  0.4621  0.5785  0.1666
 8871SOL    HW138249   4.523   4.284   8.415 -0.9157  3.4447  0.4782
 8871SOL    HW238250   4.379   4.291   8.453 -0.4312 -0.5328  1.1312
 8872SOL     OW38251   3.028   1.157   7.298 -0.5135 -0.1949  0.5228
 8872SOL    HW138252   3.103   1.214   7.310  0.1695 -1.0710  0.3840
 8872SOL    HW238253   2.974   1.155   7.377  0.8933 -3.0698  1.3961
 8873SOL     OW38254   4.393   1.735   1.227  0.5580  0.3706 -0.2912
 8873SOL    HW138255   4.384   1.682   1.148 -1.1854  0.5192 -0.1884
 8873SOL    HW238256   4.405   1.662   1.287 -0.9648 -0.7306 -1.3100
 8874SOL     OW38257   3.097   1.686   0.760 -0.6035  0.1147 -0.0617
 8874SOL    HW138258   3.130   1.776   0.761  1.3642 -0.6010  0.8849
 8874SOL    HW238259   3.175   1.645   0.722  0.9699  0.1743  3.1549
 8875SOL     OW38260   0.448   3.421   0.042 -0.5613  0.4668  0.1171
 8875SOL    HW138261   0.538   3.451   0.030 -0.7590  1.5781  1.3196
 8875SOL    HW238262   0.461   3.327   0.055  0.3876  0.4523 -0.9507
 8876SOL     OW38263   2.488   0.003   6.461  0.1866  0.1956  0.1193
 8876SOL    HW138264   2.474   0.080   6.517 -0.1246 -0.5601  1.0884
 8876SOL    HW238265   2.570   4.709   6.500 -0.6025 -0.6197  1.1212
 8877SOL     OW38266   0.249   4.390   8.951  0.2022 -0.5183 -0.1917
 8877SOL    HW138267   0.265   4.318   8.890 -2.0088 -0.8727 -0.3676
 8877SOL    HW238268   0.164   4.413   8.914  0.0589 -0.3903  0.2125
 8878SOL     OW38269   0.653   0.406  16.668 -0.1888  0.0411 -0.2389
 8878SOL    HW138270   0.677   0.462  16.594  1.1519 -1.5921 -1.0389
 8878SOL    HW238271   0.561   0.398  16.645 -0.0853  1.9511 -1.3269
 8879SOL     OW38272   4.736   3.462   1.174  0.3638  0.2126 -0.4342
 8879SOL    HW138273   0.055   3.489   1.101 -0.2481  2.0911 -0.2003
 8879SOL    HW238274   4.688   3.544   1.176 -0.1599 -0.1058 -0.1155
 8880SOL     OW38275   2.604   3.425   3.460 -0.5741 -0.3373  0.2551
 8880SOL    HW138276   2.577   3.515   3.439 -1.4861 -0.9249 -1.0415
 8880SOL    HW238277   2.549   3.376   3.399 -0.6508  2.2837 -1.7593
 8881SOL     OW38278   0.203   1.240   3.896  0.2384 -0.1678  0.0643
 8881SOL    HW138279   0.191   1.263   3.988 -1.8312  1.3666 -0.5784
 8881SOL    HW238280   0.115   1.210   3.874  0.5227  0.2333 -1.6749
 8882SOL     OW38281   0.757   3.851  16.963 -0.1527 -0.2584 -0.5169
 8882SOL    HW138282   0.804   3.917  17.014 -0.8364  0.8609 -1.3460
 8882SOL    HW238283   0.762   3.887  16.875  1.5290  2.8615  0.8267
 8883SOL     OW38284   0.665   1.047  12.848  0.6891  0.0879 -0.3201
 8883SOL    HW138285   0.668   1.027  12.941 -0.5677  1.8966  0.1261
 8883SOL    HW238286   0.571   1.050  12.830  0.4196  0.1738  1.1131
 8884SOL     OW38287   4.703   4.628   9.119 -0.0256 -0.4483 -0.3081
 8884SOL    HW138288   4.706   4.568   9.044 -2.3509  0.6526 -1.2872
 8884SOL    HW238289   0.058   4.624   9.143 -0.1309  1.0148  0.3383
 8885SOL     OW38290   4.403   0.374   8.537 -0.0605  0.1992  0.1398
 8885SOL    HW138291   4.395   0.409   8.448 -2.6341 -1.2243 -0.2124
 8885SOL    HW238292   4.444   0.288   8.528 -2.7731 -1.2749  1.6393
 8886SOL     OW38293   0.164   4.483   5.866 -0.1513  0.2254 -0.2570
 8886SOL    HW138294   0.239   4.457   5.920 -0.0063  0.7836 -0.1926
 8886SOL    HW238295   0.108   4.539   5.920 -0.1233 -0.5688  0.5998
 8887SOL     OW38296   2.091   0.298   8.047 -0.1088  0.3908  0.0172
 8887SOL    HW138297   2.055   0.339   7.968  1.9715 -0.6051 -1.4649
 8887SOL    HW238298   2.143   0.368   8.086  0.5676  1.2584 -2.4339
 8888SOL     OW38299   0.884   0.784   0.762  0.5108  0.1064  0.4321
 8888SOL    HW138300   0.865   0.787   0.668 -1.6631  0.6723  0.8874
 8888SOL    HW238301   0.942   0.708   0.762  0.9524  0.4500 -0.7856
 8889SOL     OW38302   1.297   3.885   8.381  0.1995  0.0942  0.4081
 8889SOL    HW138303   1.375   3.839   8.413 -0.7848 -3.3980 -2.2601
 8889SOL    HW238304   1.244   3.813   8.347 -0.4305 -0.4855  2.6105
 8890SOL     OW38305   0.016   4.365   4.580  0.5776  0.1793 -0.6572
 8890SOL    HW138306   4.705   4.284   4.565 -1.1630  1.4350 -1.9906
 8890SOL    HW238307   0.040   4.338   4.668  0.0999 -3.3686 -1.6169
 8891SOL     OW38308   2.520   2.871   6.723 -0.0058  0.0335 -0.0993
 8891SOL    HW138309   2.437   2.918   6.719 -1.2208 -2.2557 -2.0917
 8891SOL    HW238310   2.585   2.938   6.702  2.3531 -2.0092  0.6579
 8892SOL     OW38311   2.948   3.102   2.115  0.1370  0.2361  0.1492
 8892SOL    HW138312   2.921   3.013   2.139 -0.6616  0.3509 -0.3366
 8892SOL    HW238313   3.004   3.085   2.040  1.9091 -1.1509  1.7715
 8893SOL     OW38314   4.140   0.736   2.104 -0.0735 -0.0642  0.2837
 8893SOL    HW138315   4.051   0.746   2.137  0.1579 -0.3152  0.9969
 8893SOL    HW238316   4.175   0.695   2.183  1.3989 -1.1320 -0.9345
 8894SOL     OW38317   0.241   2.198   1.365  0.0643  0.2700  0.6933
 8894SOL    HW138318   0.293   2.195   1.284 -0.7504  0.8355  0.1560
 8894SOL    HW238319   0.167   2.253   1.339 -1.2480 -3.0057 -2.6159
 8895SOL     OW38320   3.984   2.169   2.222 -0.2490  0.4386  0.4431
 8895SOL    HW138321   3.980   2.226   2.144 -0.1334  0.1086  0.1969
 8895SOL    HW238322   3.900   2.184   2.266 -0.5006 -0.7764  0.3675
 8896SOL     OW38323   2.397   0.482   7.461 -0.1180 -0.3672 -0.3649
 8896SOL    HW138324   2.394   0.495   7.555  1.6982  2.5302 -0.7045
 8896SOL    HW238325   2.392   0.387   7.453  0.8238 -0.2840 -1.8433
 8897SOL     OW38326   3.822   1.370   0.433 -0.4011 -0.4239  0.7060
 8897SOL    HW138327   3.903   1.420   0.419 -0.1149 -1.2768 -0.6971
 8897SOL    HW238328   3.789   1.417   0.510  0.3994  1.0696  0.1399
 8898SOL     OW38329   0.031   0.060   3.047 -0.2203 -0.8423 -0.1895
 8898SOL    HW138330   0.105   4.737   3.038  1.5851  1.6272 -2.2070
 8898SOL    HW238331   4.709   0.016   2.986 -1.7584  0.5550  0.2982
 8899SOL     OW38332   4.195   2.213  17.298  0.0792  0.0299 -0.7058
 8899SOL    HW138333   4.252   2.286  17.272 -2.3208  2.9172  2.1183
 8899SOL    HW238334   4.236   2.148  17.242  0.5070 -0.7808  0.5454
 8900SOL     OW38335   2.040   0.213   4.138  0.8868 -0.1973  0.1476
 8900SOL    HW138336   2.016   0.248   4.052 -1.0385 -0.3450  0.6391
 8900SOL    HW238337   1.953   0.183   4.164  0.7280 -0.7174 -0.9583
 8901SOL     OW38338   2.492   2.122   3.456 -0.2291  0.0750  0.0993
 8901SOL    HW138339   2.489   2.205   3.504  0.6603  0.9499 -1.3572
 8901SOL    HW238340   2.563   2.133   3.393 -0.9762  0.8886 -0.5916
 8902SOL     OW38341   3.132   3.179   6.170  0.0493  0.6068 -0.0371
 8902SOL    HW138342   3.226   3.169   6.154 -0.0212  1.9703 -1.2524
 8902SOL    HW238343   3.114   3.133   6.252 -0.9859 -0.2279 -0.7557
 8903SOL     OW38344   4.395   4.043   6.963 -0.3302  0.4321  0.0799
 8903SOL    HW138345   4.335   4.007   6.898 -0.8755  0.7663  0.4033
 8903SOL    HW238346   4.347   4.122   6.988 -2.8034 -1.1848  0.3744
 8904SOL     OW38347   3.645   4.138   8.169 -0.3406 -0.2078  0.1924
 8904SOL    HW138348   3.589   4.097   8.103  0.6059  1.2705 -1.5161
 8904SOL    HW238349   3.708   4.168   8.103 -1.7297 -1.8758 -1.8899
 8905SOL     OW38350   0.538   2.900   5.999 -0.1566 -0.0189 -0.3441
 8905SOL    HW138351   0.492   2.891   5.916 -1.6097 -0.9949  0.5718
 8905SOL    HW238352   0.609   2.963   5.984 -0.4269  0.2772 -0.3833
 8906SOL     OW38353   1.744   1.607   1.956  0.1677  0.0350 -0.2044
 8906SOL    HW138354   1.816   1.570   2.007  0.1630 -0.6250 -0.6790
 8906SOL    HW238355   1.670   1.606   2.016  0.1336  0.5910 -0.2330
 8907SOL     OW38356   2.619   0.828  16.652 -0.0003 -0.3745  0.1988
 8907SOL    HW138357   2.561   0.877  16.712 -0.3229 -0.1096 -0.3315
 8907SOL    HW238358   2.699   0.866  16.690  1.1352 -1.8743 -0.7277
 8908SOL     OW38359   1.590   1.770   4.252 -0.0483  0.5069  0.7850
 8908SOL    HW138360   1.664   1.711   4.263  1.4851  2.3607  0.3082
 8908SOL    HW238361   1.618   1.818   4.175 -2.5442  2.4136  1.0737
 8909SOL     OW38362   2.005   3.364  12.398 -0.0344  0.1109  0.0206
 8909SOL    HW138363   1.912   3.344  12.386 -0.1758  1.8895 -1.8775
 8909SOL    HW238364   2.023   3.383  12.306  1.0281 -0.4030  0.1202
 8910SOL     OW38365   1.872   1.105   9.250 -0.2940 -0.0558  0.6893
 8910SOL    HW138366   1.936   1.093   9.180 -1.0138  0.8339 -0.1216
 8910SOL    HW238367   1.931   1.098   9.325  1.3618  0.9398 -0.5230
 8911SOL     OW38368   2.634   2.028  13.787 -0.7856 -0.4563  0.1278
 8911SOL    HW138369   2.690   1.956  13.818 -0.6450  0.9037  3.0746
 8911SOL    HW238370   2.628   2.010  13.694  2.6366 -1.2774  0.0740
 8912SOL     OW38371   3.887   2.142   4.807  0.3258 -0.0236 -1.0888
 8912SOL    HW138372   3.843   2.178   4.731 -1.2031 -0.4924 -0.4226
 8912SOL    HW238373   3.861   2.051   4.789  2.7169 -0.6576 -1.3945
 8913SOL     OW38374   2.797   0.920   6.281  0.6628 -0.2250  0.8687
 8913SOL    HW138375   2.859   0.940   6.211 -0.2819 -1.7240 -0.4011
 8913SOL    HW238376   2.755   1.004   6.300 -2.4173 -1.5891  0.0524
 8914SOL     OW38377   1.560   2.520   9.761  0.2810  0.5258 -0.1977
 8914SOL    HW138378   1.635   2.483   9.806  1.1890 -1.7356 -3.5497
 8914SOL    HW238379   1.572   2.604   9.804 -3.2050  1.5141 -1.1337
 8915SOL     OW38380   2.524   1.271   7.318  0.2184 -0.0633 -0.0371
 8915SOL    HW138381   2.608   1.275   7.272 -1.1377 -0.3866 -2.4938
 8915SOL    HW238382   2.492   1.185   7.290 -1.2210  0.5698 -0.2960
 8916SOL     OW38383   3.555   0.402   7.670  0.1883 -0.2260 -0.0807
 8916SOL    HW138384   3.532   0.492   7.695  0.1867 -0.5064  0.9538
 8916SOL    HW238385   3.612   0.426   7.597  0.3345 -1.2903 -0.3223
 8917SOL     OW38386   0.416   0.514   7.642  0.6943 -0.6219 -0.0221
 8917SOL    HW138387   0.430   0.457   7.718 -1.6714  0.2594  1.0815
 8917SOL    HW238388   0.481   0.482   7.579 -0.0213 -2.0775 -0.0096
 8918SOL     OW38389   2.556   4.102   5.776 -0.3112  0.6447 -0.0425
 8918SOL    HW138390   2.641   4.145   5.763 -0.3096  0.2526 -1.3896
 8918SOL    HW238391   2.514   4.181   5.810 -0.6061  1.3783 -2.1111
 8919SOL     OW38392   3.037   4.441   8.422 -0.0638  0.0080 -0.4460
 8919SOL    HW138393   2.972   4.506   8.394 -0.7125  0.1620  1.4121
 8919SOL    HW238394   2.986   4.363   8.444  1.8653 -1.3986 -0.9949
 8920SOL     OW38395   0.436   2.828  12.134 -0.6621  0.7816  0.1499
 8920SOL    HW138396   0.368   2.885  12.098 -1.3252 -0.0645  0.0494
 8920SOL    HW238397   0.514   2.863  12.091 -1.4844 -1.0142 -2.7685
 8921SOL     OW38398   4.113   0.838  16.901  0.5310 -0.2166  0.3302
 8921SOL    HW138399   4.117   0.857  16.995 -1.8409 -0.4071  0.4690
 8921SOL    HW238400   4.072   0.752  16.915 -1.3288  0.8099  1.1601
 8922SOL     OW38401   3.564   2.341   0.040  0.1558  0.0603 -0.7118
 8922SOL    HW138402   3.642   2.317  17.738 -0.1481 -0.8279 -0.7651
 8922SOL    HW238403   3.575   2.275   0.108  0.1918 -0.2781 -1.0426
 8923SOL     OW38404   3.375   3.555   5.235  0.0187 -0.5563  0.0263
 8923SOL    HW138405   3.409   3.517   5.316  1.0493 -0.2796 -0.2707
 8923SOL    HW238406   3.445   3.617   5.212  0.6991 -1.7480 -1.1055
 8924SOL     OW38407   0.514   3.694  12.547 -0.3919  0.6979 -0.1199
 8924SOL    HW138408   0.609   3.700  12.555 -0.4697  1.9379 -0.0630
 8924SOL    HW238409   0.503   3.601  12.566  1.3416  0.5295 -0.0013
 8925SOL     OW38410   4.642   2.692  16.661  0.7723  0.3005 -0.0447
 8925SOL    HW138411   4.608   2.696  16.572  0.2141 -0.8690  0.1124
 8925SOL    HW238412   4.734   2.672  16.643  0.9256  1.3340 -0.4130
 8926SOL     OW38413   2.644   3.348   4.986 -0.0634 -0.0163  0.2618
 8926SOL    HW138414   2.595   3.267   4.973 -0.4225  0.1694  0.4409
 8926SOL    HW238415   2.583   3.390   5.047  0.5557 -0.4725  1.1822
 8927SOL     OW38416   1.929   4.466   3.423  0.7287  0.0100 -0.1282
 8927SOL    HW138417   1.913   4.505   3.508  0.6564  0.0530 -0.1614
 8927SOL    HW238418   1.903   4.377   3.447  0.6801 -0.1413 -0.7204
 8928SOL     OW38419   4.423   1.878  11.435  0.4465  0.6655  0.3328
 8928SOL    HW138420   4.367   1.833  11.372  1.1992  2.2427 -1.4583
 8928SOL    HW238421   4.372   1.856  11.513 -1.7852  3.6451 -0.2789
 8929SOL     OW38422   1.998   1.762  11.702 -0.2698  0.1487  0.0182
 8929SOL    HW138423   1.975   1.799  11.788  1.1360  1.3866 -0.1384
 8929SOL    HW238424   1.932   1.802  11.646  2.4411  1.4734 -2.2209
 8930SOL     OW38425   3.680   4.500   7.518 -0.2263 -0.3630 -0.6784
 8930SOL    HW138426   3.659   4.502   7.424  1.8189  0.2437 -1.1113
 8930SOL    HW238427   3.716   4.411   7.512 -0.6195 -0.7153  2.2252
 8931SOL     OW38428   2.027   0.436   6.580 -0.0752  0.9081  0.0605
 8931SOL    HW138429   2.004   0.505   6.641  1.2832  1.2129  0.2269
 8931SOL    HW238430   1.989   0.361   6.625  0.5795  0.4534 -0.1340
 8932SOL     OW38431   1.764   0.425   2.186 -0.2248  0.3944 -0.4354
 8932SOL    HW138432   1.766   0.518   2.207 -0.7180  0.0836  0.9531
 8932SOL    HW238433   1.820   0.388   2.254  1.4248  1.8321 -1.0058
 8933SOL     OW38434   0.981   0.531   1.072  0.0850  0.2030  0.2364
 8933SOL    HW138435   0.914   0.596   1.051  0.5554  0.0777 -1.6302
 8933SOL    HW238436   0.927   0.455   1.094  2.4651 -1.3357  0.7816
 8934SOL     OW38437   3.871   2.386   0.444  0.3514  0.3276  0.0780
 8934SOL    HW138438   3.825   2.302   0.451  0.3374  0.5439  2.4203
 8934SOL    HW238439   3.843   2.399   0.353 -0.5258 -2.2548 -0.0425
 8935SOL     OW38440   0.250   2.438   5.468  0.4741  1.0590 -0.0746
 8935SOL    HW138441   0.328   2.456   5.415  1.0450 -0.0752  0.3829
 8935SOL    HW238442   0.220   2.526   5.491 -0.3514  0.5642  0.7200
 8936SOL     OW38443   3.440   1.816   3.654 -0.4066 -0.0110  0.3414
 8936SOL    HW138444   3.439   1.738   3.598  0.1175  0.6486 -0.5810
 8936SOL    HW238445   3.354   1.855   3.638 -1.2650 -1.8456  0.4768
 8937SOL     OW38446   1.622   3.701   3.283  0.1220  0.5093 -0.1330
 8937SOL    HW138447   1.701   3.707   3.230 -0.9928 -0.9359 -1.9841
 8937SOL    HW238448   1.572   3.639   3.230 -0.1502 -0.7091  1.5445
 8938SOL     OW38449   1.077   2.619   8.198  0.3095 -0.0199 -0.6025
 8938SOL    HW138450   0.990   2.589   8.174  1.0163 -2.0768 -0.6199
 8938SOL    HW238451   1.061   2.654   8.286 -0.2882 -2.1895  0.1513
 8939SOL     OW38452   4.392   1.607   7.233  0.5599  0.3263  0.3591
 8939SOL    HW138453   4.455   1.676   7.211  1.0136 -0.1156  0.2501
 8939SOL    HW238454   4.440   1.530   7.265  0.1973  0.2189  0.6421
 8940SOL     OW38455   0.958   1.400   1.901  0.0531  0.1936  0.1770
 8940SOL    HW138456   1.012   1.404   1.822  0.4928 -0.6754  0.4344
 8940SOL    HW238457   0.874   1.371   1.865  0.9380 -1.1901 -0.7835
 8941SOL     OW38458   1.091   3.176   7.831 -0.9661 -0.4129  0.1522
 8941SOL    HW138459   1.056   3.156   7.917 -0.6011 -1.7024  0.0001
 8941SOL    HW238460   1.155   3.236   7.870  0.7158 -2.0777 -0.0527
 8942SOL     OW38461   2.741   4.420   5.716 -0.2761 -0.1564 -0.2655
 8942SOL    HW138462   2.666   4.396   5.661 -0.2278 -0.0742 -0.3691
 8942SOL    HW238463   2.705   4.475   5.786 -2.1099 -2.6852  0.7850
 8943SOL     OW38464   1.451   4.634  12.000 -0.5216  0.3116  0.0880
 8943SOL    HW138465   1.504   4.555  12.010  0.1699  0.7281 -0.3008
 8943SOL    HW238466   1.484   4.692  12.067 -1.5486  0.1603  0.7257
 8944SOL     OW38467   2.672   2.169   6.766 -0.2271 -0.0025 -0.6324
 8944SOL    HW138468   2.595   2.207   6.808  1.4149  1.1233  1.3840
 8944SOL    HW238469   2.640   2.122   6.689  0.2347  0.3749 -1.0475
 8945SOL     OW38470   1.806   0.565   1.766  0.2509 -0.3414  0.4428
 8945SOL    HW138471   1.782   0.546   1.675 -2.3853 -0.9670  1.2642
 8945SOL    HW238472   1.885   0.512   1.774  0.0114 -0.5705  1.2573
 8946SOL     OW38473   3.271   4.236   4.572  0.4216 -0.0755  0.5140
 8946SOL    HW138474   3.330   4.174   4.615 -0.4406 -1.2223  0.0580
 8946SOL    HW238475   3.196   4.234   4.631 -0.4015 -0.1532 -0.5324
 8947SOL     OW38476   1.959   1.574   9.983 -0.0502  0.0058  0.0565
 8947SOL    HW138477   1.895   1.526   9.931  0.5909 -1.1014  0.2814
 8947SOL    HW238478   1.946   1.664   9.953 -1.8517 -0.7109 -1.2717
 8948SOL     OW38479   2.792   2.318   3.576 -0.6337 -0.7786 -0.2995
 8948SOL    HW138480   2.860   2.350   3.635  1.0341 -0.9662 -2.1283
 8948SOL    HW238481   2.775   2.227   3.600 -1.8741 -0.4282  0.1729
 8949SOL     OW38482   1.995   2.131   6.891  0.4080  0.1176  0.5469
 8949SOL    HW138483   1.914   2.082   6.878  0.3808  0.7190 -1.5087
 8949SOL    HW238484   1.978   2.168   6.977 -0.7518  0.0244  0.3603
 8950SOL     OW38485   1.095   0.700   8.429 -0.3612  0.9402 -0.0287
 8950SOL    HW138486   1.044   0.735   8.502 -0.8180  0.1635  0.0181
 8950SOL    HW238487   1.034   0.723   8.359 -1.5451  0.5220  0.8596
 8951SOL     OW38488   4.072   3.867   2.853 -0.4599 -0.3374  0.1789
 8951SOL    HW138489   4.153   3.909   2.881 -1.5935  0.6694  1.9773
 8951SOL    HW238490   4.075   3.890   2.760 -1.7279 -0.7564  0.0259
 8952SOL     OW38491   3.967   2.660   7.609  0.3837  0.2365  0.1103
 8952SOL    HW138492   4.009   2.707   7.681  1.5513  0.3529 -0.6561
 8952SOL    HW238493   3.991   2.574   7.644 -0.1970 -1.0862 -2.7350
 8953SOL     OW38494   0.007   2.266   9.030 -0.0000 -0.0874  0.6841
 8953SOL    HW138495   0.005   2.244   9.123 -1.1728  0.4161  0.7815
 8953SOL    HW238496   0.080   2.206   9.013  1.0659  1.1085  0.9942
 8954SOL     OW38497   4.518   3.882   6.771 -0.1871  0.3400  0.1720
 8954SOL    HW138498   4.454   3.920   6.710  2.0232  3.0028 -0.5173
 8954SOL    HW238499   4.522   3.952   6.837  0.6996 -0.6886  1.2137
 8955SOL     OW38500   3.000   2.182   4.018 -0.3891  0.1842  0.3440
 8955SOL    HW138501   3.044   2.256   3.975  0.9602 -1.9892 -2.0144
 8955SOL    HW238502   2.929   2.226   4.066 -0.3780  1.2799 -0.6352
 8956SOL     OW38503   2.999   0.126   1.524  0.0973 -0.1180  0.5492
 8956SOL    HW138504   2.980   0.219   1.507 -0.3793 -0.6049 -1.5684
 8956SOL    HW238505   2.981   0.075   1.445  0.7050  1.0758 -0.3656
 8957SOL     OW38506   3.165   3.277   5.907  0.1629 -0.2661  0.0945
 8957SOL    HW138507   3.231   3.339   5.940  1.5858 -0.6717 -1.9647
 8957SOL    HW238508   3.140   3.229   5.987  0.3913 -1.4532 -0.5470
 8958SOL     OW38509   1.540   3.108  13.615  0.1373  0.0701  0.1790
 8958SOL    HW138510   1.538   3.074  13.704 -0.9065 -0.6880 -0.1350
 8958SOL    HW238511   1.504   3.033  13.569  1.0457 -2.2752  3.2561
 8959SOL     OW38512   3.957   0.400  10.555 -0.6327  0.1421  0.0959
 8959SOL    HW138513   3.959   0.312  10.518 -2.4458  0.1060  0.0633
 8959SOL    HW238514   3.871   0.436  10.533 -0.6911  1.5035  2.5314
 8960SOL     OW38515   0.315   2.171   6.334 -0.1016  0.2728  0.5297
 8960SOL    HW138516   0.236   2.223   6.330  0.5822  1.0838 -2.2013
 8960SOL    HW238517   0.344   2.199   6.421 -0.5477 -0.6532  0.9790
 8961SOL     OW38518   0.746   3.387   6.416 -0.1349  0.2418  0.5367
 8961SOL    HW138519   0.807   3.383   6.490  0.3016 -1.3604  0.0918
 8961SOL    HW238520   0.711   3.476   6.419  1.8768  1.0245  0.5220
 8962SOL     OW38521   3.801   0.609  16.153 -0.3425 -0.2259  0.0781
 8962SOL    HW138522   3.826   0.656  16.232 -0.4071  0.5099 -0.3425
 8962SOL    HW238523   3.886   0.596  16.109  0.6260  2.1685  1.2597
 8963SOL     OW38524   3.504   1.772   2.343  0.3781 -0.4221  0.2780
 8963SOL    HW138525   3.451   1.790   2.421  0.6779 -0.2162  0.4356
 8963SOL    HW238526   3.441   1.718   2.295  0.4126  0.5108 -0.8440
 8964SOL     OW38527   0.055   1.138   1.989 -0.0601 -0.6382  0.0495
 8964SOL    HW138528   0.065   1.068   1.924  1.8674 -1.2103  0.9707
 8964SOL    HW238529   0.110   1.101   2.058 -0.7896 -1.1504  0.3530
 8965SOL     OW38530   2.801   0.837   5.690  0.2060  0.2699  0.5852
 8965SOL    HW138531   2.891   0.852   5.662  0.3160 -0.2895  0.6401
 8965SOL    HW238532   2.803   0.744   5.665  1.6394  0.7230 -1.0107
 8966SOL     OW38533   1.909   3.296  10.268  0.4129  0.4577  0.2215
 8966SOL    HW138534   1.899   3.379  10.314  1.0662  0.8616 -0.3619
 8966SOL    HW238535   1.826   3.274  10.225 -0.7212 -0.0870  2.7144
 8967SOL     OW38536   2.954   3.613  15.348  0.6536 -0.0789  0.5668
 8967SOL    HW138537   3.038   3.659  15.343  0.1153  1.3386  4.1898
 8967SOL    HW238538   2.951   3.631  15.442  1.1347 -1.0282  0.7582
 8968SOL     OW38539   4.374   4.058   3.509 -0.1659 -0.1087  0.1635
 8968SOL    HW138540   4.407   4.018   3.428 -3.6456 -0.5091 -1.0581
 8968SOL    HW238541   4.458   4.074   3.553  0.0516 -0.7282 -0.0280
 8969SOL     OW38542   2.314   1.213   6.851  0.5516  0.0121 -0.2848
 8969SOL    HW138543   2.378   1.238   6.918  0.9627  0.0961 -0.7073
 8969SOL    HW238544   2.301   1.298   6.811  0.9765  0.5889  0.8106
 8970SOL     OW38545   3.734   2.097   1.458  0.4624 -0.3486  0.6311
 8970SOL    HW138546   3.763   2.013   1.423 -0.2045 -0.7115  0.9591
 8970SOL    HW238547   3.802   2.159   1.431  1.6155 -1.6694  0.4745
 8971SOL     OW38548   3.547   4.626  15.045  0.0930  0.3243 -0.3626
 8971SOL    HW138549   3.636   4.627  15.078 -0.1272 -0.3565  0.2390
 8971SOL    HW238550   3.497   4.668  15.115  0.5602 -0.8674  0.6793
 8972SOL     OW38551   3.588   2.328  13.558 -0.3038 -0.2242  0.1995
 8972SOL    HW138552   3.609   2.391  13.488  0.6198  0.1993  0.8594
 8972SOL    HW238553   3.532   2.377  13.619 -0.7427 -1.2100  0.5966
 8973SOL     OW38554   0.710   4.408   3.318  0.1982  0.0481 -0.1545
 8973SOL    HW138555   0.676   4.437   3.233 -2.5807 -1.3478  0.4787
 8973SOL    HW238556   0.634   4.430   3.371  0.3128 -1.3724  0.6112
 8974SOL     OW38557   2.581   2.507   3.821  0.4299 -0.4049 -0.2511
 8974SOL    HW138558   2.513   2.575   3.816  0.2843 -0.6907 -2.1935
 8974SOL    HW238559   2.611   2.509   3.730  1.2590  0.1605  0.0382
 8975SOL     OW38560   0.286   0.694   7.482 -0.3681  0.4732  0.0412
 8975SOL    HW138561   0.336   0.639   7.543 -1.0077 -0.5441 -0.3567
 8975SOL    HW238562   0.282   0.775   7.533  3.7058  1.1563 -0.7367
 8976SOL     OW38563   1.674   2.846  13.883 -0.1494 -0.0827 -0.0158
 8976SOL    HW138564   1.647   2.937  13.893  1.8539  0.6161 -0.9375
 8976SOL    HW238565   1.741   2.857  13.816  1.6435  0.3057  1.8375
 8977SOL     OW38566   3.629   4.067   2.508  0.3748  0.4870  0.5225
 8977SOL    HW138567   3.713   4.112   2.496  1.5087 -1.6852  0.4268
 8977SOL    HW238568   3.659   3.978   2.525 -1.5709 -0.3455 -0.4325
 8978SOL     OW38569   4.358   3.087  11.270  0.5411 -0.0371  0.0245
 8978SOL    HW138570   4.386   3.117  11.356 -0.8468 -0.0210  0.4719
 8978SOL    HW238571   4.391   3.155  11.211 -2.0394  1.2037  0.0083
 8979SOL     OW38572   3.482   3.760  10.095  0.9240  0.0571 -0.5460
 8979SOL    HW138573   3.437   3.761  10.179 -0.1938  0.0852 -1.1402
 8979SOL    HW238574   3.482   3.850  10.064  1.2750  0.1842 -0.1669
 8980SOL     OW38575   1.853   2.664   6.824 -0.0865 -0.6805  0.3939
 8980SOL    HW138576   1.933   2.707   6.854 -1.1728  1.5176  0.1667
 8980SOL    HW238577   1.882   2.573   6.819 -0.7016 -1.0361  3.2744
 8981SOL     OW38578   0.207   0.987   7.534 -0.1943 -0.3225  0.3917
 8981SOL    HW138579   0.122   1.024   7.509  0.3637  1.1466  0.6648
 8981SOL    HW238580   0.263   1.006   7.459 -1.1807  3.3001  0.5583
 8982SOL     OW38581   1.070   1.271   8.267 -0.9619  0.6287 -0.7519
 8982SOL    HW138582   0.979   1.277   8.296 -0.2764 -0.9569  1.8021
 8982SOL    HW238583   1.111   1.239   8.348 -2.2893 -1.1780 -0.7790
 8983SOL     OW38584   0.565   3.784   7.122 -0.0345 -0.5503  0.3507
 8983SOL    HW138585   0.499   3.823   7.065  0.0733  0.1623  0.7103
 8983SOL    HW238586   0.607   3.731   7.054 -2.4402 -1.2801 -0.5335
 8984SOL     OW38587   3.397   4.604   7.182  0.4733 -0.2983  0.1730
 8984SOL    HW138588   3.417   4.616   7.275 -0.5506 -0.8900  0.4586
 8984SOL    HW238589   3.358   4.688   7.158  0.9460 -0.0620  0.2329
 8985SOL     OW38590   1.536   3.885   4.429 -0.0480  0.0529 -0.0666
 8985SOL    HW138591   1.593   3.943   4.378 -2.2598  0.1559 -2.4414
 8985SOL    HW238592   1.447   3.901   4.397  0.4547 -0.6413 -1.7926
 8986SOL     OW38593   0.168   1.065   9.466  0.2553  0.0748  0.0158
 8986SOL    HW138594   0.245   1.060   9.524  1.2474  0.5844 -1.2529
 8986SOL    HW238595   0.208   1.119   9.398 -1.5203  0.5862 -0.6053
 8987SOL     OW38596   0.134   1.061   3.395  0.2005 -0.7565  0.0075
 8987SOL    HW138597   0.178   1.061   3.480 -1.2411 -1.3038  0.7633
 8987SOL    HW238598   0.135   0.966   3.379 -0.7707 -0.8102  0.2777
 8988SOL     OW38599   2.625   4.550   8.060 -0.7331 -0.3595  0.2947
 8988SOL    HW138600   2.679   4.525   7.985 -0.4783  1.0315  0.0173
 8988SOL    HW238601   2.553   4.594   8.015 -0.4173 -0.1458  0.0032
 8989SOL     OW38602   1.625   3.387   8.997  0.3279  0.3701  0.3048
 8989SOL    HW138603   1.617   3.329   8.921 -0.9392  1.2339 -0.2274
 8989SOL    HW238604   1.534   3.394   9.024  0.6729 -0.9071  1.7649
 8990SOL     OW38605   0.451   0.219   3.345  0.0587 -0.0624  0.2379
 8990SOL    HW138606   0.400   0.192   3.421  1.0538  2.3979  1.7595
 8990SOL    HW238607   0.459   0.146   3.284 -0.2400 -0.0662  0.2032
 8991SOL     OW38608   1.431   0.494   7.394  0.0543  0.3733 -0.5681
 8991SOL    HW138609   1.381   0.546   7.331 -0.8287 -0.1310 -0.2720
 8991SOL    HW238610   1.505   0.549   7.420  0.9673 -1.5877  0.9717
 8992SOL     OW38611   0.146   3.033  13.267  0.2598 -0.5500 -0.2453
 8992SOL    HW138612   0.111   3.079  13.343  2.9682 -0.2102  0.8028
 8992SOL    HW238613   0.105   3.074  13.191  0.4031 -0.8240 -0.4726
 8993SOL     OW38614   4.059   0.222   5.381 -0.5122 -0.2433  0.1377
 8993SOL    HW138615   4.140   0.176   5.361 -0.1299  1.0797 -1.3546
 8993SOL    HW238616   4.099   0.309   5.391 -1.6060  0.2008  0.7300
 8994SOL     OW38617   4.725   2.286  12.683  0.3981 -0.0470  0.0163
 8994SOL    HW138618   4.734   2.192  12.674 -1.2454 -0.1831 -0.2212
 8994SOL    HW238619   4.677   2.320  12.608 -0.8428 -1.6347  0.1011
 8995SOL     OW38620   3.517   2.347   4.113 -0.0177 -0.3632  0.6777
 8995SOL    HW138621   3.583   2.278   4.115  0.6455  0.2515  0.0899
 8995SOL    HW238622   3.569   2.410   4.063  0.6516 -1.9513 -0.6455
 8996SOL     OW38623   2.315   3.744  11.713  0.2388 -0.2969  0.6692
 8996SOL    HW138624   2.265   3.789  11.781 -1.9682  0.2071 -1.3052
 8996SOL    HW238625   2.403   3.734  11.750  1.6244  1.3549 -2.2565
 8997SOL     OW38626   3.586   4.021  11.390 -0.0901  0.7466  0.9019
 8997SOL    HW138627   3.638   4.037  11.469  1.1869  1.4082 -0.0739
 8997SOL    HW238628   3.503   4.063  11.413 -0.1371  0.6784  0.8579
 8998SOL     OW38629   0.623   2.750  17.319 -0.0359  0.5638 -0.2696
 8998SOL    HW138630   0.606   2.841  17.298 -0.2217  0.9442  1.5352
 8998SOL    HW238631   0.707   2.742  17.274 -1.0578  0.4442 -2.1517
 8999SOL     OW38632   3.749   0.715   6.250  0.1700  0.0660  0.4417
 8999SOL    HW138633   3.833   0.669   6.249 -0.0321 -0.2565 -2.5095
 8999SOL    HW238634   3.700   0.673   6.320 -0.1491  0.7272  0.6119
 9000SOL     OW38635   4.489   0.082  12.042 -0.2060  0.6543 -0.1161
 9000SOL    HW138636   4.542   0.065  11.965  1.3782  1.7572  0.7433
 9000SOL    HW238637   4.445   4.734  12.046 -0.5498  0.8609  0.4433
 9001SOL     OW38638   0.115   3.336   2.460 -0.2440 -0.5797 -0.6797
 9001SOL    HW138639   0.181   3.365   2.522 -0.0916 -0.8612 -0.7066
 9001SOL    HW238640   0.166   3.282   2.399  1.7590  2.9804 -2.1565
 9002SOL     OW38641   2.166   0.329   5.507  0.7564  0.0909 -0.1314
 9002SOL    HW138642   2.194   0.289   5.589 -1.0970  1.5496  1.2185
 9002SOL    HW238643   2.250   0.345   5.465  0.4672  2.0879  0.0598
 9003SOL     OW38644   0.196   3.715   2.639  0.6562 -0.1748  0.7158
 9003SOL    HW138645   0.267   3.779   2.646  0.0716  0.5415  0.1735
 9003SOL    HW238646   0.237   3.631   2.656 -0.5643 -1.2252 -1.5266
 9004SOL     OW38647   1.135   0.641   3.277 -0.8799  0.1261 -0.2177
 9004SOL    HW138648   1.102   0.715   3.226  0.3440  0.1983 -0.9046
 9004SOL    HW238649   1.075   0.636   3.352 -3.7835 -3.2776 -2.7955
 9005SOL     OW38650   2.664   0.883   5.988 -0.0733 -0.4859  0.4907
 9005SOL    HW138651   2.587   0.939   5.991  0.1193 -0.1270 -0.9779
 9005SOL    HW238652   2.737   0.930   6.028  0.0588 -0.1928 -0.0911
 9006SOL     OW38653   4.086   2.464   5.482  0.2403  0.2517 -0.4056
 9006SOL    HW138654   3.994   2.449   5.458  0.2743 -0.2204 -0.2448
 9006SOL    HW238655   4.118   2.374   5.489  1.4303  0.7788  0.8759
 9007SOL     OW38656   4.452   1.232   4.964 -0.5206 -0.1737  0.4688
 9007SOL    HW138657   4.406   1.238   4.880 -1.3710  2.5990  1.1154
 9007SOL    HW238658   4.535   1.192   4.937  0.0326  1.2607  0.0302
 9008SOL     OW38659   3.920   2.922   5.344  0.0824  0.3828  0.3305
 9008SOL    HW138660   3.906   2.900   5.437 -0.0084 -0.5982  0.0829
 9008SOL    HW238661   3.836   2.951   5.309 -0.4394  0.5456  1.6923
 9009SOL     OW38662   2.865   2.842   2.173 -0.5281 -0.4208  0.2714
 9009SOL    HW138663   2.849   2.748   2.159  0.1800 -0.3924 -0.7660
 9009SOL    HW238664   2.852   2.865   2.265  1.3439  0.6936  0.2662
 9010SOL     OW38665   3.133   1.311  12.667 -0.3279 -0.2470 -0.1650
 9010SOL    HW138666   3.086   1.239  12.709  0.0888  0.1297  0.9478
 9010SOL    HW238667   3.141   1.379  12.735 -0.5922 -1.7057  1.3233
 9011SOL     OW38668   1.015   1.245   2.358 -0.1701 -0.5419  0.8074
 9011SOL    HW138669   1.049   1.252   2.268 -2.7183 -0.0416 -0.1139
 9011SOL    HW238670   1.090   1.215   2.409 -1.5058 -0.5953  2.7078
 9012SOL     OW38671   0.083   1.024   7.150 -0.0377  0.0422 -0.4714
 9012SOL    HW138672   0.029   1.064   7.218  2.0159  1.0640  0.5920
 9012SOL    HW238673   0.016   0.990   7.091 -0.6265 -0.7720  0.6816
 9013SOL     OW38674   2.622   4.717   7.188 -0.3230  0.7828 -0.1472
 9013SOL    HW138675   2.655   4.666   7.261 -1.9848  1.7459  1.2730
 9013SOL    HW238676   2.694   4.708   7.125 -0.7568  0.8047 -0.6475
 9014SOL     OW38677   3.299   3.709   0.031 -0.4177 -0.2640 -0.0823
 9014SOL    HW138678   3.352   3.701   0.110  0.1134 -0.8268 -0.4942
 9014SOL    HW238679   3.218   3.667   0.059 -1.1271  1.1451  0.0138
 9015SOL     OW38680   1.588   2.624   2.822  0.2539  0.7374  0.3068
 9015SOL    HW138681   1.604   2.532   2.800  0.8338  1.2261 -1.2730
 9015SOL    HW238682   1.494   2.636   2.809  0.3587  1.3102  0.0759
 9016SOL     OW38683   3.606   1.343   7.317  0.3591 -0.2207  0.3319
 9016SOL    HW138684   3.533   1.399   7.292  0.6890  1.1920  2.6048
 9016SOL    HW238685   3.650   1.402   7.378  0.7043  1.2431 -1.3214
 9017SOL     OW38686   2.127   0.163  16.898  0.2591 -0.1439 -0.8568
 9017SOL    HW138687   2.067   0.221  16.945 -0.5128 -1.9807  0.4026
 9017SOL    HW238688   2.074   0.134  16.823  0.1925 -1.8931 -0.1268
 9018SOL     OW38689   2.529   1.166   2.926  0.3767  0.1777  0.5002
 9018SOL    HW138690   2.556   1.142   2.837  1.4134  2.9160  0.0524
 9018SOL    HW238691   2.612   1.176   2.973  0.6818 -0.4836  0.0979
 9019SOL     OW38692   0.308   1.320   9.327  0.6971 -0.1805 -0.3172
 9019SOL    HW138693   0.356   1.373   9.391  1.0124 -0.6571 -0.1619
 9019SOL    HW238694   0.248   1.382   9.286 -0.0608 -0.6489  0.0753
 9020SOL     OW38695   2.762   2.457  11.822  0.4281 -0.9465  0.2476
 9020SOL    HW138696   2.782   2.399  11.748  0.7462  0.7561 -1.0043
 9020SOL    HW238697   2.837   2.517  11.821 -0.2001 -0.1989 -2.9368
 9021SOL     OW38698   4.199   1.426   4.644 -0.6502 -0.3929  0.0160
 9021SOL    HW138699   4.157   1.484   4.707 -1.1098 -0.8846  0.1576
 9021SOL    HW238700   4.247   1.356   4.688 -1.1387  0.8481  2.5387
 9022SOL     OW38701   3.940   3.995  12.403  0.3617  0.9210 -0.0184
 9022SOL    HW138702   3.915   4.081  12.436  0.5080  0.7202  0.6154
 9022SOL    HW238703   3.965   4.028  12.316  0.9445 -2.3437 -1.0854
 9023SOL     OW38704   0.990   3.193   6.937  0.5337  0.7809  0.7822
 9023SOL    HW138705   1.055   3.132   6.972 -0.3562 -0.4913  0.2302
 9023SOL    HW238706   0.926   3.192   7.009 -2.9325 -0.6986 -2.3214
 9024SOL     OW38707   2.527   3.119   6.367  0.3215 -0.0565 -0.4331
 9024SOL    HW138708   2.564   3.039   6.330 -1.0273 -1.3200  0.9574
 9024SOL    HW238709   2.532   3.102   6.462  0.7538  2.9488  0.0792
 9025SOL     OW38710   0.383   2.885   3.467 -0.1393 -0.1223 -0.1001
 9025SOL    HW138711   0.424   2.827   3.404 -1.3854 -0.0727 -0.9636
 9025SOL    HW238712   0.415   2.967   3.430  1.4238 -0.2878  0.8922
 9026SOL     OW38713   1.064   3.014   4.943  0.3243  0.1132 -0.3431
 9026SOL    HW138714   0.973   3.034   4.968  0.2756 -0.5319  0.0066
 9026SOL    HW238715   1.103   3.034   5.028  3.1450 -0.9837 -1.3958
 9027SOL     OW38716   2.013   2.670   3.732 -0.4414  0.3134 -0.6904
 9027SOL    HW138717   2.060   2.627   3.802 -0.1889 -1.0171 -1.6752
 9027SOL    HW238718   1.930   2.622   3.731  1.0517 -2.2196 -2.1893
 9028SOL     OW38719   0.117   3.431   4.628 -0.5018 -0.4289  0.4702
 9028SOL    HW138720   0.103   3.367   4.559  1.5665  0.1731 -0.5067
 9028SOL    HW238721   0.210   3.417   4.646 -0.1792  1.1340  0.0583
 9029SOL     OW38722   3.369   3.633   8.472  0.7525 -0.0936  0.9823
 9029SOL    HW138723   3.421   3.558   8.442  2.3720  1.9104 -1.2314
 9029SOL    HW238724   3.438   3.698   8.460  1.5199 -1.1406 -0.3774
 9030SOL     OW38725   1.181   2.954   6.835  0.4468 -0.1582  0.0211
 9030SOL    HW138726   1.104   2.917   6.880  0.4974 -2.3118 -1.6707
 9030SOL    HW238727   1.230   2.875   6.813 -0.7203 -0.4240 -1.6283
 9031SOL     OW38728   3.902   0.449   0.389 -0.0367  0.8471 -0.2621
 9031SOL    HW138729   3.864   0.361   0.383  0.7846  0.5424 -0.9220
 9031SOL    HW238730   3.982   0.451   0.337  1.4123  0.1413  1.8971
 9032SOL     OW38731   0.591   1.142  15.228  0.1475 -0.1960 -0.4609
 9032SOL    HW138732   0.667   1.089  15.250 -0.8830 -2.1046 -1.4592
 9032SOL    HW238733   0.519   1.110  15.282  0.3574 -0.6455 -0.4516
 9033SOL     OW38734   1.846   4.453  12.334  0.2789 -0.1432  0.5808
 9033SOL    HW138735   1.799   4.372  12.311 -2.3712  1.7633 -0.6833
 9033SOL    HW238736   1.778   4.516  12.313 -0.8329 -0.9852  1.6443
 9034SOL     OW38737   4.110   3.437   5.714  0.8469  0.2191 -0.3457
 9034SOL    HW138738   4.030   3.398   5.748  1.6383 -2.5912 -1.7616
 9034SOL    HW238739   4.177   3.390   5.764 -0.1367  0.1645  0.9215
 9035SOL     OW38740   1.319   1.869   0.332  0.5425  0.2271  0.5367
 9035SOL    HW138741   1.271   1.945   0.366 -1.0311 -1.0787  1.2350
 9035SOL    HW238742   1.368   1.906   0.258 -2.2788  1.9321 -0.5019
 9036SOL     OW38743   3.130   3.244   8.243 -0.2538  0.5359  0.1569
 9036SOL    HW138744   3.117   3.167   8.298 -0.4413  1.4256  1.3657
 9036SOL    HW238745   3.090   3.315   8.294 -1.7503  0.5190 -0.9893
 9037SOL     OW38746   2.000   2.445   3.465 -0.3594  0.4979  0.4032
 9037SOL    HW138747   1.958   2.369   3.506 -1.9398  0.1023 -1.8885
 9037SOL    HW238748   2.091   2.445   3.494  0.1021  0.5143 -1.0241
 9038SOL     OW38749   2.677   0.875   4.681 -0.6681 -0.1557  0.0007
 9038SOL    HW138750   2.649   0.894   4.771  0.5051 -0.0160  0.3249
 9038SOL    HW238751   2.720   0.791   4.695 -1.0965 -0.3603  0.1102
 9039SOL     OW38752   3.484   1.186  12.139 -0.5187  0.3439  0.3671
 9039SOL    HW138753   3.394   1.198  12.107  0.1000  2.2257 -0.6272
 9039SOL    HW238754   3.498   1.092  12.155 -1.0812  0.0733 -0.7439
 9040SOL     OW38755   2.708   3.437   6.412 -0.6673 -0.4317 -0.1929
 9040SOL    HW138756   2.787   3.414   6.361  0.2952  1.4779  0.4476
 9040SOL    HW238757   2.630   3.393   6.379  0.4683 -1.1432 -1.9549
 9041SOL     OW38758   3.780   1.966   8.432 -0.1614 -0.7914 -0.5905
 9041SOL    HW138759   3.800   1.915   8.510  0.7642 -0.9478 -0.9259
 9041SOL    HW238760   3.746   1.891   8.383  1.1287 -0.0814 -2.5530
 9042SOL     OW38761   2.621   1.618   8.277  0.1391  0.1931 -0.5007
 9042SOL    HW138762   2.590   1.574   8.198  1.0724 -3.6127  1.2389
 9042SOL    HW238763   2.603   1.554   8.347 -3.1133  1.5109 -0.1395
 9043SOL     OW38764   1.239   1.185   8.516 -0.8310 -0.3177 -0.3149
 9043SOL    HW138765   1.208   1.125   8.584 -1.1017 -2.0354 -1.9853
 9043SOL    HW238766   1.241   1.269   8.562  0.6212  1.2165 -3.2150
 9044SOL     OW38767   0.611   3.598   1.017  0.8689 -0.6397  0.1730
 9044SOL    HW138768   0.649   3.642   1.093 -1.6495  1.6711  0.0933
 9044SOL    HW238769   0.678   3.531   1.002  0.2879 -2.1379  4.3330
 9045SOL     OW38770   4.008   2.992   5.767 -0.4679 -0.1664 -0.0841
 9045SOL    HW138771   3.964   3.003   5.851  0.4175  0.4407  0.3065
 9045SOL    HW238772   3.943   2.955   5.708  0.9295 -2.7840  0.0018
 9046SOL     OW38773   3.373   4.171   4.104  0.4292  0.3164  0.6967
 9046SOL    HW138774   3.370   4.096   4.162 -1.4978 -0.4914 -0.4395
 9046SOL    HW238775   3.384   4.240   4.170  1.6812 -0.3305  1.1480
 9047SOL     OW38776   0.910   1.825   3.438  0.1161  0.2515 -0.4690
 9047SOL    HW138777   0.960   1.744   3.436  1.2558  0.9356  0.3911
 9047SOL    HW238778   0.926   1.852   3.529 -1.8733 -1.4042  0.3671
 9048SOL     OW38779   1.690   4.251   1.599 -0.3700 -0.3457  0.0465
 9048SOL    HW138780   1.783   4.271   1.592 -0.9264  2.2784  0.4048
 9048SOL    HW238781   1.677   4.206   1.515  0.4966 -0.8103  0.1577
 9049SOL     OW38782   4.441   1.117   6.586 -0.1351  0.3622 -0.4406
 9049SOL    HW138783   4.498   1.129   6.510 -0.7002 -3.1793 -1.4324
 9049SOL    HW238784   4.406   1.031   6.561 -0.3250 -0.5215  2.8766
 9050SOL     OW38785   4.153   1.054  10.010  0.1984  0.2373 -0.3424
 9050SOL    HW138786   4.100   1.106  10.071 -0.3481  0.2654 -0.8353
 9050SOL    HW238787   4.197   0.987  10.062 -0.9290  0.4577  0.9123
 9051SOL     OW38788   2.848   1.498  15.229  0.2670 -0.0693  0.1629
 9051SOL    HW138789   2.817   1.458  15.148  0.5072  1.0541 -0.4927
 9051SOL    HW238790   2.874   1.585  15.199 -0.2812 -0.5070 -1.5605
 9052SOL     OW38791   0.572   2.139   0.496  0.2920 -0.3639  0.0132
 9052SOL    HW138792   0.642   2.168   0.438 -1.0620 -0.5185 -1.6866
 9052SOL    HW238793   0.633   2.099   0.558  1.4233  2.0723  0.4896
 9053SOL     OW38794   4.365   0.998  16.595  0.1778  0.1083  0.1383
 9053SOL    HW138795   4.407   1.032  16.674  0.1382  0.4613  0.0092
 9053SOL    HW238796   4.368   0.902  16.596  0.3920  0.1024 -0.9693
 9054SOL     OW38797   2.119   1.881   8.030  0.6470  0.0919 -0.1411
 9054SOL    HW138798   2.208   1.888   8.064 -0.3113 -0.1537  2.3854
 9054SOL    HW238799   2.074   1.902   8.111  0.1401  2.5267 -1.0586
 9055SOL     OW38800   3.947   4.034   5.590  0.1572  0.2749  0.0574
 9055SOL    HW138801   4.013   4.060   5.655  0.4790 -1.5041  0.4455
 9055SOL    HW238802   3.897   4.116   5.585  0.1036  0.2523  0.2321
 9056SOL     OW38803   2.263   1.302   7.376  0.0985 -0.7070 -0.7470
 9056SOL    HW138804   2.249   1.226   7.318 -1.6225 -0.8274 -0.1794
 9056SOL    HW238805   2.358   1.311   7.363  0.1354 -1.2663 -0.8993
 9057SOL     OW38806   2.289   3.872   2.637 -0.3392  0.6299  0.6719
 9057SOL    HW138807   2.360   3.926   2.672  0.2188 -0.5817  1.4094
 9057SOL    HW238808   2.329   3.786   2.624  0.6147  1.2583 -0.4765
 9058SOL     OW38809   0.278   1.922  13.140  0.4401 -0.3163 -0.3430
 9058SOL    HW138810   0.262   1.905  13.232 -0.8301  0.5880 -0.3946
 9058SOL    HW238811   0.373   1.909  13.142  0.6619  1.7832  1.8466
 9059SOL     OW38812   0.496   3.043  17.038 -0.0545  0.2068  0.5268
 9059SOL    HW138813   0.495   3.138  17.030  0.0262  0.3143  1.9092
 9059SOL    HW238814   0.538   3.028  16.953  0.6919  0.4385  0.8558
 9060SOL     OW38815   4.130   2.187   1.548  0.1752 -0.4379 -0.2480
 9060SOL    HW138816   4.168   2.205   1.634 -0.6383  1.6175 -0.3233
 9060SOL    HW238817   4.107   2.095   1.554 -0.4150 -0.2605  0.1924
 9061SOL     OW38818   1.335   3.331   4.764 -0.3557 -0.0277  0.1976
 9061SOL    HW138819   1.279   3.289   4.700 -0.4034  1.0602 -0.4865
 9061SOL    HW238820   1.410   3.356   4.709  1.0426  2.3342  3.1470
 9062SOL     OW38821   4.529   0.712   2.798 -0.0681 -0.6499 -0.8297
 9062SOL    HW138822   4.531   0.668   2.883  0.4041  0.0273 -0.4829
 9062SOL    HW238823   4.622   0.734   2.795  0.3551 -2.2684  0.8662
 9063SOL     OW38824   4.222   4.037   3.734 -0.4204  0.3441 -0.3929
 9063SOL    HW138825   4.247   4.025   3.642  1.1082  0.5468 -0.0100
 9063SOL    HW238826   4.232   3.952   3.778 -0.3972  0.4414 -0.2080
 9064SOL     OW38827   0.232   1.729  11.303 -0.2047  0.2543 -0.3990
 9064SOL    HW138828   0.243   1.716  11.209 -0.3850  1.1624 -0.5434
 9064SOL    HW238829   0.139   1.740  11.320 -0.0823  0.3177  0.2411
 9065SOL     OW38830   2.974   3.437   8.360 -0.2970 -0.1892  0.5374
 9065SOL    HW138831   2.951   3.438   8.453 -1.5815 -0.0686  0.2142
 9065SOL    HW238832   2.909   3.498   8.325  0.0442  0.1506  0.4911
 9066SOL     OW38833   2.582   0.550   5.453  0.1144 -0.8292 -0.3368
 9066SOL    HW138834   2.670   0.519   5.435  0.0736 -1.3319  0.3142
 9066SOL    HW238835   2.582   0.634   5.408 -1.3927 -1.1324 -0.9217
 9067SOL     OW38836   2.411   1.780  10.935 -0.0456  0.4611 -0.0073
 9067SOL    HW138837   2.451   1.713  10.991 -0.4871 -0.4547 -0.7936
 9067SOL    HW238838   2.476   1.779  10.865  0.2976  1.1003  0.2996
 9068SOL     OW38839   0.701   3.419   7.761  0.0655  0.0430  0.2583
 9068SOL    HW138840   0.695   3.353   7.692  1.2698 -0.6396  0.8000
 9068SOL    HW238841   0.703   3.500   7.710 -0.4013 -1.2259 -1.7590
 9069SOL     OW38842   0.222   4.061   8.060 -0.0956  0.7529 -0.0467
 9069SOL    HW138843   0.312   4.077   8.030  0.7581  2.7229  3.5395
 9069SOL    HW238844   0.170   4.050   7.980  0.7679  1.5135 -0.7157
 9070SOL     OW38845   0.986   1.541   3.846 -0.4027 -0.1591  0.4180
 9070SOL    HW138846   1.012   1.484   3.773  0.6555  1.0654 -0.1497
 9070SOL    HW238847   1.068   1.562   3.889 -0.6649 -0.3508  1.0064
 9071SOL     OW38848   2.335   3.102   0.775 -0.1073  0.1296  0.4305
 9071SOL    HW138849   2.317   3.094   0.868 -0.6710 -0.1450  0.2961
 9071SOL    HW238850   2.358   3.010   0.759 -1.0652 -0.0449  0.0704
 9072SOL     OW38851   4.665   3.633   3.459  0.1038 -0.8839 -0.2897
 9072SOL    HW138852   4.715   3.678   3.391  3.0515 -1.0949  1.7071
 9072SOL    HW238853   4.674   3.679   3.543  1.2700 -0.6320 -0.5430
 9073SOL     OW38854   3.383   3.824   5.613  0.3009  0.5359  0.3779
 9073SOL    HW138855   3.291   3.847   5.605  0.3218  1.1500  1.8654
 9073SOL    HW238856   3.379   3.745   5.667 -0.3937 -0.4164 -1.0839
 9074SOL     OW38857   0.340   4.729  12.143 -0.2314  0.0534  0.2634
 9074SOL    HW138858   0.388   4.652  12.115  2.0835  0.4099  3.2466
 9074SOL    HW238859   0.364   0.049  12.070  0.5028 -1.9063 -1.0069
 9075SOL     OW38860   1.868   2.220  15.121 -0.1496 -0.2522 -0.2451
 9075SOL    HW138861   1.816   2.163  15.178 -0.8231  0.5929 -0.0105
 9075SOL    HW238862   1.809   2.295  15.120  2.6542  1.9175 -1.4083
 9076SOL     OW38863   0.375   0.851   2.950  0.2997  0.0044 -0.7266
 9076SOL    HW138864   0.394   0.919   2.886  1.4671 -0.0027 -0.3848
 9076SOL    HW238865   0.337   0.906   3.018 -0.4248 -0.0391 -1.0934
 9077SOL     OW38866   3.469   1.780   3.261  0.6820 -0.6184 -0.4227
 9077SOL    HW138867   3.376   1.805   3.262  1.0546  0.6979  0.9475
 9077SOL    HW238868   3.466   1.711   3.328 -4.2090 -0.7422 -0.7471
 9078SOL     OW38869   1.781   2.430   4.762  0.1312  0.2648  0.4293
 9078SOL    HW138870   1.766   2.336   4.769  1.8376  0.0357  0.9614
 9078SOL    HW238871   1.876   2.433   4.757  0.0644 -0.2761 -1.3227
 9079SOL     OW38872   0.983   0.793   0.073  0.1077 -0.5870 -0.1572
 9079SOL    HW138873   1.039   0.834   0.140 -0.8216 -1.1834  0.9877
 9079SOL    HW238874   0.985   0.700   0.095  0.0970 -0.5134  0.1572
 9080SOL     OW38875   4.296   2.612   8.534 -0.4958  0.2298  0.4569
 9080SOL    HW138876   4.356   2.569   8.595 -1.1809  0.4356  1.2767
 9080SOL    HW238877   4.344   2.622   8.451 -0.2970 -0.5897  0.4694
 9081SOL     OW38878   2.956   2.499   4.182  0.0647 -0.1095  0.5003
 9081SOL    HW138879   2.914   2.424   4.225 -3.2144  2.1369  1.1899
 9081SOL    HW238880   2.906   2.488   4.100 -2.2409 -1.0672  2.0301
 9082SOL     OW38881   4.405   0.476   1.032  0.0901  0.0366 -0.1936
 9082SOL    HW138882   4.388   0.546   0.969  0.1997  0.8772  0.6944
 9082SOL    HW238883   4.374   0.510   1.116  1.1527  2.1883 -0.6755
 9083SOL     OW38884   1.656   4.602  13.941  0.2749 -0.4619 -0.4281
 9083SOL    HW138885   1.674   4.695  13.957 -1.1109 -0.9878  4.1298
 9083SOL    HW238886   1.737   4.585  13.892  0.3082 -0.8900 -0.2292
 9084SOL     OW38887   0.465   2.478   0.235  0.0359 -0.4447  0.3711
 9084SOL    HW138888   0.528   2.448   0.301  2.1135 -0.4483 -1.6498
 9084SOL    HW238889   0.492   2.569   0.228  1.3110 -1.0849 -2.9646
 9085SOL     OW38890   1.687   1.514   1.240 -0.2771 -0.2663 -0.0219
 9085SOL    HW138891   1.667   1.604   1.214  2.3850 -0.6451 -3.3693
 9085SOL    HW238892   1.657   1.527   1.330  1.4871 -0.8519  0.6471
 9086SOL     OW38893   3.584   3.952   7.953 -0.1066 -0.1405 -0.0797
 9086SOL    HW138894   3.546   4.008   7.885  0.2206 -1.1417 -1.0856
 9086SOL    HW238895   3.631   3.889   7.898 -0.2654  0.5194 -0.9751
 9087SOL     OW38896   2.416   1.032   0.848  0.0603 -0.1368 -0.1826
 9087SOL    HW138897   2.358   1.095   0.891  0.9684  0.1062  0.6976
 9087SOL    HW238898   2.393   0.952   0.896 -1.8884  0.9759  0.7364
 9088SOL     OW38899   0.019   2.522   4.064  0.2399  0.5209  0.0007
 9088SOL    HW138900   4.666   2.519   4.030  0.9696 -2.8662 -1.5540
 9088SOL    HW238901   0.050   2.442   4.023 -2.1737 -1.5718  2.2753
 9089SOL     OW38902   4.363   2.272   2.208 -0.0057  0.1877 -0.0347
 9089SOL    HW138903   4.402   2.198   2.254  1.4462  0.1613 -1.2994
 9089SOL    HW238904   4.338   2.229   2.126 -1.4796  1.8897 -0.4816
 9090SOL     OW38905   1.066   3.913  14.965 -0.1747  0.3111 -0.3057
 9090SOL    HW138906   0.977   3.893  14.937  0.9716  0.8855 -4.3061
 9090SOL    HW238907   1.066   3.853  15.040 -0.0952  0.9919  0.2442
 9091SOL     OW38908   4.454   1.342  17.149  0.1069  0.4690  0.2594
 9091SOL    HW138909   4.429   1.428  17.182 -0.5643  0.4469 -0.1934
 9091SOL    HW238910   4.516   1.309  17.215 -0.4602  0.1802  0.6451
 9092SOL     OW38911   3.480   2.839   3.555 -0.0504  0.7488 -0.2657
 9092SOL    HW138912   3.427   2.781   3.608 -0.2462  0.1204 -1.1453
 9092SOL    HW238913   3.505   2.782   3.482 -2.0444 -0.6443  0.1429
 9093SOL     OW38914   4.123   3.876  12.644 -0.1612  0.4914 -0.4036
 9093SOL    HW138915   4.110   3.816  12.571 -0.9120  1.1511 -0.8110
 9093SOL    HW238916   4.041   3.926  12.640  0.9948  2.2303 -1.8233
 9094SOL     OW38917   0.545   1.969   9.490  0.1804 -0.2512 -0.1194
 9094SOL    HW138918   0.496   2.050   9.478  0.4020 -0.2771 -1.1442
 9094SOL    HW238919   0.605   1.984   9.417 -1.2029  2.2635 -0.7314
 9095SOL     OW38920   1.241   3.716   7.842 -0.6245  0.5714  0.4132
 9095SOL    HW138921   1.148   3.697   7.852 -0.7219  1.6467  1.5553
 9095SOL    HW238922   1.261   3.733   7.934  1.3906  0.7757 -0.0510
 9096SOL     OW38923   3.933   3.755  10.822 -0.2384  0.1072  0.1429
 9096SOL    HW138924   3.878   3.694  10.871  1.0064 -0.8002  0.4019
 9096SOL    HW238925   3.981   3.685  10.779 -1.0959 -1.6352  2.0425
 9097SOL     OW38926   1.932   1.866   8.560  0.3624 -0.0069  0.0669
 9097SOL    HW138927   1.885   1.790   8.525 -0.0691  0.4630 -0.3684
 9097SOL    HW238928   1.886   1.877   8.644  2.9405 -1.1015  1.6230
 9098SOL     OW38929   0.255   0.524   5.103 -0.2244 -0.0036  0.0895
 9098SOL    HW138930   0.339   0.568   5.091 -0.5316  0.9680  1.3675
 9098SOL    HW238931   0.203   0.590   5.150 -2.4727 -0.3279 -1.9435
 9099SOL     OW38932   2.106   2.835   4.295  0.2065  0.0808  0.4989
 9099SOL    HW138933   2.067   2.912   4.335 -2.9934 -1.0453 -0.4850
 9099SOL    HW238934   2.047   2.830   4.220 -1.0413 -2.0990  1.6336
 9100SOL     OW38935   3.038   1.947   6.619 -0.1073 -0.3806  0.0104
 9100SOL    HW138936   2.997   1.873   6.575  1.3179 -0.4832 -1.1403
 9100SOL    HW238937   3.094   1.905   6.683 -0.0436 -2.5506 -1.4648
 9101SOL     OW38938   3.522   4.498   9.160  0.0578 -0.0065  0.1188
 9101SOL    HW138939   3.429   4.474   9.152  0.2799 -1.4823  1.9836
 9101SOL    HW238940   3.542   4.532   9.073 -0.9439 -0.2864 -0.2288
 9102SOL     OW38941   0.553   1.112   2.699 -0.4402  0.2870  0.1508
 9102SOL    HW138942   0.575   1.114   2.606 -0.4918 -3.5328  0.0381
 9102SOL    HW238943   0.556   1.017   2.715  0.7792  0.6827  2.2221
 9103SOL     OW38944   4.127   1.940   0.702 -0.0403  0.1105  0.6512
 9103SOL    HW138945   4.088   2.004   0.642  0.9914 -1.1519 -1.3861
 9103SOL    HW238946   4.197   1.990   0.744 -0.4421  0.9602  0.3072
 9104SOL     OW38947   1.839   1.288   5.883  0.5082  0.6444 -0.0656
 9104SOL    HW138948   1.762   1.275   5.828 -0.0433 -0.1755  0.8878
 9104SOL    HW238949   1.864   1.201   5.917  2.5750  1.0285 -0.5998
 9105SOL     OW38950   3.467   2.530  10.748 -0.2790  0.4226  0.7347
 9105SOL    HW138951   3.395   2.526  10.810 -0.1770  3.1075  1.0185
 9105SOL    HW238952   3.451   2.454  10.691 -2.6394 -1.1371  3.5089
 9106SOL     OW38953   1.641   1.338   4.578  0.5292 -0.3212  0.3613
 9106SOL    HW138954   1.615   1.377   4.494  0.8665 -0.8653 -0.0021
 9106SOL    HW238955   1.570   1.276   4.594 -0.6003  0.7241 -0.5530
 9107SOL     OW38956   3.763   2.886  17.030 -0.5383 -0.8074  0.8696
 9107SOL    HW138957   3.815   2.808  17.013  1.8444  1.2288 -1.2209
 9107SOL    HW238958   3.778   2.910  17.122 -1.8841  0.5605  0.7287
 9108SOL     OW38959   2.956   3.920   2.705 -0.6192 -0.0776 -0.8401
 9108SOL    HW138960   2.863   3.909   2.686 -0.6201 -3.3287  1.0304
 9108SOL    HW238961   2.994   3.924   2.617  0.7593 -0.1072 -0.2473
 9109SOL     OW38962   0.089   0.868   0.239 -0.2387  0.6421  0.4954
 9109SOL    HW138963   0.056   0.780   0.254 -1.2490  1.0758  0.7908
 9109SOL    HW238964   0.168   0.858   0.186  0.2896  1.7460  1.0703
 9110SOL     OW38965   0.524   1.277   6.104 -0.0251 -0.0115 -0.2992
 9110SOL    HW138966   0.482   1.351   6.149  0.9860 -0.5091  1.4618
 9110SOL    HW238967   0.590   1.268   6.173 -0.2377  1.6447  0.1361
 9111SOL     OW38968   3.153   3.423   4.178 -0.5127  0.0035  0.0703
 9111SOL    HW138969   3.086   3.362   4.209 -0.1244 -0.6837 -0.4122
 9111SOL    HW238970   3.163   3.466   4.262 -2.3646 -0.0974  0.3319
 9112SOL     OW38971   4.119   3.188   5.454  0.1034  0.1540 -0.6751
 9112SOL    HW138972   4.068   3.118   5.496 -0.5416 -0.6727 -2.8250
 9112SOL    HW238973   4.204   3.182   5.498 -0.5790  2.9207  0.9842
 9113SOL     OW38974   4.248   1.653   3.556 -0.0665 -0.3188 -0.3063
 9113SOL    HW138975   4.318   1.689   3.500  0.1101 -0.6256 -0.2811
 9113SOL    HW238976   4.175   1.648   3.495 -0.4800 -1.9084  0.3264
 9114SOL     OW38977   2.798   0.887  15.576 -0.7071  0.5769 -0.3106
 9114SOL    HW138978   2.880   0.932  15.558  0.5351 -0.4470  2.8502
 9114SOL    HW238979   2.763   0.889  15.486  2.6099  0.3993 -1.6107
 9115SOL     OW38980   0.376   1.591  15.858  0.3804 -0.2005 -0.2649
 9115SOL    HW138981   0.383   1.504  15.820 -1.0080 -1.2764  1.9343
 9115SOL    HW238982   0.290   1.621  15.829  0.5245  0.3967 -0.0678
 9116SOL     OW38983   2.022   3.269   5.936  0.0660 -0.0014 -0.7245
 9116SOL    HW138984   2.110   3.234   5.920  0.0661 -0.3521  0.0647
 9116SOL    HW238985   1.997   3.298   5.848 -1.4191 -1.3451 -0.7268
 9117SOL     OW38986   2.422   4.466  15.442 -0.2002 -0.3328  0.4493
 9117SOL    HW138987   2.355   4.448  15.508 -1.0445 -2.7107 -1.0203
 9117SOL    HW238988   2.380   4.438  15.360 -1.3168  0.4509  0.7560
 9118SOL     OW38989   0.397   2.328   2.379 -0.1808  0.4583  0.3856
 9118SOL    HW138990   0.488   2.337   2.407 -0.1977 -0.4649  0.7390
 9118SOL    HW238991   0.385   2.233   2.379  0.0879  0.4353  1.8341
 9119SOL     OW38992   4.695   0.618   5.312 -0.1006  0.1428 -0.2842
 9119SOL    HW138993   4.695   0.713   5.298 -2.0253  0.1678 -0.1826
 9119SOL    HW238994   4.697   0.589   5.221  1.6056  0.0788 -0.2326
 9120SOL     OW38995   0.622   0.726  17.669 -0.2133  0.1624 -0.6761
 9120SOL    HW138996   0.657   0.697  17.584  0.2468 -0.7501 -0.1778
 9120SOL    HW238997   0.538   0.753  17.631  0.1377  1.0943 -0.7888
 9121SOL     OW38998   1.479   2.137   7.392 -0.2742 -0.2308  0.5669
 9121SOL    HW138999   1.410   2.201   7.374  0.8967  0.9458  0.3068
 9121SOL    HW239000   1.427   2.065   7.428  0.1103 -1.0698 -0.5556
 9122SOL     OW39001   0.869   0.885   5.197 -0.0619 -0.2059  1.0635
 9122SOL    HW139002   0.839   0.884   5.288 -0.1369  1.8018  1.0482
 9122SOL    HW239003   0.791   0.837   5.169 -1.1040  2.0645  0.1132
 9123SOL     OW39004   4.374   4.617   4.538  0.3944  0.0806  0.4208
 9123SOL    HW139005   4.395   4.640   4.447  0.7703  1.8186  0.9425
 9123SOL    HW239006   4.459   4.636   4.578  0.3947 -1.1478  0.9932
 9124SOL     OW39007   4.466   0.164   7.470  0.5692 -0.3460  0.0205
 9124SOL    HW139008   4.490   0.076   7.501  0.5710 -0.3736 -0.0590
 9124SOL    HW239009   4.546   0.179   7.420  0.9101  1.1257  1.0129
 9125SOL     OW39010   2.704   0.226   6.393 -0.2873  0.6513 -0.0964
 9125SOL    HW139011   2.734   0.318   6.391  1.7080 -0.0270 -1.4297
 9125SOL    HW239012   2.616   0.227   6.356 -0.9694 -1.3516  1.4784
 9126SOL     OW39013   3.055   0.688   3.341 -0.2335 -0.1940 -0.5927
 9126SOL    HW139014   3.055   0.664   3.248  0.8296 -1.8955 -0.1586
 9126SOL    HW239015   3.118   0.622   3.369  0.1756 -0.3577 -1.8982
 9127SOL     OW39016   0.113   2.420   1.880  0.2761 -0.2077 -0.3761
 9127SOL    HW139017   0.088   2.467   1.960  1.7838 -0.3698  0.1780
 9127SOL    HW239018   0.200   2.454   1.862 -0.1927  0.8672 -0.6153
 9128SOL     OW39019   3.374   1.338  13.476  0.0554  0.0674  0.6043
 9128SOL    HW139020   3.378   1.353  13.381  0.7491 -0.4070  0.5568
 9128SOL    HW239021   3.347   1.426  13.499 -0.3714 -0.6455  2.7937
 9129SOL     OW39022   1.976   0.351   9.099  0.1769 -0.0860  0.2925
 9129SOL    HW139023   2.035   0.332   9.027  0.6407  2.6886 -0.0790
 9129SOL    HW239024   2.030   0.323   9.173  1.2198  1.3472  0.0756
 9130SOL     OW39025   0.200   4.609   0.825 -0.7327 -0.1675 -0.2731
 9130SOL    HW139026   0.182   4.615   0.731  0.1398 -1.1663 -0.4996
 9130SOL    HW239027   0.261   4.681   0.842 -3.6516  1.8392  1.6678
 9131SOL     OW39028   1.366   1.987   7.016  0.0595 -0.2513  0.7078
 9131SOL    HW139029   1.455   2.011   7.041 -0.5024  0.1427  2.3427
 9131SOL    HW239030   1.323   1.957   7.096  1.6544  0.4993  1.8408
 9132SOL     OW39031   0.577   1.388   5.870  0.1489 -0.4148 -0.0084
 9132SOL    HW139032   0.549   1.333   5.942  1.6082 -1.8160 -0.5042
 9132SOL    HW239033   0.495   1.420   5.833 -0.4774 -0.8137  1.0767
 9133SOL     OW39034   1.407   1.458   2.492  0.2618  0.0498  0.2905
 9133SOL    HW139035   1.357   1.449   2.410 -1.1513 -2.2228  1.3753
 9133SOL    HW239036   1.429   1.365   2.503 -0.9213 -0.2505  0.2083
 9134SOL     OW39037   0.803   3.098  14.606  0.3965  0.0329 -0.3240
 9134SOL    HW139038   0.845   3.030  14.553  1.4501 -0.6687  1.4206
 9134SOL    HW239039   0.712   3.079  14.585  1.1208 -2.0041 -1.6652
 9135SOL     OW39040   2.343   2.618   4.218  0.2075  0.5585  0.3123
 9135SOL    HW139041   2.250   2.602   4.203 -0.4033  1.5104  3.1192
 9135SOL    HW239042   2.367   2.692   4.162  2.1604  1.7098  2.6642
 9136SOL     OW39043   1.044   2.507  17.481 -0.7065  0.4798  0.0071
 9136SOL    HW139044   1.063   2.493  17.388  1.9491 -0.1475  0.6787
 9136SOL    HW239045   0.970   2.447  17.489  0.7981 -1.2820  0.4508
 9137SOL     OW39046   1.492   4.425   0.618 -0.2920  0.5513 -0.8061
 9137SOL    HW139047   1.585   4.443   0.630 -0.3566 -0.0444  0.6021
 9137SOL    HW239048   1.490   4.330   0.610  3.4642  0.4919 -0.6622
 9138SOL     OW39049   2.653   3.309   1.739  0.5156  0.2231 -0.0540
 9138SOL    HW139050   2.712   3.379   1.766  0.7838  0.0837 -0.2825
 9138SOL    HW239051   2.603   3.299   1.820 -0.4610  0.8694 -0.5669
 9139SOL     OW39052   4.687   4.174   6.324  0.2909  0.3514  0.6055
 9139SOL    HW139053   0.002   4.156   6.402  3.3113  1.1510 -1.2205
 9139SOL    HW239054   0.018   4.200   6.261 -0.0299 -0.3384 -0.0286
 9140SOL     OW39055   1.144   0.235   4.308 -0.0798  0.7710 -0.0240
 9140SOL    HW139056   1.088   0.235   4.230 -0.1329  0.1743  0.0146
 9140SOL    HW239057   1.196   0.313   4.292  2.0099 -0.5658  0.3568
 9141SOL     OW39058   2.899   0.371   1.053  0.6755  0.9829 -0.4234
 9141SOL    HW139059   2.899   0.325   1.137 -3.5154 -1.3309 -1.6838
 9141SOL    HW239060   2.884   0.460   1.086  0.3007  0.1774  1.6150
 9142SOL     OW39061   2.763   2.093  11.291 -0.3859 -0.0622 -0.7507
 9142SOL    HW139062   2.823   2.059  11.225 -0.9163  0.1456 -1.3419
 9142SOL    HW239063   2.822   2.141  11.351 -2.0972 -2.0072  2.4772
 9143SOL     OW39064   3.937   4.635  17.635  0.2136  0.0964 -0.1278
 9143SOL    HW139065   3.994   4.562  17.612 -0.9243 -1.0047  0.5926
 9143SOL    HW239066   3.967   4.658  17.723 -2.4738  3.6094 -0.1131
 9144SOL     OW39067   3.983   3.690   8.623 -0.2323  0.9384  0.0361
 9144SOL    HW139068   3.894   3.654   8.627 -0.3577  1.1503 -0.9512
 9144SOL    HW239069   3.959   3.781   8.604 -1.3057  1.2255  2.7620
 9145SOL     OW39070   0.174   3.579   3.585 -0.2443 -0.4280  0.1724
 9145SOL    HW139071   0.175   3.543   3.674  0.5963  1.0403  0.7430
 9145SOL    HW239072   0.127   3.661   3.600 -0.1815 -0.3227 -0.2104
 9146SOL     OW39073   2.762   0.078   2.646  0.4219  0.0375 -0.0466
 9146SOL    HW139074   2.770   0.090   2.741 -1.0382  0.6133  0.0136
 9146SOL    HW239075   2.849   0.042   2.629  0.5489 -0.1587  1.0298
 9147SOL     OW39076   4.298   0.147   3.808 -0.2809  0.8008 -0.0276
 9147SOL    HW139077   4.387   0.135   3.775 -0.0117 -2.0241  1.7262
 9147SOL    HW239078   4.241   0.122   3.735 -2.3451  0.6614  1.6421
 9148SOL     OW39079   3.909   4.262   5.937 -0.3510  0.3956 -0.0562
 9148SOL    HW139080   3.869   4.233   6.019 -2.4136 -0.1930 -1.2884
 9148SOL    HW239081   3.828   4.286   5.893 -1.8670 -0.9029  2.0186
 9149SOL     OW39082   1.669   1.924   0.496  0.1378 -0.2298  0.0891
 9149SOL    HW139083   1.604   1.925   0.566 -0.2118 -1.8980 -0.2176
 9149SOL    HW239084   1.654   2.014   0.467  0.7470  0.6113  2.3426
 9150SOL     OW39085   4.034   2.469   7.998  0.0252  0.0560 -0.2797
 9150SOL    HW139086   4.021   2.557   8.033  0.0792  0.1506 -0.5000
 9150SOL    HW239087   4.107   2.445   8.054 -2.9320 -2.6842  2.4049
 9151SOL     OW39088   1.662   0.236   4.011  0.6134  0.2446  0.1008
 9151SOL    HW139089   1.713   0.239   4.092  0.0933  3.6321  0.3082
 9151SOL    HW239090   1.699   0.154   3.977 -0.4420 -0.0281 -0.3621
 9152SOL     OW39091   4.371   4.425  10.262  0.4095  0.2281  0.0319
 9152SOL    HW139092   4.339   4.505  10.221 -0.7471 -1.5053 -2.4146
 9152SOL    HW239093   4.401   4.459  10.347 -2.4733  1.3413  0.5990
 9153SOL     OW39094   2.434   0.447   6.779 -0.3544  0.1128  0.0038
 9153SOL    HW139095   2.422   0.532   6.736  0.4084  0.1597 -0.1139
 9153SOL    HW239096   2.350   0.442   6.825  1.2769  2.3217  3.2168
 9154SOL     OW39097   0.374   0.738  16.594 -0.3644 -0.3690  0.3359
 9154SOL    HW139098   0.303   0.697  16.545  0.7021 -1.1078 -0.5762
 9154SOL    HW239099   0.329   0.812  16.636  1.5679  1.6173 -1.0976
 9155SOL     OW39100   2.817   3.374   4.249  0.0960 -0.0018 -0.3755
 9155SOL    HW139101   2.818   3.365   4.154  1.2642  1.6056 -0.5200
 9155SOL    HW239102   2.792   3.465   4.263  1.3983  0.7422 -2.7450
 9156SOL     OW39103   1.855   4.334   5.219  0.1750 -0.0119  0.4496
 9156SOL    HW139104   1.924   4.289   5.268  0.1507  1.0447  1.4364
 9156SOL    HW239105   1.865   4.288   5.135 -0.6305 -1.3936  1.1043
 9157SOL     OW39106   4.489   2.383  10.001  0.2439  0.5800  0.2174
 9157SOL    HW139107   4.517   2.298   9.968  0.1271  0.0661  1.4537
 9157SOL    HW239108   4.555   2.404  10.067  0.6452 -1.7121  0.5512
 9158SOL     OW39109   3.401   3.016  10.028  0.5158  0.3472 -0.3419
 9158SOL    HW139110   3.419   2.956   9.955  0.9280  0.0655 -0.0049
 9158SOL    HW239111   3.402   2.963  10.107 -0.0540 -0.2727 -0.7512
 9159SOL     OW39112   4.585   3.179   4.668 -0.1732  0.1895  0.1683
 9159SOL    HW139113   4.649   3.109   4.656 -2.0603 -1.7791  1.6928
 9159SOL    HW239114   4.648   3.250   4.680  0.0381  0.1079 -0.4184
 9160SOL     OW39115   3.424   4.082   4.752 -0.0988  0.1802 -0.3120
 9160SOL    HW139116   3.423   4.002   4.699  1.4331 -1.9093  2.8291
 9160SOL    HW239117   3.370   4.060   4.827  1.8502 -2.1946  0.3979
 9161SOL     OW39118   2.570   3.620   1.938  0.2523 -0.2109  0.2966
 9161SOL    HW139119   2.563   3.526   1.960 -1.2611 -0.0755  0.4340
 9161SOL    HW239120   2.663   3.630   1.918  0.6991 -1.2096  1.8930
 9162SOL     OW39121   4.637   2.929   2.720  0.2673 -0.1643 -0.2983
 9162SOL    HW139122   4.551   2.940   2.761  0.6960  0.9110  0.3205
 9162SOL    HW239123   4.662   3.021   2.712 -2.1984  0.5605  0.5855
 9163SOL     OW39124   4.372   4.106   5.113  0.3005  0.1771  0.0219
 9163SOL    HW139125   4.397   4.015   5.128  1.2955  0.2567 -1.1744
 9163SOL    HW239126   4.397   4.137   5.200 -0.0614  2.2653 -0.6191
 9164SOL     OW39127   0.062   2.024   2.748  0.9164 -0.1982  0.0355
 9164SOL    HW139128   0.005   1.985   2.681 -0.9125  0.2751  1.3203
 9164SOL    HW239129   0.145   1.990   2.715  1.4068  0.0987  0.9805
 9165SOL     OW39130   1.607   2.223   3.714 -0.4175  0.6286  0.0978
 9165SOL    HW139131   1.573   2.291   3.771  0.3340 -0.0677  1.3811
 9165SOL    HW239132   1.547   2.225   3.640  0.1328  0.8516 -0.3423
 9166SOL     OW39133   4.560   1.847   3.066  0.8567  0.4200  0.0647
 9166SOL    HW139134   4.569   1.931   3.021 -1.7941  2.3007  2.9517
 9166SOL    HW239135   4.621   1.786   3.026  0.4984 -0.7398  1.2854
 9167SOL     OW39136   3.083   0.305   5.996 -0.4784  0.0936  0.4480
 9167SOL    HW139137   3.059   0.240   6.062 -1.6076 -1.8838 -1.8816
 9167SOL    HW239138   3.002   0.351   6.016 -0.2046  0.9654 -0.4750
 9168SOL     OW39139   1.936   4.653  10.261 -0.0784 -0.2645 -0.2393
 9168SOL    HW139140   1.860   4.648  10.319 -1.2807 -0.6109 -1.8484
 9168SOL    HW239141   1.944   4.564  10.227  1.5945 -0.8279  1.6071
 9169SOL     OW39142   0.664   2.898   7.981  0.7486 -0.6932 -0.3041
 9169SOL    HW139143   0.609   2.821   7.999 -0.5850  0.2195 -0.4886
 9169SOL    HW239144   0.714   2.915   8.061  1.8110 -1.1560 -0.8656
 9170SOL     OW39145   3.726   2.576  13.040 -0.6853  0.0771 -0.2236
 9170SOL    HW139146   3.764   2.598  12.955  3.0560 -1.8729  0.9428
 9170SOL    HW239147   3.790   2.509  13.063 -0.9498  0.1080  0.5784
 9171SOL     OW39148   3.983   4.043   8.177  0.0778  0.2547  0.0003
 9171SOL    HW139149   4.012   4.125   8.137 -1.9767  1.3691  0.7813
 9171SOL    HW239150   4.056   4.035   8.237 -1.1478  1.0211  1.5860
 9172SOL     OW39151   0.752   3.827  15.161  0.2962  0.3369 -0.5711
 9172SOL    HW139152   0.753   3.809  15.067 -0.3434  0.3779 -0.5860
 9172SOL    HW239153   0.787   3.916  15.161  0.7169  0.1558 -3.9457
 9173SOL     OW39154   2.774   0.860   3.171 -0.1048  0.2668 -0.0003
 9173SOL    HW139155   2.701   0.830   3.225 -0.5902  1.7438  0.1767
 9173SOL    HW239156   2.834   0.870   3.246 -1.0613  1.1943  0.6430
 9174SOL     OW39157   4.543   0.752   2.386 -0.0316 -0.2594 -0.2601
 9174SOL    HW139158   4.465   0.790   2.346  0.8693  1.8250 -0.0819
 9174SOL    HW239159   4.513   0.662   2.398  0.2504 -0.3004  0.1178
 9175SOL     OW39160   3.186   1.224   5.303 -0.0954 -0.2711 -0.3172
 9175SOL    HW139161   3.104   1.201   5.347  1.8873 -2.0407  2.4521
 9175SOL    HW239162   3.238   1.227   5.384 -4.7742 -0.9166  2.7102
 9176SOL     OW39163   0.041   2.922  16.605  0.0886  0.0416  0.0377
 9176SOL    HW139164   4.691   2.907  16.642 -0.7014  1.1586 -1.3531
 9176SOL    HW239165   0.097   2.846  16.622 -0.1947 -0.0265  0.6568
 9177SOL     OW39166   0.755   1.558   1.006 -0.1584  0.5693 -0.5732
 9177SOL    HW139167   0.733   1.578   0.916 -1.7793 -2.3422 -0.8307
 9177SOL    HW239168   0.844   1.593   1.008 -0.6845  1.8620 -0.2060
 9178SOL     OW39169   1.642   2.052   6.312 -0.1378  0.2596  0.3536
 9178SOL    HW139170   1.549   2.046   6.288 -0.0103  1.0986 -0.3322
 9178SOL    HW239171   1.684   2.103   6.243  1.7226 -0.9520  0.6135
 9179SOL     OW39172   1.888   3.819   4.924  0.7492 -0.1441  0.4433
 9179SOL    HW139173   1.866   3.796   5.014 -0.2485 -1.9649 -0.2670
 9179SOL    HW239174   1.817   3.881   4.910  2.1252  1.4587  0.5901
 9180SOL     OW39175   0.679   0.300   2.486 -0.5279 -0.2840  0.0748
 9180SOL    HW139176   0.666   0.221   2.433  2.7294 -0.2430 -0.7894
 9180SOL    HW239177   0.586   0.322   2.496 -0.5506 -1.1669  1.8834
 9181SOL     OW39178   2.134   0.612   5.498  0.2514 -0.5986  0.0822
 9181SOL    HW139179   2.213   0.613   5.552  1.5058 -0.6241 -1.7503
 9181SOL    HW239180   2.115   0.519   5.483 -0.4284 -0.4924  0.2983
 9182SOL     OW39181   2.214   2.222   4.055 -0.6755  0.8118 -0.1449
 9182SOL    HW139182   2.213   2.268   3.971  2.0332 -2.6115 -2.0971
 9182SOL    HW239183   2.146   2.275   4.095 -1.1657 -0.2542  0.4372
 9183SOL     OW39184   0.256   3.437   2.663  0.1860 -0.0823  0.5784
 9183SOL    HW139185   0.178   3.426   2.718  0.6289 -0.4043  1.1395
 9183SOL    HW239186   0.309   3.359   2.680 -0.3871 -0.3377  1.1893
 9184SOL     OW39187   0.651   2.362   2.501 -0.0749 -0.1081  0.5805
 9184SOL    HW139188   0.705   2.435   2.535 -0.3697  1.1813 -1.7452
 9184SOL    HW239189   0.640   2.326   2.589  0.1471 -0.4629  0.4623
 9185SOL     OW39190   0.388   4.245   3.481 -0.3392 -0.1478 -0.0404
 9185SOL    HW139191   0.322   4.232   3.412  1.3133 -2.2125 -1.2550
 9185SOL    HW239192   0.328   4.231   3.554  0.0841 -1.1825  0.1075
 9186SOL     OW39193   3.148   2.216  10.855  0.0775 -0.5752  0.4555
 9186SOL    HW139194   3.209   2.142  10.856 -1.3675 -1.8039 -0.9995
 9186SOL    HW239195   3.080   2.178  10.799  1.6686 -0.1707 -1.7798
 9187SOL     OW39196   2.084   0.692   7.500  0.5424 -0.6452 -0.1460
 9187SOL    HW139197   2.139   0.653   7.432 -0.4067 -1.4831 -0.4263
 9187SOL    HW239198   2.102   0.786   7.491 -0.3070 -0.2031  2.6318
 9188SOL     OW39199   0.565   2.093  15.009 -0.0726  0.2644 -0.4424
 9188SOL    HW139200   0.643   2.148  15.014 -0.4704  0.7051  0.9816
 9188SOL    HW239201   0.560   2.047  15.094 -0.4286 -0.4331 -0.8384
 9189SOL     OW39202   4.140   3.137  13.047 -0.0439 -0.1844 -0.1542
 9189SOL    HW139203   4.096   3.135  12.962  0.2499 -0.2220 -0.3079
 9189SOL    HW239204   4.175   3.047  13.046  0.2270 -0.0879  0.7293
 9190SOL     OW39205   0.758   0.335   8.504 -0.5459  0.3424  0.6248
 9190SOL    HW139206   0.824   0.268   8.526  0.2017  1.1582  0.8516
 9190SOL    HW239207   0.789   0.351   8.415 -1.8020 -0.3792  0.0610
 9191SOL     OW39208   4.710   3.005   3.861 -0.3399  0.2784  0.1476
 9191SOL    HW139209   4.693   2.951   3.784 -0.6420  0.4123  0.1208
 9191SOL    HW239210   0.052   3.048   3.829  0.2907  0.1949  1.5984
 9192SOL     OW39211   0.111   3.722   7.454  0.3644  1.0184 -1.0364
 9192SOL    HW139212   0.075   3.784   7.517 -1.1188 -0.5549 -0.3198
 9192SOL    HW239213   0.067   3.753   7.375 -0.1896  0.7945 -0.8196
 9193SOL     OW39214   3.341   1.845   2.543  0.0512  0.0132 -0.6892
 9193SOL    HW139215   3.353   1.814   2.633  0.2537 -0.6582 -0.9475
 9193SOL    HW239216   3.312   1.935   2.560  0.8182  0.2641 -0.7047
 9194SOL     OW39217   4.239   0.550  16.735 -0.4676  0.1822  0.1868
 9194SOL    HW139218   4.157   0.590  16.763 -1.0155 -1.1926  0.5516
 9194SOL    HW239219   4.223   0.456  16.734  0.6591 -0.0364  2.9382
 9195SOL     OW39220   0.344   3.342   4.375 -0.1446  0.5725  0.4678
 9195SOL    HW139221   0.405   3.387   4.317  0.3070 -2.3417 -1.3167
 9195SOL    HW239222   0.351   3.393   4.456  0.9458 -1.9673  1.9932
 9196SOL     OW39223   4.309   1.566  12.934 -0.5364  0.0660 -0.2464
 9196SOL    HW139224   4.372   1.559  12.863  0.2283 -0.6624  0.5015
 9196SOL    HW239225   4.356   1.518  13.002  2.7568  2.2376 -0.9688
 9197SOL     OW39226   1.973   3.608  16.444  0.5213  0.0016 -0.1434
 9197SOL    HW139227   1.923   3.595  16.525 -1.0898 -2.2331 -1.5189
 9197SOL    HW239228   1.909   3.626  16.375  0.7966 -2.6723 -1.0597
 9198SOL     OW39229   0.357   0.736   7.807 -0.1150 -0.2752  0.0449
 9198SOL    HW139230   0.385   0.713   7.896 -1.1305  1.1839  0.7569
 9198SOL    HW239231   0.347   0.650   7.767  0.2210 -0.7497  0.9715
 9199SOL     OW39232   2.884   0.241   7.641 -0.2333 -0.3247  0.7438
 9199SOL    HW139233   2.793   0.261   7.620  0.4181  2.1639  0.2918
 9199SOL    HW239234   2.885   0.264   7.734 -0.1821  0.3171  0.5895
 9200SOL     OW39235   0.428   1.993   4.950 -0.2826 -0.9659 -0.2686
 9200SOL    HW139236   0.426   1.963   5.040 -1.6023  0.5781  0.2220
 9200SOL    HW239237   0.336   2.021   4.946 -0.3331 -0.9894  0.7887
 9201SOL     OW39238   3.143   0.319  15.745 -0.0509 -0.0442 -0.0925
 9201SOL    HW139239   3.136   0.238  15.695  1.6930  0.0189 -0.4467
 9201SOL    HW239240   3.226   0.298  15.789  0.4525  0.8197 -0.6357
 9202SOL     OW39241   0.079   3.840  12.251 -0.1841  1.1846  0.0928
 9202SOL    HW139242   0.119   3.826  12.336  0.8660  0.9641 -0.4464
 9202SOL    HW239243   0.073   3.747  12.226  2.2020  1.4423 -1.4275
 9203SOL     OW39244   2.634   3.772  10.182  0.4871  0.5270  0.1748
 9203SOL    HW139245   2.643   3.868  10.183 -1.8528  0.7675 -0.9808
 9203SOL    HW239246   2.547   3.766  10.223  1.5201  0.1510  2.3199
 9204SOL     OW39247   1.510   1.031   3.647  0.4374  0.1484  0.6687
 9204SOL    HW139248   1.429   1.015   3.697  0.6852 -2.2975  0.2742
 9204SOL    HW239249   1.509   1.126   3.637 -0.4569  0.1381  0.6178
 9205SOL     OW39250   0.282   1.073   3.115 -0.1563  0.0503  0.4791
 9205SOL    HW139251   0.195   1.089   3.077 -0.1207 -1.3976 -0.2170
 9205SOL    HW239252   0.329   1.156   3.123 -3.5514  1.6057  4.2726
 9206SOL     OW39253   2.675   2.667   7.829  0.5568 -0.4589  0.2540
 9206SOL    HW139254   2.581   2.674   7.846  0.5301 -1.6866  0.6737
 9206SOL    HW239255   2.692   2.761   7.834  2.4233 -0.8335  0.9128
 9207SOL     OW39256   4.566   1.860   5.950  0.2274 -0.0566  0.3060
 9207SOL    HW139257   4.656   1.859   5.980  1.1622 -1.0023 -2.5834
 9207SOL    HW239258   4.567   1.956   5.947  1.9877 -0.0413  1.5325
 9208SOL     OW39259   1.742   1.894   6.511  0.2024  0.4117  0.0242
 9208SOL    HW139260   1.708   1.965   6.455  2.2289  0.9007 -0.5906
 9208SOL    HW239261   1.768   1.825   6.450 -0.3191  1.0142 -0.9003
 9209SOL     OW39262   2.073   3.292  12.696  0.0876 -0.4636  0.2297
 9209SOL    HW139263   2.001   3.304  12.759  2.9420  0.3944  3.3171
 9209SOL    HW239264   2.031   3.293  12.610 -0.9890 -2.0047  0.7347
 9210SOL     OW39265   4.164   1.722  14.402  0.2155 -0.1384 -0.3300
 9210SOL    HW139266   4.141   1.643  14.353 -0.2941 -0.6248  0.6888
 9210SOL    HW239267   4.254   1.704  14.431  0.0121 -0.3947  0.1453
 9211SOL     OW39268   2.892   2.454   8.632  0.2360 -0.0512 -0.1375
 9211SOL    HW139269   2.882   2.361   8.614  0.3927  0.1157 -1.0852
 9211SOL    HW239270   2.956   2.481   8.566  0.4935 -0.6220 -0.1176
 9212SOL     OW39271   4.610   4.071   9.279 -0.1392 -0.5759 -0.8220
 9212SOL    HW139272   4.670   4.003   9.310  0.2792 -0.3337 -1.1103
 9212SOL    HW239273   4.667   4.128   9.228  0.7629  1.6220  2.6326
 9213SOL     OW39274   0.185   2.438   2.477  0.3035  0.2472  0.4330
 9213SOL    HW139275   0.257   2.416   2.418 -0.0186  1.1626 -0.3099
 9213SOL    HW239276   0.242   2.460   2.552  1.9611 -1.6585 -0.2752
 9214SOL     OW39277   4.004   0.788   1.073  0.1386 -0.3949  0.1612
 9214SOL    HW139278   3.943   0.858   1.098 -0.7319 -1.1262  0.1029
 9214SOL    HW239279   3.972   0.764   0.986 -0.6957  3.3611 -0.5926
 9215SOL     OW39280   0.594   1.853   3.156  0.0185  0.0217  0.0206
 9215SOL    HW139281   0.602   1.923   3.091 -1.3413  1.3248  1.2612
 9215SOL    HW239282   0.663   1.792   3.130 -0.8455 -1.2398  0.6870
 9216SOL     OW39283   3.085   0.926   3.048  0.4814  0.0888 -0.3390
 9216SOL    HW139284   3.147   0.995   3.027 -0.5499  1.1052 -0.0487
 9216SOL    HW239285   3.071   0.957   3.138 -1.0186  0.6012 -0.7498
 9217SOL     OW39286   2.333   2.128   6.486 -0.1033  0.0715  0.0765
 9217SOL    HW139287   2.295   2.117   6.574 -2.5017  0.7218 -0.8807
 9217SOL    HW239288   2.429   2.130   6.493 -0.0520  0.6094 -0.8016
 9218SOL     OW39289   3.780   4.365  11.001  0.3088 -0.7799 -0.5607
 9218SOL    HW139290   3.792   4.373  11.095 -1.8014 -0.2628 -0.3212
 9218SOL    HW239291   3.689   4.337  10.990  0.3021 -0.1451 -2.1483
 9219SOL     OW39292   4.544   3.543  15.572  0.2885 -0.1113  0.0254
 9219SOL    HW139293   4.548   3.606  15.500  1.9635  0.5485  0.6983
 9219SOL    HW239294   4.607   3.575  15.636 -1.1751  0.2508  1.2960
 9220SOL     OW39295   1.656   3.426   4.683  0.3490  0.4003 -0.1464
 9220SOL    HW139296   1.654   3.468   4.770 -1.6135  0.3390 -0.1431
 9220SOL    HW239297   1.651   3.497   4.620  0.3723  0.3037 -0.2556
 9221SOL     OW39298   0.477   1.961   6.980 -0.4841 -0.5020  0.1397
 9221SOL    HW139299   0.402   1.901   6.981 -1.3494  0.5723  0.4321
 9221SOL    HW239300   0.477   1.989   6.888  0.9349 -0.7069  0.0795
 9222SOL     OW39301   1.719   1.359  15.422  0.0212 -0.5220  0.0277
 9222SOL    HW139302   1.639   1.369  15.371  1.2074  1.2395 -1.4940
 9222SOL    HW239303   1.679   1.375  15.507  0.6574  2.3602 -0.2109
 9223SOL     OW39304   0.689   2.996  16.817  0.2112 -0.0273  0.3248
 9223SOL    HW139305   0.678   2.977  16.724 -4.9317  0.4001  0.8437
 9223SOL    HW239306   0.742   3.076  16.812  0.4634 -0.2066  0.1214
 9224SOL     OW39307   3.474   2.727   8.568 -0.1062 -0.0070 -0.0266
 9224SOL    HW139308   3.524   2.648   8.588  0.2672 -0.1764 -1.7067
 9224SOL    HW239309   3.455   2.759   8.656  2.6171 -2.6408  1.5336
 9225SOL     OW39310   0.372   4.324  14.124 -0.0819 -0.3308  0.0467
 9225SOL    HW139311   0.343   4.361  14.040 -0.5586 -0.3197  0.2163
 9225SOL    HW239312   0.291   4.302  14.171  0.4646 -0.2060  1.0515
 9226SOL     OW39313   1.778   4.485   3.899  0.1277 -0.1171  0.2862
 9226SOL    HW139314   1.726   4.441   3.966  0.2020  1.5265  1.4255
 9226SOL    HW239315   1.798   4.407   3.847  2.0686 -0.4680  1.5381
 9227SOL     OW39316   3.939   2.232   5.237  0.0618  0.0211  0.4418
 9227SOL    HW139317   3.937   2.282   5.155 -0.7625 -0.6764  0.0387
 9227SOL    HW239318   3.890   2.295   5.288  1.4757  2.1429 -0.8303
 9228SOL     OW39319   2.780   4.330  13.723  0.2891 -0.0107 -0.0007
 9228SOL    HW139320   2.852   4.272  13.698 -1.1235 -1.6676 -0.1309
 9228SOL    HW239321   2.820   4.414  13.746 -1.3531  0.2129  1.9796
 9229SOL     OW39322   2.856   2.686   1.699 -0.0194 -0.0503 -0.3659
 9229SOL    HW139323   2.780   2.681   1.757 -0.3890  2.5059 -0.5970
 9229SOL    HW239324   2.923   2.628   1.736  0.4873  0.4090 -0.5537
 9230SOL     OW39325   4.014   3.105   3.846  0.3092  0.1628 -0.3390
 9230SOL    HW139326   4.035   3.066   3.931 -0.0809 -1.3529 -0.9337
 9230SOL    HW239327   4.086   3.168   3.843  0.6637 -0.2071  0.5003
 9231SOL     OW39328   1.297   0.931   5.292 -0.0569  0.0657 -0.0992
 9231SOL    HW139329   1.265   1.020   5.305 -1.3569 -0.3788 -0.3031
 9231SOL    HW239330   1.335   0.943   5.204  0.6344 -0.4647  0.1241
 9232SOL     OW39331   3.143   3.047   6.457  0.3496 -0.2188  0.0928
 9232SOL    HW139332   3.099   2.962   6.463  1.0105 -0.6063 -0.5949
 9232SOL    HW239333   3.222   3.030   6.508  0.4760  2.6890  0.8527
 9233SOL     OW39334   3.809   2.145   9.371  0.6075  0.0760  0.0558
 9233SOL    HW139335   3.725   2.190   9.379  0.1261 -0.9849  0.9323
 9233SOL    HW239336   3.799   2.075   9.435 -0.2205 -0.0177 -0.1856
 9234SOL     OW39337   3.010   0.648   5.198 -0.4097  0.1552 -0.1582
 9234SOL    HW139338   3.050   0.727   5.235 -0.5825  0.7719 -1.2988
 9234SOL    HW239339   2.972   0.686   5.119  0.2124  0.9194 -0.0857
 9235SOL     OW39340   4.047   3.363  10.760  0.4969  0.5148  0.7837
 9235SOL    HW139341   4.114   3.366  10.829 -0.5899 -0.2051  1.8693
 9235SOL    HW239342   4.071   3.446  10.719  0.8670  0.4894  0.9431
 9236SOL     OW39343   3.727   0.195   2.851 -0.5971 -0.3221  0.4547
 9236SOL    HW139344   3.667   0.195   2.926 -0.5112  2.0888  0.5287
 9236SOL    HW239345   3.679   0.132   2.798 -2.3559 -0.4640  2.2176
 9237SOL     OW39346   4.317   0.162   6.434  0.1371  0.1941 -0.4245
 9237SOL    HW139347   4.407   0.189   6.416  0.0177  0.8899  0.0460
 9237SOL    HW239348   4.302   0.128   6.345  1.0826 -0.9437 -0.1523
 9238SOL     OW39349   1.713   1.991   5.391  0.1890  0.3827 -0.0466
 9238SOL    HW139350   1.739   1.930   5.323  0.7677 -0.1109  0.6238
 9238SOL    HW239351   1.798   2.029   5.413  0.8027 -0.0864 -1.6066
 9239SOL     OW39352   3.578   1.771  17.530 -0.5832  0.1619  0.8019
 9239SOL    HW139353   3.625   1.732  17.604  0.6226 -0.8347 -0.4817
 9239SOL    HW239354   3.643   1.743  17.465  0.6357  2.5325  1.0068
 9240SOL     OW39355   0.770   2.958   5.783 -0.4787 -0.0110  0.4245
 9240SOL    HW139356   0.820   2.892   5.831 -1.4431 -1.4010 -0.4994
 9240SOL    HW239357   0.771   3.023   5.853  1.4671 -0.2716  0.6310
 9241SOL     OW39358   0.398   3.402   0.756 -0.1624  0.3570 -0.1421
 9241SOL    HW139359   0.362   3.427   0.671 -1.1327  0.4292  0.2906
 9241SOL    HW239360   0.447   3.482   0.776 -0.6848  0.2126  1.7652
 9242SOL     OW39361   0.539   1.063   2.413 -0.2659 -0.1716  0.2437
 9242SOL    HW139362   0.533   0.994   2.346 -0.4968  0.8839 -0.8062
 9242SOL    HW239363   0.454   1.071   2.456 -0.8335 -1.1375 -0.6839
 9243SOL     OW39364   2.428   4.129  12.740 -0.9421  0.7275 -0.0277
 9243SOL    HW139365   2.520   4.132  12.764 -1.4331 -1.7274  2.2227
 9243SOL    HW239366   2.399   4.063  12.803 -0.7873  0.1695 -0.5399
 9244SOL     OW39367   1.278   0.033   5.639  0.7014 -0.4285  0.0702
 9244SOL    HW139368   1.207   0.097   5.635 -0.3980 -1.6827 -0.4235
 9244SOL    HW239369   1.329   0.064   5.714  1.2511 -0.3446 -0.3332
 9245SOL     OW39370   2.928   1.499   2.248  0.3356  0.1533 -0.4202
 9245SOL    HW139371   2.977   1.421   2.223 -0.8396 -0.4178 -0.9812
 9245SOL    HW239372   2.889   1.449   2.320 -1.6092  0.7039 -1.0741
 9246SOL     OW39373   3.184   1.575   5.251  0.4681  0.3916 -0.1248
 9246SOL    HW139374   3.250   1.523   5.297 -0.2686  1.1587  1.7919
 9246SOL    HW239375   3.223   1.662   5.261  2.9923 -0.8699  1.1086
 9247SOL     OW39376   3.839   1.723   1.612 -0.2196 -0.0128 -0.2989
 9247SOL    HW139377   3.807   1.729   1.702 -1.4660 -3.0604 -0.5281
 9247SOL    HW239378   3.804   1.635   1.599 -0.6447  0.1906 -0.5409
 9248SOL     OW39379   3.545   4.329  14.517  0.4608  0.3571  0.3144
 9248SOL    HW139380   3.515   4.387  14.447 -2.6455 -0.2487  1.1181
 9248SOL    HW239381   3.640   4.340  14.509  0.1319  1.9458 -1.3635
 9249SOL     OW39382   0.686   1.142   2.965 -0.2653  0.0840  0.0506
 9249SOL    HW139383   0.714   1.139   2.873  0.6825  0.6589  0.3242
 9249SOL    HW239384   0.635   1.224   2.966  0.4425  0.5249 -0.3412
 9250SOL     OW39385   0.554   1.895  13.177  0.5904  0.3524  0.2595
 9250SOL    HW139386   0.553   1.800  13.189  0.7385  0.4464  1.0190
 9250SOL    HW239387   0.625   1.919  13.235 -1.1487  3.1736  1.2281
 9251SOL     OW39388   4.684   1.505   0.744  0.0143 -0.3333  0.0215
 9251SOL    HW139389   4.603   1.527   0.697 -0.9712  1.0936  2.3862
 9251SOL    HW239390   4.698   1.574   0.808  1.1956 -2.8187  2.4230
 9252SOL     OW39391   1.684   3.966   8.621  0.3113  0.2792  0.4577
 9252SOL    HW139392   1.646   4.053   8.632  0.3248  0.4223 -0.6311
 9252SOL    HW239393   1.605   3.913   8.618  0.0952  0.6965 -1.3467
 9253SOL     OW39394   4.673   2.827   8.610  0.6301 -0.4460 -0.4581
 9253SOL    HW139395   4.629   2.902   8.571 -0.9551 -0.5896  1.0447
 9253SOL    HW239396   0.012   2.873   8.646  0.6937 -0.1962 -0.9170
 9254SOL     OW39397   2.354   1.004  11.176 -0.0925  0.3894  0.3999
 9254SOL    HW139398   2.379   0.946  11.248  0.2947 -0.1328 -0.1617
 9254SOL    HW239399   2.355   1.091  11.216 -0.2098  0.3245  0.5472
 9255SOL     OW39400   3.435   1.553   6.587  0.0718 -0.4695  0.5417
 9255SOL    HW139401   3.415   1.625   6.528 -0.5070 -0.5352  0.6572
 9255SOL    HW239402   3.398   1.473   6.549  0.2667  1.0919 -2.8917
 9256SOL     OW39403   0.239   0.397  17.275 -0.4571  0.0345 -0.1365
 9256SOL    HW139404   0.193   0.319  17.244 -0.9370  0.6541 -0.9750
 9256SOL    HW239405   0.303   0.409  17.205  2.9240  3.3134  3.5502
 9257SOL     OW39406   3.966   2.703   2.972 -1.0408 -0.0953  0.3277
 9257SOL    HW139407   3.962   2.726   3.065  0.5027  0.2980  0.2930
 9257SOL    HW239408   3.944   2.785   2.928 -1.2106  0.1873  0.9432
 9258SOL     OW39409   2.556   3.797  12.886 -0.3415  0.6663 -0.3385
 9258SOL    HW139410   2.613   3.842  12.824 -0.8482 -0.4624 -1.6108
 9258SOL    HW239411   2.626   3.758  12.938  0.3940  0.2230 -1.6666
 9259SOL     OW39412   3.555   3.204   2.253  0.2533  0.4352 -0.0362
 9259SOL    HW139413   3.650   3.205   2.268  0.3559 -1.2230 -0.5740
 9259SOL    HW239414   3.518   3.271   2.310 -0.0921  0.1498  0.0692
 9260SOL     OW39415   1.430   3.815  16.037 -0.6808  0.5336 -0.2761
 9260SOL    HW139416   1.403   3.741  16.092 -1.0392  0.3687 -0.6753
 9260SOL    HW239417   1.504   3.848  16.089 -0.1198  0.0685 -0.7724
 9261SOL     OW39418   1.664   2.307   6.116 -0.4390 -0.5955  0.4750
 9261SOL    HW139419   1.728   2.301   6.187 -0.0708 -3.4096 -0.0707
 9261SOL    HW239420   1.711   2.367   6.058  0.8623 -0.5642  1.5689
 9262SOL     OW39421   3.568   0.956  11.019  0.0919  0.1346  0.4503
 9262SOL    HW139422   3.630   0.970  11.090  2.1296 -2.0705 -0.9149
 9262SOL    HW239423   3.598   1.013  10.948 -0.1704  0.7443  0.8273
 9263SOL     OW39424   2.102   1.825   4.865  0.7918  0.0443 -0.3792
 9263SOL    HW139425   2.123   1.797   4.776  0.6705  2.3543 -1.1167
 9263SOL    HW239426   2.127   1.744   4.910 -0.4449 -0.5497 -0.7724
 9264SOL     OW39427   1.025   2.925   4.517 -0.6873 -0.4655 -0.1754
 9264SOL    HW139428   0.960   2.903   4.584  0.0780 -0.0298  0.7051
 9264SOL    HW239429   1.103   2.872   4.533 -1.3821 -2.2819 -2.7328
 9265SOL     OW39430   0.839   3.586   7.379  0.1405  0.1286  0.0606
 9265SOL    HW139431   0.916   3.606   7.325 -0.5539  0.2194 -0.8851
 9265SOL    HW239432   0.831   3.491   7.389 -0.5236 -0.0037 -1.6317
 9266SOL     OW39433   4.398   2.408  12.863 -0.0348 -0.4537 -0.4992
 9266SOL    HW139434   4.369   2.364  12.943  0.9230 -0.4091 -0.1167
 9266SOL    HW239435   4.493   2.398  12.873 -0.3062 -1.7604  0.6734
 9267SOL     OW39436   2.977   1.514   8.548 -0.7923 -0.4870 -0.4670
 9267SOL    HW139437   2.991   1.464   8.628 -0.1605  0.4267 -0.0023
 9267SOL    HW239438   3.065   1.531   8.514 -1.0813  0.8234 -0.5626
 9268SOL     OW39439   1.387   1.940  11.437  0.5426 -0.3517  0.4439
 9268SOL    HW139440   1.346   2.023  11.415 -1.3882 -1.2361  0.7481
 9268SOL    HW239441   1.325   1.869  11.418  0.2666  0.2164 -0.7791
 9269SOL     OW39442   1.040   1.281  15.013  0.0028 -0.0578 -0.0579
 9269SOL    HW139443   1.029   1.328  15.096  1.9786  0.3753 -0.0509
 9269SOL    HW239444   1.037   1.351  14.948  2.4073 -1.6554 -1.8852
 9270SOL     OW39445   1.531   4.125   8.022 -0.0899 -0.4487  0.0604
 9270SOL    HW139446   1.530   4.035   8.056 -0.9666 -0.7764 -0.8341
 9270SOL    HW239447   1.622   4.130   7.992 -0.3574  3.0128 -0.1828
 9271SOL     OW39448   2.153   2.051   3.551  0.1885  0.6442 -0.2098
 9271SOL    HW139449   2.177   2.037   3.460  1.3894 -0.9067  0.3610
 9271SOL    HW239450   2.204   1.984   3.596 -0.1842 -1.6141 -3.2133
 9272SOL     OW39451   0.054   1.736   7.693  0.0824 -0.0472  0.0119
 9272SOL    HW139452   0.071   1.745   7.599 -0.4549  1.1118  0.0249
 9272SOL    HW239453   0.049   1.828   7.719  1.1146  0.1999 -0.6323
 9273SOL     OW39454   4.265   2.816   3.307 -0.0428  0.8013 -0.0348
 9273SOL    HW139455   4.301   2.787   3.223  3.2316 -1.6960  2.2777
 9273SOL    HW239456   4.177   2.778   3.299 -0.8536  2.6210  0.2517
 9274SOL     OW39457   1.558   3.249   4.042  0.2226  1.0467  0.5239
 9274SOL    HW139458   1.618   3.213   4.107 -0.0798 -0.3864  0.0297
 9274SOL    HW239459   1.585   3.340   4.041 -0.1501  1.1472 -0.3901
 9275SOL     OW39460   1.426   0.054   2.326  0.6790  0.1577  0.3098
 9275SOL    HW139461   1.478   0.126   2.290  0.4438  0.2298  0.1134
 9275SOL    HW239462   1.380   0.105   2.392 -1.3848 -1.8803  0.4102
 9276SOL     OW39463   2.579   0.775   2.144 -0.0937 -0.1519  0.7827
 9276SOL    HW139464   2.658   0.802   2.191  0.5952  0.4417 -0.7103
 9276SOL    HW239465   2.529   0.726   2.209 -0.3797  2.4604  2.5305
 9277SOL     OW39466   0.752   3.469   8.365 -0.5346 -0.6672 -0.3235
 9277SOL    HW139467   0.672   3.429   8.332 -0.0958  0.9622 -3.4390
 9277SOL    HW239468   0.712   3.549   8.400  0.6190 -0.5442  0.7359
 9278SOL     OW39469   1.017   1.621   0.999 -0.3820 -0.1137 -0.0922
 9278SOL    HW139470   1.092   1.602   1.055 -1.3502 -2.0618  0.5377
 9278SOL    HW239471   1.028   1.716   1.000 -2.2848  0.1000 -0.2487
 9279SOL     OW39472   1.000   1.453  10.351 -0.0993  0.2876  0.1408
 9279SOL    HW139473   0.952   1.455  10.434 -3.0380  1.8417 -1.5812
 9279SOL    HW239474   1.059   1.383  10.378 -1.7443 -1.2716 -0.2512
 9280SOL     OW39475   0.113   0.348   5.785  0.1242 -0.1011  0.2509
 9280SOL    HW139476   0.081   0.279   5.843 -0.2978 -1.4230 -1.5339
 9280SOL    HW239477   0.038   0.351   5.726  1.9396 -0.1821 -2.1018
 9281SOL     OW39478   1.551   4.354   0.251  0.1945  0.0060  0.2495
 9281SOL    HW139479   1.600   4.358   0.169  1.5367 -0.3783  1.0249
 9281SOL    HW239480   1.463   4.371   0.218 -0.6439 -1.2317  1.8214
 9282SOL     OW39481   3.926   1.787  12.251  0.0067 -0.6232  0.2635
 9282SOL    HW139482   3.969   1.746  12.176 -0.9861 -1.9008  0.4004
 9282SOL    HW239483   4.000   1.842  12.279  1.0234 -1.8008 -0.0978
 9283SOL     OW39484   1.426   3.924  10.457  0.3222  0.2826  0.1832
 9283SOL    HW139485   1.420   4.018  10.440  0.2120  0.1963 -0.2591
 9283SOL    HW239486   1.370   3.912  10.533 -2.1494  0.9661 -1.5615
 9284SOL     OW39487   2.413   0.974   2.171  0.0415  0.0882  0.1814
 9284SOL    HW139488   2.464   0.893   2.180 -0.9082 -0.1788  3.1869
 9284SOL    HW239489   2.474   1.016   2.110 -1.5793 -0.0234 -1.5104
 9285SOL     OW39490   4.707   0.696   6.996  0.4512 -0.2128 -0.8412
 9285SOL    HW139491   4.734   0.678   7.086  1.7937  1.1391 -0.9731
 9285SOL    HW239492   4.712   0.791   6.998 -2.1239 -0.1180  1.2440
 9286SOL     OW39493   2.742   1.161   8.374 -0.1346 -0.7994 -0.5972
 9286SOL    HW139494   2.745   1.119   8.460  0.5056  0.0693 -0.2040
 9286SOL    HW239495   2.833   1.156   8.346 -0.1631  0.7324 -0.9473
 9287SOL     OW39496   3.825   1.132  10.422 -0.5671 -0.0886  0.8723
 9287SOL    HW139497   3.820   1.202  10.487  0.4135 -0.0130  0.8719
 9287SOL    HW239498   3.845   1.052  10.471  0.7233 -0.9684 -1.0895
 9288SOL     OW39499   4.693   1.975   7.570 -0.0272  0.0684  0.0535
 9288SOL    HW139500   4.679   2.037   7.642  3.1086  0.0582  0.6846
 9288SOL    HW239501   4.605   1.950   7.542 -0.3824  2.1801 -0.7691
 9289SOL     OW39502   4.710   1.258  12.918  0.2845 -0.4669  0.4530
 9289SOL    HW139503   4.723   1.318  12.845 -0.5354  2.9821  3.1265
 9289SOL    HW239504   0.011   1.176  12.886 -1.1936 -0.6282 -0.9175
 9290SOL     OW39505   2.525   0.937   5.666  0.0862 -0.2329 -0.3126
 9290SOL    HW139506   2.604   0.901   5.705 -1.1335 -0.9032  1.5297
 9290SOL    HW239507   2.492   0.858   5.624  0.2785 -0.8682  0.7416
 9291SOL     OW39508   1.166   3.145   6.628 -0.1426 -0.6125 -0.1359
 9291SOL    HW139509   1.184   3.091   6.705  0.2434 -1.1016 -0.5659
 9291SOL    HW239510   1.088   3.102   6.592 -1.2865  2.0377 -0.8141
 9292SOL     OW39511   0.075   0.539   9.913  0.1967 -0.2059  0.0953
 9292SOL    HW139512   0.048   0.494   9.993 -0.5914  2.0619  1.1001
 9292SOL    HW239513   0.095   0.624   9.951 -0.6180 -0.8412  1.9361
 9293SOL     OW39514   3.272   0.992   8.805  0.1759  0.1858 -0.2352
 9293SOL    HW139515   3.325   0.953   8.736  0.2459 -1.2055  0.6246
 9293SOL    HW239516   3.319   1.071   8.832 -0.0080  0.4587 -0.6964
 9294SOL     OW39517   4.327   3.230   3.753  0.5249 -0.0096  0.4937
 9294SOL    HW139518   4.344   3.187   3.669 -1.7700  0.2995 -0.1195
 9294SOL    HW239519   4.361   3.165   3.815 -0.8862  0.7105  1.9979
 9295SOL     OW39520   1.950   1.032   3.314  0.2881  0.5488 -0.1716
 9295SOL    HW139521   1.964   1.011   3.407 -1.6062 -2.3146 -0.5641
 9295SOL    HW239522   1.916   0.953   3.272 -2.5043  1.4458  0.3942
 9296SOL     OW39523   1.974   0.851  11.897  0.7265 -0.2248  0.1608
 9296SOL    HW139524   2.044   0.915  11.884  0.8034  0.2052  2.6909
 9296SOL    HW239525   1.968   0.859  11.992  2.7174 -0.9003  0.3611
 9297SOL     OW39526   1.672   1.297   8.097  0.6420 -0.1993 -0.3218
 9297SOL    HW139527   1.579   1.313   8.112  0.0521 -4.4092  0.5244
 9297SOL    HW239528   1.685   1.203   8.107  0.5179 -0.1692  0.0984
 9298SOL     OW39529   2.413   4.291   2.606 -0.1404 -1.1236  0.2480
 9298SOL    HW139530   2.391   4.271   2.515 -1.9570  1.6988  0.0942
 9298SOL    HW239531   2.337   4.346   2.622 -0.9407 -1.8562 -1.0401
 9299SOL     OW39532   4.249   3.105   5.698 -0.1409  0.4621 -0.0193
 9299SOL    HW139533   4.295   3.035   5.653 -1.3516  0.2954 -1.0077
 9299SOL    HW239534   4.167   3.065   5.730 -1.0176  1.6885 -0.7396
 9300SOL     OW39535   1.310   2.628   8.776  0.3738 -0.1323  0.1997
 9300SOL    HW139536   1.353   2.589   8.699 -2.8432 -2.2975 -0.4874
 9300SOL    HW239537   1.277   2.549   8.819 -0.7983 -1.1159 -2.5053
 9301SOL     OW39538   0.638   3.471  16.749 -0.0448 -0.4992  0.3850
 9301SOL    HW139539   0.581   3.450  16.675 -1.6070 -0.5342  1.6016
 9301SOL    HW239540   0.691   3.544  16.718 -1.3488  0.6769  0.9122
 9302SOL     OW39541   1.862   1.241   2.225  0.2899 -0.4976  0.5247
 9302SOL    HW139542   1.851   1.208   2.135  1.2422  2.1306 -0.5428
 9302SOL    HW239543   1.916   1.315   2.199 -0.7916  0.0517 -0.1491
 9303SOL     OW39544   4.608   0.186  17.085 -0.4343 -0.1552 -0.6952
 9303SOL    HW139545   4.527   0.150  17.122  0.4717 -0.5263  0.9144
 9303SOL    HW239546   4.604   0.142  17.000  2.3372 -0.0200 -0.9003
 9304SOL     OW39547   3.775   2.194   6.240 -0.5132 -0.0706  0.4230
 9304SOL    HW139548   3.681   2.211   6.249 -0.7497 -0.9688 -0.3078
 9304SOL    HW239549   3.797   2.254   6.169  0.3139 -1.1161 -0.2006
 9305SOL     OW39550   2.206   3.767   4.460  0.2893 -0.3932  0.2470
 9305SOL    HW139551   2.234   3.734   4.545  1.7934 -0.4061 -0.2685
 9305SOL    HW239552   2.233   3.858   4.469 -0.8689 -0.1000  0.7534
 9306SOL     OW39553   3.204   2.184  14.871  0.0964 -0.1060  0.4712
 9306SOL    HW139554   3.290   2.215  14.899  1.2024 -0.1573 -2.9165
 9306SOL    HW239555   3.232   2.095  14.851  1.1457  0.5200 -0.8638
 9307SOL     OW39556   0.209   0.951   6.143 -0.1490 -0.4417 -0.0424
 9307SOL    HW139557   0.245   0.965   6.231  0.3993  0.6019 -0.4346
 9307SOL    HW239558   0.226   1.033   6.097 -0.5894 -0.5505 -0.3905
 9308SOL     OW39559   2.789   3.674  12.995 -0.9678  0.1000 -0.1696
 9308SOL    HW139560   2.884   3.669  12.982 -0.5916  0.6202  2.4485
 9308SOL    HW239561   2.768   3.590  13.037 -1.1380 -0.5023 -1.4470
 9309SOL     OW39562   0.276   4.022   2.451 -0.3862 -0.8060  0.1236
 9309SOL    HW139563   0.343   3.954   2.441  0.3183 -0.2960  1.3810
 9309SOL    HW239564   0.257   4.042   2.359 -3.7997 -1.8944  0.5950
 9310SOL     OW39565   2.845   0.937  12.374  0.3932  0.0447  0.1637
 9310SOL    HW139566   2.862   0.927  12.468 -1.5542 -0.2332  0.4883
 9310SOL    HW239567   2.768   0.881  12.371  0.1031  0.5383 -1.6515
 9311SOL     OW39568   0.106   1.328  15.532  0.5739 -0.1827  0.3380
 9311SOL    HW139569   0.122   1.234  15.525 -2.5190 -0.7094  0.1168
 9311SOL    HW239570   0.072   1.328  15.621  2.6251 -0.6668  1.1036
 9312SOL     OW39571   0.509   2.329   7.983  0.0232 -0.1299 -0.0764
 9312SOL    HW139572   0.552   2.244   7.971  0.2667 -0.2243  1.4728
 9312SOL    HW239573   0.572   2.386   7.939  0.9496  0.1920  1.6284
 9313SOL     OW39574   4.588   2.432  10.238  0.0681 -0.1782 -0.2855
 9313SOL    HW139575   4.618   2.517  10.204 -1.7903  0.5932 -0.0052
 9313SOL    HW239576   4.673   2.399  10.266  1.2553  2.9948 -0.0717
 9314SOL     OW39577   2.231   3.706   4.738  0.1498 -0.4860 -0.3849
 9314SOL    HW139578   2.325   3.695   4.753 -0.2731  0.9139  3.1909
 9314SOL    HW239579   2.203   3.614   4.744  0.8541 -0.6107  1.0059
 9315SOL     OW39580   3.113   0.533   0.055 -0.0282  0.0466 -0.4173
 9315SOL    HW139581   3.084   0.576   0.136  0.4074 -1.0222  0.2981
 9315SOL    HW239582   3.042   0.469   0.047  1.0531 -1.5275  2.7595
 9316SOL     OW39583   0.942   0.963   7.646 -0.2847 -0.6624 -0.1151
 9316SOL    HW139584   0.907   0.905   7.713  3.9786 -0.8568  1.9241
 9316SOL    HW239585   0.861   0.971   7.595 -1.8253  0.9404  2.5764
 9317SOL     OW39586   2.423   2.379   7.595  0.0946 -0.4899  0.0441
 9317SOL    HW139587   2.434   2.286   7.616 -0.4299 -0.6039 -0.1757
 9317SOL    HW239588   2.484   2.420   7.656 -0.6440  0.0264  0.4374
 9318SOL     OW39589   0.805   3.260  16.788  0.1721 -0.2892 -0.1724
 9318SOL    HW139590   0.883   3.284  16.839  0.8389 -3.0003  0.0849
 9318SOL    HW239591   0.749   3.337  16.791  1.4026  0.5171  1.9565
 9319SOL     OW39592   2.713   1.366   8.844 -0.2725  0.5504 -0.7056
 9319SOL    HW139593   2.760   1.442   8.880  1.7068 -1.1399  0.3000
 9319SOL    HW239594   2.660   1.335   8.918  0.9749 -2.0350 -0.9261
 9320SOL     OW39595   1.500   1.882   0.962 -0.2430 -0.3828  0.0075
 9320SOL    HW139596   1.531   1.832   1.038  0.1075 -2.2797 -1.3923
 9320SOL    HW239597   1.527   1.969   0.990  1.3932 -1.3040  1.2679
 9321SOL     OW39598   0.577   3.289   2.856 -0.3552 -0.2977  0.1416
 9321SOL    HW139599   0.623   3.206   2.847 -0.0783 -0.3345  1.9752
 9321SOL    HW239600   0.507   3.266   2.794 -0.1692  1.0290 -0.5747
 9322SOL     OW39601   1.822   4.382   2.671 -0.2369  0.1709  0.5151
 9322SOL    HW139602   1.771   4.385   2.590  0.4206  0.1787  0.1038
 9322SOL    HW239603   1.858   4.470   2.675  3.0112 -1.1668  1.4376
 9323SOL     OW39604   3.105   2.940   2.361 -0.2688  0.1162 -0.3832
 9323SOL    HW139605   3.063   2.964   2.279 -0.3044  0.5533 -0.2343
 9323SOL    HW239606   3.138   3.019   2.402  1.2340  0.3579 -2.0664
 9324SOL     OW39607   2.218   4.640  16.665 -0.2762 -0.2224  0.7160
 9324SOL    HW139608   2.125   4.656  16.682 -0.4347  0.9450 -1.2209
 9324SOL    HW239609   2.218   4.650  16.570 -0.9903 -2.2123  0.5025
 9325SOL     OW39610   2.471   1.697   8.611  0.9981  0.1835  0.0977
 9325SOL    HW139611   2.539   1.693   8.679  0.2375 -1.8786  0.7551
 9325SOL    HW239612   2.461   1.602   8.604 -1.3257  0.6669 -2.9096
 9326SOL     OW39613   0.059   3.099  16.838 -0.3784 -0.7789 -0.3308
 9326SOL    HW139614   0.075   3.062  16.751 -0.8351 -0.1808 -0.6708
 9326SOL    HW239615   4.700   3.097  16.845 -0.2627 -0.8078  1.2161
 9327SOL     OW39616   3.742   2.815   9.770  0.5759  0.3865 -0.1746
 9327SOL    HW139617   3.793   2.797   9.691 -0.0716  0.6717 -0.6605
 9327SOL    HW239618   3.784   2.745   9.821 -0.4042  0.0904  0.2253
 9328SOL     OW39619   3.280   2.954   8.722  0.3195  0.1923 -0.9020
 9328SOL    HW139620   3.303   2.919   8.808 -0.4579 -1.0130 -1.1927
 9328SOL    HW239621   3.333   3.033   8.731  2.2247 -0.9622 -2.0623
 9329SOL     OW39622   3.562   2.132   0.241  0.5229 -0.0033  0.0087
 9329SOL    HW139623   3.651   2.125   0.277  0.9212 -1.2284 -1.1929
 9329SOL    HW239624   3.549   2.052   0.190  0.0810  1.1131 -1.6137
 9330SOL     OW39625   4.641   1.059   0.542 -0.3419 -0.1455  0.1826
 9330SOL    HW139626   4.604   1.111   0.471 -0.6333 -0.1364  0.3395
 9330SOL    HW239627   4.720   1.023   0.504  0.7219  2.4784 -0.1006
 9331SOL     OW39628   0.323   2.166  13.684 -0.4223  0.3768 -0.0907
 9331SOL    HW139629   0.285   2.202  13.764 -0.2008 -1.9826  1.0639
 9331SOL    HW239630   0.292   2.077  13.698  1.0602  0.1112  1.3992
 9332SOL     OW39631   4.132   1.676   6.450 -0.1087  0.1358  0.2468
 9332SOL    HW139632   4.217   1.696   6.410  0.9358 -1.5146  1.6353
 9332SOL    HW239633   4.144   1.585   6.480 -0.6039  0.3238  1.0077
 9333SOL     OW39634   3.890   0.979   4.203  0.3736  0.4407  0.3637
 9333SOL    HW139635   3.840   0.963   4.123  0.0264 -0.4495  0.7586
 9333SOL    HW239636   3.975   0.937   4.189  0.0323 -0.3961  0.7961
 9334SOL     OW39637   2.991   3.074   8.612 -0.2085  0.8739  0.2782
 9334SOL    HW139638   2.993   3.007   8.680 -1.8502 -0.6691 -1.1692
 9334SOL    HW239639   3.068   3.128   8.628  0.4126  0.0132  0.2052
 9335SOL     OW39640   1.487   3.511   3.145 -1.0145  0.5405 -0.3775
 9335SOL    HW139641   1.400   3.474   3.131 -0.7634  0.7774 -2.5637
 9335SOL    HW239642   1.522   3.506   3.056 -1.5075 -2.9231 -0.3597
 9336SOL     OW39643   2.297   4.568   3.721  0.6317 -0.3789  0.5448
 9336SOL    HW139644   2.382   4.550   3.761  1.0649 -1.6962 -0.9515
 9336SOL    HW239645   2.322   4.585   3.630 -0.7790 -1.0835  0.0217
 9337SOL     OW39646   2.358   1.307   7.803 -0.0795  0.9555 -0.3330
 9337SOL    HW139647   2.417   1.242   7.843 -0.2423  0.4357 -0.9436
 9337SOL    HW239648   2.302   1.330   7.877  1.3466 -2.0586  1.7337
 9338SOL     OW39649   0.256   1.922  17.273  0.0119  0.5301 -0.4415
 9338SOL    HW139650   0.351   1.921  17.264  0.2243 -4.1212  2.7631
 9338SOL    HW239651   0.256   1.894  17.364  0.8949  0.4080 -0.4766
 9339SOL     OW39652   1.252   1.059   2.455 -0.0841  0.7387  0.1294
 9339SOL    HW139653   1.329   1.115   2.457 -0.3275  1.0394  1.0810
 9339SOL    HW239654   1.286   0.976   2.488  0.4952  1.5162  1.4977
 9340SOL     OW39655   0.736   0.869   0.139 -0.0393  0.3666 -0.1504
 9340SOL    HW139656   0.697   0.825   0.063 -0.6339 -1.1389  1.0280
 9340SOL    HW239657   0.825   0.842   0.115  1.1662  2.1052  2.3940
 9341SOL     OW39658   1.640   3.017   5.455  0.3726 -0.0088  0.3232
 9341SOL    HW139659   1.625   2.934   5.500  1.0273 -0.9364 -1.1772
 9341SOL    HW239660   1.632   2.997   5.362 -2.6153  0.7615  0.4160
 9342SOL     OW39661   1.003   4.109   2.892  0.2590 -0.3150 -0.5248
 9342SOL    HW139662   0.945   4.177   2.858 -0.6111 -1.2902 -0.9887
 9342SOL    HW239663   1.041   4.158   2.965 -1.4119 -0.8485  0.7074
 9343SOL     OW39664   4.071   4.047   6.906 -0.4908  0.3649 -0.2342
 9343SOL    HW139665   4.077   3.960   6.945  0.3349  1.1037  1.3091
 9343SOL    HW239666   3.976   4.059   6.899 -0.8325 -2.5419 -0.3587
 9344SOL     OW39667   1.315   1.724   6.140 -0.7544  0.2737  0.6360
 9344SOL    HW139668   1.354   1.730   6.228  2.1286  0.9775 -0.6871
 9344SOL    HW239669   1.365   1.662   6.088  1.8840  3.2769 -0.4257
 9345SOL     OW39670   0.596   0.801   3.234  0.2611  0.4885  0.4360
 9345SOL    HW139671   0.550   0.879   3.202 -0.4774 -0.1702 -0.1076
 9345SOL    HW239672   0.528   0.738   3.260 -1.0886  1.8967  0.3282
 9346SOL     OW39673   1.762   1.020   8.123  0.3175 -0.4679  0.0729
 9346SOL    HW139674   1.779   0.951   8.058  1.7805  0.2105 -0.2743
 9346SOL    HW239675   1.745   0.965   8.200 -0.1782 -2.2031 -1.2715
 9347SOL     OW39676   1.733   2.739  12.946 -0.1543  0.4529 -0.3018
 9347SOL    HW139677   1.700   2.681  12.878  0.9387  0.2637 -0.6818
 9347SOL    HW239678   1.783   2.803  12.895 -0.4846  1.3401  0.4765
 9348SOL     OW39679   4.488   3.451   1.330  0.0827 -0.7943 -0.4097
 9348SOL    HW139680   4.439   3.369   1.320  0.5623 -0.9229 -1.6559
 9348SOL    HW239681   4.554   3.451   1.262  0.8667 -0.4067  0.3550
 9349SOL     OW39682   1.659   3.199  15.504 -0.4864  0.4148 -0.1138
 9349SOL    HW139683   1.621   3.206  15.416  0.4634  2.1252 -0.3959
 9349SOL    HW239684   1.613   3.134  15.556 -1.0468  0.7605 -0.1727
 9350SOL     OW39685   0.604   3.694  12.151  0.5163  0.5609 -0.4335
 9350SOL    HW139686   0.612   3.609  12.195 -0.4243  1.0965  0.7617
 9350SOL    HW239687   0.697   3.710  12.135  1.2854 -1.1118  2.3935
 9351SOL     OW39688   2.508   0.046   3.651  0.6404  0.1068 -0.2172
 9351SOL    HW139689   2.533   0.116   3.712  0.2954 -0.2883  0.3695
 9351SOL    HW239690   2.447   0.097   3.597 -1.0497  0.7381  2.2938
 9352SOL     OW39691   1.133   4.188  11.887  0.1700  0.5386 -1.0222
 9352SOL    HW139692   1.112   4.281  11.897  0.1897  0.3939  0.2641
 9352SOL    HW239693   1.219   4.182  11.928 -0.7422  0.4705  0.8413
 9353SOL     OW39694   3.477   3.797   5.184 -0.5243 -0.3159  0.4846
 9353SOL    HW139695   3.545   3.847   5.229  0.6759 -1.0049 -0.5443
 9353SOL    HW239696   3.398   3.820   5.233 -0.7895  0.4450 -0.3195
 9354SOL     OW39697   2.749   1.316   1.346 -0.3304 -0.1890 -0.0325
 9354SOL    HW139698   2.768   1.309   1.253 -1.8221 -0.5068 -0.3210
 9354SOL    HW239699   2.750   1.222   1.365 -0.1956 -0.3575 -0.8962
 9355SOL     OW39700   2.785   4.445  15.901  0.5665  0.0611  0.4414
 9355SOL    HW139701   2.791   4.536  15.928 -2.0868  0.0708  1.0048
 9355SOL    HW239702   2.870   4.413  15.930  0.7711  0.6100  0.4445
 9356SOL     OW39703   0.170   1.623   6.256 -0.3658  0.3398 -0.1452
 9356SOL    HW139704   0.099   1.669   6.301 -0.2440  0.2638  0.1210
 9356SOL    HW239705   0.123   1.620   6.172  1.3085  1.9286 -1.1444
 9357SOL     OW39706   1.095   0.906   0.272  0.1244 -0.9737  0.2489
 9357SOL    HW139707   1.167   0.891   0.332  1.9561 -0.7680 -1.8853
 9357SOL    HW239708   1.103   0.993   0.231 -1.1637 -2.0879 -2.4178
 9358SOL     OW39709   2.652   2.483   9.115  0.5303  0.8225  0.5702
 9358SOL    HW139710   2.675   2.476   9.022 -0.2515 -0.7840  0.4805
 9358SOL    HW239711   2.561   2.514   9.119 -0.1803 -0.9851 -1.4211
 9359SOL     OW39712   2.880   0.918   2.023  0.0352 -0.2346  0.7217
 9359SOL    HW139713   2.956   0.964   2.059 -0.2879  1.5076 -0.8180
 9359SOL    HW239714   2.862   0.847   2.084 -0.8106  0.7959  1.6810
 9360SOL     OW39715   2.645   2.144   6.465 -0.3685 -0.0192  0.3663
 9360SOL    HW139716   2.673   2.223   6.419  0.0144 -0.5853 -0.3597
 9360SOL    HW239717   2.696   2.079   6.418 -0.6235 -1.9009  2.6951
 9361SOL     OW39718   0.424   2.308   1.795  0.0335  0.6018  0.5602
 9361SOL    HW139719   0.368   2.279   1.868 -2.0304  1.0219 -0.8691
 9361SOL    HW239720   0.493   2.345   1.850 -0.2201  0.9840  0.6195
 9362SOL     OW39721   3.132   3.370  13.712  0.1410  0.6446  0.3333
 9362SOL    HW139722   3.045   3.354  13.749  1.0304 -1.3612  1.5481
 9362SOL    HW239723   3.186   3.336  13.783  2.2157 -1.6865 -2.3901
 9363SOL     OW39724   3.681   2.928   1.675 -0.0168  0.0113  0.4599
 9363SOL    HW139725   3.674   3.017   1.640  0.6767 -0.1261 -0.0453
 9363SOL    HW239726   3.743   2.890   1.612  0.3056  0.6243  0.4137
 9364SOL     OW39727   1.171   4.356   4.055  0.0146 -0.0880  0.0148
 9364SOL    HW139728   1.244   4.317   4.103 -0.1308  1.5842  1.5641
 9364SOL    HW239729   1.215   4.423   4.002  0.9554 -0.8544 -0.1855
 9365SOL     OW39730   0.049   0.550  16.740 -0.3947  0.2132  0.0279
 9365SOL    HW139731   0.036   0.593  16.825 -1.4682  0.2083 -0.1333
 9365SOL    HW239732   4.693   0.541  16.722 -0.1056 -0.4119 -1.1455
 9366SOL     OW39733   1.969   3.956  12.601  0.1128  0.1315 -0.3958
 9366SOL    HW139734   1.904   3.983  12.537 -0.8442 -1.6359 -0.1647
 9366SOL    HW239735   2.031   4.029  12.610 -0.4342 -0.0029  4.3712
 9367SOL     OW39736   4.343   2.717   0.421  1.2754 -0.4060 -0.0686
 9367SOL    HW139737   4.260   2.679   0.450  0.1311  0.6205 -2.0129
 9367SOL    HW239738   4.374   2.647   0.364 -2.3662 -1.6401 -0.5276
 9368SOL     OW39739   2.782   3.554   2.749 -0.0340  0.5980 -0.0833
 9368SOL    HW139740   2.781   3.536   2.843  1.9218  1.9189  0.1920
 9368SOL    HW239741   2.744   3.473   2.715  0.0718  0.3094  0.4816
 9369SOL     OW39742   0.075   3.988   2.667 -0.1835 -0.2200 -0.2376
 9369SOL    HW139743   0.077   3.894   2.648 -0.0858 -0.7801  2.6652
 9369SOL    HW239744   0.101   4.022   2.580  0.5443  1.1803  0.5201
 9370SOL     OW39745   4.178   1.993   3.158 -0.0072  0.1874 -0.7215
 9370SOL    HW139746   4.100   1.938   3.151 -1.2659  1.8825  0.0118
 9370SOL    HW239747   4.227   1.970   3.078  2.2471 -0.1243  0.7580
 9371SOL     OW39748   4.396   2.457  15.459  1.3618 -0.3584  0.2830
 9371SOL    HW139749   4.376   2.373  15.417  2.0053 -0.5757  0.4213
 9371SOL    HW239750   4.491   2.446  15.456  1.5488  1.1561  0.8164
 9372SOL     OW39751   3.941   0.819   7.078 -0.4229 -0.2286  0.4069
 9372SOL    HW139752   3.975   0.899   7.037  0.0744 -0.9932 -0.6637
 9372SOL    HW239753   3.927   0.844   7.169 -2.3029 -1.0866  0.3445
 9373SOL     OW39754   2.168   2.887   2.929  0.2490  0.3014 -0.0547
 9373SOL    HW139755   2.106   2.818   2.953  0.9262  0.9319  3.5296
 9373SOL    HW239756   2.254   2.847   2.935  0.1679  0.4226  2.1522
 9374SOL     OW39757   0.907   3.089   4.014 -0.2331  0.4660  0.0254
 9374SOL    HW139758   0.833   3.029   4.008  0.4561 -0.0931 -2.9605
 9374SOL    HW239759   0.939   3.068   4.102 -1.6595  0.7104  0.6024
 9375SOL     OW39760   1.903   3.355   8.209 -0.4744 -0.4008 -0.0878
 9375SOL    HW139761   1.816   3.389   8.186 -1.2211 -0.9062  1.9866
 9375SOL    HW239762   1.896   3.261   8.224  0.7755 -0.9904 -3.0673
 9376SOL     OW39763   2.848   1.933   1.561 -0.1995  0.3744  0.4105
 9376SOL    HW139764   2.882   2.004   1.507  1.8409 -0.0174  1.1843
 9376SOL    HW239765   2.879   1.963   1.646  1.1868  0.6384 -0.1803
 9377SOL     OW39766   2.001   0.387   9.466  0.3368  0.6384  0.4085
 9377SOL    HW139767   2.061   0.312   9.473 -0.5339  0.1208  2.3884
 9377SOL    HW239768   2.030   0.437   9.542 -2.0996  0.9509  1.1424
 9378SOL     OW39769   1.069   1.612   3.525  0.4959  0.1283  0.1935
 9378SOL    HW139770   1.059   1.559   3.603  2.0105 -0.0651  0.2586
 9378SOL    HW239771   1.164   1.616   3.516  0.4839 -1.7264 -0.7380
 9379SOL     OW39772   0.721   4.302  17.405  0.1997  0.1401 -0.0127
 9379SOL    HW139773   0.709   4.344  17.320 -1.1148 -0.6841 -0.2237
 9379SOL    HW239774   0.808   4.269  17.382  0.3233 -0.4832  1.3847
 9380SOL     OW39775   2.853   0.295   9.560 -0.0371  0.0015  0.0800
 9380SOL    HW139776   2.830   0.297   9.467 -1.4235 -1.8103  0.3764
 9380SOL    HW239777   2.811   0.217   9.597 -3.0377  1.2963 -0.6366
 9381SOL     OW39778   3.197   1.547   7.867  0.1052 -0.1457  0.1407
 9381SOL    HW139779   3.272   1.525   7.922  0.8984 -2.6148 -1.9384
 9381SOL    HW239780   3.153   1.463   7.878 -1.3567  0.2125 -2.8537
 9382SOL     OW39781   0.254   4.654   6.068  0.0109  0.4276  0.5857
 9382SOL    HW139782   0.264   4.723   6.134 -2.4967  2.4369 -1.1390
 9382SOL    HW239783   0.247   4.575   6.121  2.4206  1.5657  2.6024
 9383SOL     OW39784   0.657   3.311   5.545  0.0113  0.2500  0.6041
 9383SOL    HW139785   0.569   3.287   5.574  0.9272 -1.3701  2.0230
 9383SOL    HW239786   0.704   3.228   5.542  2.9371  1.9806 -2.2790
 9384SOL     OW39787   0.645   1.762   8.057 -0.4183 -0.4750  0.3064
 9384SOL    HW139788   0.607   1.677   8.036 -0.8608 -0.4963  1.1689
 9384SOL    HW239789   0.687   1.740   8.141  0.1412  0.5482  0.2918
 9385SOL     OW39790   2.385   2.760  16.657 -0.0380 -0.5932  0.0852
 9385SOL    HW139791   2.342   2.679  16.630 -1.3046  0.0419  0.1734
 9385SOL    HW239792   2.311   2.821  16.654 -0.9653 -1.5627  2.6091
 9386SOL     OW39793   3.146   4.137   3.592 -0.3817  0.4814  0.0441
 9386SOL    HW139794   3.160   4.213   3.648  1.1457  0.9820 -1.0211
 9386SOL    HW239795   3.204   4.069   3.626  0.8757  0.7074 -1.6567
 9387SOL     OW39796   0.426   1.748  10.445  0.3275  0.0443  0.4197
 9387SOL    HW139797   0.471   1.830  10.466  0.6043  0.0542 -0.2180
 9387SOL    HW239798   0.388   1.723  10.530  2.3648 -1.4449  0.8986
 9388SOL     OW39799   1.192   2.417   3.356 -0.2084  0.6004  0.4330
 9388SOL    HW139800   1.141   2.344   3.322 -0.4790 -0.3183  2.7831
 9388SOL    HW239801   1.243   2.437   3.278 -0.7304  0.5079  0.0647
 9389SOL     OW39802   4.552   3.410   5.653 -0.2518 -0.6362 -0.0219
 9389SOL    HW139803   4.485   3.416   5.586  0.9802  0.7178 -1.1481
 9389SOL    HW239804   4.509   3.347   5.710  1.2492  0.1758  2.0281
 9390SOL     OW39805   0.934   2.895   7.835 -0.1599  0.0785  0.1474
 9390SOL    HW139806   0.930   2.981   7.795  2.3301  0.2592  0.2603
 9390SOL    HW239807   0.876   2.902   7.910  0.9661  0.1711  1.0062
 9391SOL     OW39808   0.332   1.148   6.695  0.0270  0.7683 -0.2373
 9391SOL    HW139809   0.427   1.152   6.703  0.1489 -1.3230 -0.6921
 9391SOL    HW239810   0.319   1.194   6.612 -3.0610  0.5165  0.1242
 9392SOL     OW39811   2.678   4.620   8.854  0.4770  0.3859 -0.0687
 9392SOL    HW139812   2.762   4.663   8.867  1.3120 -1.3268  0.1829
 9392SOL    HW239813   2.627   4.698   8.831 -1.2142 -0.7411 -0.1850
 9393SOL     OW39814   0.430   2.702  17.537  0.0407 -0.5482  0.4516
 9393SOL    HW139815   0.512   2.704  17.489 -0.8117 -0.2718 -0.9970
 9393SOL    HW239816   0.372   2.683  17.464 -1.3053 -1.1686  1.6703
 9394SOL     OW39817   0.538   3.912  10.304 -0.6131 -0.0463  0.1107
 9394SOL    HW139818   0.566   3.833  10.350  0.2752  1.7683  2.6534
 9394SOL    HW239819   0.444   3.913  10.321 -0.4751 -0.0818  0.8782
 9395SOL     OW39820   3.215   0.898   7.817  0.4198  0.3310 -0.2563
 9395SOL    HW139821   3.171   0.971   7.859  1.4386  1.8701 -1.8982
 9395SOL    HW239822   3.144   0.836   7.836  0.7751 -0.0810 -0.2480
 9396SOL     OW39823   1.037   0.650  11.482  0.0507  0.1218 -0.0382
 9396SOL    HW139824   1.021   0.697  11.400 -3.3228  0.0512  0.5601
 9396SOL    HW239825   1.053   0.715  11.549  0.0823 -0.6295  0.6826
 9397SOL     OW39826   4.217   1.233   0.760  0.5680 -0.4101  0.1529
 9397SOL    HW139827   4.154   1.173   0.719  0.6063 -0.9684  0.9028
 9397SOL    HW239828   4.196   1.308   0.704 -0.3257 -0.4089  0.4824
 9398SOL     OW39829   2.300   0.157   5.162 -0.2682  0.1252  0.5261
 9398SOL    HW139830   2.384   0.117   5.139  0.0747  0.8139  0.5668
 9398SOL    HW239831   2.320   0.225   5.227  0.1250  0.6779 -0.1799
 9399SOL     OW39832   4.033   3.806   3.151  0.1230  0.0474 -0.0634
 9399SOL    HW139833   3.950   3.833   3.112  0.7778  0.4285 -1.1927
 9399SOL    HW239834   4.087   3.789   3.074  0.9563  2.1022  0.0673
 9400SOL     OW39835   0.847   2.379   5.080  0.0378 -0.0902 -0.5495
 9400SOL    HW139836   0.801   2.387   4.996 -0.6140  0.4354 -0.1420
 9400SOL    HW239837   0.906   2.304   5.074  0.4308  0.3228 -2.0345
 9401SOL     OW39838   2.108   1.923   5.237  0.2183  0.1774  0.4546
 9401SOL    HW139839   2.194   1.913   5.197  0.6857 -1.5302  1.8891
 9401SOL    HW239840   2.117   1.860   5.309 -0.5927  0.0539  0.4420
 9402SOL     OW39841   4.430   3.788   2.498  0.5123 -0.1838 -0.5911
 9402SOL    HW139842   4.432   3.834   2.414 -0.1714 -1.0357 -1.0806
 9402SOL    HW239843   4.512   3.739   2.505 -0.2185 -1.3726 -0.3284
 9403SOL     OW39844   3.098   0.796   6.473 -0.3982  1.0858  0.1705
 9403SOL    HW139845   3.026   0.811   6.534  0.4957  1.5370  1.1172
 9403SOL    HW239846   3.062   0.731   6.413  1.5196 -1.0611  1.3761
 9404SOL     OW39847   2.906   0.584  14.403 -0.4186  0.3393  0.8925
 9404SOL    HW139848   2.936   0.507  14.452  0.3443  0.8052  1.1601
 9404SOL    HW239849   2.908   0.533  14.322 -0.6826 -0.7397  1.5647
 9405SOL     OW39850   0.199   2.686  16.641  0.7641  0.1680  0.0895
 9405SOL    HW139851   0.274   2.665  16.697 -1.9473 -0.9858  3.2464
 9405SOL    HW239852   0.196   2.607  16.587  0.5015  1.3873 -1.6943
 9406SOL     OW39853   0.600   4.335   7.397  0.3733 -0.2812 -0.4345
 9406SOL    HW139854   0.567   4.372   7.315 -2.1591 -2.4035 -0.3686
 9406SOL    HW239855   0.692   4.363   7.393  0.4694 -0.6349 -0.8123
 9407SOL     OW39856   1.983   0.662   4.432 -0.0675  0.2729  0.3943
 9407SOL    HW139857   2.076   0.661   4.451  0.0745  0.0234 -0.3013
 9407SOL    HW239858   1.957   0.754   4.423 -2.8791 -0.5056  0.3091
 9408SOL     OW39859   3.315   3.379   3.481 -0.1127  0.1280 -0.5826
 9408SOL    HW139860   3.242   3.405   3.537 -1.2976  2.1050 -3.0548
 9408SOL    HW239861   3.368   3.458   3.488  0.1327 -0.0235 -0.7400
 9409SOL     OW39862   1.390   3.404   9.168  0.0584  0.1214 -0.4717
 9409SOL    HW139863   1.311   3.359   9.139  0.2702  1.1064 -2.5747
 9409SOL    HW239864   1.354   3.491   9.152 -1.1731 -0.4376 -0.7584
 9410SOL     OW39865   4.237   0.460   6.097 -0.3565 -0.0529 -0.2970
 9410SOL    HW139866   4.194   0.466   6.012 -0.3044 -1.0349 -0.3976
 9410SOL    HW239867   4.327   0.455   6.066 -0.9982 -1.3460 -1.9128
 9411SOL     OW39868   4.647   1.170   5.248 -0.1282  0.1758 -0.5499
 9411SOL    HW139869   4.682   1.223   5.320 -0.4536 -0.0141 -0.2467
 9411SOL    HW239870   4.553   1.189   5.258 -0.2010 -0.8028  0.6501
 9412SOL     OW39871   2.836   3.911   1.483  0.1737 -0.4343 -0.9516
 9412SOL    HW139872   2.799   3.954   1.560 -1.3843 -0.1856 -1.8298
 9412SOL    HW239873   2.917   3.876   1.520 -0.9437 -1.7157  0.2822
 9413SOL     OW39874   2.039   3.970   5.557 -0.0814 -0.5926 -0.2352
 9413SOL    HW139875   2.129   3.992   5.532 -0.3495  1.5113  0.6337
 9413SOL    HW239876   1.992   3.968   5.473 -0.4105  0.1144 -0.0726
 9414SOL     OW39877   3.153   1.922  16.871 -0.2132 -0.0565 -0.4455
 9414SOL    HW139878   3.165   2.007  16.914  0.2426 -0.5753  0.4546
 9414SOL    HW239879   3.210   1.918  16.794 -0.9859 -0.1652 -1.0055
 9415SOL     OW39880   3.590   0.332   6.885  0.3713 -0.1480  0.1824
 9415SOL    HW139881   3.581   0.382   6.966  3.0909  1.0938 -0.2621
 9415SOL    HW239882   3.546   0.379   6.815  0.6886 -1.6399 -1.0219
 9416SOL     OW39883   1.525   3.210   3.774  0.0127 -0.1374  0.1316
 9416SOL    HW139884   1.523   3.301   3.744 -0.8939 -0.2559 -0.1642
 9416SOL    HW239885   1.520   3.223   3.869 -0.4027 -1.3693  0.2712
 9417SOL     OW39886   0.470   3.885  10.727 -0.2224 -0.1214 -0.1351
 9417SOL    HW139887   0.411   3.884  10.651 -0.5287 -0.3690  0.1040
 9417SOL    HW239888   0.434   3.810  10.774 -0.4411  0.7661  1.1099
 9418SOL     OW39889   1.158   4.037   3.663 -0.5156  0.1381  0.4734
 9418SOL    HW139890   1.207   3.980   3.722  1.7655  0.6759 -0.9025
 9418SOL    HW239891   1.222   4.065   3.598  0.9239  1.6320  2.5299
 9419SOL     OW39892   2.706   3.955   2.461  0.0594 -0.4021  0.2859
 9419SOL    HW139893   2.790   3.990   2.431  0.1763  0.2387  1.3396
 9419SOL    HW239894   2.652   3.999   2.395 -0.4481 -1.5745 -0.0752
 9420SOL     OW39895   3.768   0.799  15.738  0.1993  0.3787 -0.1478
 9420SOL    HW139896   3.856   0.836  15.730  0.4126 -0.0182  0.3390
 9420SOL    HW239897   3.773   0.801  15.833 -1.9303 -0.0666 -0.0254
 9421SOL     OW39898   3.579   0.082   4.353 -0.0407  0.2391  0.3086
 9421SOL    HW139899   3.633   0.146   4.398 -0.2251 -0.1557  1.0896
 9421SOL    HW239900   3.498   0.126   4.381 -0.8670 -0.1731 -1.4305
 9422SOL     OW39901   1.356   4.413   9.442  0.2682 -0.3962  0.3551
 9422SOL    HW139902   1.279   4.406   9.387  0.9399  1.2842 -0.7883
 9422SOL    HW239903   1.312   4.422   9.527  1.2018  2.2478  0.5424
 9423SOL     OW39904   4.413   1.924   0.568 -0.4554  0.0240 -0.1562
 9423SOL    HW139905   4.418   1.959   0.657  1.4790 -0.2625 -0.1497
 9423SOL    HW239906   4.448   1.997   0.516  1.7226 -2.8360 -2.7060
 9424SOL     OW39907   0.866   4.193   9.019  0.3519 -0.1795 -0.1478
 9424SOL    HW139908   0.859   4.286   8.996  1.7397 -0.1134 -0.2650
 9424SOL    HW239909   0.924   4.160   8.951  2.0225  2.3264  0.0677
 9425SOL     OW39910   0.913   4.447   4.139 -0.6557 -0.1650  0.8692
 9425SOL    HW139911   0.989   4.393   4.118  0.7240  2.0366  0.2097
 9425SOL    HW239912   0.950   4.534   4.124 -1.5285 -0.4770 -3.1344
 9426SOL     OW39913   1.229   0.057   9.567 -0.6339  0.0989 -0.5958
 9426SOL    HW139914   1.228   0.152   9.556 -1.9689  0.1431 -0.0174
 9426SOL    HW239915   1.177   0.042   9.489 -0.6119 -0.1708 -0.5590
 9427SOL     OW39916   4.421   3.978   4.439 -0.3003 -0.3458  0.0920
 9427SOL    HW139917   4.402   3.897   4.391 -0.9034  1.1043 -2.0943
 9427SOL    HW239918   4.333   4.013   4.452 -0.1526  0.3434 -0.8386
 9428SOL     OW39919   0.689   2.398   5.917 -0.2027 -0.0592  0.2390
 9428SOL    HW139920   0.634   2.321   5.901  0.0482 -0.9593  3.6799
 9428SOL    HW239921   0.737   2.372   5.996  1.8950  0.0274 -1.0145
 9429SOL     OW39922   4.448   3.111   1.879 -0.4957 -0.4264 -0.1241
 9429SOL    HW139923   4.393   3.033   1.872 -2.1989  0.7626 -0.0710
 9429SOL    HW239924   4.501   3.081   1.953 -0.2788 -0.5967 -0.3476
 9430SOL     OW39925   0.975   3.643  11.090  0.2960 -0.3932 -0.3427
 9430SOL    HW139926   1.002   3.626  11.180  1.3598  1.5365 -0.2806
 9430SOL    HW239927   1.016   3.730  11.084  2.8479 -1.6203 -0.5650
 9431SOL     OW39928   2.030   2.863   7.221 -0.1233 -0.3445 -0.6286
 9431SOL    HW139929   1.981   2.806   7.280 -1.4405  0.2224 -1.1716
 9431SOL    HW239930   2.116   2.822   7.209 -0.3969 -1.2986  0.6443
 9432SOL     OW39931   2.641   2.346   2.023 -0.3587 -0.7469  0.7749
 9432SOL    HW139932   2.552   2.341   1.986 -0.5871  2.6417  0.8173
 9432SOL    HW239933   2.684   2.317   1.943 -0.0447 -0.6009  0.8925
 9433SOL     OW39934   4.586   4.224   7.626  0.2790  0.0770  0.2235
 9433SOL    HW139935   4.584   4.164   7.551 -0.4811 -1.2593  1.3205
 9433SOL    HW239936   4.538   4.301   7.597 -0.3075 -0.0494  0.8599
 9434SOL     OW39937   1.746   2.844   1.269  0.2561  0.0024 -0.0162
 9434SOL    HW139938   1.807   2.812   1.335  0.9689  2.7063  0.6025
 9434SOL    HW239939   1.677   2.869   1.331  0.3796 -0.0736  0.1510
 9435SOL     OW39940   3.785   0.200  14.675 -0.0174 -0.4652 -0.3516
 9435SOL    HW139941   3.876   0.170  14.685  0.6313  1.8056  0.4653
 9435SOL    HW239942   3.799   0.284  14.718 -2.3778 -0.7427  0.9331
 9436SOL     OW39943   0.749   2.047   0.715 -0.0372  0.3572 -0.1861
 9436SOL    HW139944   0.772   1.966   0.761  1.7363  0.0389 -1.6127
 9436SOL    HW239945   0.746   2.113   0.784 -2.7166  0.1941 -0.1293
 9437SOL     OW39946   4.127   1.987  12.239  0.2399  0.5367  0.5102
 9437SOL    HW139947   4.141   2.047  12.165 -1.4772 -0.7313 -0.8452
 9437SOL    HW239948   4.216   1.960  12.259 -0.1659 -1.6396 -0.6888
 9438SOL     OW39949   2.905   0.106   8.885  0.0319  0.0020  0.2079
 9438SOL    HW139950   2.988   0.152   8.873  0.6154 -1.2904 -0.7247
 9438SOL    HW239951   2.845   0.177   8.863 -0.1424 -0.2076  0.0079
 9439SOL     OW39952   4.676   0.171  12.830  0.1248  0.2131  0.0689
 9439SOL    HW139953   4.584   0.171  12.802  0.1982  0.2953 -0.1722
 9439SOL    HW239954   4.702   0.262  12.814  0.9527  0.0134  0.3177
 9440SOL     OW39955   0.458   4.574   8.368  0.0074  0.1463 -0.2335
 9440SOL    HW139956   0.544   4.537   8.349 -0.0819 -0.2407  0.1096
 9440SOL    HW239957   0.483   4.651   8.418 -0.0017  0.1218 -0.1907
 9441SOL     OW39958   2.770   0.011   7.431 -0.3254  0.3412  0.4032
 9441SOL    HW139959   2.817   0.093   7.449  2.4242 -0.4280 -3.2682
 9441SOL    HW239960   2.818   4.676   7.473 -0.3896  0.5385  0.8199
 9442SOL     OW39961   0.110   3.818  12.742  0.1696 -0.2530  0.1972
 9442SOL    HW139962   0.201   3.801  12.769  0.6546  1.7135 -0.2449
 9442SOL    HW239963   0.127   3.823  12.648 -0.5604  0.2522  0.0916
 9443SOL     OW39964   0.982   2.591   2.201  0.0323  0.2137 -0.3847
 9443SOL    HW139965   0.971   2.527   2.272 -2.6177  0.3641 -0.6515
 9443SOL    HW239966   1.064   2.556   2.167 -0.1435 -0.9062  0.3041
 9444SOL     OW39967   0.079   2.437   4.371 -0.2757 -0.1393  0.6441
 9444SOL    HW139968   0.034   2.365   4.324 -0.2950 -0.6040  1.3801
 9444SOL    HW239969   0.145   2.461   4.306 -1.8056  2.5513  0.0920
 9445SOL     OW39970   3.875   2.188   7.744 -0.3236  0.9753  0.1564
 9445SOL    HW139971   3.788   2.160   7.718  0.7008 -0.8024 -1.4321
 9445SOL    HW239972   3.861   2.172   7.837 -0.2417 -0.0325  0.0049
 9446SOL     OW39973   0.195   1.649   5.673 -0.5494  0.2083 -0.1961
 9446SOL    HW139974   0.142   1.705   5.730 -0.9429 -0.7556  0.3852
 9446SOL    HW239975   0.274   1.700   5.653 -0.9391  1.4244  1.3079
 9447SOL     OW39976   4.441   0.919   8.160 -0.1951 -0.4720 -0.0964
 9447SOL    HW139977   4.366   0.936   8.217  1.3787  0.5011  1.6752
 9447SOL    HW239978   4.407   0.923   8.070 -1.0117 -2.9975  0.1074
 9448SOL     OW39979   1.658   1.757   1.161 -0.4032 -0.5445  0.4480
 9448SOL    HW139980   1.740   1.778   1.115 -0.4171 -0.7240  0.3417
 9448SOL    HW239981   1.649   1.835   1.216  2.7950  0.9035 -1.0670
 9449SOL     OW39982   0.623   3.325   3.765 -0.1668 -0.1564  0.3534
 9449SOL    HW139983   0.580   3.391   3.711 -0.2655 -0.2936  0.2654
 9449SOL    HW239984   0.682   3.285   3.701  0.2063  0.4614  0.3154
 9450SOL     OW39985   2.935   0.471   2.501  0.0236 -0.3557  0.0614
 9450SOL    HW139986   2.950   0.409   2.430  0.6226  3.0566 -2.7998
 9450SOL    HW239987   2.849   0.511   2.482 -0.6655 -0.6909  2.4470
 9451SOL     OW39988   1.936   0.337  11.570 -0.0301 -0.2939 -0.5624
 9451SOL    HW139989   1.998   0.264  11.573  2.5882  1.9292  0.4483
 9451SOL    HW239990   1.875   0.309  11.502 -1.2064 -2.2009  1.2992
 9452SOL     OW39991   4.401   1.682   9.732 -0.1858 -0.3729 -0.4612
 9452SOL    HW139992   4.430   1.593   9.712 -1.0456 -0.6889 -0.3151
 9452SOL    HW239993   4.306   1.685   9.720 -0.0405  1.1954 -1.2251
 9453SOL     OW39994   3.514   1.205   2.849 -0.5291 -0.2308 -0.1724
 9453SOL    HW139995   3.595   1.254   2.862 -0.7153  0.2206 -0.7121
 9453SOL    HW239996   3.511   1.214   2.754  1.6278 -0.2547 -0.2315
 9454SOL     OW39997   2.707   4.687   1.963  0.6152 -0.1371 -0.0808
 9454SOL    HW139998   2.738   4.600   1.989 -2.0050 -1.3968 -1.1082
 9454SOL    HW239999   2.777   4.726   1.913 -0.1106 -0.2329 -1.1696
 9455SOL     OW40000   1.078   0.708   2.182  0.1477  0.6140  0.5196
 9455SOL    HW140001   1.139   0.661   2.238  0.6068 -0.8660 -1.2632
 9455SOL    HW240002   1.045   0.775   2.243 -0.1543  0.8129  0.1348
 9456SOL     OW40003   3.885   3.186   8.471  0.4310 -0.4478 -0.4970
 9456SOL    HW140004   3.970   3.179   8.516 -0.4003 -2.2786  0.7836
 9456SOL    HW240005   3.827   3.127   8.519  0.4865  1.4463  1.9005
 9457SOL     OW40006   4.155   0.465   5.348  0.5249  0.0124  0.6443
 9457SOL    HW140007   4.249   0.473   5.333  0.6397  0.7509  1.7252
 9457SOL    HW240008   4.143   0.531   5.416  1.4090  1.8333 -0.9595
 9458SOL     OW40009   3.458   0.784  14.981  0.3345 -0.2106  0.1473
 9458SOL    HW140010   3.497   0.761  14.897  1.0970 -4.6478  1.6981
 9458SOL    HW240011   3.505   0.723  15.038  1.0626 -0.7570 -1.0362
 9459SOL     OW40012   3.883   2.175  11.485 -0.1297 -0.4914 -0.0768
 9459SOL    HW140013   3.947   2.114  11.519  0.1666 -0.0552  0.1502
 9459SOL    HW240014   3.872   2.246  11.548 -1.5280 -0.3551 -0.4598
 9460SOL     OW40015   2.453   2.846   0.725  0.3921  0.9825  0.4324
 9460SOL    HW140016   2.547   2.863   0.726  0.7120 -0.7328 -0.2493
 9460SOL    HW240017   2.455   2.760   0.768 -2.2352  0.9450  0.4792
 9461SOL     OW40018   3.301   0.187   3.513 -0.7030  0.2048 -0.0456
 9461SOL    HW140019   3.295   0.130   3.590  0.9170  0.1155  0.0281
 9461SOL    HW240020   3.211   0.196   3.483 -0.3826 -0.2512 -1.1281
 9462SOL     OW40021   3.540   1.557   2.747 -0.1823  0.3856 -0.4780
 9462SOL    HW140022   3.587   1.525   2.670 -0.0786 -0.0448 -0.2381
 9462SOL    HW240023   3.598   1.626   2.779  0.4907  0.6566 -2.3351
 9463SOL     OW40024   0.589   1.698  12.411  0.0643  0.0058  0.2321
 9463SOL    HW140025   0.519   1.645  12.447  0.1303  0.8246  1.5514
 9463SOL    HW240026   0.653   1.698  12.482  0.3381  1.8670 -0.0131
 9464SOL     OW40027   3.920   2.322   3.473  0.0323 -0.6152  0.6169
 9464SOL    HW140028   3.984   2.372   3.524 -1.1605  0.4483  1.0834
 9464SOL    HW240029   3.983   2.275   3.419 -0.3499 -1.9263  1.3102
 9465SOL     OW40030   0.361   0.986   7.321 -0.1600 -0.2895 -0.2641
 9465SOL    HW140031   0.342   0.943   7.237 -0.5277  0.7199 -0.6912
 9465SOL    HW240032   0.455   1.007   7.316 -0.3117  0.3735 -0.3640
 9466SOL     OW40033   1.207   4.143   5.068  0.1487  0.2627  0.3302
 9466SOL    HW140034   1.227   4.049   5.068  0.3430  0.2802  4.3008
 9466SOL    HW240035   1.223   4.178   4.981 -1.7943 -0.1346 -0.1939
 9467SOL     OW40036   4.425   1.499   1.648 -0.5707 -0.1825 -0.5016
 9467SOL    HW140037   4.382   1.583   1.666 -2.0394 -0.6781 -1.7445
 9467SOL    HW240038   4.352   1.439   1.633 -0.5940  0.0129 -1.1656
 9468SOL     OW40039   3.936   2.158   4.286 -0.6328 -0.2038  0.0900
 9468SOL    HW140040   3.987   2.157   4.205 -0.7765  1.5358 -0.0256
 9468SOL    HW240041   3.992   2.215   4.340  0.0286 -0.7386 -0.0332
 9469SOL     OW40042   2.656   2.638   1.883  0.5576  0.1713  0.5211
 9469SOL    HW140043   2.714   2.604   1.951 -0.9223 -1.6055  0.8963
 9469SOL    HW240044   2.568   2.614   1.909  0.2080 -0.5198 -1.2576
 9470SOL     OW40045   2.055   0.358  17.253  0.1779 -0.2498  0.4605
 9470SOL    HW140046   2.147   0.348  17.229 -0.8989 -1.4960 -3.0679
 9470SOL    HW240047   2.046   0.289  17.319  0.8141  0.6323  1.4767
 9471SOL     OW40048   4.692   3.044   7.079 -0.1284  0.9445  0.2485
 9471SOL    HW140049   4.633   3.057   7.153  0.8952 -2.3351  1.6247
 9471SOL    HW240050   0.016   3.118   7.087  0.4342  0.6897 -1.6904
 9472SOL     OW40051   3.867   0.366   3.559  0.7409  0.2337 -0.1783
 9472SOL    HW140052   3.827   0.448   3.530 -1.6263 -1.3790 -1.4379
 9472SOL    HW240053   3.793   0.322   3.602 -0.3575  1.0597 -1.2207
 9473SOL     OW40054   2.212   1.572   7.723  0.3237  0.2037  0.4543
 9473SOL    HW140055   2.177   1.526   7.799  2.2910 -0.5101  0.9506
 9473SOL    HW240056   2.227   1.507   7.654 -1.0118  2.6681 -2.1018
 9474SOL     OW40057   1.893   3.159   6.308 -0.0194  0.3823  0.4319
 9474SOL    HW140058   1.836   3.225   6.268  0.1995 -0.2625 -0.9377
 9474SOL    HW240059   1.977   3.176   6.267  0.0268 -0.1079  0.3339
 9475SOL     OW40060   1.711   1.251   7.610 -0.0212 -0.7220  0.1078
 9475SOL    HW140061   1.779   1.317   7.622 -0.8074  0.2397 -0.7403
 9475SOL    HW240062   1.650   1.264   7.683 -1.5056  2.7703 -1.7360
 9476SOL     OW40063   1.022   3.206   8.860  0.0185  0.6022  0.4732
 9476SOL    HW140064   0.929   3.230   8.867  0.4922  2.3808  0.5573
 9476SOL    HW240065   1.019   3.117   8.826 -2.3331  1.3086 -1.1942
 9477SOL     OW40066   4.725   3.523   7.976 -0.4891 -0.5175  0.2566
 9477SOL    HW140067   4.690   3.489   7.893 -1.1023 -3.6417  1.7882
 9477SOL    HW240068   0.060   3.578   7.946 -0.6345  0.3637  1.5227
 9478SOL     OW40069   3.184   4.633  11.234 -0.2694 -0.4790  0.2409
 9478SOL    HW140070   3.228   4.660  11.154  0.6196  0.9095  1.2108
 9478SOL    HW240071   3.213   4.686  11.307 -0.6680  0.7792 -0.5079
 9479SOL     OW40072   0.232   1.396   2.095  0.5215 -0.0691  0.0606
 9479SOL    HW140073   0.258   1.315   2.140 -1.4998 -0.4857  0.5037
 9479SOL    HW240074   0.228   1.365   2.005  1.3750 -0.4487  0.1601
 9480SOL     OW40075   1.254   1.030   3.765 -0.3056 -0.1395  0.3482
 9480SOL    HW140076   1.216   0.958   3.714 -0.1797  0.3287 -0.3990
 9480SOL    HW240077   1.181   1.089   3.778  0.8753  1.9657 -2.6311
 9481SOL     OW40078   3.774   1.051   2.848 -0.3630  0.0893  0.4996
 9481SOL    HW140079   3.694   1.001   2.832  0.6072 -1.2784 -0.1081
 9481SOL    HW240080   3.826   0.990   2.901 -1.7392 -1.6484 -0.1360
 9482SOL     OW40081   4.350   3.955   9.255  0.7958  0.7761 -0.0903
 9482SOL    HW140082   4.429   4.005   9.272  0.9678  0.9831 -1.5084
 9482SOL    HW240083   4.344   3.909   9.339 -0.7365  2.2370  0.6040
 9483SOL     OW40084   4.297   1.835   2.973  0.3543 -0.6159 -0.5536
 9483SOL    HW140085   4.387   1.827   3.005 -0.2227  0.1921  1.2312
 9483SOL    HW240086   4.267   1.744   2.981 -0.4913 -0.0914  1.9730
 9484SOL     OW40087   0.497   1.987   7.998  0.2903  0.0860 -0.0628
 9484SOL    HW140088   0.560   1.916   8.012  1.5279  1.5984  2.1803
 9484SOL    HW240089   0.554   2.049   7.954 -0.7733  1.5177  0.5707
 9485SOL     OW40090   3.773   3.675   9.216 -0.2205 -0.6446  0.5548
 9485SOL    HW140091   3.775   3.585   9.248  0.7446 -0.4952  0.9035
 9485SOL    HW240092   3.683   3.681   9.183  0.3297  0.2126 -0.7656
 9486SOL     OW40093   2.798   4.105  11.865  0.4192 -0.1394  0.0352
 9486SOL    HW140094   2.862   4.122  11.796  1.3402  0.0860  0.9447
 9486SOL    HW240095   2.782   4.011  11.857  1.3390 -0.4107  1.3845
 9487SOL     OW40096   2.637   1.674   6.305  0.1639  0.1970 -0.2640
 9487SOL    HW140097   2.587   1.601   6.341 -2.6120  3.2146  2.0180
 9487SOL    HW240098   2.597   1.685   6.219  2.9319  3.1505 -1.1709
 9488SOL     OW40099   0.941   0.706  17.532  0.0537 -0.6218  0.0822
 9488SOL    HW140100   0.900   0.739  17.452 -0.3454  1.5773  1.1864
 9488SOL    HW240101   0.954   0.789  17.578 -1.7867  0.8628 -2.0456
 9489SOL     OW40102   3.960   1.622   6.929  0.2723  0.2249 -0.0084
 9489SOL    HW140103   3.993   1.580   7.008 -0.5662  0.6112  0.5457
 9489SOL    HW240104   3.984   1.558   6.861 -1.7144  0.0062 -0.4991
 9490SOL     OW40105   3.634   3.444   5.675 -0.4011 -0.4627  0.3018
 9490SOL    HW140106   3.677   3.478   5.753 -1.0270  0.0150  0.4425
 9490SOL    HW240107   3.689   3.370   5.649 -0.2905  0.1382 -1.1743
 9491SOL     OW40108   4.649   2.219   0.012  0.5283  1.0261 -0.4070
 9491SOL    HW140109   4.646   2.162  17.681 -0.2137 -0.2639  0.5805
 9491SOL    HW240110   4.556   2.227   0.029  0.7230  0.6821  0.8178
 9492SOL     OW40111   1.754   0.562  11.451  0.2875  0.5644  0.1240
 9492SOL    HW140112   1.754   0.469  11.473  1.5109  0.8995  1.5195
 9492SOL    HW240113   1.822   0.559  11.383 -0.2622 -0.3898 -0.3783
 9493SOL     OW40114   2.989   0.332   7.368 -0.4657  0.4914 -0.4424
 9493SOL    HW140115   3.031   0.258   7.411 -1.7358  1.0436  1.7842
 9493SOL    HW240116   2.961   0.289   7.287  0.2285 -2.3298  0.8175
 9494SOL     OW40117   4.080   0.582  16.129  0.2443  0.1509  0.2883
 9494SOL    HW140118   4.131   0.578  16.210 -0.6175  1.5460  0.9121
 9494SOL    HW240119   4.112   0.659  16.083 -0.6597  1.1749  1.3514
 9495SOL     OW40120   3.146   0.279   4.961  0.5671  0.2691 -0.2305
 9495SOL    HW140121   3.225   0.329   4.938 -1.5486  4.2708  1.1731
 9495SOL    HW240122   3.123   0.320   5.045 -0.8904  2.3053 -1.6206
 9496SOL     OW40123   2.472   4.645   5.989 -0.0110  0.2266 -0.5172
 9496SOL    HW140124   2.427   4.636   6.073  1.3624 -1.6577  0.0377
 9496SOL    HW240125   2.541   4.579   6.002  0.3897  0.8737  0.6791
 9497SOL     OW40126   1.100   1.300   4.114  0.0059  0.0108  0.2166
 9497SOL    HW140127   1.016   1.287   4.160  0.3814 -3.2313 -0.0154
 9497SOL    HW240128   1.095   1.394   4.095  1.9531 -0.2866 -1.7191
 9498SOL     OW40129   2.906   3.083   7.767  0.3924  0.3411 -0.2816
 9498SOL    HW140130   2.944   3.132   7.840  0.4450 -0.0595 -0.0405
 9498SOL    HW240131   2.833   3.138   7.739 -0.1364  0.7569  1.9031
 9499SOL     OW40132   3.409   1.842   8.915 -0.0661  0.5578 -0.6935
 9499SOL    HW140133   3.398   1.807   8.827 -0.7512 -1.2423  0.1023
 9499SOL    HW240134   3.445   1.769   8.966 -1.8642 -1.5279 -2.4215
 9500SOL     OW40135   4.137   1.350   1.295 -0.7118  0.2051  0.3915
 9500SOL    HW140136   4.069   1.296   1.336  0.1274 -0.4689  0.8891
 9500SOL    HW240137   4.110   1.431   1.252  1.2483  0.6142 -0.0431
 9501SOL     OW40138   2.450   0.102  11.600  0.3681  0.6535  0.1215
 9501SOL    HW140139   2.389   0.097  11.526 -0.2249  1.3167  0.5670
 9501SOL    HW240140   2.461   0.009  11.618 -2.5533  0.1253 -0.7825
 9502SOL     OW40141   1.980   3.160   8.967 -0.6159  0.3928  0.7371
 9502SOL    HW140142   1.937   3.142   9.051 -1.2887  1.0081  0.5122
 9502SOL    HW240143   2.062   3.115   8.989 -1.1913 -1.3764 -0.7056
 9503SOL     OW40144   0.374   3.762  12.814 -0.5521 -0.0358 -0.1472
 9503SOL    HW140145   0.402   3.670  12.813 -1.4307 -0.2904 -0.8948
 9503SOL    HW240146   0.423   3.790  12.737  0.8555  1.4417  1.2867
 9504SOL     OW40147   2.957   4.275   7.877  0.3634 -0.3417 -0.2196
 9504SOL    HW140148   2.904   4.212   7.827  0.6116 -1.2662  0.6766
 9504SOL    HW240149   2.929   4.257   7.967  1.2166  2.0279  0.5212
 9505SOL     OW40150   0.245   0.742  10.024  0.2308  0.0856 -0.8845
 9505SOL    HW140151   0.207   0.810  10.080 -0.6924 -0.8822 -0.3235
 9505SOL    HW240152   0.257   0.785   9.940  0.1531 -0.4983 -1.1929
 9506SOL     OW40153   0.636   2.709   9.059  0.0322 -0.4667 -0.5912
 9506SOL    HW140154   0.641   2.705   9.155 -1.2282  2.2598 -0.4026
 9506SOL    HW240155   0.648   2.615   9.046  2.4121  0.2485 -3.5184
 9507SOL     OW40156   4.318   2.767   4.661 -0.6937  0.4508 -0.3872
 9507SOL    HW140157   4.334   2.793   4.752  0.0383 -1.7565  0.1168
 9507SOL    HW240158   4.347   2.839   4.606  0.3274 -1.6185 -2.5685
 9508SOL     OW40159   3.439   2.821  12.548 -0.1410 -0.2494  0.9557
 9508SOL    HW140160   3.414   2.770  12.471  1.2021 -1.6802  1.4617
 9508SOL    HW240161   3.358   2.870  12.561 -1.3051 -1.3151 -2.4017
 9509SOL     OW40162   0.244   2.910   7.621 -0.0842 -0.0538 -0.5727
 9509SOL    HW140163   0.198   2.835   7.658  0.6337  0.8583  2.1815
 9509SOL    HW240164   0.234   2.973   7.692  0.1051 -1.6977  0.9280
 9510SOL     OW40165   2.579   1.392   3.853  0.4027 -0.3007 -0.0355
 9510SOL    HW140166   2.493   1.384   3.894  0.5218 -0.2705  0.2222
 9510SOL    HW240167   2.577   1.326   3.784 -0.1989 -1.9801  1.6080
 9511SOL     OW40168   3.026   0.699   7.929  0.2082 -0.3587 -0.2917
 9511SOL    HW140169   3.003   0.715   8.021 -0.4577 -0.6663 -0.4001
 9511SOL    HW240170   2.941   0.701   7.884 -0.3316 -1.5000  0.6494
 9512SOL     OW40171   4.611   0.444  13.656  0.3035 -0.4625  0.3850
 9512SOL    HW140172   4.553   0.481  13.723 -0.2540  0.8681 -0.8113
 9512SOL    HW240173   4.618   0.518  13.595 -0.1706  0.8798  1.9317
 9513SOL     OW40174   0.651   0.352  12.674 -0.3005  1.1030 -0.4595
 9513SOL    HW140175   0.604   0.285  12.623  0.9307 -0.1375  0.0555
 9513SOL    HW240176   0.723   0.307  12.718  0.2204  1.2430 -1.1685
 9514SOL     OW40177   1.726   2.372   5.749  0.2330 -0.0153 -0.1053
 9514SOL    HW140178   1.673   2.294   5.732  0.1936 -0.5922  2.7016
 9514SOL    HW240179   1.734   2.362   5.843 -0.1703 -1.5877 -0.2444
 9515SOL     OW40180   1.680   2.630   7.377 -0.5408 -0.0713 -0.6473
 9515SOL    HW140181   1.686   2.538   7.349  0.9947 -0.6936  1.7722
 9515SOL    HW240182   1.613   2.634   7.445  2.4738 -1.5901  2.3858
 9516SOL     OW40183   0.510   3.472  15.398 -0.1512  0.7190 -0.2055
 9516SOL    HW140184   0.548   3.549  15.355  1.4806 -1.1616 -2.1458
 9516SOL    HW240185   0.507   3.501  15.489 -3.4221 -1.1323  0.2524
 9517SOL     OW40186   3.900   1.547   2.769  0.0727 -0.7159  0.8060
 9517SOL    HW140187   3.866   1.612   2.831  1.9496  1.2821 -0.2465
 9517SOL    HW240188   3.870   1.468   2.814  1.2034 -0.6143  1.7426
 9518SOL     OW40189   2.347   2.562  17.549  0.1634  0.0056 -0.1088
 9518SOL    HW140190   2.309   2.486  17.593 -0.0186 -0.3913 -0.9534
 9518SOL    HW240191   2.271   2.612  17.519  1.8880  3.6651  1.6081
 9519SOL     OW40192   0.243   3.052   4.034  0.0295  0.2193 -0.3867
 9519SOL    HW140193   0.307   3.119   4.012 -0.9461  0.7775 -1.4820
 9519SOL    HW240194   0.178   3.052   3.964 -1.2082  1.2765  0.7629
 9520SOL     OW40195   0.657   1.268   7.493  0.2709 -0.2874  0.3603
 9520SOL    HW140196   0.675   1.362   7.497  1.3254 -0.5134  0.9239
 9520SOL    HW240197   0.586   1.263   7.556 -1.1943 -0.2614 -1.2925
 9521SOL     OW40198   3.423   0.554  15.839 -0.1846 -0.1677 -0.0086
 9521SOL    HW140199   3.500   0.537  15.892  0.3356  0.8854 -0.4172
 9521SOL    HW240200   3.361   0.508  15.895  1.6485 -2.5328  0.0713
 9522SOL     OW40201   1.321   1.608   4.659  0.7218 -0.0417 -0.3222
 9522SOL    HW140202   1.369   1.567   4.588  0.3244  1.6143 -1.5607
 9522SOL    HW240203   1.325   1.546   4.732  0.4092  0.3295  0.0151
 9523SOL     OW40204   4.276   4.448  11.479  0.3235  0.0499  0.0873
 9523SOL    HW140205   4.188   4.486  11.472 -0.7212 -2.0551  1.7261
 9523SOL    HW240206   4.317   4.514  11.534  0.6118  1.0992 -1.4078
 9524SOL     OW40207   2.014   0.115  14.462  0.3557 -0.2773 -0.1575
 9524SOL    HW140208   2.047   0.031  14.429 -2.1820 -1.5490  0.4752
 9524SOL    HW240209   2.066   0.133  14.541  0.5689  0.5042 -0.4838
 9525SOL     OW40210   2.580   1.796   7.723  0.5235 -0.3212  0.4685
 9525SOL    HW140211   2.668   1.815   7.756  0.2566  2.5764 -0.4679
 9525SOL    HW240212   2.529   1.790   7.804 -0.6218  0.2197 -0.2145
 9526SOL     OW40213   3.644   3.238   2.522 -0.4004 -0.1083  0.1801
 9526SOL    HW140214   3.694   3.219   2.602  0.5678 -0.4631 -0.5122
 9526SOL    HW240215   3.663   3.156   2.475 -0.7724  0.5041 -1.0230
 9527SOL     OW40216   1.275   3.560   4.173 -0.5094 -0.7656 -0.2607
 9527SOL    HW140217   1.181   3.577   4.181 -0.6519 -1.9761  0.6611
 9527SOL    HW240218   1.270   3.465   4.183  0.0874 -0.8421 -0.6940
 9528SOL     OW40219   3.703   0.468   4.026  0.0519  0.2646  0.2009
 9528SOL    HW140220   3.612   0.498   4.015 -0.4272 -1.8731 -1.7262
 9528SOL    HW240221   3.684   0.375   4.037 -0.3260  0.5029  1.5372
 9529SOL     OW40222   4.305   1.809   3.850  0.1741 -0.0753  0.4470
 9529SOL    HW140223   4.356   1.805   3.769 -1.7500  1.0133 -0.8223
 9529SOL    HW240224   4.281   1.901   3.860 -1.5501 -0.2819 -1.6032
 9530SOL     OW40225   3.383   2.225   4.615 -0.3219 -0.1990  0.0537
 9530SOL    HW140226   3.294   2.239   4.648 -0.7101 -1.8846 -0.3110
 9530SOL    HW240227   3.428   2.306   4.639  0.8588 -0.6258 -0.7132
 9531SOL     OW40228   1.981   3.660   5.938 -0.5787 -0.2936  0.2926
 9531SOL    HW140229   2.012   3.737   5.891 -1.7207  0.9850  1.6289
 9531SOL    HW240230   2.064   3.613   5.934 -0.5508 -0.2388  0.2177
 9532SOL     OW40231   2.827   2.095  16.580 -0.0574  0.4609 -0.2838
 9532SOL    HW140232   2.760   2.079  16.647  1.3266 -0.6585  0.8297
 9532SOL    HW240233   2.858   2.169  16.631  0.2666 -1.0028  1.6490
 9533SOL     OW40234   0.585   4.292   2.702  0.4703 -0.7873  0.2916
 9533SOL    HW140235   0.499   4.318   2.735  0.1696 -0.5484 -0.6896
 9533SOL    HW240236   0.652   4.321   2.764  1.0415  0.5700 -0.9749
 9534SOL     OW40237   0.362   3.899   6.987 -0.2351 -0.2460  0.3396
 9534SOL    HW140238   0.312   3.826   6.952 -2.8099  1.1283  1.1780
 9534SOL    HW240239   0.326   3.975   6.941  1.3077 -0.1257 -0.6571
 9535SOL     OW40240   1.527   2.913   5.775 -0.5752  0.0427  0.0551
 9535SOL    HW140241   1.528   2.852   5.848  1.4662  0.9159  0.7753
 9535SOL    HW240242   1.617   2.913   5.742 -0.5754  0.9858  0.0377
 9536SOL     OW40243   4.626   0.360   7.958  0.1411 -0.1471  0.4809
 9536SOL    HW140244   4.690   0.413   8.005 -0.1352  0.5642  0.0429
 9536SOL    HW240245   4.650   0.270   7.982  1.1195 -0.5091 -1.8626
 9537SOL     OW40246   0.891   3.160   5.594  0.3016 -0.2432 -0.1492
 9537SOL    HW140247   0.893   3.067   5.619  0.4052  0.4175  2.2829
 9537SOL    HW240248   0.984   3.176   5.611  0.8059 -1.5374 -1.5713
 9538SOL     OW40249   2.883   4.091   3.620 -0.1503  0.3388  0.1582
 9538SOL    HW140250   2.916   4.003   3.638  3.6067  1.6216 -0.2959
 9538SOL    HW240251   2.967   4.132   3.600  0.4516 -1.8683 -1.8005
 9539SOL     OW40252   2.075   4.267   2.718  0.1975 -0.3547 -0.1949
 9539SOL    HW140253   2.012   4.337   2.702 -0.9246 -0.7389  2.5135
 9539SOL    HW240254   2.048   4.194   2.663 -0.4011 -0.3628  0.1163
 9540SOL     OW40255   3.145   3.580   9.899 -0.2951  0.3431 -0.3756
 9540SOL    HW140256   3.140   3.658   9.844 -0.2311  0.4960 -0.1653
 9540SOL    HW240257   3.062   3.538   9.877 -0.0583  0.0404 -0.6898
 9541SOL     OW40258   3.357   0.559   4.458  0.0971  0.1397 -0.1468
 9541SOL    HW140259   3.303   0.549   4.537  1.9014 -0.6127  0.9996
 9541SOL    HW240260   3.398   0.642   4.481  2.1964 -1.0683  0.4619
 9542SOL     OW40261   4.069   2.680  13.566  0.1374 -0.0844  0.2999
 9542SOL    HW140262   4.061   2.642  13.478 -0.6078 -0.4163  0.5125
 9542SOL    HW240263   4.011   2.634  13.626 -1.4234 -1.0843 -1.9894
 9543SOL     OW40264   3.598   0.049   6.281  0.2863  0.2979  0.1460
 9543SOL    HW140265   3.645   0.050   6.364  1.1619 -0.8477 -0.3364
 9543SOL    HW240266   3.673   0.055   6.221 -0.4036 -1.4383 -0.8962
 9544SOL     OW40267   0.274   3.422   3.005 -0.1372  0.5994  0.5536
 9544SOL    HW140268   0.361   3.462   3.004 -0.3439  1.0471  0.3360
 9544SOL    HW240269   0.293   3.329   3.017 -1.5950  0.6106  2.9437
 9545SOL     OW40270   1.709   1.861  13.404 -0.9343 -0.5397  0.3513
 9545SOL    HW140271   1.785   1.855  13.462 -0.1844  0.3012 -0.5410
 9545SOL    HW240272   1.684   1.769  13.394  2.9216 -1.5042 -0.4323
 9546SOL     OW40273   4.721   1.640   3.012 -0.8750  0.3975 -0.2275
 9546SOL    HW140274   0.051   1.638   3.080 -0.0625  0.7541 -1.0260
 9546SOL    HW240275   0.036   1.602   2.941 -0.5610  1.3909 -0.5242
 9547SOL     OW40276   2.398   4.440   7.614  0.7626  0.0469 -0.0777
 9547SOL    HW140277   2.342   4.433   7.538  1.7028  1.6598 -0.9310
 9547SOL    HW240278   2.354   4.386   7.679  0.0361  0.4037 -0.2745
 9548SOL     OW40279   4.497   0.167  15.851 -0.0416 -0.2185  0.4340
 9548SOL    HW140280   4.418   0.122  15.878 -2.1503  2.3636 -1.4117
 9548SOL    HW240281   4.515   0.126  15.766 -0.8798 -0.1886  0.2436
 9549SOL     OW40282   4.344   4.351   4.055  0.4080 -0.1581  0.2481
 9549SOL    HW140283   4.336   4.418   3.988 -0.2838  0.0277  0.5208
 9549SOL    HW240284   4.373   4.289   3.988  1.3960 -0.2065  0.7181
 9550SOL     OW40285   4.055   4.068   2.093  0.1604  0.3408  0.7836
 9550SOL    HW140286   4.131   4.025   2.132 -0.4220 -3.0938 -1.8907
 9550SOL    HW240287   4.028   4.012   2.021 -1.6276  2.5035 -0.2508
 9551SOL     OW40288   3.141   1.354  15.659 -0.1949 -0.0955  0.0255
 9551SOL    HW140289   3.083   1.338  15.585  1.6669 -1.1352 -1.2145
 9551SOL    HW240290   3.090   1.418  15.708  0.4247 -0.1137  0.7022
 9552SOL     OW40291   2.726   1.244   6.926 -0.2092 -0.4856  0.5515
 9552SOL    HW140292   2.782   1.180   6.969 -0.1940 -0.9952 -0.2143
 9552SOL    HW240293   2.687   1.282   7.004 -0.9708 -1.5490  0.6882
 9553SOL     OW40294   0.540   3.752  15.286  0.1247 -0.0411  0.2296
 9553SOL    HW140295   0.617   3.787  15.242 -1.3650  1.6207 -1.0206
 9553SOL    HW240296   0.476   3.789  15.227  1.2313 -2.2337 -2.3878
 9554SOL     OW40297   3.014   2.564  11.801  0.1485 -0.8185  0.1623
 9554SOL    HW140298   3.058   2.510  11.735 -0.0376  2.2547 -2.5068
 9554SOL    HW240299   3.071   2.576  11.877  1.4543  0.4954 -1.0092
 9555SOL     OW40300   0.254   1.926  10.697 -0.2795  0.4949  0.4773
 9555SOL    HW140301   0.312   1.970  10.635  0.6386 -0.6495  0.5339
 9555SOL    HW240302   0.318   1.858  10.719 -1.6756 -0.9020  0.2609
 9556SOL     OW40303   3.571   3.923   2.802 -0.0644  0.4493 -0.4437
 9556SOL    HW140304   3.654   3.883   2.779  0.3042  1.3094 -0.6067
 9556SOL    HW240305   3.596   4.016   2.804 -0.6702  0.5794  0.9778
 9557SOL     OW40306   1.991   2.383   8.860  0.5476  0.2634  0.1176
 9557SOL    HW140307   1.997   2.479   8.865 -1.1307  0.3617  0.5485
 9557SOL    HW240308   1.919   2.366   8.922 -1.1235 -0.0807 -1.9072
 9558SOL     OW40309   0.192   2.675   0.475 -0.2448  0.4606 -0.5336
 9558SOL    HW140310   0.277   2.638   0.500 -0.5121 -0.3977 -0.9246
 9558SOL    HW240311   0.220   2.739   0.409  0.1953 -1.8816 -2.6242
 9559SOL     OW40312   1.514   0.894  12.689 -0.2916  0.4134  0.0075
 9559SOL    HW140313   1.543   0.803  12.698 -2.8233 -0.6224 -2.5350
 9559SOL    HW240314   1.465   0.898  12.607  0.3816 -0.1335 -0.4235
 9560SOL     OW40315   1.898   2.131   1.848  0.1633 -0.2815  0.3066
 9560SOL    HW140316   1.903   2.156   1.756 -0.0758  0.4167  0.4887
 9560SOL    HW240317   1.898   2.213   1.896 -0.9121  0.5142 -1.0489
 9561SOL     OW40318   0.287   1.137   2.205  0.1237 -0.2315  0.1921
 9561SOL    HW140319   0.321   1.054   2.238  2.9239  0.1509 -1.7665
 9561SOL    HW240320   0.368   1.178   2.176 -0.7082  1.0359 -0.3225
 9562SOL     OW40321   0.097   3.021   9.801  0.2758 -0.7566  0.0689
 9562SOL    HW140322   0.193   3.018   9.808  0.4467  1.1666 -1.4310
 9562SOL    HW240323   0.060   3.017   9.890  0.8674 -0.3711  0.3361
 9563SOL     OW40324   3.252   0.036   2.917  0.0360 -0.1024  0.0602
 9563SOL    HW140325   3.194   0.055   2.991  0.0526  1.4132 -0.3247
 9563SOL    HW240326   3.251   0.114   2.863 -1.2021 -0.7390 -0.8451
 9564SOL     OW40327   1.015   1.620  12.129 -0.1701 -0.0784 -0.3748
 9564SOL    HW140328   0.938   1.577  12.165  0.5702 -0.1374  1.1342
 9564SOL    HW240329   1.061   1.655  12.206  1.1939  1.0147 -1.6884
 9565SOL     OW40330   3.413   0.368   3.279  0.0822  0.1578  0.2392
 9565SOL    HW140331   3.447   0.360   3.190 -2.9840 -1.4147 -0.7788
 9565SOL    HW240332   3.422   0.279   3.315  3.6797  0.9842  1.3825
 9566SOL     OW40333   3.492   1.646  11.515  1.0374  0.5457  0.0648
 9566SOL    HW140334   3.430   1.593  11.465 -0.1674  2.8551 -0.8709
 9566SOL    HW240335   3.476   1.726  11.465  0.7167  0.6984  0.4131
 9567SOL     OW40336   4.535   3.830   8.597 -0.0719 -0.2638 -0.0729
 9567SOL    HW140337   4.590   3.772   8.544  2.5248  1.3962  0.8284
 9567SOL    HW240338   4.539   3.900   8.533  2.3232 -0.7615 -0.4655
 9568SOL     OW40339   3.259   1.098  15.247 -0.3564 -0.2771 -0.2160
 9568SOL    HW140340   3.265   1.134  15.336 -1.1399  1.3675 -0.8269
 9568SOL    HW240341   3.350   1.089  15.222  0.0226 -0.9885  1.4123
 9569SOL     OW40342   3.978   2.779  15.009  0.0567  1.0205 -0.0608
 9569SOL    HW140343   4.055   2.828  14.981 -0.0369  0.9604 -0.4157
 9569SOL    HW240344   4.019   2.702  15.050 -1.8326  1.6387  2.9828
   4.73713   4.73713  17.74687
