Membrane in water
40344
    1TMC1    C1    1   1.584   3.692  11.060  0.0096 -0.5860  0.4984
    1TMC1    C2    2   1.695   3.705  10.980  0.1438  0.2849  0.0409
    1TMC1    C3    3   1.722   3.831  10.934  1.3441  1.3954 -0.0271
    1TMC1    C4    4   1.520   3.800  11.117 -0.3802 -0.0883 -0.0907
    1TMC1    C5    5   1.564   3.924  11.074 -0.2643  0.5330  0.4451
    1TMC1    C6    6   1.651   3.945  10.972 -0.2004  0.1783 -0.3011
    1TMC1     C    7   1.556   3.562  11.124 -0.1290  0.2820  0.0408
    1TMC1     O    8   1.500   3.569  11.232  0.0759 -0.4441 -0.3119
    1TMC1     H    9   1.739   3.618  10.932  1.1551  0.2912  0.9491
    1TMC1    H1   10   1.429   3.791  11.176  1.3032 -2.2437  2.2171
    1TMC1    H2   11   1.654   4.036  10.914 -1.1734  1.3450  1.4562
    1TMC1    C7   12   1.492   4.046  11.111  0.4208  0.8311 -0.3656
    1TMC1    C8   13   1.839   3.855  10.849  0.1542  0.9022 -0.4212
    1TMC1    O1   14   1.469   4.149  11.044  0.2403  0.1407  0.1022
    1TMC1    O2   15   1.948   3.796  10.849 -0.0249  0.6708  0.0474
    1TMC1    O3   16   1.455   4.029  11.242  0.0477 -0.4040 -0.3879
    1TMC1    H3   17   1.497   3.951  11.285  2.3399  0.3554 -1.2603
    1TMC1    O5   18   1.809   3.952  10.758  0.3532  0.2755  0.5731
    1TMC1    H5   19   1.713   3.965  10.742  0.0235  0.6698  2.9895
    2MPD2     C   20   1.512   3.053  11.159 -1.0400 -0.0224 -0.6135
    2MPD2    C1   21   1.466   3.156  11.244  0.0544  0.4244 -0.8197
    2MPD2    C2   22   1.489   3.284  11.203 -0.3134 -0.0471  0.5389
    2MPD2    C3   23   1.557   3.316  11.088 -0.6660  0.1061 -0.3244
    2MPD2    C4   24   1.611   3.220  11.008  0.0483 -0.2407 -0.8316
    2MPD2    C5   25   1.573   3.090  11.043 -0.1420 -0.2065 -0.2732
    2MPD2     H   26   1.452   3.357  11.274 -0.2664 -1.2810  1.8312
    2MPD2    H1   27   1.673   3.244  10.922  0.8261  1.8941  0.3442
    2MPD2    H2   28   1.493   2.947  11.175 -0.0743 -0.6455 -3.5148
    2MPD2    H3   29   1.618   3.015  10.980  2.1078  0.7330  0.2305
    2MPD2     N   30   1.586   3.452  11.049 -0.9235 -0.0030  0.2297
    2MPD2    H5   31   1.646   3.466  10.969  0.4026 -1.7027  0.9318
    2MPD2    N1   32   1.393   3.136  11.365 -0.2531  0.2096  0.2466
    2MPD2    H7   33   1.386   3.219  11.424 -0.7896  1.3720 -1.4359
    3TMC1    C1   34   0.834   4.002  11.294  0.0676  0.3232  0.1906
    3TMC1    C2   35   0.902   3.887  11.256  0.1833  0.8208  0.1475
    3TMC1    C3   36   1.037   3.884  11.272 -0.5957  0.4743  0.6362
    3TMC1    C4   37   0.900   4.113  11.341 -1.0998 -0.2874 -0.1668
    3TMC1    C5   38   1.032   4.108  11.330 -0.5902  0.6876  0.4124
    3TMC1    C6   39   1.109   3.994  11.309  0.5946  0.7521 -0.1254
    3TMC1     C   40   0.695   4.007  11.250  0.0960  0.1105 -0.4558
    3TMC1     O   41   0.631   3.904  11.225  0.1733 -0.2919  0.2352
    3TMC1     H   42   0.849   3.800  11.218  0.0480 -0.3013  2.9204
    3TMC1    H1   43   0.851   4.199  11.385  0.2274  1.3592 -1.9391
    3TMC1    H2   44   1.216   3.997  11.327  0.6290 -0.1560 -0.1617
    3TMC1    C7   45   1.101   4.211  11.391 -0.1921 -0.1451  0.0780
    3TMC1    C8   46   1.106   3.764  11.243 -0.1206  0.1625 -0.0162
    3TMC1    O1   47   1.215   4.202  11.439 -0.2257  0.1045 -0.1831
    3TMC1    O2   48   1.064   3.692  11.153  0.2567  0.5413  0.0061
    3TMC1    O3   49   1.065   4.317  11.311 -0.1666  0.7054  0.1298
    3TMC1    H3   50   0.990   4.300  11.251  0.2147 -1.9542  0.4197
    3TMC1    O5   51   1.233   3.772  11.296 -0.3277 -0.1451  0.0382
    3TMC1    H5   52   1.233   3.823  11.379 -1.7063 -0.4900  0.2515
    4MPD2     C   53   0.239   4.184  11.164 -0.7267 -0.1455 -0.5296
    4MPD2    C1   54   0.322   4.281  11.111 -0.7393  0.1792  0.1129
    4MPD2    C2   55   0.458   4.272  11.153 -0.0217  0.0138  0.6249
    4MPD2    C3   56   0.512   4.165  11.226  0.1066  0.4588  0.9654
    4MPD2    C4   57   0.422   4.078  11.283  0.6844  0.3750  0.1700
    4MPD2    C5   58   0.289   4.093  11.254 -0.3696 -0.1678 -0.4295
    4MPD2     H   59   0.532   4.338  11.109  0.3052 -0.2484  0.7906
    4MPD2    H1   60   0.447   3.999  11.352  1.8163  1.4721  1.0103
    4MPD2    H2   61   0.134   4.176  11.141 -0.8631 -0.1162  0.0753
    4MPD2    H3   62   0.218   4.026  11.300 -1.1271 -0.7594 -2.4521
    4MPD2     N   63   0.650   4.137  11.229 -0.6006 -0.3873  0.0706
    4MPD2    H5   64   0.706   4.219  11.210 -0.7574  0.0066  1.3522
    4MPD2    N1   65   0.287   4.384  11.027  0.2199 -0.9364  0.2158
    4MPD2    H7   66   0.347   4.465  11.030  1.5195 -1.8614 -0.4613
    5TCq1    O1   67   1.409   1.397  11.652 -0.3609 -0.0266  0.0639
    5TCq1    C1   68   1.394   1.366  11.781  0.5920 -0.1025 -0.0258
    5TCq1    O2   69   1.481   1.391  11.870  0.2519 -0.1467 -0.9894
    5TCq1    C2   70   1.252   1.376  11.816  0.1923  0.7406  0.3112
    5TCq1    C3   71   1.218   1.372  11.951  0.4398 -0.1595 -0.2303
    5TCq1    C4   72   1.082   1.375  11.980 -0.7663  0.0942  0.4782
    5TCq1    C5   73   0.992   1.390  11.881 -1.2520 -0.2070 -0.2401
    5TCq1    C6   74   1.026   1.406  11.752 -0.4875  0.0557  0.3901
    5TCq1    C7   75   1.161   1.406  11.714 -0.5542 -0.1448 -0.2587
    5TCq1    C8   76   0.931   1.398  11.636  0.2330 -0.9855 -0.5800
    5TCq1    O4   77   0.979   1.406  11.523  0.3810 -0.8337  0.3624
    5TCq1    C9   78   1.034   1.348  12.115 -1.0822  0.2953  0.3356
    5TCq1    O5   79   0.916   1.336  12.145  0.2730  0.2830  0.1783
    5TCq1    O6   80   1.126   1.359  12.205 -0.1728  0.0900 -0.6528
    5TCq1    H1   81   1.338   1.363  11.594 -0.5299  0.1657  0.1573
    5TCq1    H2   82   1.298   1.364  12.024  1.5496 -1.6334 -1.6311
    5TCq1    H3   83   0.889   1.392  11.915 -0.8698 -3.3228  1.1137
    5TCq1    H4   84   1.185   1.430  11.611  0.1277 -0.5954 -0.2080
    6MPD2     C   85   0.591   1.300  11.591  0.4126  0.1023 -0.1470
    6MPD2    C1   86   0.718   1.317  11.555  0.3229  0.4409 -0.6978
    6MPD2    C2   87   0.751   1.280  11.428  0.5276  0.6170  0.3073
    6MPD2    C3   88   0.657   1.233  11.341  0.0593  0.0139  0.1794
    6MPD2    C4   89   0.530   1.217  11.380  0.9375  0.2218  0.1873
    6MPD2    C5   90   0.498   1.255  11.501  0.0939 -0.0750 -0.7520
    6MPD2     H   91   0.854   1.291  11.397 -0.0656  0.9488 -1.5636
    6MPD2    H1   92   0.449   1.183  11.315  1.4806 -2.5842  0.9968
    6MPD2    H2   93   0.545   1.333  11.683  1.9980  0.7710  0.4050
    6MPD2    H3   94   0.395   1.249  11.533 -0.3175  1.9833 -1.7061
    6MPD2     N   95   0.708   1.191  11.210  1.2190 -0.2735 -0.2115
    6MPD2    H5   96   0.809   1.197  11.200  1.1614  1.6797  0.3901
    6MPD2    N1   97   0.810   1.352  11.663  0.1863 -0.5524 -0.1908
    6MPD2    H7   98   0.768   1.345  11.756  0.9361  2.2115  0.3335
    7TCq1    O1   99   2.783   0.671  12.229  0.3218 -0.0178  0.1219
    7TCq1    C1  100   2.874   0.574  12.263  0.1686 -0.4014  0.3181
    7TCq1    O2  101   2.874   0.458  12.220 -0.2160 -0.0928 -0.4830
    7TCq1    C2  102   2.953   0.624  12.379  0.3397 -0.0304 -0.0123
    7TCq1    C3  103   2.993   0.753  12.394  0.0049 -1.0114 -0.1866
    7TCq1    C4  104   3.052   0.788  12.514  0.3639 -0.2586  0.0962
    7TCq1    C5  105   3.098   0.692  12.604 -0.4742  0.0599 -0.0510
    7TCq1    C6  106   3.055   0.558  12.584 -0.1386  0.0400  0.3077
    7TCq1    C7  107   2.989   0.526  12.467  0.1610  1.0681  0.8333
    7TCq1    C8  108   3.091   0.461  12.683 -0.0040  0.6139 -0.0305
    7TCq1    O4  109   3.135   0.511  12.786  0.3890  0.0620  0.7401
    7TCq1    C9  110   3.087   0.927  12.533 -0.4446 -0.2681 -0.0231
    7TCq1    O5  111   3.130   0.961  12.644  0.0564  0.3198  0.0049
    7TCq1    O6  112   3.094   0.994  12.425 -0.1207 -0.6594  0.2525
    7TCq1    H1  113   2.782   0.738  12.301 -2.1967  0.2022 -0.1003
    7TCq1    H2  114   2.959   0.834  12.330  1.3539  0.2068  0.6442
    7TCq1    H3  115   3.149   0.721  12.695 -0.6733 -0.8158  0.3359
    7TCq1    H4  116   2.952   0.426  12.446  1.7979  0.9387 -1.3971
    8MPD2     C  117   3.226   4.723  12.828  0.5861 -0.4178 -0.1472
    8MPD2    C1  118   3.229   0.105  12.892 -0.7011  0.3170 -0.0017
    8MPD2    C2  119   3.185   0.224  12.829 -0.0638  0.0088  0.1691
    8MPD2    C3  120   3.135   0.220  12.704 -0.5218  0.1836 -0.1007
    8MPD2    C4  121   3.131   0.093  12.633  0.4170  0.5675  0.8627
    8MPD2    C5  122   3.183   4.717  12.701  0.1018  0.6273  0.3108
    8MPD2     H  123   3.199   0.322  12.875 -0.0751  0.2162 -0.2699
    8MPD2    H1  124   3.083   0.080  12.536 -1.5104 -0.6698  1.9888
    8MPD2    H2  125   3.264   4.636  12.880 -3.0997 -0.4420  2.4707
    8MPD2    H3  126   3.196   4.621  12.653 -0.1821 -0.0174  1.5081
    8MPD2     N  127   3.089   0.327  12.635  0.6951 -0.3756 -0.9966
    8MPD2    H5  128   3.063   0.311  12.538 -3.0367 -2.6304  0.3803
    8MPD2    N1  129   3.279   0.116  13.019  0.2112  0.4439  0.0651
    8MPD2    H7  130   3.279   0.031  13.075 -0.8259  0.4340  0.0416
    9TMC1    C1  131   0.514   0.115  11.573  0.8207  0.0317 -0.5886
    9TMC1    C2  132   0.618   0.175  11.633 -0.3751 -0.1994 -0.4192
    9TMC1    C3  133   0.666   0.293  11.577 -0.3935 -0.0621 -0.1160
    9TMC1    C4  134   0.461   0.165  11.455 -0.6725 -0.2978  0.1589
    9TMC1    C5  135   0.510   0.284  11.404 -1.0752 -0.0448  0.0750
    9TMC1    C6  136   0.617   0.347  11.465 -0.3230  0.5844  0.6625
    9TMC1     C  137   0.454   4.735  11.620 -0.2974 -0.2066 -0.1127
    9TMC1     O  138   0.341   4.714  11.589 -0.0477  0.0213 -0.1820
    9TMC1     H  139   0.665   0.138  11.724 -0.3599  1.2310  0.1612
    9TMC1    H1  140   0.380   0.114  11.403 -1.9183  1.7807  0.0307
    9TMC1    H2  141   0.654   0.447  11.448 -0.0461  0.1699 -1.1208
    9TMC1    C7  142   0.483   0.315  11.264 -0.2012  0.7727  0.5297
    9TMC1    C8  143   0.753   0.380  11.656 -0.6202  0.0169  0.4392
    9TMC1    O1  144   0.390   0.264  11.202 -0.6240  0.0920  0.6125
    9TMC1    O2  145   0.842   0.451  11.607  0.2963 -0.1131 -0.7162
    9TMC1    O3  146   0.604   0.353  11.215 -0.0485 -0.2251  0.0171
    9TMC1    H3  147   0.668   0.361  11.289 -0.7729  0.5826  0.5619
    9TMC1    O5  148   0.715   0.367  11.780  0.0434 -0.1200  0.1940
    9TMC1    H5  149   0.627   0.323  11.784  0.1103 -0.0076  2.5633
   10MPD2     C  150   0.362   4.553  11.821  0.1772  0.1303 -0.6779
   10MPD2    C1  151   0.494   4.556  11.779 -0.0879 -0.3136 -0.0366
   10MPD2    C2  152   0.578   4.453  11.824 -0.5238  1.0265 -0.2096
   10MPD2    C3  153   0.538   4.357  11.915  0.1056 -0.6016 -0.2653
   10MPD2    C4  154   0.404   4.368  11.959  0.3434 -0.0269  0.7425
   10MPD2    C5  155   0.319   4.464  11.911  0.4089 -0.4038  0.5199
   10MPD2     H  156   0.682   4.436  11.799 -0.2538  0.2225  1.4543
   10MPD2    H1  157   0.359   4.301  12.031 -3.2166  2.0490  0.4714
   10MPD2    H2  158   0.296   4.635  11.796 -0.3983  0.2129  1.1373
   10MPD2    H3  159   0.224   4.481  11.961 -0.9270 -4.5292 -0.5479
   10MPD2     N  160   0.623   4.261  11.980 -0.5113  0.3638 -1.2163
   10MPD2    H5  161   0.584   4.174  12.017  2.0106 -0.3250 -0.2054
   10MPD2    N1  162   0.543   4.659  11.696 -0.6862 -0.3269 -0.0036
   10MPD2    H7  163   0.641   4.685  11.695 -0.4932 -1.0738 -0.1661
   11TCq1    O1  164   1.572   3.874  13.920 -0.0135  0.3916  0.2929
   11TCq1    C1  165   1.585   3.992  13.987 -0.0785 -0.9742  0.8174
   11TCq1    O2  166   1.638   4.095  13.943  0.1817  0.5227  0.1072
   11TCq1    C2  167   1.607   3.963  14.128  0.1950 -0.1230 -0.1242
   11TCq1    C3  168   1.697   4.040  14.199 -0.4393  0.1003  0.0474
   11TCq1    C4  169   1.718   4.018  14.336 -0.6708  1.2055 -0.3132
   11TCq1    C5  170   1.639   3.925  14.404  0.1610 -0.2660  0.1158
   11TCq1    C6  171   1.548   3.860  14.330 -1.1359 -0.5833  0.8471
   11TCq1    C7  172   1.529   3.873  14.196 -0.8019  0.0704  0.3991
   11TCq1    C8  173   1.472   3.747  14.396  1.3591 -0.0998  0.3309
   11TCq1    O4  174   1.470   3.746  14.517  0.2743  0.0863 -0.6132
   11TCq1    C9  175   1.816   4.093  14.413 -0.1856  0.5973 -0.0762
   11TCq1    O5  176   1.880   4.183  14.356 -0.3081 -0.4699 -0.2755
   11TCq1    O6  177   1.807   4.079  14.537  0.6688 -0.3727 -0.6758
   11TCq1    H1  178   1.554   3.793  13.973  0.2527 -0.3087 -0.6814
   11TCq1    H2  179   1.769   4.105  14.150 -0.0028  1.4588  2.4787
   11TCq1    H3  180   1.651   3.913  14.511  0.4034  2.5222  0.4066
   11TCq1    H4  181   1.435   3.840  14.154 -0.3836 -0.9060  0.2316
   12MPD2     C  182   1.306   3.514  14.466  0.7680 -0.6108  0.4223
   12MPD2    C1  183   1.361   3.532  14.339 -0.1108 -0.2242  0.2864
   12MPD2    C2  184   1.330   3.441  14.250 -0.0059  0.9976  0.4485
   12MPD2    C3  185   1.232   3.347  14.266  0.2639  0.4303  0.0546
   12MPD2    C4  186   1.169   3.332  14.387  0.0471  0.2963 -0.0763
   12MPD2    C5  187   1.212   3.417  14.488  0.0760 -0.3770  0.1808
   12MPD2     H  188   1.376   3.448  14.152 -2.2116  1.7749 -0.5351
   12MPD2    H1  189   1.087   3.264  14.406 -0.4793  1.2704  1.1752
   12MPD2    H2  190   1.315   3.586  14.546 -0.8256  1.9290 -1.6705
   12MPD2    H3  191   1.160   3.414  14.583 -0.0145  1.4339  0.1860
   12MPD2     N  192   1.188   3.266  14.156  0.5536 -0.2992 -0.2955
   12MPD2    H5  193   1.113   3.200  14.176  0.8199 -0.4478  0.2194
   12MPD2    N1  194   1.436   3.646  14.306 -0.4486  0.8019  0.7440
   12MPD2    H7  195   1.450   3.668  14.208 -2.6007 -1.6333 -0.0932
   13TCq1    O1  196   1.320   4.664  12.134  0.5231 -0.0424  0.2401
   13TCq1    C1  197   1.255   4.671  12.020 -0.2782  0.7188  0.4397
   13TCq1    O2  198   1.218   0.034  11.964  0.2623  0.0352  0.0320
   13TCq1    C2  199   1.237   4.539  11.964  0.2279 -0.2057  0.2686
   13TCq1    C3  200   1.352   4.460  11.966  0.3111  0.5805 -0.3938
   13TCq1    C4  201   1.367   4.361  11.872 -0.4382 -0.4491 -0.4600
   13TCq1    C5  202   1.269   4.335  11.779  0.2827  0.1861 -0.0558
   13TCq1    C6  203   1.152   4.411  11.783  1.0310 -0.0330  0.4275
   13TCq1    C7  204   1.130   4.509  11.879 -0.4277  0.1287 -0.3500
   13TCq1    C8  205   1.032   4.358  11.714 -0.2091 -0.3959  0.8359
   13TCq1    O4  206   0.937   4.430  11.675 -0.2560 -0.3835 -0.0190
   13TCq1    C9  207   1.490   4.279  11.869  0.0379 -0.1214 -0.1738
   13TCq1    O5  208   1.587   4.309  11.944  0.2899  0.5488 -0.1171
   13TCq1    O6  209   1.494   4.185  11.791 -0.1466  0.2373  0.6051
   13TCq1    H1  210   1.333   4.574  12.172  2.3332 -1.5266 -3.9268
   13TCq1    H2  211   1.443   4.485  12.019  0.4868 -0.6135 -0.1404
   13TCq1    H3  212   1.291   4.269  11.695 -2.9246 -1.1751  0.1870
   13TCq1    H4  213   1.052   4.583  11.867 -0.4490  0.2316  0.4037
   14MPD2     C  214   0.972   3.996  11.680 -0.1208  1.0711  0.0712
   14MPD2    C1  215   0.941   4.130  11.683  0.6917 -0.0239  0.1117
   14MPD2    C2  216   0.808   4.164  11.660  0.5075 -0.0579 -1.1911
   14MPD2    C3  217   0.709   4.062  11.634 -0.2893 -0.2152  0.1288
   14MPD2    C4  218   0.747   3.934  11.627 -0.5128 -0.2240 -0.0704
   14MPD2    C5  219   0.879   3.905  11.642  0.0767  0.4800  0.5113
   14MPD2     H  220   0.767   4.264  11.647 -0.7153 -0.2749  1.0505
   14MPD2    H1  221   0.681   3.849  11.609 -1.8475  1.8607 -4.7724
   14MPD2    H2  222   1.070   3.952  11.685  0.2328  1.6038 -2.0661
   14MPD2    H3  223   0.907   3.802  11.624  0.5585  0.5188  1.0291
   14MPD2     N  224   0.574   4.105  11.616  0.3476  0.0195  0.0198
   14MPD2    H5  225   0.560   4.205  11.615  1.7765  0.2284  0.7542
   14MPD2    N1  226   1.044   4.219  11.720  0.2707 -0.1617 -0.2675
   14MPD2    H7  227   1.130   4.178  11.754  1.2718  0.9197 -1.4875
   15TCq1    O1  228   3.219   3.126   1.984 -0.5059  0.7682  0.1356
   15TCq1    C1  229   3.109   3.198   1.993  0.1574 -0.0168  0.9345
   15TCq1    O2  230   3.092   3.272   2.085  0.0303  0.6834 -0.3564
   15TCq1    C2  231   3.071   3.236   1.854  0.1846  0.4781  0.2991
   15TCq1    C3  232   3.083   3.371   1.818 -0.0801  0.4522  0.4978
   15TCq1    C4  233   3.045   3.405   1.692  0.4180  0.1549 -0.0652
   15TCq1    C5  234   2.979   3.326   1.606  0.2399  0.3132  0.2646
   15TCq1    C6  235   2.946   3.204   1.656  0.6854 -0.1894  0.1341
   15TCq1    C7  236   3.002   3.153   1.767 -0.2746 -0.3489 -1.2401
   15TCq1    C8  237   2.871   3.109   1.574  0.3558 -0.6781  0.6957
   15TCq1    O4  238   2.875   2.988   1.603 -0.1804  0.0474  0.5796
   15TCq1    C9  239   3.078   3.535   1.645 -0.6458 -0.4377 -0.6056
   15TCq1    O5  240   3.183   3.585   1.697  0.8325 -0.2429  0.6147
   15TCq1    O6  241   3.025   3.575   1.540  0.4186 -0.6306  0.2143
   15TCq1    H1  242   3.239   3.109   1.890  2.3228  3.1744  0.2990
   15TCq1    H2  243   3.116   3.444   1.891  1.3796  0.8616 -0.5797
   15TCq1    H3  244   2.942   3.365   1.512 -0.3293  0.3025  0.4784
   15TCq1    H4  245   2.965   3.058   1.802 -1.2932  0.4829 -0.0411
   16MPD2     C  246   2.673   3.149   1.271  0.1950  0.3940 -0.6261
   16MPD2    C1  247   2.758   3.087   1.358  0.0168  0.5550 -0.0235
   16MPD2    C2  248   2.791   2.955   1.340  0.3563  0.0090 -1.0971
   16MPD2    C3  249   2.737   2.894   1.229 -0.3641 -0.6642  0.1267
   16MPD2    C4  250   2.664   2.960   1.134 -0.1477  0.2818  0.0052
   16MPD2    C5  251   2.627   3.089   1.157  0.0413  0.1775  0.2493
   16MPD2     H  252   2.878   2.912   1.389 -1.2102  0.2821  1.9265
   16MPD2    H1  253   2.639   2.923   1.035  1.0835  0.7483 -0.4747
   16MPD2    H2  254   2.633   3.246   1.296 -0.3344  0.2271 -0.8129
   16MPD2    H3  255   2.551   3.138   1.098  1.1652 -0.2865 -1.6103
   16MPD2     N  256   2.782   2.760   1.203 -0.0901  0.0679 -0.0947
   16MPD2    H5  257   2.847   2.711   1.263  1.6087  0.2750 -1.7652
   16MPD2    N1  258   2.803   3.166   1.470 -0.3390 -0.2838 -0.0985
   16MPD2    H7  259   2.812   3.266   1.454  2.2267 -0.5016 -0.1009
   17TMC1    C1  260   0.841   2.849  11.625 -0.4903  0.4536  0.1461
   17TMC1    C2  261   0.723   2.848  11.700 -0.9083 -0.0249 -0.3218
   17TMC1    C3  262   0.663   2.726  11.727  0.4528 -0.8881  0.2142
   17TMC1    C4  263   0.879   2.732  11.565 -0.3162  0.0355  0.1672
   17TMC1    C5  264   0.810   2.618  11.590 -0.2495 -0.1124 -0.4045
   17TMC1    C6  265   0.702   2.612  11.669  0.6308 -0.0464 -0.8693
   17TMC1     C  266   0.894   2.980  11.591  0.1841 -0.1336 -0.0671
   17TMC1     O  267   0.855   3.066  11.669 -0.4098 -0.2299 -0.1621
   17TMC1     H  268   0.683   2.939  11.743 -1.3215  0.4215 -1.6345
   17TMC1    H1  269   0.958   2.727  11.491  0.4778 -1.3730  1.1140
   17TMC1    H2  270   0.650   2.517  11.672  1.4223 -0.4502  0.0122
   17TMC1    C7  271   0.877   2.492  11.581 -0.1585  0.0848  1.0875
   17TMC1    C8  272   0.554   2.723  11.819 -0.1030  0.0231  0.4238
   17TMC1    O1  273   0.818   2.386  11.558  0.2494 -0.3031 -0.2164
   17TMC1    O2  274   0.491   2.824  11.854  0.2376 -0.2118  0.5078
   17TMC1    O3  275   0.990   2.510  11.661  0.2389 -0.5864 -0.2043
   17TMC1    H3  276   1.015   2.605  11.666 -2.4706  0.1068  0.3399
   17TMC1    O5  277   0.574   2.609  11.894 -0.3966 -0.1602 -0.5633
   17TMC1    H5  278   0.642   2.546  11.863 -0.4044 -0.8113  0.7541
   18MPD2     C  279   0.974   3.235  11.469  0.1815  0.8097  0.0180
   18MPD2    C1  280   0.984   3.112  11.409 -0.8718  0.6231  0.8685
   18MPD2    C2  281   1.040   3.104  11.286 -0.5429  0.0704 -0.2451
   18MPD2    C3  282   1.083   3.221  11.212 -0.1290  0.5286 -0.1933
   18MPD2    C4  283   1.055   3.339  11.276 -0.2392 -0.2897 -0.7700
   18MPD2    C5  284   1.008   3.352  11.406 -0.1778 -0.0727  0.1373
   18MPD2     H  285   1.057   3.009  11.237  1.4609  2.1691 -3.6161
   18MPD2    H1  286   1.079   3.432  11.226 -0.9058  0.8626  1.0443
   18MPD2    H2  287   0.943   3.244  11.573  0.0089  0.2642  0.0136
   18MPD2    H3  288   0.984   3.447  11.451 -3.4641  0.7476 -3.3952
   18MPD2     N  289   1.146   3.227  11.083 -0.1498 -1.1646  0.1492
   18MPD2    H5  290   1.191   3.316  11.062  2.5428 -2.3982  0.6913
   18MPD2    N1  291   0.952   2.991  11.468 -0.6222  0.4654 -0.2388
   18MPD2    H7  292   0.979   2.905  11.421 -2.4792  0.7301 -1.7542
   19TMC2    C1  293   2.524   3.975  13.529 -0.4400 -0.3385  0.6283
   19TMC2    C2  294   2.457   4.045  13.434  0.2074 -0.4922  0.2909
   19TMC2    C3  295   2.322   4.028  13.430 -0.2501 -0.0867 -0.5174
   19TMC2    C4  296   2.463   3.900  13.626 -0.0820 -0.5047  0.2637
   19TMC2    C5  297   2.321   3.882  13.620 -0.2562  0.0004 -0.1728
   19TMC2    C6  298   2.250   3.945  13.516  0.2331  0.0930  0.9591
   19TMC2     C  299   2.667   3.957  13.498 -0.7140 -0.2444 -0.8216
   19TMC2     O  300   2.718   4.034  13.410  0.6850  0.2020  0.0040
   19TMC2     H  301   2.501   4.111  13.361 -2.6799  1.6577  0.5174
   19TMC2    H1  302   2.518   3.848  13.704 -0.2567 -3.0760 -1.3039
   19TMC2    H2  303   2.148   3.916  13.496  0.6068  1.5900 -2.9740
   19TMC2    C7  304   2.273   3.770  13.697  0.7109  0.1737 -0.1737
   19TMC2    C8  305   2.268   4.053  13.296 -0.2799 -1.1119  0.1665
   19TMC2    O1  306   2.350   3.686  13.737 -0.0043 -0.0506  0.0773
   19TMC2    O2  307   2.339   4.045  13.197 -0.5674  0.6121  0.0516
   19TMC2    O5  308   2.138   4.061  13.302  0.4091 -0.0921  1.0485
   19TMC2    H5  309   2.114   4.098  13.389 -2.2931  1.0191 -0.1613
   20MPD2     C  310   2.937   3.828  13.450 -0.5887 -0.2111 -0.0250
   20MPD2    C1  311   2.849   3.794  13.552  0.5652 -0.2356  0.5511
   20MPD2    C2  312   2.883   3.688  13.635 -0.3780  0.0967  0.3444
   20MPD2    C3  313   3.009   3.630  13.615 -0.5778 -0.1448 -0.2479
   20MPD2    C4  314   3.094   3.678  13.520  0.3684 -0.6370 -0.2020
   20MPD2    C5  315   3.062   3.775  13.432  0.6154 -0.0598  0.0446
   20MPD2     H  316   2.822   3.666  13.722 -1.5241 -1.5274 -0.8870
   20MPD2    H1  317   3.191   3.631  13.513  0.4003  0.4045 -6.4021
   20MPD2    H2  318   2.907   3.905  13.380 -0.6870  0.7954  1.1041
   20MPD2    H3  319   3.121   3.811  13.349  0.9488  0.8038  0.6580
   20MPD2     N  320   3.066   3.534  13.710 -0.2989  0.4866 -0.6476
   20MPD2    H5  321   3.167   3.525  13.706  0.0031  2.7792  1.6291
   20MPD2    N1  322   2.723   3.855  13.569  0.5843  0.1334 -0.2791
   20MPD2    H7  323   2.663   3.815  13.640  0.3355  1.4472  0.2467
   21TMC2    C1  324   4.307   3.641  14.476  0.5082 -0.4523 -0.3732
   21TMC2    C2  325   4.333   3.533  14.558 -0.1834 -0.5469  0.1755
   21TMC2    C3  326   4.366   3.554  14.694  0.0086  0.1674 -0.1465
   21TMC2    C4  327   4.297   3.768  14.526 -0.1777 -0.4239  0.3030
   21TMC2    C5  328   4.322   3.777  14.662  0.5234 -1.0604 -0.0481
   21TMC2    C6  329   4.366   3.682  14.740  0.2543 -0.1108 -0.5186
   21TMC2     C  330   4.404   3.628  14.376 -0.3165 -0.0878 -0.5934
   21TMC2     O  331   4.505   3.569  14.414  0.3838  0.5927  0.1334
   21TMC2     H  332   4.336   3.433  14.519 -0.9311 -0.4333 -0.1544
   21TMC2    H1  333   4.280   3.854  14.462 -3.0768 -0.2130  1.3523
   21TMC2    H2  334   4.386   3.702  14.845  1.1451 -2.2558 -0.2854
   21TMC2    C7  335   4.332   3.913  14.722  0.5402  0.5077 -0.0417
   21TMC2    C8  336   4.468   3.473  14.755  0.5113  0.3237 -0.3600
   21TMC2    O1  337   4.378   3.930  14.832  0.1177  0.0235  0.3882
   21TMC2    O2  338   4.492   3.480  14.873  0.3502  0.1265 -0.1646
   21TMC2    O5  339   4.562   3.454  14.661 -0.1037 -0.0433 -0.0800
   21TMC2    H5  340   4.525   3.478  14.573  1.5976  0.4182 -0.6914
   22MPD2     C  341   4.659   3.888  14.026  0.0193  0.3232 -0.1175
   22MPD2    C1  342   4.699   3.811  14.128 -0.8274  0.0095 -0.7156
   22MPD2    C2  343   4.604   3.733  14.188  0.2255  0.3231  0.1792
   22MPD2    C3  344   4.467   3.743  14.171 -0.4391 -0.7210  0.6514
   22MPD2    C4  345   4.427   3.825  14.067 -0.3086  0.3520 -0.0429
   22MPD2    C5  346   4.527   3.891  13.995  0.7238 -0.0961  0.8806
   22MPD2     H  347   4.641   3.674  14.271  0.1159  0.8507  0.6048
   22MPD2    H1  348   4.323   3.839  14.039 -0.4455  1.8121  1.2296
   22MPD2    H2  349   4.727   3.955  13.973  1.4753 -0.4008  0.8525
   22MPD2    H3  350   4.501   3.962  13.916 -0.8319 -1.7007 -0.0582
   22MPD2     N  351   4.376   3.696  14.267  0.1985  0.2537 -0.2918
   22MPD2    H5  352   4.281   3.731  14.262  0.4189  0.9820  0.4482
   22MPD2    N1  353   0.089   3.807  14.189 -0.1109 -0.1252  0.6511
   22MPD2    H7  354   0.094   3.745  14.269  0.7896 -1.0638 -0.1314
   23TMC2    C1  355   1.406   0.671  14.475  0.1522  0.6701  0.2556
   23TMC2    C2  356   1.427   0.799  14.423  0.1138  0.0063 -0.7879
   23TMC2    C3  357   1.407   0.803  14.285 -0.2722 -0.2736  0.1283
   23TMC2    C4  358   1.382   0.558  14.404 -0.1530  0.4215  0.3887
   23TMC2    C5  359   1.358   0.570  14.272 -0.9349  0.3362 -0.1514
   23TMC2    C6  360   1.375   0.689  14.210  0.2821 -0.0027  0.7746
   23TMC2     C  361   1.407   0.665  14.615 -0.6963 -0.5209 -0.1656
   23TMC2     O  362   1.449   0.566  14.670  0.5684  0.3375  0.1502
   23TMC2     H  363   1.470   0.886  14.471  0.2026 -0.5248  0.0902
   23TMC2    H1  364   1.368   0.463  14.454 -0.2883  0.2289 -0.0058
   23TMC2    H2  365   1.369   0.701  14.103  1.8781  1.5828  0.8611
   23TMC2    C7  366   1.306   0.465  14.197  0.2395  0.4318  0.5249
   23TMC2    C8  367   1.406   0.936  14.228  0.0032  0.2644 -0.1944
   23TMC2    O1  368   1.358   0.449  14.086  0.5179 -0.4141 -0.2286
   23TMC2    O2  369   1.459   1.034  14.276 -0.5090  0.4201  0.3164
   23TMC2    O5  370   1.345   0.921  14.109 -0.1102 -0.4743 -0.1082
   23TMC2    H5  371   1.302   0.834  14.101 -0.6133 -0.2890  0.5806
   24MPD2     C  372   1.235   0.859  15.058 -0.2580  0.1129  0.6560
   24MPD2    C1  373   1.323   0.752  15.037  0.4770 -0.2385 -0.0918
   24MPD2    C2  374   1.350   0.725  14.904 -0.0685  0.6120 -0.0170
   24MPD2    C3  375   1.297   0.790  14.795  0.4496  0.7808  0.0453
   24MPD2    C4  376   1.203   0.885  14.817  0.6003  0.5607 -0.0376
   24MPD2    C5  377   1.174   0.921  14.952  0.1066 -0.1524  0.5662
   24MPD2     H  378   1.421   0.644  14.889  0.2260  1.0066 -0.7463
   24MPD2    H1  379   1.157   0.941  14.737  0.4480  1.4671  0.6966
   24MPD2    H2  380   1.229   0.901  15.158  0.9283  1.4724  0.1653
   24MPD2    H3  381   1.106   1.002  14.977 -1.5597 -1.4679  0.3235
   24MPD2     N  382   1.334   0.773  14.660  0.2052 -0.2840  0.2619
   24MPD2    H5  383   1.307   0.848  14.597  2.3682  1.6060  1.5770
   24MPD2    N1  384   1.398   0.684  15.132  0.0562 -0.7460  0.4663
   24MPD2    H7  385   1.467   0.623  15.091 -2.5432 -1.3031 -3.0930
   25TMC2    C1  386   0.412   2.625  11.151 -0.2205 -0.2050 -0.1670
   25TMC2    C2  387   0.375   2.750  11.118  0.1387  0.5540  0.2887
   25TMC2    C3  388   0.322   2.833  11.219  0.6593 -0.4586 -0.0972
   25TMC2    C4  389   0.413   2.579  11.278  0.2539  0.7625 -0.0769
   25TMC2    C5  390   0.375   2.668  11.373  0.3356  0.5726 -0.4129
   25TMC2    C6  391   0.318   2.787  11.345 -0.0032  0.5312  0.4314
   25TMC2     C  392   0.416   2.528  11.035 -0.0197 -0.1690 -0.2693
   25TMC2     O  393   0.435   2.573  10.923  0.0179  0.2934  0.3404
   25TMC2     H  394   0.381   2.778  11.013  0.5826 -1.9501 -0.3491
   25TMC2    H1  395   0.463   2.485  11.297 -1.1012  0.3702  1.5269
   25TMC2    H2  396   0.290   2.848  11.430  0.1765  0.5930  0.4458
   25TMC2    C7  397   0.364   2.617  11.511 -0.5343  0.6017 -0.4101
   25TMC2    C8  398   0.300   2.973  11.199  0.3180  0.3916  0.2940
   25TMC2    O1  399   0.318   2.695  11.591  0.0040 -0.0232  0.3190
   25TMC2    O2  400   0.247   3.047  11.283 -0.9608 -0.8935 -0.8414
   25TMC2    O5  401   0.381   3.012  11.094 -0.3017 -0.7249 -0.0238
   25TMC2    H5  402   0.422   2.945  11.036 -3.3599 -0.5894 -2.3569
   26MPD2     C  403   0.345   2.069  10.808  0.5331  0.0252 -0.5358
   26MPD2    C1  404   0.343   2.048  10.940 -0.3652  0.0388  0.5858
   26MPD2    C2  405   0.367   2.156  11.020  0.0388 -0.2580 -0.2885
   26MPD2    C3  406   0.370   2.290  10.975  0.7241 -0.7890  0.0308
   26MPD2    C4  407   0.353   2.302  10.838 -0.2518 -0.2930 -0.1561
   26MPD2    C5  408   0.340   2.191  10.759  0.5701  0.0724  0.4146
   26MPD2     H  409   0.382   2.131  11.125  0.7219  1.1075 -0.0720
   26MPD2    H1  410   0.353   2.398  10.788  0.3736  0.4939  1.3385
   26MPD2    H2  411   0.332   1.992  10.732 -0.4436  0.3793 -0.7232
   26MPD2    H3  412   0.321   2.206  10.653  0.4595 -1.5737  0.2088
   26MPD2     N  413   0.394   2.392  11.069  0.3687  0.3990  0.2518
   26MPD2    H5  414   0.382   2.366  11.166  0.2868 -2.9870 -0.6940
   26MPD2    N1  415   0.341   1.911  10.981 -0.4344 -0.2310 -0.1719
   26MPD2    H7  416   0.336   1.842  10.907  1.8916 -0.7217  0.1148
   27TMC2    C1  417   4.356   4.530  12.073  0.4114 -0.5325  0.2168
   27TMC2    C2  418   4.480   4.475  12.067  0.3357 -0.2155  0.4837
   27TMC2    C3  419   4.568   4.513  12.163 -0.0536  0.3603  0.1779
   27TMC2    C4  420   4.322   4.639  12.146 -0.2621 -0.0251  0.0673
   27TMC2    C5  421   4.414   4.682  12.240  0.6449 -0.9218  0.2091
   27TMC2    C6  422   4.530   4.607  12.258  0.6463 -0.1192  0.1063
   27TMC2     C  423   4.262   4.484  11.970 -0.1271 -0.5923  0.0733
   27TMC2     O  424   4.283   4.429  11.864 -0.2045 -0.6417  0.1791
   27TMC2     H  425   4.489   4.384  12.009  2.6837  0.2957  0.0546
   27TMC2    H1  426   4.235   4.698  12.122  0.2079  0.3358 -0.7234
   27TMC2    H2  427   4.606   4.624  12.332  1.7575  0.1170 -1.0964
   27TMC2    C7  428   4.353   0.001  12.354 -0.1035  0.0646 -0.2844
   27TMC2    C8  429   4.708   4.490  12.146 -0.2815  0.2177 -0.1431
   27TMC2    O1  430   4.242   4.695  12.369  0.4299  0.2781 -0.2862
   27TMC2    O2  431   0.046   4.483  12.244 -0.2072 -0.2707  0.3750
   27TMC2    O5  432   0.001   4.472  12.013 -0.3903 -0.1613 -0.1857
   27TMC2    H5  433   4.659   4.503  11.962  0.6666  0.9428 -1.1050
   28MPD2     C  434   3.758   4.495  11.849  0.3741  0.2055 -0.3184
   28MPD2    C1  435   3.772   4.547  11.976 -0.4156  0.2416  0.4071
   28MPD2    C2  436   3.900   4.549  12.031  0.0834  0.0970  0.1621
   28MPD2    C3  437   4.013   4.497  11.964  0.7007 -0.2595 -0.2995
   28MPD2    C4  438   3.995   4.450  11.831  0.1793  0.2771  0.7972
   28MPD2    C5  439   3.870   4.447  11.779 -0.5779 -0.2260 -0.4151
   28MPD2     H  440   3.921   4.598  12.125 -0.5632  1.9131 -0.6382
   28MPD2    H1  441   4.079   4.419  11.770 -0.0171  2.1726 -0.4120
   28MPD2    H2  442   3.662   4.511  11.800 -0.1173  1.4251  1.0489
   28MPD2    H3  443   3.854   4.418  11.676 -1.9812 -0.7713 -0.0355
   28MPD2     N  444   4.139   4.503  12.027  0.4269  0.2579  0.0848
   28MPD2    H5  445   4.141   4.537  12.123  1.0945 -1.9584  0.8679
   28MPD2    N1  446   3.663   4.606  12.040  0.3054 -0.3286  0.8780
   28MPD2    H7  447   3.569   4.602  12.002  0.1260 -1.5791  1.4442
   29TMC2    C1  448   3.290   2.500  14.167  0.0184  0.7408 -0.2398
   29TMC2    C2  449   3.326   2.513  14.303  0.6986 -0.5055 -0.4751
   29TMC2    C3  450   3.291   2.633  14.350 -0.2077 -0.1799 -0.3232
   29TMC2    C4  451   3.249   2.601  14.083 -0.0988 -0.0771  0.0093
   29TMC2    C5  452   3.224   2.717  14.142 -1.1050  0.2355 -0.2538
   29TMC2    C6  453   3.236   2.737  14.275 -0.4563 -0.1450  0.1417
   29TMC2     C  454   3.286   2.361  14.129 -0.0801 -1.0761 -0.2183
   29TMC2     O  455   3.349   2.277  14.197  0.2305  0.5816  0.3441
   29TMC2     H  456   3.364   2.434  14.365  0.1573 -0.3090  0.1041
   29TMC2    H1  457   3.236   2.588  13.976  0.4530  0.7357 -0.1564
   29TMC2    H2  458   3.209   2.837  14.308  0.3265  0.0924  0.0824
   29TMC2    C7  459   3.237   2.836  14.061 -0.3642  0.4665  0.0067
   29TMC2    C8  460   3.363   2.678  14.464 -0.4404  0.1084  0.7722
   29TMC2    O1  461   3.176   2.832  13.954  0.6740 -0.0125 -0.2423
   29TMC2    O2  462   3.341   2.793  14.497 -0.2755  0.2492  0.1206
   29TMC2    O5  463   3.380   2.569  14.546 -0.0238  0.5701  0.2945
   29TMC2    H5  464   3.417   2.589  14.635  1.5891  1.9991 -0.6916
   30MPD2     C  465   3.182   2.000  13.784  0.6926  0.2841 -0.1250
   30MPD2    C1  466   3.282   2.003  13.877  0.2664  0.0930 -0.1069
   30MPD2    C2  467   3.292   2.115  13.963 -0.2874 -1.0784 -0.7901
   30MPD2    C3  468   3.197   2.216  13.949 -0.0945 -0.2660  0.5968
   30MPD2    C4  469   3.098   2.210  13.854 -0.0349 -0.0861 -0.1282
   30MPD2    C5  470   3.092   2.098  13.771  0.3591 -0.1377 -0.7964
   30MPD2     H  471   3.381   2.134  14.022 -0.2228 -1.5624 -0.7349
   30MPD2    H1  472   3.033   2.296  13.846 -3.6615 -3.0069 -1.8835
   30MPD2    H2  473   3.163   1.908  13.730  2.8998  0.2513 -0.8696
   30MPD2    H3  474   3.015   2.095  13.694 -0.3586 -0.9271 -0.0478
   30MPD2     N  475   3.200   2.331  14.024  0.3085 -0.1863  0.4428
   30MPD2    H5  476   3.133   2.406  14.014 -0.1431 -0.7281 -0.5842
   30MPD2    N1  477   3.379   1.906  13.894  0.2217  0.1987 -0.2339
   30MPD2    H7  478   3.455   1.922  13.960  0.1112 -0.8149  0.1489
   31TMC2    C1  479   1.092   1.460  15.146  0.2520 -0.2002 -0.1311
   31TMC2    C2  480   0.957   1.486  15.128 -0.7223 -0.4244 -0.1630
   31TMC2    C3  481   0.862   1.417  15.204  0.1242  0.0298 -0.8312
   31TMC2    C4  482   1.142   1.389  15.250  0.9935  0.4718 -0.5111
   31TMC2    C5  483   1.042   1.334  15.332 -0.2988 -0.0226 -0.2896
   31TMC2    C6  484   0.908   1.342  15.309  0.2370 -0.1711  0.3550
   31TMC2     C  485   1.178   1.518  15.044  0.2758  0.3472 -0.2540
   31TMC2     O  486   1.152   1.622  14.986  0.0658 -0.6967 -0.0322
   31TMC2     H  487   0.925   1.568  15.064  2.4419  0.3522 -0.7203
   31TMC2    H1  488   1.248   1.373  15.263  0.5126 -2.5764 -0.4038
   31TMC2    H2  489   0.842   1.294  15.380 -0.1372  0.5141  0.4790
   31TMC2    C7  490   1.088   1.293  15.463 -0.3577  0.5588  0.4348
   31TMC2    C8  491   0.735   1.478  15.241 -0.0433  0.0030  0.5800
   31TMC2    O1  492   1.204   1.256  15.463 -0.1969 -0.6470  0.3346
   31TMC2    O2  493   0.688   1.455  15.353  0.1933  0.1545  0.5227
   31TMC2    O5  494   0.660   1.478  15.134  0.0194 -0.4803 -0.6874
   31TMC2    H5  495   0.710   1.474  15.050  0.9412  0.7941 -0.1912
   32MPD2     C  496   1.625   1.498  14.770 -0.8961 -0.6917  0.0339
   32MPD2    C1  497   1.523   1.597  14.764 -0.0842  0.7774  0.1701
   32MPD2    C2  498   1.410   1.578  14.845 -0.3698 -0.5931  0.1231
   32MPD2    C3  499   1.400   1.464  14.931  0.1120 -0.4199 -0.0584
   32MPD2    C4  500   1.507   1.380  14.937 -0.4576  0.1359 -0.6637
   32MPD2    C5  501   1.619   1.391  14.861  0.7481 -0.7561  0.2400
   32MPD2     H  502   1.324   1.642  14.830  1.2402  1.4431 -0.3597
   32MPD2    H1  503   1.506   1.296  15.005 -1.1497  0.7858  0.1145
   32MPD2    H2  504   1.709   1.504  14.702 -0.1396  2.4076  1.2457
   32MPD2    H3  505   1.696   1.314  14.858  1.5078  0.1890 -4.0913
   32MPD2     N  506   1.283   1.434  15.014 -0.0414  0.3607 -0.2621
   32MPD2    H5  507   1.298   1.351  15.070 -1.6378  0.0323 -0.3244
   32MPD2    N1  508   1.534   1.696  14.664  0.4538  0.1731  0.4892
   32MPD2    H7  509   1.623   1.701  14.616  0.2489 -2.2670 -0.1430
   33TMC2    C1  510   1.089   4.053  10.422 -0.7598  0.1382  0.2816
   33TMC2    C2  511   0.952   4.043  10.434 -1.4843 -0.1312 -0.1660
   33TMC2    C3  512   0.881   4.140  10.364  0.0613 -0.0169  0.2935
   33TMC2    C4  513   1.142   4.144  10.339 -0.2850 -0.4934 -0.1916
   33TMC2    C5  514   1.071   4.243  10.277  0.5281  0.8366  0.1981
   33TMC2    C6  515   0.937   4.245  10.297  0.3495  0.2061  0.6318
   33TMC2     C  516   1.157   3.928  10.452 -0.8000 -0.3080 -0.0913
   33TMC2     O  517   1.092   3.829  10.490  0.1864  0.5485 -0.2601
   33TMC2     H  518   0.908   3.967  10.498 -0.4279  0.5179  1.3421
   33TMC2    H1  519   1.245   4.130  10.310  1.0784 -0.5470  4.5986
   33TMC2    H2  520   0.873   4.310  10.237 -0.8516 -1.8554 -0.3299
   33TMC2    C7  521   1.149   4.347  10.218 -0.5666 -0.3239  0.3259
   33TMC2    C8  522   0.738   4.120  10.360 -0.5494 -0.4431 -0.0507
   33TMC2    O1  523   1.270   4.333  10.231  0.0056 -0.1529  0.0327
   33TMC2    O2  524   0.672   4.020  10.372  0.7821 -0.5321  0.2303
   33TMC2    O5  525   0.713   4.242  10.419 -0.0291 -0.1052  0.1923
   33TMC2    H5  526   0.763   4.324  10.395  0.1977  0.0840  1.3287
   34MPD2     C  527   1.554   3.623  10.450  0.1009 -0.2909  0.3884
   34MPD2    C1  528   1.437   3.610  10.525 -0.6244 -0.5572  0.1520
   34MPD2    C2  529   1.351   3.716  10.525  0.2297  0.1353  0.0149
   34MPD2    C3  530   1.381   3.828  10.446 -0.0485  0.1740  0.4079
   34MPD2    C4  531   1.500   3.841  10.375  0.2817  0.1611 -0.4704
   34MPD2    C5  532   1.587   3.740  10.388  0.1179  0.0381  0.0337
   34MPD2     H  533   1.262   3.708  10.586 -0.3145 -2.1267 -1.1097
   34MPD2    H1  534   1.521   3.928  10.314  2.0658  1.7601  2.4086
   34MPD2    H2  535   1.615   3.534  10.438  0.7578  0.4978 -2.0616
   34MPD2    H3  536   1.687   3.744  10.347  0.7497 -0.7481  1.5036
   34MPD2     N  537   1.293   3.936  10.426 -0.6725 -0.4296 -0.2271
   34MPD2    H5  538   1.328   4.023  10.387  0.7758 -0.5760  0.7594
   34MPD2    N1  539   1.415   3.490  10.591  0.0930 -0.8253 -0.3612
   34MPD2    H7  540   1.490   3.422  10.587  1.2532  0.3158  2.5731
   35TMC2    C1  541   3.116   0.493  11.011 -0.5002 -0.3604 -0.1879
   35TMC2    C2  542   3.144   0.502  10.878  0.4324 -0.4283 -0.0589
   35TMC2    C3  543   3.070   0.432  10.785 -0.1508 -0.5303  0.1738
   35TMC2    C4  544   2.999   0.430  11.050 -0.1743  0.0125 -0.8032
   35TMC2    C5  545   2.934   0.354  10.961  0.0452  0.0131  0.3668
   35TMC2    C6  546   2.969   0.354  10.827 -0.0651  0.8420  0.0320
   35TMC2     C  547   3.187   0.573  11.101 -0.2925 -0.5382  0.1077
   35TMC2     O  548   3.255   0.666  11.055 -0.0493  0.0300 -0.0844
   35TMC2     H  549   3.221   0.572  10.846 -0.9965  0.5444 -1.3820
   35TMC2    H1  550   2.980   0.426  11.157 -1.2412 -1.4579 -1.0384
   35TMC2    H2  551   2.921   0.291  10.753  4.6573 -2.2964 -0.3366
   35TMC2    C7  552   2.840   0.260  11.012 -0.2417  0.2038 -0.5258
   35TMC2    C8  553   3.135   0.375  10.671  0.3433 -0.4424  0.5658
   35TMC2    O1  554   2.873   0.213  11.119  1.2356  0.4088  0.7156
   35TMC2    O2  555   3.119   0.261  10.633  0.3461 -0.2887  1.1349
   35TMC2    O5  556   3.186   0.474  10.592  0.8248  0.2042 -0.1569
   35TMC2    H5  557   3.201   0.561  10.634 -1.5682 -0.7081  2.6093
   36MPD2     C  558   3.420   0.638  11.554  0.4479  0.0738 -0.5200
   36MPD2    C1  559   3.378   0.507  11.544 -0.6030 -0.0305  0.4110
   36MPD2    C2  560   3.296   0.468  11.435  0.0538 -0.4142 -0.2021
   36MPD2    C3  561   3.286   0.549  11.327 -0.8201 -0.3918  0.1446
   36MPD2    C4  562   3.336   0.679  11.334  0.0608 -0.0749 -0.2437
   36MPD2    C5  563   3.402   0.719  11.447 -0.3220 -0.0327  0.5390
   36MPD2     H  564   3.247   0.372  11.435  3.5083 -2.2064 -0.0928
   36MPD2    H1  565   3.333   0.752  11.255  2.3949 -1.5657 -1.7148
   36MPD2    H2  566   3.471   0.682  11.639  1.3311 -0.4659 -0.7707
   36MPD2    H3  567   3.440   0.820  11.450 -0.2465 -0.0016 -1.4072
   36MPD2     N  568   3.208   0.500  11.220 -0.4148 -0.2716 -0.3059
   36MPD2    H5  569   3.161   0.410  11.232 -0.8450 -0.0819 -0.5788
   36MPD2    N1  570   3.388   0.426  11.656 -0.2060  0.3947 -0.2709
   36MPD2    H7  571   3.409   0.483  11.738  1.2970 -0.9431  0.2804
   37TMC2    C1  572   0.263   0.220  11.900  0.6320 -0.6458 -0.0243
   37TMC2    C2  573   0.154   0.176  11.962  1.1903 -0.4962 -0.3891
   37TMC2    C3  574   0.030   0.164  11.902 -0.2059  0.9379 -0.5073
   37TMC2    C4  575   0.255   0.263  11.768 -0.4919 -0.2193 -0.1626
   37TMC2    C5  576   0.141   0.227  11.697  0.8369  0.0390  0.2323
   37TMC2    C6  577   0.027   0.179  11.764 -0.2876  0.2494  0.2518
   37TMC2     C  578   0.392   0.229  11.962 -0.5787  0.2468  0.5984
   37TMC2     O  579   0.480   0.282  11.894  0.7791  0.1179 -0.1113
   37TMC2     H  580   0.153   0.161  12.070  0.3828  0.9522 -0.1896
   37TMC2    H1  581   0.338   0.286  11.701 -0.8705  3.1705  0.5245
   37TMC2    H2  582   4.670   0.151  11.714  0.8579 -1.5817 -0.8617
   37TMC2    C7  583   0.138   0.289  11.568  0.2704 -0.3058  0.3404
   37TMC2    C8  584   4.688   0.061  11.955  0.3381 -0.0634 -1.0070
   37TMC2    O1  585   0.219   0.380  11.543 -0.3381  0.3042 -0.2370
   37TMC2    O2  586   4.701   0.038  12.075  0.2090 -0.0321  0.7236
   37TMC2    O5  587   4.653   4.706  11.867  0.3732 -0.0840  0.9113
   37TMC2    H5  588   4.699   4.701  11.781 -0.5800  2.0823  0.2687
   38MPD2     C  589   0.717   0.182  12.354  0.6283 -0.1234 -0.1862
   38MPD2    C1  590   0.606   0.101  12.385 -0.1014 -0.3074  0.0456
   38MPD2    C2  591   0.502   0.113  12.297 -0.4953  0.3419  0.0392
   38MPD2    C3  592   0.509   0.182  12.178 -0.4928 -0.1429  0.4215
   38MPD2    C4  593   0.627   0.247  12.142 -0.2304 -0.0017 -0.4143
   38MPD2    C5  594   0.724   0.253  12.239 -0.3239  0.0967 -0.1881
   38MPD2     H  595   0.410   0.063  12.327 -0.2217  2.1467  3.8935
   38MPD2    H1  596   0.635   0.309  12.054 -0.0329 -1.0464 -1.1330
   38MPD2    H2  597   0.804   0.202  12.414  1.9976 -2.5067 -1.3812
   38MPD2    H3  598   0.801   0.325  12.213  1.4749 -2.2644 -1.4382
   38MPD2     N  599   0.395   0.184  12.092  0.4532 -0.7662  0.3466
   38MPD2    H5  600   0.315   0.123  12.109  1.3137 -2.0342 -0.1275
   38MPD2    N1  601   0.589   0.042  12.514  0.1816  0.5120  0.1310
   38MPD2    H7  602   0.496   0.012  12.542  0.4311 -0.3826  0.0148
   39TMC2    C1  603   3.233   2.361   1.943 -1.1270 -0.8010  0.5430
   39TMC2    C2  604   3.222   2.493   1.957 -1.0870 -0.2785 -0.0788
   39TMC2    C3  605   3.320   2.567   1.911  0.6906 -0.0538  0.1194
   39TMC2    C4  606   3.332   2.311   1.860 -0.4238 -0.1863 -0.8803
   39TMC2    C5  607   3.433   2.391   1.807 -0.6404 -0.0722 -0.4925
   39TMC2    C6  608   3.431   2.526   1.842 -0.3859 -0.0538 -0.1537
   39TMC2     C  609   3.110   2.303   1.920 -0.3163  0.0428  0.3717
   39TMC2     O  610   3.024   2.381   1.885 -0.0004  0.3120  0.1193
   39TMC2     H  611   3.145   2.520   2.029  1.1071 -2.7384  3.2090
   39TMC2    H1  612   3.329   2.210   1.819 -1.5618  0.1191 -1.5503
   39TMC2    H2  613   3.506   2.591   1.798 -0.3381 -1.2952 -1.9268
   39TMC2    C7  614   3.547   2.333   1.740  0.3261 -0.8068 -0.1389
   39TMC2    C8  615   3.334   2.693   1.979 -0.1959  0.4798  0.2235
   39TMC2    O1  616   3.576   2.213   1.753  0.1716  0.3227  0.1084
   39TMC2    O2  617   3.391   2.789   1.935  0.1663 -0.2310 -0.3185
   39TMC2    O5  618   3.344   2.651   2.110  0.4999  0.1660 -0.1659
   39TMC2    H5  619   3.311   2.562   2.133 -0.1458  0.7933  1.2944
   40MPD2     C  620   3.046   1.953   1.863 -0.1389  0.0423 -0.4913
   40MPD2    C1  621   3.026   2.084   1.856  0.1670 -0.2244 -0.4745
   40MPD2    C2  622   2.926   2.126   1.766 -0.5273  0.5031  0.0683
   40MPD2    C3  623   2.865   2.038   1.681 -0.5440  0.2475  0.4670
   40MPD2    C4  624   2.888   1.906   1.698 -0.2525 -0.6695 -0.0059
   40MPD2    C5  625   2.965   1.861   1.803 -0.4296  0.2536 -0.7371
   40MPD2     H  626   2.907   2.232   1.750  1.7858  0.8904 -0.2220
   40MPD2    H1  627   2.823   1.831   1.653  1.5072 -1.0158 -1.9538
   40MPD2    H2  628   3.124   1.915   1.928 -1.8893 -1.8271  0.5363
   40MPD2    H3  629   2.977   1.756   1.826 -1.3482  0.0087 -1.3426
   40MPD2     N  630   2.763   2.070   1.597  0.0498 -0.2098 -0.5861
   40MPD2    H5  631   2.721   1.996   1.542 -0.7175  0.6375 -1.1389
   40MPD2    N1  632   3.111   2.170   1.928 -0.8022  0.1057  0.0467
   40MPD2    H7  633   3.198   2.135   1.967  0.1180  1.9003 -0.3830
   41TMC2    C1  634   2.096   0.581  13.997 -0.8313  0.0701 -0.0864
   41TMC2    C2  635   2.025   0.590  13.882  0.3841  0.1520 -0.7704
   41TMC2    C3  636   2.095   0.622  13.775  0.3954 -0.1330  0.4212
   41TMC2    C4  637   2.229   0.618  14.010 -0.4687  0.1676 -0.2891
   41TMC2    C5  638   2.290   0.660  13.894  0.5909  0.4499 -0.0762
   41TMC2    C6  639   2.227   0.658  13.771  0.0143  0.4812 -0.1866
   41TMC2     C  640   2.037   0.503  14.099  0.2268  0.1188  0.2072
   41TMC2     O  641   2.067   0.514  14.217  0.3792  0.4370  0.3858
   41TMC2     H  642   1.924   0.553  13.872  0.5486 -0.4432 -0.2635
   41TMC2    H1  643   2.277   0.608  14.106 -0.1634  2.3781 -0.2048
   41TMC2    H2  644   2.274   0.691  13.679 -2.3447  0.2071 -1.4794
   41TMC2    C7  645   2.437   0.661  13.892 -0.4688 -0.0575  0.1475
   41TMC2    C8  646   2.014   0.649  13.655 -0.0413 -0.6134 -0.5473
   41TMC2    O1  647   2.497   0.679  13.996  0.0725 -0.0221 -0.1423
   41TMC2    O2  648   1.891   0.671  13.667  0.3026  0.4717  0.1428
   41TMC2    O5  649   2.080   0.564  13.569 -0.2992 -0.4107  0.1923
   41TMC2    H5  650   2.169   0.531  13.590 -0.4819 -1.5592 -0.8002
   42MPD2     C  651   1.860   0.189  14.036  0.0379  0.4083  0.0889
   42MPD2    C1  652   1.909   0.295  14.115  0.2578  0.6161 -0.5597
   42MPD2    C2  653   1.888   0.283  14.248  0.2589  0.7469 -0.0864
   42MPD2    C3  654   1.817   0.182  14.302  0.2512 -0.5689 -0.8585
   42MPD2    C4  655   1.762   0.092  14.222 -0.3056 -0.4680 -1.1798
   42MPD2    C5  656   1.785   0.090  14.087 -0.6659 -0.4069  0.1336
   42MPD2     H  657   1.929   0.361  14.311  2.3952 -1.3927  1.1590
   42MPD2    H1  658   1.709   0.010  14.270 -1.9273 -0.2638 -2.5949
   42MPD2    H2  659   1.874   0.185  13.929 -0.2209 -1.7296  0.1494
   42MPD2    H3  660   1.748   0.014  14.019  3.0499 -2.1573  0.0364
   42MPD2     N  661   1.793   0.178  14.439  0.0337 -0.5619 -0.8812
   42MPD2    H5  662   1.744   0.097  14.475  0.5754 -0.5351 -0.0946
   42MPD2    N1  663   1.977   0.396  14.042  0.3463  0.0746 -1.1535
   42MPD2    H7  664   1.987   0.384  13.941  0.7407  2.2964 -1.3634
   43TMC2    C1  665   3.517   3.335   1.071  0.1892 -0.1725 -0.5433
   43TMC2    C2  666   3.566   3.275   1.187 -0.2804  1.1264 -0.1513
   43TMC2    C3  667   3.599   3.348   1.293 -0.4126  0.9218 -0.1931
   43TMC2    C4  668   3.525   3.467   1.048 -0.3198  0.2064 -0.5596
   43TMC2    C5  669   3.565   3.542   1.156  0.3138 -0.1799 -0.2972
   43TMC2    C6  670   3.598   3.487   1.282 -0.3200 -0.5870  0.0792
   43TMC2     C  671   3.500   3.247   0.965 -0.0023  0.0092  0.7811
   43TMC2     O  672   3.578   3.154   0.975  0.3045  0.5054 -0.3217
   43TMC2     H  673   3.538   3.170   1.197  2.1993  0.6187  1.3668
   43TMC2    H1  674   3.516   3.502   0.946 -1.0611 -0.2107 -0.6457
   43TMC2    H2  675   3.654   3.548   1.351  0.4186  1.3279 -2.2243
   43TMC2    C7  676   3.651   3.649   1.111 -0.8074  0.0220  0.3686
   43TMC2    C8  677   3.581   3.300   1.425 -0.4813  0.6762 -1.3281
   43TMC2    O1  678   3.687   3.639   0.996 -0.5580  0.2860  0.4592
   43TMC2    O2  679   3.552   3.374   1.522  0.3706  0.4074  0.5392
   43TMC2    O5  680   3.601   3.170   1.443 -0.0173 -0.1322  0.1873
   43TMC2    H5  681   3.670   3.138   1.380  0.4565  1.4041 -0.0817
   44MPD2     C  682   3.212   3.038   0.593  0.1991 -0.1390  0.0593
   44MPD2    C1  683   3.335   3.006   0.646  0.2403  0.1296 -0.2341
   44MPD2    C2  684   3.386   3.078   0.753 -0.4423  0.3439  0.0282
   44MPD2    C3  685   3.325   3.191   0.798 -0.1330 -0.3083 -0.3132
   44MPD2    C4  686   3.200   3.232   0.742  0.0157 -0.9713 -0.3193
   44MPD2    C5  687   3.143   3.155   0.641 -0.2104  0.2306  0.2388
   44MPD2     H  688   3.487   3.057   0.786 -1.2108  1.5231  3.1925
   44MPD2    H1  689   3.147   3.315   0.788  1.0221 -1.5883  1.9187
   44MPD2    H2  690   3.163   2.984   0.513 -1.6658 -2.6237  2.8848
   44MPD2    H3  691   3.049   3.186   0.597 -1.0985 -1.2430  1.0928
   44MPD2     N  692   3.386   3.277   0.893 -0.1819 -0.6887 -0.4411
   44MPD2    H5  693   3.334   3.361   0.915  0.7684 -0.1339 -0.3096
   44MPD2    N1  694   3.417   2.909   0.588  0.0876  0.0140 -0.5139
   44MPD2    H7  695   3.499   2.883   0.641  0.6549  1.0000 -0.9055
   45TMC2    C1  696   4.143   0.885   9.297 -0.0872  0.3897 -0.0497
   45TMC2    C2  697   4.014   0.926   9.298  1.0639 -0.0465 -0.3404
   45TMC2    C3  698   3.993   1.066   9.310 -0.3647  0.0936  0.5225
   45TMC2    C4  699   4.249   0.968   9.322 -0.4272 -0.5560 -0.0744
   45TMC2    C5  700   4.218   1.095   9.362 -0.3436 -0.1285 -0.2112
   45TMC2    C6  701   4.092   1.148   9.358  0.2850  0.2140 -0.1218
   45TMC2     C  702   4.179   0.748   9.267  0.0168  0.1574 -0.2317
   45TMC2     O  703   4.299   0.736   9.240  0.5517  0.1214  0.1382
   45TMC2     H  704   3.925   0.864   9.290  1.8957 -1.2729  0.0363
   45TMC2    H1  705   4.354   0.945   9.318  0.0286  1.5164  0.2864
   45TMC2    H2  706   4.074   1.253   9.380  2.4677  0.2339  1.5992
   45TMC2    C7  707   4.316   1.155   9.447  0.1111  0.1972  0.6939
   45TMC2    C8  708   3.867   1.123   9.272  0.3465 -0.2288 -0.3314
   45TMC2    O1  709   4.390   1.079   9.504 -0.2400  0.3001 -0.2242
   45TMC2    O2  710   3.775   1.043   9.255 -0.4297  0.7979 -0.1439
   45TMC2    O5  711   3.903   1.217   9.183 -0.0371 -0.9610 -0.4947
   45TMC2    H5  712   3.996   1.246   9.185 -1.0060  2.0876  0.3917
   46MPD2     C  713   4.211   0.446   9.192 -0.0059 -0.0421  0.2024
   46MPD2    C1  714   4.097   0.510   9.241 -0.2159  0.0595  0.2812
   46MPD2    C2  715   3.982   0.435   9.258  0.4576 -0.0481  0.5933
   46MPD2    C3  716   3.974   0.302   9.232  0.4592  0.6807 -0.0242
   46MPD2    C4  717   4.088   0.242   9.179  0.5778 -0.0934 -0.0471
   46MPD2    C5  718   4.205   0.318   9.156 -0.8274  0.4096  1.4596
   46MPD2     H  719   3.894   0.482   9.301  0.6445  0.3176  0.5765
   46MPD2    H1  720   4.097   0.136   9.159  1.1188 -0.1666  0.5633
   46MPD2    H2  721   4.306   0.497   9.186  0.0918 -0.3008 -0.4222
   46MPD2    H3  722   4.293   0.272   9.113 -1.5808 -0.2162  0.5915
   46MPD2     N  723   3.853   0.225   9.260 -0.1617 -0.6382  0.3870
   46MPD2    H5  724   3.776   0.285   9.287 -0.8394 -0.2188 -2.4618
   46MPD2    N1  725   4.084   0.651   9.279  0.5288 -0.5257 -0.0444
   46MPD2    H7  726   3.995   0.689   9.308 -0.3575 -0.5404 -2.8240
   47TMC2    C1  727   1.501   1.696   8.892 -0.0925 -0.3314 -0.0049
   47TMC2    C2  728   1.530   1.609   8.785  0.0311 -0.3864  0.3212
   47TMC2    C3  729   1.438   1.594   8.684  0.1336  0.5189 -0.0276
   47TMC2    C4  730   1.391   1.770   8.896  0.0997 -0.0627  0.1622
   47TMC2    C5  731   1.301   1.752   8.788 -0.4948 -0.2290 -0.1723
   47TMC2    C6  732   1.320   1.670   8.683  0.1443 -0.0761  0.1960
   47TMC2     C  733   1.605   1.716   8.990  0.2241 -1.1562  0.4185
   47TMC2     O  734   1.592   1.818   9.060  0.3397 -0.6370  0.0943
   47TMC2     H  735   1.619   1.547   8.785 -1.0293 -1.9092  0.8573
   47TMC2    H1  736   1.375   1.853   8.964  0.7768 -0.1787  0.4570
   47TMC2    H2  737   1.248   1.662   8.603  0.3927 -0.2627 -0.0121
   47TMC2    C7  738   1.169   1.804   8.807 -0.4391  0.1842  0.2835
   47TMC2    C8  739   1.464   1.493   8.580 -0.0788 -0.5350 -0.8114
   47TMC2    O1  740   1.091   1.811   8.715  0.5447 -0.3829 -0.2338
   47TMC2    O2  741   1.545   1.401   8.591 -0.6280  0.2863 -0.0288
   47TMC2    O5  742   1.368   1.508   8.477 -0.1528  0.3041 -0.2076
   47TMC2    H5  743   1.351   1.603   8.462 -1.4628 -0.2466 -2.0922
   48MPD2     C  744   1.813   1.694   9.191 -0.0780 -0.1957  0.1526
   48MPD2    C1  745   1.791   1.595   9.102 -0.3958  0.4727 -0.1957
   48MPD2    C2  746   1.862   1.479   9.118 -0.0270 -0.2576 -0.0844
   48MPD2    C3  747   1.958   1.458   9.215  0.4396 -0.7675 -0.0893
   48MPD2    C4  748   1.994   1.561   9.292  0.7215  0.3261  0.2373
   48MPD2    C5  749   1.924   1.675   9.273  0.8472  0.1393  1.0919
   48MPD2     H  750   1.829   1.388   9.068 -1.3830 -0.0794  0.4883
   48MPD2    H1  751   2.081   1.555   9.356 -0.6594 -3.5506  1.7450
   48MPD2    H2  752   1.763   1.790   9.205 -1.7969 -0.9254 -1.0314
   48MPD2    H3  753   1.961   1.764   9.322  0.0205  1.1878 -0.2124
   48MPD2     N  754   2.014   1.328   9.222 -0.0836 -0.0957 -0.0442
   48MPD2    H5  755   1.971   1.259   9.162 -0.4039 -1.5910  1.9083
   48MPD2    N1  756   1.691   1.602   9.000  0.0009 -0.4984  0.3277
   48MPD2    H7  757   1.684   1.522   8.938  1.3062 -0.3192 -0.0475
   49TMC2    C1  758   1.311   3.642  10.101 -0.2850  0.3967  0.0450
   49TMC2    C2  759   1.185   3.649  10.164  0.2158 -0.3503 -0.3723
   49TMC2    C3  760   1.118   3.765  10.124  0.1177 -0.1718 -0.1795
   49TMC2    C4  761   1.357   3.738  10.010 -0.0588  0.1213 -0.7382
   49TMC2    C5  762   1.286   3.856   9.993 -0.2361  0.0437  0.3025
   49TMC2    C6  763   1.164   3.876  10.057  0.1938 -0.2352 -0.3349
   49TMC2     C  764   1.402   3.525  10.118  0.7784  0.7061 -0.2423
   49TMC2     O  765   1.500   3.524  10.044  0.1312  0.0036 -0.0648
   49TMC2     H  766   1.146   3.584  10.241 -1.9336  3.3769  1.6685
   49TMC2    H1  767   1.451   3.730   9.956 -0.1777 -0.5322 -0.8480
   49TMC2    H2  768   1.107   3.964  10.029 -1.1525 -1.0655 -0.1943
   49TMC2    C7  769   1.315   3.944   9.878 -0.1807  0.7213  0.4276
   49TMC2    C8  770   0.979   3.784  10.164  0.0294 -0.2107 -0.2392
   49TMC2    O1  771   1.244   4.044   9.867 -0.1735 -0.1069 -0.0796
   49TMC2    O2  772   0.920   3.892  10.157  0.3834  0.2318 -0.0390
   49TMC2    O5  773   0.917   3.665  10.184 -0.2355 -0.6041 -0.3443
   49TMC2    H5  774   0.982   3.592  10.200 -0.2019 -0.4827  0.0792
   50MPD2     C  775   1.540   3.289  10.228 -0.1700 -0.2803  0.0492
   50MPD2    C1  776   1.398   3.315  10.250  0.1165 -0.4584  0.6297
   50MPD2    C2  777   1.324   3.223  10.314  0.4352  0.0959 -0.3536
   50MPD2    C3  778   1.371   3.096  10.342  0.0673 -0.5526  0.2781
   50MPD2    C4  779   1.503   3.073  10.307 -0.6462  0.6262 -0.2081
   50MPD2    C5  780   1.584   3.161  10.246 -0.3352 -0.4599  0.4091
   50MPD2     H  781   1.224   3.250  10.346  0.6622  0.7304 -0.1866
   50MPD2    H1  782   1.550   2.978  10.330  0.8351  2.0048  2.4890
   50MPD2    H2  783   1.607   3.363  10.186  0.5457 -0.4263  0.9330
   50MPD2    H3  784   1.688   3.138  10.229 -0.1859  1.1779 -0.9065
   50MPD2     N  785   1.299   2.992  10.406 -0.9879  0.2017 -0.3180
   50MPD2    H5  786   1.342   2.900  10.404  0.7485  0.9724  1.7820
   50MPD2    N1  787   1.338   3.428  10.193 -0.3303 -0.1449  0.1125
   50MPD2    H7  788   1.237   3.436  10.195 -0.3858 -0.6534 -0.6938
   51TMC2    C1  789   1.387   2.056   1.765 -0.1410  0.0720  0.1496
   51TMC2    C2  790   1.453   2.119   1.867 -0.5315 -0.8245 -0.2386
   51TMC2    C3  791   1.419   2.252   1.887 -0.6183 -0.7742  0.3801
   51TMC2    C4  792   1.290   2.114   1.687 -0.4168 -0.3050  0.4322
   51TMC2    C5  793   1.263   2.247   1.712 -0.3714 -0.2155  0.7245
   51TMC2    C6  794   1.322   2.324   1.817  0.4284  0.3743 -0.1538
   51TMC2     C  795   1.431   1.926   1.722  0.1979  0.0831  0.4901
   51TMC2     O  796   1.384   1.886   1.616 -0.2583  0.1099 -0.3326
   51TMC2     H  797   1.543   2.080   1.912 -0.4750  1.2851  1.4874
   51TMC2    H1  798   1.231   2.061   1.613 -0.0969 -0.5456  0.3469
   51TMC2    H2  799   1.294   2.428   1.822  0.6377  0.4038  0.3872
   51TMC2    C7  800   1.187   2.307   1.603 -0.0242  0.9161 -0.1265
   51TMC2    C8  801   1.505   2.315   1.980 -0.1473  0.1817  0.5167
   51TMC2    O1  802   1.190   2.251   1.495  0.0063  0.3209 -0.0481
   51TMC2    O2  803   1.566   2.250   2.062  0.1412  0.3629 -0.4234
   51TMC2    O5  804   1.541   2.431   1.935 -0.0554 -0.8624  0.1228
   51TMC2    H5  805   1.492   2.473   1.861  0.9726 -1.8663 -1.1106
   52MPD2     C  806   1.792   1.552   1.721 -0.1208 -0.5755 -0.7715
   52MPD2    C1  807   1.701   1.600   1.621 -0.2411  0.4436 -0.8339
   52MPD2    C2  808   1.612   1.701   1.641  0.9943 -0.3110  0.3203
   52MPD2    C3  809   1.607   1.755   1.772  0.4456  0.1756 -0.7971
   52MPD2    C4  810   1.691   1.717   1.868  0.3623  0.2758 -0.6601
   52MPD2    C5  811   1.771   1.609   1.848 -0.3741  0.0990 -0.0262
   52MPD2     H  812   1.536   1.727   1.568  1.3822 -1.1857 -0.3981
   52MPD2    H1  813   1.678   1.766   1.964 -0.1621  0.4612 -0.8229
   52MPD2    H2  814   1.856   1.467   1.697 -0.0645 -1.3999  2.3389
   52MPD2    H3  815   1.826   1.564   1.930  0.3210  0.1157 -0.4842
   52MPD2     N  816   1.523   1.861   1.807 -0.5699 -0.9658  0.0099
   52MPD2    H5  817   1.550   1.904   1.895  1.1233 -2.4255  0.2083
   52MPD2    N1  818   1.695   1.533   1.495  0.1962  0.8464  0.3671
   52MPD2    H7  819   1.630   1.568   1.425 -0.3496 -0.3651  0.2470
   53TMC2    C1  820   0.178   0.597  10.908 -0.2233  0.6894 -0.3498
   53TMC2    C2  821   0.127   0.713  10.860  0.5015  0.1929 -0.1230
   53TMC2    C3  822   0.198   0.822  10.879 -0.1614 -0.0813  0.3614
   53TMC2    C4  823   0.304   0.589  10.954  0.1399 -0.1083  0.9154
   53TMC2    C5  824   0.374   0.707  10.975 -0.0261 -0.0121  0.2231
   53TMC2    C6  825   0.322   0.829  10.931 -0.2622 -1.2171  0.3602
   53TMC2     C  826   0.083   0.492  10.942  0.1039  0.5631  0.0616
   53TMC2     O  827   4.719   0.473  10.870 -0.5479 -0.5235  0.1350
   53TMC2     H  828   0.025   0.716  10.825  0.5991 -0.8190 -0.4700
   53TMC2    H1  829   0.354   0.497  10.982 -1.5806 -1.6188 -1.0258
   53TMC2    H2  830   0.361   0.927  10.955 -0.2034 -1.5239  1.5444
   53TMC2    C7  831   0.403   0.707  11.114 -0.7033 -0.5232  0.1898
   53TMC2    C8  832   0.140   0.947  10.843 -0.3239 -0.2020 -0.2875
   53TMC2    O1  833   0.326   0.634  11.179 -0.3719  0.6643 -0.3492
   53TMC2    O2  834   0.018   0.960  10.845 -0.8044  0.0905 -0.5245
   53TMC2    O5  835   0.222   1.008  10.764 -0.1241  0.1694 -0.4067
   53TMC2    H5  836   0.312   0.977  10.789 -0.8705 -0.8514  1.0479
   54MPD2     C  837   4.665   0.306  11.095  0.0455  0.1356 -0.1545
   54MPD2    C1  838   0.043   0.356  11.141 -0.3748 -0.1894 -0.4503
   54MPD2    C2  839   0.073   0.337  11.275 -0.2182  0.3914  0.1599
   54MPD2    C3  840   4.729   0.260  11.358 -0.8511 -0.0140  0.1593
   54MPD2    C4  841   4.625   0.194  11.298  0.0404  0.6203 -0.2895
   54MPD2    C5  842   4.583   0.226  11.171  0.4972  0.1304 -0.4398
   54MPD2     H  843   0.160   0.387  11.313 -0.3964  2.2728 -1.9116
   54MPD2    H1  844   4.562   0.126  11.355  2.5827  0.4399  2.2817
   54MPD2    H2  845   4.650   0.293  10.989 -0.9290 -0.0532  0.0056
   54MPD2    H3  846   4.497   0.174  11.129  0.9940 -2.1186  1.3011
   54MPD2     N  847   0.029   0.234  11.494  0.1224 -0.5790 -0.3933
   54MPD2    H5  848   4.698   0.169  11.535 -1.3151  0.1127 -1.6456
   54MPD2    N1  849   0.120   0.440  11.064 -0.7744  0.3867 -0.2148
   54MPD2    H7  850   0.194   0.486  11.115 -0.0083 -0.3254 -0.6876
   55TMC2    C1  851   1.704   3.425  17.561  0.3458 -0.0246 -0.1454
   55TMC2    C2  852   1.703   3.416  17.426 -0.6458  0.0309 -0.4855
   55TMC2    C3  853   1.690   3.292  17.368 -1.0412 -0.1694  0.4371
   55TMC2    C4  854   1.714   3.314  17.637  0.4627  0.6634  0.0435
   55TMC2    C5  855   1.716   3.193  17.577  0.6673 -0.1644  0.2306
   55TMC2    C6  856   1.688   3.174  17.443  0.5190  0.0940  0.3929
   55TMC2     C  857   1.675   3.552  17.619  0.3141 -0.1947 -0.0422
   55TMC2     O  858   1.628   3.554  17.732  0.0740 -0.1183 -0.4518
   55TMC2     H  859   1.689   3.497  17.356 -2.6505  0.3544  0.2789
   55TMC2    H1  860   1.710   3.327   0.003 -0.9070 -0.8845  0.1862
   55TMC2    H2  861   1.688   3.077  17.396 -0.1867  0.9735 -1.4209
   55TMC2    C7  862   1.716   3.073  17.655  0.7771 -0.3366  0.4098
   55TMC2    C8  863   1.733   3.281  17.228  0.3146 -0.2419 -0.2269
   55TMC2    O1  864   1.707   2.972  17.586 -0.7757 -0.3206 -0.7113
   55TMC2    O2  865   1.793   3.371  17.168  0.8121 -0.1434 -0.4064
   55TMC2    O5  866   1.648   3.189  17.172  0.0268  0.0319 -0.8916
   55TMC2    H5  867   1.585   3.162  17.242  0.7033  1.2739  0.1982
   56MPD2     C  868   1.711   3.875  17.447  0.6852 -0.5022 -0.7367
   56MPD2    C1  869   1.669   3.781  17.539  0.8195  0.0995 -0.3895
   56MPD2    C2  870   1.595   3.826  17.646  0.6120 -0.3932 -0.0137
   56MPD2    C3  871   1.546   3.954  17.651  0.1158 -0.3061  0.4357
   56MPD2    C4  872   1.591   4.048  17.565 -0.2230 -0.1146  0.3381
   56MPD2    C5  873   1.672   4.007  17.456 -0.4258  1.1580  0.3163
   56MPD2     H  874   1.553   3.752  17.714 -0.6185 -0.4027 -0.7720
   56MPD2    H1  875   1.555   4.150  17.563 -0.4102 -0.1879 -0.1104
   56MPD2    H2  876   1.763   3.852  17.355  1.5764 -1.8067  0.0962
   56MPD2    H3  877   1.688   4.081  17.378  0.0999  1.7020  0.9389
   56MPD2     N  878   1.467   3.993   0.023  0.2666 -0.0019  0.4739
   56MPD2    H5  879   1.461   3.928   0.102  0.5687  0.0116  0.5092
   56MPD2    N1  880   1.705   3.647  17.526 -0.2186  0.0564  0.0330
   56MPD2    H7  881   1.768   3.629  17.448 -1.1253  1.1120 -0.9537
   57TMC2    C1  882   0.740   3.860  13.571  0.3962 -1.0968  0.5551
   57TMC2    C2  883   0.753   3.738  13.629 -0.0262  0.6240 -0.4738
   57TMC2    C3  884   0.852   3.661  13.575 -0.0500  0.3158 -0.0001
   57TMC2    C4  885   0.819   3.900  13.468 -0.0030  0.0264 -0.0733
   57TMC2    C5  886   0.920   3.830  13.426  0.0918  0.3787  0.0362
   57TMC2    C6  887   0.941   3.702  13.477 -0.5341  0.0373 -1.0662
   57TMC2     C  888   0.661   3.963  13.626  0.3152 -0.2442  0.4509
   57TMC2     O  889   0.624   4.052  13.549  0.0455 -0.7951 -0.4213
   57TMC2     H  890   0.685   3.698  13.704 -1.2194  0.9983 -1.3626
   57TMC2    H1  891   0.816   4.004  13.438 -1.1857 -1.2529 -4.3489
   57TMC2    H2  892   1.028   3.642  13.452  1.0450  0.9384  2.1465
   57TMC2    C7  893   1.021   3.893  13.347 -0.1567 -0.1098 -0.1089
   57TMC2    C8  894   0.863   3.533  13.641 -0.5089 -0.1416 -0.1485
   57TMC2    O1  895   0.988   3.991  13.284 -0.4618  0.6633  0.1457
   57TMC2    O2  896   0.815   3.521  13.752  0.2060  0.1783 -0.0369
   57TMC2    O5  897   0.922   3.441  13.567 -0.3827  0.1492 -0.6154
   57TMC2    H5  898   0.931   3.472  13.475 -0.6899 -1.3268 -1.1428
   58MPD2     C  899   0.471   4.240  14.023  0.2389 -0.0368 -0.0259
   58MPD2    C1  900   0.472   4.268  13.887  0.0470 -0.8562  0.0002
   58MPD2    C2  901   0.532   4.178  13.799 -0.0315 -0.4665 -0.2937
   58MPD2    C3  902   0.581   4.055  13.842  0.3102  0.3335  0.1058
   58MPD2    C4  903   0.575   4.027  13.975  0.1795  0.0196 -0.2213
   58MPD2    C5  904   0.521   4.122  14.063  0.0463 -0.5250 -0.5925
   58MPD2     H  905   0.551   4.205  13.696  0.8174  1.5549  0.3910
   58MPD2    H1  906   0.621   3.940  14.020 -0.3301 -0.8665 -1.3950
   58MPD2    H2  907   0.438   4.309  14.100 -1.9841 -0.4536 -0.5830
   58MPD2    H3  908   0.520   4.104  14.169 -1.2675  1.0639 -0.3462
   58MPD2     N  909   0.635   3.951  13.757 -0.4909  0.5831 -0.1703
   58MPD2    H5  910   0.683   3.876  13.805 -0.4245  0.2201 -0.8075
   58MPD2    N1  911   0.414   4.385  13.834  0.1581  0.3370 -0.3658
   58MPD2    H7  912   0.452   4.414  13.744  0.4406 -0.1647 -0.4109
   59TMC2    C1  913   3.418   4.066  12.464  0.0227  0.2891  0.1760
   59TMC2    C2  914   3.539   4.005  12.488 -0.6363 -0.3896  0.1889
   59TMC2    C3  915   3.601   3.931  12.386  0.0567 -0.4815 -0.0216
   59TMC2    C4  916   3.359   4.060  12.342 -0.6588 -0.0099  0.0361
   59TMC2    C5  917   3.428   3.999  12.242  0.6120 -0.5756 -0.2656
   59TMC2    C6  918   3.544   3.930  12.262  0.4433  0.1150 -0.3443
   59TMC2     C  919   3.344   4.131  12.571 -0.5321  0.4896 -0.5328
   59TMC2     O  920   3.222   4.140  12.561 -0.2335  0.0066  0.8133
   59TMC2     H  921   3.590   4.003  12.584  0.8716  0.4514 -0.5858
   59TMC2    H1  922   3.263   4.108  12.333 -0.7109  0.3828  2.5628
   59TMC2    H2  923   3.604   3.883  12.184  1.1700  2.5950 -1.2677
   59TMC2    C7  924   3.401   4.034  12.102 -0.0565 -0.3207 -0.9831
   59TMC2    C8  925   3.729   3.880  12.412  0.3975 -0.3565  0.4684
   59TMC2    O1  926   3.460   3.959  12.026 -0.8078  0.0225 -0.1439
   59TMC2    O2  927   3.783   3.862  12.525 -0.3530  0.5519 -0.3632
   59TMC2    O5  928   3.797   3.912  12.298 -0.2349  0.0931  0.1648
   59TMC2    H5  929   3.894   3.904  12.301 -0.1331  0.5030 -2.1482
   60MPD2     C  930   3.246   4.230  12.838 -0.5840 -0.4730  0.6554
   60MPD2    C1  931   3.379   4.233  12.792  0.7575 -1.5828  1.0473
   60MPD2    C2  932   3.480   4.286  12.865  0.7435 -0.3958 -0.3776
   60MPD2    C3  933   3.451   4.354  12.982 -0.0265  0.2745  0.3479
   60MPD2    C4  934   3.325   4.350  13.027  0.7008  0.5975  0.5698
   60MPD2    C5  935   3.226   4.293  12.956 -0.4173 -0.1349 -0.3430
   60MPD2     H  936   3.582   4.276  12.830  1.2107 -2.4263  1.5812
   60MPD2    H1  937   3.295   4.389  13.123  0.2750  2.2824 -0.2517
   60MPD2    H2  938   3.171   4.172  12.786 -2.7144 -0.1207  3.3290
   60MPD2    H3  939   3.125   4.289  12.994 -0.1060  0.9957  0.5732
   60MPD2     N  940   3.556   4.411  13.063  0.5766  0.7206 -0.6833
   60MPD2    H5  941   3.527   4.474  13.137 -0.7801  0.7002 -1.1931
   60MPD2    N1  942   3.422   4.165  12.674  0.4451  0.2464  0.4960
   60MPD2    H7  943   3.521   4.162  12.654  0.5747  0.9719  1.0535
   61TMC2    C1  944   2.903   0.717  15.719  0.1760 -0.6655  0.5087
   61TMC2    C2  945   2.904   0.647  15.834  0.0763 -0.6856  0.6727
   61TMC2    C3  946   2.849   0.710  15.942  0.1574  0.1462  0.5454
   61TMC2    C4  947   2.879   0.853  15.715  0.7963 -0.8366  0.0001
   61TMC2    C5  948   2.829   0.911  15.828 -0.3260  0.1938 -0.0606
   61TMC2    C6  949   2.812   0.843  15.942  0.0140 -0.3516 -0.0364
   61TMC2     C  950   2.945   0.649  15.602  0.4440  0.1217  0.0721
   61TMC2     O  951   3.012   0.545  15.613  0.3260  0.4429  0.2062
   61TMC2     H  952   2.930   0.542  15.831 -0.8074 -0.8586 -0.9427
   61TMC2    H1  953   2.899   0.919  15.631 -0.1444  0.1127  0.5152
   61TMC2    H2  954   2.755   0.883  16.024  0.4440  0.5793 -0.1886
   61TMC2    C7  955   2.801   1.053  15.825 -0.1049  0.3543 -0.7609
   61TMC2    C8  956   2.801   0.638  16.052 -0.1215 -0.2486  0.9919
   61TMC2    O1  957   2.852   1.123  15.737 -0.4589  0.2288  0.1520
   61TMC2    O2  958   2.711   0.681  16.124 -0.5162  0.0898  0.0545
   61TMC2    O5  959   2.878   0.529  16.074 -0.3204  0.5330  0.6414
   61TMC2    H5  960   2.946   0.527  16.003  0.9684  1.1362  1.8676
   62MPD2     C  961   3.051   0.604  15.321 -0.2287  0.2479 -0.5896
   62MPD2    C1  962   2.934   0.681  15.354  0.8003 -0.0050 -0.1607
   62MPD2    C2  963   2.867   0.736  15.246  0.2688 -0.0861  1.2499
   62MPD2    C3  964   2.904   0.708  15.112 -0.3268  0.9777  0.3406
   62MPD2    C4  965   3.021   0.638  15.090  0.4545  0.4777 -0.3121
   62MPD2    C5  966   3.096   0.584  15.193  0.2731  0.1206  0.5163
   62MPD2     H  967   2.781   0.800  15.263 -0.3856  0.1066 -2.6530
   62MPD2    H1  968   3.065   0.637  14.991 -1.0448 -2.3100 -0.9562
   62MPD2    H2  969   3.109   0.563  15.403  2.3763 -0.4148 -2.7618
   62MPD2    H3  970   3.183   0.519  15.184  0.4957  0.4698  0.1672
   62MPD2     N  971   2.818   0.739  15.002 -0.3318  0.0372 -0.3710
   62MPD2    H5  972   2.859   0.732  14.909  1.6408  0.1645  0.5006
   62MPD2    N1  973   2.895   0.713  15.489  0.8015 -0.3045  0.0605
   62MPD2    H7  974   2.840   0.797  15.500 -0.3787 -1.3957  2.3835
   63TMC2    C1  975   2.293   0.987  10.130 -0.3978 -0.8522 -0.2012
   63TMC2    C2  976   2.385   0.926  10.215  0.3139 -0.3241  1.2193
   63TMC2    C3  977   2.518   0.937  10.193 -0.2605  0.7621 -0.3468
   63TMC2    C4  978   2.332   1.044  10.016 -0.0834  0.0141 -1.0861
   63TMC2    C5  979   2.471   1.047   9.993 -0.1608 -0.3804  0.4977
   63TMC2    C6  980   2.567   1.006  10.085 -0.0634  1.0104 -0.2213
   63TMC2     C  981   2.152   0.984  10.155 -0.6426  0.0975  0.0272
   63TMC2     O  982   2.081   1.042  10.070 -0.2854 -0.1293 -0.1556
   63TMC2     H  983   2.352   0.848  10.284  0.3176  1.4282  3.2121
   63TMC2    H1  984   2.261   1.098   9.955 -1.0984 -0.2180 -0.1136
   63TMC2    H2  985   2.672   1.010  10.059  0.4423 -0.8663  1.5486
   63TMC2    C7  986   2.511   1.146   9.889 -0.2588  0.3440 -0.0037
   63TMC2    C8  987   2.621   0.893  10.290  0.6934  0.5498 -0.6455
   63TMC2    O1  988   2.414   1.210   9.847 -0.1398  0.9119  0.0121
   63TMC2    O2  989   2.740   0.887  10.261  0.3468  0.0597 -0.1402
   63TMC2    O5  990   2.576   0.868  10.416  0.2732  0.6852 -0.2962
   63TMC2    H5  991   2.481   0.892  10.428  0.1889 -0.6358  1.7537
   64MPD2     C  992   1.746   0.699  10.311  0.5292  0.6576  0.2427
   64MPD2    C1  993   1.858   0.678  10.392  0.5831 -0.1482  0.1333
   64MPD2    C2  994   1.971   0.751  10.386  0.0699  0.1407 -0.3698
   64MPD2    C3  995   1.990   0.847  10.286 -0.0696 -0.2098 -0.1004
   64MPD2    C4  996   1.884   0.867  10.206  0.3542 -0.2604 -0.2309
   64MPD2    C5  997   1.769   0.795  10.220 -0.0486 -0.0066  0.1545
   64MPD2     H  998   2.047   0.743  10.464  1.3139  2.9312 -1.2898
   64MPD2    H1  999   1.888   0.934  10.121  0.5440 -0.5114 -0.4222
   64MPD2    H2 1000   1.653   0.644  10.305  0.4965  0.7699 -0.2617
   64MPD2    H3 1001   1.688   0.811  10.151  0.1460  2.5663  0.5318
   64MPD2     N 1002   2.118   0.909  10.268 -0.2997  0.3701 -0.2163
   64MPD2    H5 1003   2.193   0.876  10.328  0.1494  0.1675 -0.8837
   64MPD2    N1 1004   1.863   0.574  10.494 -0.2381 -0.4333 -0.5486
   64MPD2    H7 1005   1.954   0.565  10.538 -0.5995  0.6693  0.4287
   65TMC2    C1 1006   3.802   0.968  15.691  0.0577  0.2760  0.2420
   65TMC2    C2 1007   3.938   1.008  15.660  0.4457 -0.5506  0.2074
   65TMC2    C3 1008   3.943   1.121  15.577 -0.4650  0.3072 -0.4844
   65TMC2    C4 1009   3.684   1.037  15.654  0.1008 -0.0149  0.2424
   65TMC2    C5 1010   3.702   1.149  15.572  0.1794  0.8646  1.3174
   65TMC2    C6 1011   3.829   1.181  15.526 -0.2411 -0.0663  0.1460
   65TMC2     C 1012   3.789   0.848  15.773  0.1936  0.0407  0.0212
   65TMC2     O 1013   3.865   0.822  15.863  0.1158  0.5449  0.2825
   65TMC2     H 1014   4.015   0.938  15.691  0.1189 -1.0840 -0.1930
   65TMC2    H1 1015   3.585   1.004  15.679 -0.3431  1.1925  0.1002
   65TMC2    H2 1016   3.840   1.264  15.458 -0.6232 -0.5855 -0.5575
   65TMC2    C7 1017   3.593   1.243  15.542 -0.4852 -0.1466  0.3172
   65TMC2    C8 1018   4.063   1.146  15.497 -0.3200  0.0467  0.4760
   65TMC2    O1 1019   3.601   1.304  15.433 -0.1131  0.1736 -0.3473
   65TMC2    O2 1020   4.067   1.167  15.379 -0.6444  0.0093 -0.2598
   65TMC2    O5 1021   4.171   1.139  15.568  0.2208 -0.6456  0.1494
   65TMC2    H5 1022   4.144   1.127  15.661  1.1224 -1.3980  0.3145
   66MPD2     C 1023   3.687   0.592  15.864  0.8382  0.0037  0.0020
   66MPD2    C1 1024   3.645   0.648  15.746  0.1749 -0.1606  0.2447
   66MPD2    C2 1025   3.561   0.580  15.661 -0.4654 -0.2970  0.4222
   66MPD2    C3 1026   3.509   0.461  15.704 -0.7968  0.0205  0.0394
   66MPD2    C4 1027   3.548   0.404  15.820 -0.0574  0.0896 -0.3110
   66MPD2    C5 1028   3.643   0.464  15.894  0.3561 -0.5607 -0.6856
   66MPD2     H 1029   3.524   0.636  15.576 -2.3765  0.9048  2.0165
   66MPD2    H1 1030   3.508   0.308  15.851 -1.8698  1.1164  0.4901
   66MPD2    H2 1031   3.751   0.648  15.930  0.2920 -1.2483  1.5860
   66MPD2    H3 1032   3.676   0.415  15.985  0.0249 -1.1568 -0.8856
   66MPD2     N 1033   3.405   0.397  15.646 -0.1327 -0.5495  0.1816
   66MPD2    H5 1034   3.361   0.322  15.699 -0.7875 -0.4735 -0.2639
   66MPD2    N1 1035   3.689   0.771  15.708 -0.3089 -0.9010 -0.0823
   66MPD2    H7 1036   3.657   0.801  15.617 -1.0944 -0.9930  0.1654
   67TMC2    C1 1037   3.318   4.721  14.142  0.3281 -0.3703 -0.7070
   67TMC2    C2 1038   3.279   0.120  14.167  0.5308 -0.4732  0.0338
   67TMC2    C3 1039   3.303   0.163  14.295  0.0601 -0.5564 -1.1245
   67TMC2    C4 1040   3.375   4.643  14.238  0.2677 -0.3933 -0.6771
   67TMC2    C5 1041   3.404   4.703  14.355 -0.0152  0.1939  0.4933
   67TMC2    C6 1042   3.369   0.096  14.390  0.2219  0.4005  0.8076
   67TMC2     C 1043   3.307   4.667  14.009  1.0691  0.1078  0.3980
   67TMC2     O 1044   3.386   4.578  13.982  0.2611 -0.3358 -0.4380
   67TMC2     H 1045   3.240   0.186  14.090 -0.4657 -1.5084 -0.3407
   67TMC2    H1 1046   3.417   4.546  14.215  0.3778 -0.6894  0.7548
   67TMC2    H2 1047   3.399   0.138  14.485 -0.5050  0.9378  0.8041
   67TMC2    C7 1048   3.498   4.635  14.438  0.2029 -0.0691 -0.8154
   67TMC2    C8 1049   3.284   0.303  14.330 -0.3565  0.5801  0.2352
   67TMC2    O1 1050   3.569   4.544  14.383  0.4459  0.5034  0.1832
   67TMC2    O2 1051   3.347   0.357  14.419  0.3023  0.0606 -0.5449
   67TMC2    O5 1052   3.169   0.340  14.278  0.2934 -0.1925  0.0811
   67TMC2    H5 1053   3.128   0.277  14.215 -2.2712 -0.0320  1.6073
   68MPD2     C 1054   3.221   4.606  13.729 -0.2156 -0.2673 -0.2757
   68MPD2    C1 1055   3.158   4.694  13.809 -0.0083  0.9500 -0.3773
   68MPD2    C2 1056   3.053   0.025  13.752 -0.2111  0.0351  0.0231
   68MPD2    C3 1057   3.009   0.004  13.627  0.3626 -0.6714  0.2963
   68MPD2    C4 1058   3.075   4.651  13.548 -0.3371 -0.2785 -0.0600
   68MPD2    C5 1059   3.176   4.575  13.600 -0.4653 -0.3272 -0.2538
   68MPD2     H 1060   3.002   0.094  13.818  0.0996  1.8947 -1.6730
   68MPD2    H1 1061   3.046   4.626  13.447  0.4150 -0.9329 -0.1079
   68MPD2    H2 1062   3.299   4.540  13.767  0.0765 -0.2272 -0.8074
   68MPD2    H3 1063   3.224   4.493  13.547 -1.2798 -1.4933  0.8289
   68MPD2     N 1064   2.898   0.061  13.563  0.0687  0.0297  0.4409
   68MPD2    H5 1065   2.890   0.030  13.467  0.8126 -0.4941  0.5474
   68MPD2    N1 1066   3.199   4.729  13.941 -0.3730 -0.6868  0.4632
   68MPD2    H7 1067   3.146   0.067  13.987  0.9058 -0.8299  2.1590
   69TMC2    C1 1068   0.859   0.963  12.343 -0.5823 -0.6151  0.1955
   69TMC2    C2 1069   0.755   0.921  12.267 -0.0918  0.6615 -0.5821
   69TMC2    C3 1070   0.777   0.890  12.134 -0.4538 -0.6282 -0.1992
   69TMC2    C4 1071   0.985   0.968  12.287 -0.2113  0.1965 -0.5251
   69TMC2    C5 1072   0.997   0.955  12.148  0.1969  0.3847  0.3339
   69TMC2    C6 1073   0.893   0.924  12.071 -0.5059 -0.3709 -0.3704
   69TMC2     C 1074   0.844   0.955  12.484 -0.3980 -0.5482 -0.1235
   69TMC2     O 1075   0.752   0.899  12.540  0.2678 -0.2285 -0.1124
   69TMC2     H 1076   0.664   0.897  12.320  0.5349 -0.8342 -0.1599
   69TMC2    H1 1077   1.068   0.967  12.356 -2.1423 -1.1355  1.7956
   69TMC2    H2 1078   0.897   0.913  11.963 -1.5563 -1.6127 -0.2851
   69TMC2    C7 1079   1.118   0.982  12.077  0.3866  0.1707  0.1045
   69TMC2    C8 1080   0.665   0.852  12.049  0.0958  0.0769 -0.3963
   69TMC2    O1 1081   1.126   0.945  11.959  0.7378 -0.2648  0.1470
   69TMC2    O2 1082   0.577   0.776  12.092 -0.1442 -0.2420  0.3432
   69TMC2    O5 1083   0.642   0.958  11.971 -0.2317  0.7681  0.0856
   69TMC2    H5 1084   0.705   1.021  12.011  1.6249 -0.4805 -0.8759
   70MPD2     C 1085   1.100   1.050  12.726  0.1339 -0.2422  0.0167
   70MPD2    C1 1086   0.993   0.980  12.673  0.4751 -0.1637 -0.1809
   70MPD2    C2 1087   0.947   0.868  12.738  0.1976 -0.2259 -0.2622
   70MPD2    C3 1088   0.994   0.840  12.861  0.0561  0.2984  0.7025
   70MPD2    C4 1089   1.103   0.901  12.921 -0.1103  0.6986  1.0765
   70MPD2    C5 1090   1.160   1.000  12.844 -0.1491  0.1105  0.1814
   70MPD2     H 1091   0.872   0.798  12.704 -2.3504  1.2838  2.1918
   70MPD2    H1 1092   1.151   0.871  13.013  1.5774  3.0326  0.9652
   70MPD2    H2 1093   1.141   1.131  12.666  0.9008  0.3379  1.3159
   70MPD2    H3 1094   1.255   1.045  12.873 -2.1883  3.8492  1.0096
   70MPD2     N 1095   0.953   0.715  12.931 -0.0333  0.0225 -0.4767
   70MPD2    H5 1096   1.012   0.689  13.009 -1.4385 -1.0396  0.2326
   70MPD2    N1 1097   0.950   1.014  12.545 -0.2001 -0.4305  0.0421
   70MPD2    H7 1098   1.012   1.069  12.488 -0.7716 -0.2798 -0.4331
   71TMC2    C1 1099   3.205   1.478   1.373  0.0733 -0.2328 -0.0461
   71TMC2    C2 1100   3.329   1.492   1.418  0.1556 -0.2135  0.1181
   71TMC2    C3 1101   3.358   1.490   1.553 -0.1661  0.0370  0.5468
   71TMC2    C4 1102   3.101   1.467   1.462  0.2161  0.6370  0.4326
   71TMC2    C5 1103   3.125   1.490   1.596  0.2842  0.0097 -0.3572
   71TMC2    C6 1104   3.256   1.487   1.650  0.0424 -0.2147 -0.7022
   71TMC2     C 1105   3.171   1.490   1.232 -0.5398  0.0253  0.7461
   71TMC2     O 1106   3.053   1.488   1.211  0.2568 -0.7143 -0.6081
   71TMC2     H 1107   3.407   1.495   1.342  0.3646 -0.3369  0.3286
   71TMC2    H1 1108   3.008   1.430   1.421  0.2775  1.5005 -0.4889
   71TMC2    H2 1109   3.272   1.497   1.757  0.8812 -0.3893 -0.8109
   71TMC2    C7 1110   3.027   1.482   1.709 -0.5646  0.0394  0.0732
   71TMC2    C8 1111   3.487   1.507   1.598 -0.2096 -0.1188 -0.1309
   71TMC2    O1 1112   3.068   1.443   1.819 -0.3047  0.1273 -0.1890
   71TMC2    O2 1113   3.512   1.552   1.709 -0.0094  0.0043  0.7241
   71TMC2    O5 1114   3.555   1.413   1.529 -0.7268  0.1657 -0.7616
   71TMC2    H5 1115   3.493   1.376   1.462  0.4982 -0.7845 -1.3605
   72MPD2     C 1116   3.245   1.407   0.736  0.0287  0.0806  0.3250
   72MPD2    C1 1117   3.129   1.442   0.798 -0.0677 -0.0047 -0.9944
   72MPD2    C2 1118   3.142   1.480   0.934  0.0699  0.5440  0.3157
   72MPD2    C3 1119   3.263   1.459   1.004  0.3908  0.2229  0.1193
   72MPD2    C4 1120   3.379   1.429   0.938 -0.4875  0.3841  0.7577
   72MPD2    C5 1121   3.364   1.403   0.802 -0.2018  0.0654  0.2871
   72MPD2     H 1122   3.061   1.523   0.992 -1.7153  0.2155 -1.9309
   72MPD2    H1 1123   3.475   1.417   0.987  0.5407  0.2921 -1.2583
   72MPD2    H2 1124   3.242   1.362   0.637  2.0610  1.8038 -0.5093
   72MPD2    H3 1125   3.456   1.388   0.747  0.0845  1.0628  0.4822
   72MPD2     N 1126   3.278   1.483   1.144 -0.0269 -0.1691  0.3046
   72MPD2    H5 1127   3.373   1.477   1.179 -0.3958  0.8551  1.5123
   72MPD2    N1 1128   3.004   1.465   0.733  0.2129 -0.0136  0.3262
   72MPD2    H7 1129   2.938   1.533   0.769 -1.5956 -1.4518 -0.2917
   73TMC2    C1 1130   2.529   3.335  13.717 -0.6006  0.2829 -0.0406
   73TMC2    C2 1131   2.563   3.434  13.806  0.3249 -0.3644 -0.5251
   73TMC2    C3 1132   2.601   3.401  13.926  0.0611 -0.2442 -0.2366
   73TMC2    C4 1133   2.572   3.207  13.742 -0.2134  0.0693  0.1354
   73TMC2    C5 1134   2.643   3.182  13.859 -0.3173 -0.8013 -0.3849
   73TMC2    C6 1135   2.657   3.276  13.955 -0.1536 -0.1370 -0.1374
   73TMC2     C 1136   2.555   3.371  13.581  0.5071 -0.1972  0.8503
   73TMC2     O 1137   2.639   3.310  13.519  0.2458  0.6756  0.6152
   73TMC2     H 1138   2.556   3.538  13.776  0.0551  0.2218  1.5805
   73TMC2    H1 1139   2.563   3.137  13.661 -1.5997  0.2917  0.1030
   73TMC2    H2 1140   2.701   3.261  14.053  2.8009 -0.8766 -1.5635
   73TMC2    C7 1141   2.762   3.117  13.829 -1.2340 -0.4651 -0.1850
   73TMC2    C8 1142   2.629   3.505  14.020 -0.3222  0.6386  0.1704
   73TMC2    O1 1143   2.832   3.053  13.906 -0.3751 -0.1683 -0.5198
   73TMC2    O2 1144   2.709   3.502  14.115  0.4064  0.1288 -0.3486
   73TMC2    O5 1145   2.524   3.584  14.015  0.2198  0.2591  0.1957
   73TMC2    H5 1146   2.464   3.569  13.938  0.9750 -1.1522 -0.1183
   74MPD2     C 1147   2.529   3.725  13.219 -0.5888  0.7141  0.1479
   74MPD2    C1 1148   2.632   3.640  13.260 -0.0928  0.2160  0.6550
   74MPD2    C2 1149   2.613   3.564  13.374  0.1093 -0.1051  0.1646
   74MPD2    C3 1150   2.490   3.559  13.438 -0.1030  0.3059  0.4784
   74MPD2    C4 1151   2.390   3.649  13.394 -0.2376  0.2930 -0.4443
   74MPD2    C5 1152   2.413   3.738  13.294 -0.2134 -0.4732  0.8120
   74MPD2     H 1153   2.694   3.503  13.412 -0.9956 -2.0977 -0.7089
   74MPD2    H1 1154   2.297   3.658  13.449 -0.2727 -2.1432 -0.0794
   74MPD2    H2 1155   2.538   3.790  13.133  1.0415  0.6630  0.2835
   74MPD2    H3 1156   2.352   3.825  13.270 -1.6957 -1.8297 -0.3367
   74MPD2     N 1157   2.480   3.486  13.558 -0.2638 -0.0541 -0.0742
   74MPD2    H5 1158   2.399   3.506  13.615 -0.1203  0.0007  0.1128
   74MPD2    N1 1159   2.745   3.632  13.171 -0.0181 -0.4103  0.3117
   74MPD2    H7 1160   2.747   3.695  13.092  1.1038 -2.1558 -1.0525
   75TMC2    C1 1161   2.702   0.202  13.541  0.1449 -0.5134  0.1147
   75TMC2    C2 1162   2.595   0.248  13.623 -0.0643  0.7507  0.5757
   75TMC2    C3 1163   2.503   0.315  13.550 -0.4850  0.4350  0.4708
   75TMC2    C4 1164   2.694   0.209  13.402  0.0919 -0.5263  0.3127
   75TMC2    C5 1165   2.587   0.268  13.343 -0.7501  0.0376 -0.3665
   75TMC2    C6 1166   2.494   0.338  13.417  0.0507 -0.4317  0.0552
   75TMC2     C 1167   2.814   0.147  13.621 -0.0051 -0.6871  0.4627
   75TMC2     O 1168   2.805   0.196  13.733  0.0804 -0.1596  0.6337
   75TMC2     H 1169   2.595   0.229  13.730  0.2214  2.9278  0.9663
   75TMC2    H1 1170   2.770   0.163  13.341  0.0706  1.8503 -1.5171
   75TMC2    H2 1171   2.401   0.379  13.378  0.8724  0.9691 -0.3774
   75TMC2    C7 1172   2.565   0.254  13.201 -0.5557  0.7493 -0.3269
   75TMC2    C8 1173   2.393   0.379  13.620 -0.4871 -0.4404  0.1789
   75TMC2    O1 1174   2.625   0.171  13.134 -0.0904  0.0488 -0.0796
   75TMC2    O2 1175   2.321   0.464  13.574 -0.0195 -0.2499 -0.1190
   75TMC2    O5 1176   2.360   0.291  13.712 -0.1647  0.3399 -0.4379
   75TMC2    H5 1177   2.430   0.223  13.725  1.4999  1.8764 -1.3703
   76TMC2    C1 1178   2.230   0.512  12.111  0.8141  0.3782 -0.4348
   76TMC2    C2 1179   2.148   0.405  12.080 -0.0857 -0.0686 -0.5952
   76TMC2    C3 1180   2.198   0.275  12.105  0.1784 -0.6612  0.3707
   76TMC2    C4 1181   2.353   0.491  12.163 -0.5074  0.1442 -0.4420
   76TMC2    C5 1182   2.392   0.366  12.188 -0.0549 -0.2403  0.4497
   76TMC2    C6 1183   2.319   0.256  12.169  0.6665  0.5038 -0.7256
   76TMC2     C 1184   2.187   0.634  12.042 -0.0567  0.0808 -0.3509
   76TMC2     O 1185   2.065   0.653  12.031 -0.0980  0.0001 -0.1054
   76TMC2     H 1186   2.051   0.414  12.033 -0.6944  0.6064  0.7760
   76TMC2    H1 1187   2.413   0.581  12.174 -2.4917  1.6927 -2.0740
   76TMC2    H2 1188   2.363   0.163  12.205  0.0555  0.4790 -0.0421
   76TMC2    C7 1189   2.519   0.344  12.255 -0.1686 -0.5830 -0.2287
   76TMC2    C8 1190   2.093   0.186  12.138  0.5496 -0.5567 -0.4058
   76TMC2    O1 1191   2.578   0.244  12.219 -0.0813 -0.3718  0.1539
   76TMC2    O2 1192   1.983   0.230  12.168 -0.7592  0.3881 -0.0261
   76TMC2    O5 1193   2.143   0.060  12.168 -0.2059  0.2875 -0.4822
   76TMC2    H5 1194   2.230   0.050  12.123  0.0858 -1.4977  0.5113
   77MPD2     C 1195   2.258   1.026  11.711 -0.3537  0.6996  0.3277
   77MPD2    C1 1196   2.149   0.954  11.747  0.4193 -0.1092 -0.0429
   77MPD2    C2 1197   2.155   0.861  11.843  0.2001 -0.0732  0.1910
   77MPD2    C3 1198   2.275   0.827  11.913 -0.2088 -0.5032 -0.2045
   77MPD2    C4 1199   2.380   0.914  11.888  0.3160  0.1797  1.0995
   77MPD2    C5 1200   2.373   1.006  11.783 -0.0707 -0.1650  0.6425
   77MPD2     H 1201   2.072   0.791  11.849  0.8748 -1.0041 -1.2334
   77MPD2    H1 1202   2.477   0.891  11.929 -0.1750 -1.5432  1.2944
   77MPD2    H2 1203   2.268   1.106  11.639 -0.9771  0.9989  0.5711
   77MPD2    H3 1204   2.461   1.061  11.752 -0.0005 -0.5334  0.1890
   77MPD2     N 1205   2.292   0.715  12.000 -0.1318  0.2071 -0.1369
   77MPD2    H5 1206   2.389   0.698  12.026 -0.7172 -1.3932  1.0298
   77MPD2    N1 1207   2.027   0.975  11.676 -0.2288 -0.4319 -0.2026
   77MPD2    H7 1208   1.948   0.921  11.710  1.4742 -2.5563  0.3969
   78TMC2    C1 1209   2.720   1.142   1.739  0.2565  0.1279 -0.1988
   78TMC2    C2 1210   2.762   1.177   1.866 -0.1018  0.8325 -0.0116
   78TMC2    C3 1211   2.893   1.180   1.888 -0.3739 -0.0668 -0.6450
   78TMC2    C4 1212   2.802   1.103   1.638  0.2295 -0.1248  0.0155
   78TMC2    C5 1213   2.937   1.119   1.672 -0.4602  0.4300  0.0799
   78TMC2    C6 1214   2.988   1.147   1.797  0.4232 -0.5591 -0.5848
   78TMC2     C 1215   2.581   1.134   1.710  0.1530 -0.2799 -0.3394
   78TMC2     O 1216   2.548   1.087   1.600  0.5254 -0.3019  0.4974
   78TMC2     H 1217   2.695   1.192   1.950 -0.9035  0.2373 -0.5385
   78TMC2    H1 1218   2.757   1.054   1.553 -2.4003  0.9171  0.7867
   78TMC2    H2 1219   3.093   1.164   1.816  0.4774 -1.5053 -0.0394
   78TMC2    C7 1220   3.030   1.113   1.557  0.1844 -0.1319 -0.1438
   78TMC2    C8 1221   2.948   1.198   2.021  0.1242 -0.1467 -0.2621
   78TMC2    O1 1222   3.150   1.102   1.585 -0.3376 -0.0618 -0.6113
   78TMC2    O2 1223   2.901   1.139   2.121  0.2386  0.2277  0.0196
   78TMC2    O5 1224   3.033   1.299   2.032  0.0360  0.0252  0.2556
   78TMC2    H5 1225   3.059   1.332   1.943 -3.8562 -0.8344 -1.1979
   79MPD1     C 1226   2.104   1.284   1.798 -0.0033  0.0927  0.4222
   79MPD1    C1 1227   2.157   1.197   1.706 -0.4912 -0.1407  0.1454
   79MPD1    C2 1228   2.292   1.174   1.703 -0.9667  0.4349 -0.1007
   79MPD1    C3 1229   2.370   1.212   1.810 -0.1578  0.5342 -0.3983
   79MPD1    C4 1230   2.315   1.294   1.910 -0.0705  0.8522  0.3720
   79MPD1    C5 1231   2.186   1.338   1.894  0.3830 -0.2438  0.9266
   79MPD1     H 1232   2.321   1.102   1.628  0.5834  0.2962  0.6428
   79MPD1    H1 1233   2.377   1.329   1.991  0.6318 -0.6097  0.4746
   79MPD1    H2 1234   2.002   1.321   1.793  0.4660  1.3679  0.0948
   79MPD1    H3 1235   2.143   1.407   1.966  0.4864  0.7836  0.0016
   79MPD1     N 1236   2.512   1.188   1.812 -0.4443 -0.1652  0.5127
   79MPD1    H5 1237   2.552   1.208   1.902  1.4748 -1.8374  0.0133
   79MPD1    N1 1238   2.072   1.164   1.593  0.2047  0.4735  0.0610
   79MPD1    H6 1239   2.084   1.068   1.562  1.7926  0.5939  0.3114
   79MPD1    H7 1240   1.980   1.155   1.636  0.2698 -0.0981  0.0811
   80TMC2    C1 1241   0.910   4.611  12.301 -0.1681  0.5642 -0.5041
   80TMC2    C2 1242   0.902   4.702  12.203 -0.4286 -0.1315 -0.8039
   80TMC2    C3 1243   0.807   4.695  12.108  0.4300 -0.1330 -0.1063
   80TMC2    C4 1244   0.808   4.516  12.321 -0.2570  0.3870  0.3179
   80TMC2    C5 1245   0.705   4.514  12.228  0.1582  0.2614  0.5677
   80TMC2    C6 1246   0.702   4.610  12.124 -0.1400  0.0981  0.1368
   80TMC2     C 1247   1.024   4.602  12.375  0.3551  0.0316 -0.0666
   80TMC2     O 1248   1.127   4.660  12.334  0.1494 -0.4086 -0.2254
   80TMC2     H 1249   0.979   0.040  12.182  0.1554 -0.6254 -0.3742
   80TMC2    H1 1250   0.797   4.457  12.411  0.3179 -1.3940 -0.7995
   80TMC2    H2 1251   0.620   4.594  12.055 -1.3958 -0.9562  1.8687
   80TMC2    C7 1252   0.570   4.460  12.253 -0.8418  0.3154  0.1260
   80TMC2    C8 1253   0.827   0.019  11.978  0.1851  0.0627 -0.6273
   80TMC2    O1 1254   0.478   4.514  12.200  0.1193  0.3119  0.5689
   80TMC2    O2 1255   0.909   0.111  11.965  0.1904  0.1066  0.1010
   80TMC2    O5 1256   0.799   4.659  11.893  0.1472  0.3188  0.4198
   80TMC2    H5 1257   0.775   4.571  11.928  1.0658  0.9282  2.6121
   81MPD2     C 1258   1.211   4.594  12.612 -0.8017 -0.7697  0.0514
   81MPD2    C1 1259   1.079   4.549  12.611  0.2573  0.2255  0.2482
   81MPD2    C2 1260   1.009   4.539  12.728 -0.5659  0.1543 -0.1225
   81MPD2    C3 1261   1.069   4.584  12.846  0.4529 -0.2553 -0.3204
   81MPD2    C4 1262   1.204   4.614  12.843 -0.0641 -0.2362  0.3813
   81MPD2    C5 1263   1.268   4.625  12.726  0.1225 -0.0774 -0.3731
   81MPD2     H 1264   0.907   4.503  12.731 -1.1604  1.9493  1.9463
   81MPD2    H1 1265   1.261   4.621  12.935 -1.5162  2.7062  1.0483
   81MPD2    H2 1266   1.276   4.591  12.525 -1.7120  0.7855 -0.6917
   81MPD2    H3 1267   1.373   4.649  12.732  0.2686 -0.9183  0.2435
   81MPD2     N 1268   1.008   4.596  12.972 -0.3010 -0.2873 -0.6936
   81MPD2    H5 1269   1.070   4.627  13.046 -3.8080 -0.8996  2.5651
   81MPD2    N1 1270   0.998   4.538  12.494  0.4300  0.7624  0.3023
   81MPD2    H7 1271   0.904   4.501  12.495  0.2642  1.1854  0.1227
   82TMC2    C1 1272   3.838   3.466  10.680 -0.4033 -0.7110 -0.0767
   82TMC2    C2 1273   3.975   3.449  10.667  0.3742 -0.0251  0.0404
   82TMC2    C3 1274   4.025   3.372  10.771 -0.6736  0.0838  0.0150
   82TMC2    C4 1275   3.751   3.412  10.771  0.0787  0.1499 -0.3028
   82TMC2    C5 1276   3.809   3.332  10.866  0.8311  0.5154  0.7328
   82TMC2    C6 1277   3.943   3.320  10.871 -0.0966 -0.1912  1.1061
   82TMC2     C 1278   3.814   3.595  10.635  0.7472 -0.5721 -0.1656
   82TMC2     O 1279   3.711   3.616  10.578 -0.4167 -0.3234  0.2883
   82TMC2     H 1280   4.039   3.492  10.592  0.3184 -1.6052 -0.9152
   82TMC2    H1 1281   3.649   3.449  10.768  0.4455  1.4894  3.7521
   82TMC2    H2 1282   3.986   3.243  10.933  1.8410 -1.5642 -1.9140
   82TMC2    C7 1283   3.731   3.281  10.978  0.0684  0.5147  0.3114
   82TMC2    C8 1284   4.159   3.327  10.759  0.4078  0.1525  0.5538
   82TMC2    O1 1285   3.795   3.256  11.081 -0.1394  0.4958  0.1312
   82TMC2    O2 1286   4.211   3.319  10.653 -0.1297  0.1071  0.0892
   82TMC2    O5 1287   4.218   3.392  10.863  0.0404 -0.0218  0.2686
   82TMC2    H5 1288   4.157   3.439  10.923 -0.0357  1.8617 -1.2727
   83MPD2     C 1289   3.956   4.088  10.632  0.2292 -0.0555  0.3390
   83MPD2    C1 1290   3.836   4.036  10.592 -0.0300 -0.0216 -0.2361
   83MPD2    C2 1291   3.825   3.896  10.584  0.1780  0.0028  0.0371
   83MPD2    C3 1292   3.921   3.819  10.640  0.1048  0.1056  0.4098
   83MPD2    C4 1293   4.041   3.874  10.688 -0.2844 -0.1130 -0.2773
   83MPD2    C5 1294   4.057   4.011  10.687  0.3060  0.3144 -0.3158
   83MPD2     H 1295   3.743   3.838  10.542  0.1651  1.7694 -2.3546
   83MPD2    H1 1296   4.119   3.807  10.723 -0.6604 -0.7331 -0.6074
   83MPD2    H2 1297   3.979   4.193  10.621  0.6665 -0.2970 -1.1385
   83MPD2    H3 1298   4.142   4.065  10.727 -1.0364  1.3479  1.1719
   83MPD2     N 1299   3.922   3.677  10.654  0.4597 -0.2639 -0.8865
   83MPD2    H5 1300   4.007   3.637  10.693 -0.5324 -0.3424  1.1338
   83MPD2    N1 1301   3.734   4.124  10.547 -0.7943  0.0126  0.2815
   83MPD2    H7 1302   3.763   4.221  10.542  1.1232 -0.5493  0.0961
   84TMC2    C1 1303   1.000   2.818  10.726 -0.3253  0.1290 -0.2688
   84TMC2    C2 1304   1.032   2.690  10.699 -0.1918 -1.0961  0.2929
   84TMC2    C3 1305   1.106   2.671  10.581  0.2207 -0.1014 -0.3562
   84TMC2    C4 1306   1.051   2.924  10.650 -0.5294 -0.6513  0.2606
   84TMC2    C5 1307   1.133   2.898  10.543 -0.6104 -0.7556  0.5088
   84TMC2    C6 1308   1.160   2.772  10.503 -0.3675 -0.1411  0.2493
   84TMC2     C 1309   0.911   2.856  10.832 -0.6936 -0.1850 -0.5140
   84TMC2     O 1310   0.853   2.963  10.816 -0.8280 -0.2200 -0.4978
   84TMC2     H 1311   1.019   2.603  10.762 -1.7656  0.6457  2.4241
   84TMC2    H1 1312   1.028   3.024  10.686  2.0250  0.5052 -1.3445
   84TMC2    H2 1313   1.213   2.750  10.411 -1.6548 -1.6109 -0.1450
   84TMC2    C7 1314   1.191   3.014  10.478  0.0820 -0.3294 -0.1186
   84TMC2    C8 1315   1.172   2.544  10.558 -0.7354 -0.3739 -0.5729
   84TMC2    O1 1316   1.138   3.119  10.509  0.0766  0.4610  0.2381
   84TMC2    O2 1317   1.280   2.539  10.505 -0.7648  0.2533  0.1240
   84TMC2    O5 1318   1.096   2.437  10.588  0.2527 -0.1685  0.5212
   84TMC2    H5 1319   1.004   2.463  10.610 -0.0053 -0.7292  0.1012
   85TMC2    C1 1320   0.971   1.760  15.960 -0.5845 -0.0886 -0.5847
   85TMC2    C2 1321   0.858   1.808  15.898 -0.3980 -0.0996 -0.3618
   85TMC2    C3 1322   0.875   1.880  15.786 -0.6891 -0.3981  0.1819
   85TMC2    C4 1323   1.097   1.796  15.923 -0.1968 -0.1466  0.2326
   85TMC2    C5 1324   1.106   1.865  15.804  0.1430  0.4354  0.0601
   85TMC2    C6 1325   0.998   1.898  15.731 -0.4292 -0.5640 -0.3648
   85TMC2     C 1326   0.952   1.673  16.080  0.2048  0.2481 -0.1754
   85TMC2     O 1327   1.033   1.676  16.175 -0.3304 -0.6133 -0.5198
   85TMC2     H 1328   0.762   1.784  15.943  0.7757 -2.7985  0.6914
   85TMC2    H1 1329   1.179   1.762  15.984 -2.4084 -0.5110  2.9783
   85TMC2    H2 1330   1.014   1.921  15.626 -1.4037 -0.1660 -0.4220
   85TMC2    C7 1331   1.235   1.889  15.760  0.4527  0.3577  0.4880
   85TMC2    C8 1332   0.770   1.898  15.692 -0.5953 -0.5826 -0.5164
   85TMC2    O1 1333   1.323   1.826  15.824  0.1448 -0.0953 -0.4541
   85TMC2    O2 1334   0.666   1.833  15.714  0.2301 -0.5856 -0.5323
   85TMC2    O5 1335   0.784   2.020  15.636  0.1394 -0.0599 -0.1464
   85TMC2    H5 1336   0.851   2.068  15.689  0.1943  1.6190 -1.7368
   86MPD2     C 1337   0.654   1.335  16.312 -0.0684 -0.0819 -0.5668
   86MPD2    C1 1338   0.613   1.346  16.185 -0.2480 -0.1513  0.7940
   86MPD2    C2 1339   0.685   1.426  16.100  0.6588 -0.2085 -0.0975
   86MPD2    C3 1340   0.801   1.488  16.143  0.1977  0.5503 -0.0009
   86MPD2    C4 1341   0.834   1.480  16.277 -0.4169 -0.2094 -0.0060
   86MPD2    C5 1342   0.763   1.398  16.358  0.3355  0.3229 -0.0161
   86MPD2     H 1343   0.647   1.429  15.998 -0.5735  0.3136  0.3716
   86MPD2    H1 1344   0.906   1.545  16.325  0.7666 -1.9385  0.5173
   86MPD2    H2 1345   0.597   1.274  16.382 -0.9652  1.0877 -0.2900
   86MPD2    H3 1346   0.789   1.392  16.463 -3.3904 -0.6268  0.8309
   86MPD2     N 1347   0.861   1.575  16.050  0.6006  0.0098 -0.0482
   86MPD2    H5 1348   0.820   1.587  15.958 -1.5552 -0.2222  0.8954
   86MPD2    N1 1349   0.490   1.294  16.133  0.4715 -0.1573 -0.6225
   86MPD2    H7 1350   0.472   1.296  16.033 -0.5762  0.2966 -0.4272
   87TMC2    C1 1351   3.249   4.661   0.897  0.3836 -0.3393  0.4865
   87TMC2    C2 1352   3.376   4.695   0.934 -0.3793  0.3542  0.1518
   87TMC2    C3 1353   3.396   0.061   1.025  0.6769 -0.3067  0.0436
   87TMC2    C4 1354   3.141   4.708   0.961 -0.6156 -0.1247  0.1230
   87TMC2    C5 1355   3.169   0.053   1.069 -0.2997  0.1045 -0.1768
   87TMC2    C6 1356   3.290   0.110   1.100 -0.5917 -0.3787 -0.2322
   87TMC2     C 1357   3.244   4.612   0.761  0.0032 -0.0140 -0.7624
   87TMC2     O 1358   3.328   4.529   0.734  0.3159  0.6097 -0.2713
   87TMC2     H 1359   3.460   4.648   0.885 -0.9934 -0.0259 -0.5423
   87TMC2    H1 1360   3.043   4.684   0.920  0.0762  1.6135 -2.5383
   87TMC2    H2 1361   3.306   0.163   1.193 -1.8888 -0.3230 -0.0366
   87TMC2    C7 1362   3.050   0.099   1.136  0.0093  0.5508  0.1051
   87TMC2    C8 1363   3.534   0.109   1.049  0.5273 -0.0425 -0.3868
   87TMC2    O1 1364   3.065   0.197   1.212 -0.2300  0.3191 -0.1314
   87TMC2    O2 1365   3.632   0.041   1.026  0.0220  0.0465 -0.4928
   87TMC2    O5 1366   3.527   0.237   1.031 -0.8183 -0.5211  0.1498
   87TMC2    H5 1367   3.434   0.265   1.023 -0.8266 -0.3183  1.0431
   88MPD2     C 1368   2.733   4.667   1.129  0.7218  0.2299  0.5511
   88MPD2    C1 1369   2.813   0.029   1.155 -1.0193  0.2736 -0.1707
   88MPD2    C2 1370   2.768   0.157   1.187 -0.3483 -0.2811 -0.5742
   88MPD2    C3 1371   2.633   0.182   1.199  0.5666  0.6480 -0.5667
   88MPD2    C4 1372   2.547   0.074   1.179  0.8075 -0.1798  0.8057
   88MPD2    C5 1373   2.601   4.685   1.161  0.1226  0.5718 -0.9051
   88MPD2     H 1374   2.846   0.233   1.184  1.0574 -1.7376 -1.3002
   88MPD2    H1 1375   2.441   0.085   1.198  0.5484 -1.5885  0.1616
   88MPD2    H2 1376   2.772   4.567   1.113  0.3343  0.2704 -0.7115
   88MPD2    H3 1377   2.544   4.592   1.157  0.7503  0.1849 -0.9482
   88MPD2     N 1378   2.569   0.308   1.220  0.1014 -0.6124  0.0932
   88MPD2    H5 1379   2.469   0.309   1.201 -0.0341 -1.2893  0.7988
   88MPD2    N1 1380   2.949   0.001   1.127  0.2130 -0.9498  0.3807
   88MPD2    H7 1381   2.976   4.646   1.090  0.8237 -1.1674  1.3510
   89TMC2    C1 1382   3.967   2.734   1.139 -0.1553  0.7147 -0.4954
   89TMC2    C2 1383   4.030   2.746   1.016 -0.0988  0.1606  0.4895
   89TMC2    C3 1384   4.037   2.871   0.969 -0.6919 -0.0018  0.0961
   89TMC2    C4 1385   3.917   2.845   1.211  0.4173 -0.5990 -0.2921
   89TMC2    C5 1386   3.929   2.974   1.158  0.3853  0.3061  0.1631
   89TMC2    C6 1387   4.005   2.989   1.047 -0.3804  0.1704  0.3545
   89TMC2     C 1388   3.961   2.606   1.203 -0.3349 -0.2468  0.9419
   89TMC2     O 1389   4.053   2.528   1.184  0.3870  0.0765 -0.2437
   89TMC2     H 1390   4.049   2.665   0.945 -1.3420 -0.4402  0.8314
   89TMC2    H1 1391   3.903   2.833   1.318  2.5657  0.0478  0.0534
   89TMC2    H2 1392   4.017   3.088   1.005  0.8044 -0.9589 -1.9535
   89TMC2    C7 1393   3.900   3.078   1.241 -0.6913  0.5743  0.0872
   89TMC2    C8 1394   4.103   2.894   0.844  0.5314 -1.0172 -0.4834
   89TMC2    O1 1395   3.813   3.051   1.322  0.5852 -0.2558 -0.2913
   89TMC2    O2 1396   4.203   2.831   0.807  0.5890  0.5901 -0.2242
   89TMC2    O5 1397   4.050   3.008   0.798 -0.2662 -0.7193  0.0563
   89TMC2    H5 1398   3.957   3.023   0.826  0.2945  1.5694  0.6967
   90MPD2     C 1399   3.814   2.324   1.602 -0.0671  0.0376 -0.8940
   90MPD2    C1 1400   3.707   2.406   1.570  0.3563  0.1443  0.1430
   90MPD2    C2 1401   3.731   2.501   1.471  0.4680 -0.9121 -0.5203
   90MPD2    C3 1402   3.843   2.497   1.391  0.2137  0.1815  0.2073
   90MPD2    C4 1403   3.945   2.414   1.428  0.0689 -0.6921  0.4193
   90MPD2    C5 1404   3.931   2.331   1.531 -0.2723  0.1373 -0.0111
   90MPD2     H 1405   3.655   2.574   1.444 -0.8425 -1.3274  2.0132
   90MPD2    H1 1406   4.046   2.413   1.389  0.2369  0.1837  0.8446
   90MPD2    H2 1407   3.802   2.241   1.672  4.2236  0.3162  0.1578
   90MPD2    H3 1408   4.006   2.254   1.541  0.1959  0.1974 -2.9682
   90MPD2     N 1409   3.857   2.598   1.299 -0.1163  0.4788 -0.1928
   90MPD2    H5 1410   3.783   2.667   1.290  0.0632  0.7662  0.6185
   90MPD2    N1 1411   3.585   2.413   1.636 -0.0523  1.0851 -0.1228
   90MPD2    H7 1412   3.538   2.499   1.613  1.0487  1.3402 -1.4293
   91TMC2    C1 1413   0.425   2.460  16.660 -0.1601 -0.3581  0.5273
   91TMC2    C2 1414   0.524   2.385  16.606 -0.6373  0.9075 -0.3339
   91TMC2    C3 1415   0.507   2.325  16.487  0.4675 -0.5339 -0.3191
   91TMC2    C4 1416   0.304   2.475  16.596  0.1459  0.3726  0.0013
   91TMC2    C5 1417   0.295   2.408  16.479 -0.3448  0.7923  0.3867
   91TMC2    C6 1418   0.389   2.334  16.422 -0.1698  0.4067 -0.4499
   91TMC2     C 1419   0.456   2.533  16.774  0.1755 -0.1294  0.2053
   91TMC2     O 1420   0.366   2.559  16.853  0.2454  0.2034 -0.1449
   91TMC2     H 1421   0.619   2.369  16.655 -0.9813  1.1757  0.4314
   91TMC2    H1 1422   0.217   2.523  16.640  0.7658  1.2317  0.3009
   91TMC2    H2 1423   0.361   2.262  16.346  2.2751 -0.7621 -0.2409
   91TMC2    C7 1424   0.164   2.404  16.421 -0.3868 -0.5613  0.0444
   91TMC2    C8 1425   0.623   2.268  16.424  0.0877 -0.2278 -0.3017
   91TMC2    O1 1426   0.065   2.405  16.495 -0.2247  0.6172  0.0178
   91TMC2    O2 1427   0.671   2.171  16.480 -0.3387 -0.5632  0.6105
   91TMC2    O5 1428   0.619   2.270  16.289 -0.0800  0.3591 -0.0152
   91TMC2    H5 1429   0.611   2.362  16.257  0.5132  0.0301 -1.1142
   92MPD2     C 1430   0.606   2.647  17.004 -0.2149 -0.0521 -0.2819
   92MPD2    C1 1431   0.664   2.627  16.880 -0.3697  1.1527  0.4078
   92MPD2    C2 1432   0.794   2.667  16.851  0.0853  0.2137  0.0863
   92MPD2    C3 1433   0.870   2.721  16.958  0.0946 -0.0239 -0.3782
   92MPD2    C4 1434   0.816   2.731  17.087 -0.6782 -0.7700  0.2057
   92MPD2    C5 1435   0.685   2.696  17.107 -0.4952  0.1547 -0.3722
   92MPD2     H 1436   0.833   2.658  16.750  0.2994  1.2796  0.0760
   92MPD2    H1 1437   0.861   2.777  17.175 -1.6223 -0.9757  0.8001
   92MPD2    H2 1438   0.502   2.624  17.020  0.3884 -0.9295  2.3933
   92MPD2    H3 1439   0.642   2.689  17.206 -2.1259  2.0400 -0.9525
   92MPD2     N 1440   1.002   2.752  16.930  0.5798 -0.2021  0.0073
   92MPD2    H5 1441   1.035   2.741  16.835 -0.4883 -1.7132 -0.1925
   92MPD2    N1 1442   0.591   2.574  16.776 -0.4698 -0.1413  0.0884
   92MPD2    H7 1443   0.653   2.565  16.695  0.7069  1.9876  0.7305
   93TMC2    C1 1444   2.697   2.457  13.647 -0.2008  0.1655  0.3276
   93TMC2    C2 1445   2.610   2.562  13.652 -0.4582 -0.0392  0.2233
   93TMC2    C3 1446   2.661   2.685  13.616 -0.0130 -0.1749  0.0995
   93TMC2    C4 1447   2.826   2.472  13.596  0.0009  0.0697 -0.0118
   93TMC2    C5 1448   2.870   2.601  13.563 -0.4893 -0.7095  0.1920
   93TMC2    C6 1449   2.787   2.705  13.570 -0.2000 -0.0911  0.3010
   93TMC2     C 1450   2.638   2.335  13.633 -0.6579  0.9906  0.0507
   93TMC2     O 1451   2.671   2.243  13.707 -0.0799  0.0734 -0.3043
   93TMC2     H 1452   2.513   2.558  13.699  0.1013  0.7120  1.4286
   93TMC2    H1 1453   2.896   2.389  13.595  2.0530  1.7971 -0.1569
   93TMC2    H2 1454   2.837   2.802  13.566 -0.9668  0.3105  0.3718
   93TMC2    C7 1455   2.995   2.612  13.485 -0.6603 -0.0928 -0.3434
   93TMC2    C8 1456   2.608   2.799  13.682  1.0838 -0.2209  0.2018
   93TMC2    O1 1457   3.083   2.534  13.509 -0.1052  0.3728 -0.3641
   93TMC2    O2 1458   2.524   2.810  13.773 -0.0083  0.4025  0.3879
   93TMC2    O5 1459   2.633   2.897  13.595 -0.3287 -0.9245  0.2466
   93TMC2    H5 1460   2.689   2.878  13.517 -1.5445  0.1193 -0.8772
   94MPD2     C 1461   2.443   2.105  13.571  0.4509 -0.3508 -0.0165
   94MPD2    C1 1462   2.426   2.233  13.539  0.0652 -1.0431  0.7445
   94MPD2    C2 1463   2.321   2.266  13.457  0.0537  0.0263  0.3930
   94MPD2    C3 1464   2.245   2.166  13.403  0.0158  0.5195  0.8211
   94MPD2    C4 1465   2.254   2.042  13.452  0.1409  0.2877  0.8925
   94MPD2    C5 1466   2.352   2.009  13.533  0.7644  0.5011 -0.0508
   94MPD2     H 1467   2.318   2.367  13.418  0.0389 -0.5157 -1.0090
   94MPD2    H1 1468   2.182   1.968  13.421  0.6748 -0.2887  1.0173
   94MPD2    H2 1469   2.520   2.069  13.637  1.6464  1.0446 -0.6627
   94MPD2    H3 1470   2.370   1.905  13.558  2.0454  0.6008 -0.5440
   94MPD2     N 1471   2.154   2.170  13.295 -0.0521 -0.1107  0.1246
   94MPD2    H5 1472   2.103   2.084  13.275  0.1882 -0.1601 -0.2799
   94MPD2    N1 1473   2.514   2.339  13.571  0.0870  0.7058 -0.7692
   94MPD2    H7 1474   2.493   2.426  13.522 -2.0671  1.1759  0.9825
   95TMC2    C1 1475   2.622   4.725  16.247 -0.4185  0.1392  1.0519
   95TMC2    C2 1476   2.557   4.607  16.259  0.2260 -0.4704 -0.0081
   95TMC2    C3 1477   2.505   4.583  16.382  0.6540  0.2107  0.0432
   95TMC2    C4 1478   2.649   0.075  16.351 -0.2329 -0.1663  0.1466
   95TMC2    C5 1479   2.601   0.040  16.475  0.6719  0.6150 -0.1727
   95TMC2    C6 1480   2.518   4.667  16.486  0.2696 -0.2654 -0.2222
   95TMC2     C 1481   2.726   0.001  16.142  0.3591 -0.0828 -0.3637
   95TMC2     O 1482   2.771   0.112  16.128  0.4763  0.5650  0.5365
   95TMC2     H 1483   2.528   4.549  16.172  2.9484 -0.7782 -0.7127
   95TMC2    H1 1484   2.712   0.163  16.342 -1.1976  0.5330  0.2486
   95TMC2    H2 1485   2.490   4.619  16.579 -0.3668 -0.2640 -0.4170
   95TMC2    C7 1486   2.586   0.148  16.576 -0.4011  0.7980  0.4382
   95TMC2    C8 1487   2.400   4.486  16.387 -0.2984  0.0398  0.0882
   95TMC2    O1 1488   2.542   0.106  16.682  0.0103  1.0143 -0.0624
   95TMC2    O2 1489   2.420   4.366  16.399 -0.4339  0.7973  0.5442
   95TMC2    O5 1490   2.290   4.548  16.434 -0.4393  0.0491  0.1062
   95TMC2    H5 1491   2.292   4.643  16.412  1.7257  0.2487  1.1828
   96MPD2     C 1492   2.904   4.525  15.697  0.6243 -0.0105 -0.1150
   96MPD2    C1 1493   2.903   4.651  15.742 -0.8341 -0.3708 -0.3675
   96MPD2    C2 1494   2.851   4.686  15.869 -0.1443  0.5652 -0.2821
   96MPD2    C3 1495   2.793   4.589  15.948  0.0012 -0.4974  0.3790
   96MPD2    C4 1496   2.796   4.458  15.904  0.4350  0.1726 -0.0511
   96MPD2    C5 1497   2.849   4.429  15.777  0.7514  0.1520  0.3236
   96MPD2     H 1498   2.850   0.056  15.894  2.5617  0.1146  1.6765
   96MPD2    H1 1499   2.755   4.378  15.964 -3.0903  0.0642 -2.6045
   96MPD2    H2 1500   2.939   4.502  15.596  3.2270 -0.5966  0.9153
   96MPD2    H3 1501   2.832   4.325  15.754  0.5911 -0.1183  1.6300
   96MPD2     N 1502   2.729   4.614  16.074 -0.5163  0.0592  0.0642
   96MPD2    H5 1503   2.682   4.539  16.125 -0.2356  0.7086  1.2657
   96MPD2    N1 1504   2.963   0.009  15.661 -1.1174  0.4647  0.0690
   96MPD2    H7 1505   2.996   4.710  15.572  1.2264  1.3070  0.6322
   97TMC2    C1 1506   0.143   2.470  17.732 -0.4057  0.3741 -0.4599
   97TMC2    C2 1507   0.090   2.424  17.611  0.5341  0.0133  0.3597
   97TMC2    C3 1508   0.040   2.519  17.523  0.2685 -0.0185  0.5164
   97TMC2    C4 1509   0.143   2.606   0.014 -0.1504 -0.0037 -0.1046
   97TMC2    C5 1510   0.101   2.701  17.663  0.2309 -0.1462 -0.0086
   97TMC2    C6 1511   0.045   2.649  17.549  0.1288 -0.1622  0.3063
   97TMC2     C 1512   0.192   2.376   0.083  1.1258  0.0077 -0.0402
   97TMC2     O 1513   0.190   2.260   0.042  0.3054  0.2310 -0.1033
   97TMC2     H 1514   0.083   2.318  17.591 -0.4766 -0.4455  3.1360
   97TMC2    H1 1515   0.193   2.651   0.098  2.3528 -4.3652  0.7489
   97TMC2    H2 1516   0.000   2.725  17.486  1.0767  0.8515  0.8547
   97TMC2    C7 1517   0.165   2.832  17.658 -0.3724  0.1636 -0.4736
   97TMC2    C8 1518   4.686   2.488  17.423 -0.3181  0.4198 -0.1997
   97TMC2    O1 1519   0.279   2.842  17.701 -0.6974  0.1072 -0.1967
   97TMC2    O2 1520   4.602   2.564  17.380 -0.4591  0.0122 -0.3941
   97TMC2    O5 1521   4.731   2.385  17.349 -0.1831 -0.4344 -0.0686
   97TMC2    H5 1522   0.078   2.343  17.380  0.7508  0.9958 -0.5867
   98MPD2     C 1523   0.272   2.268   0.568  0.0653 -0.0140 -0.2818
   98MPD2    C1 1524   0.203   2.194   0.471  0.3866  0.1109  0.0658
   98MPD2    C2 1525   0.199   2.236   0.339 -0.0501 -0.0149  0.0445
   98MPD2    C3 1526   0.257   2.363   0.316  0.4016 -0.1702  0.5839
   98MPD2    C4 1527   0.318   2.434   0.412 -0.2210  0.0355  0.5321
   98MPD2    C5 1528   0.322   2.388   0.537 -0.8215  0.6081 -0.0943
   98MPD2     H 1529   0.144   2.188   0.259  1.4259 -1.0749 -0.3261
   98MPD2    H1 1530   0.362   2.532   0.401 -0.0637 -0.1397 -0.4164
   98MPD2    H2 1531   0.250   2.250   0.672  0.6685  0.0069 -0.1518
   98MPD2    H3 1532   0.373   2.451   0.609 -0.6064  1.5482 -1.0565
   98MPD2     N 1533   0.239   2.430   0.194  0.8660 -1.1779  0.1346
   98MPD2    H5 1534   0.264   2.528   0.194 -1.1947 -0.6464 -1.1470
   98MPD2    N1 1535   0.129   2.080   0.518 -0.0181  0.2174  0.1464
   98MPD2    H7 1536   0.151   2.034   0.606  2.3363  1.6691  0.3251
   99TMC2    C1 1537   3.714   4.388   1.470 -0.0014  0.8874 -0.1135
   99TMC2    C2 1538   3.784   4.494   1.521  0.4166 -0.0362 -0.1455
   99TMC2    C3 1539   3.722   4.581   1.604 -0.6808  0.7582  0.2433
   99TMC2    C4 1540   3.585   4.354   1.514 -0.1635 -0.5651  0.1780
   99TMC2    C5 1541   3.528   4.443   1.601  0.9308  0.2367  0.6117
   99TMC2    C6 1542   3.594   4.554   1.642 -0.2057  0.2157 -0.2992
   99TMC2     C 1543   3.779   4.316   1.368 -0.5370 -0.5180  0.2641
   99TMC2     O 1544   3.865   4.374   1.298 -0.3120  0.5131 -0.3877
   99TMC2     H 1545   3.883   4.517   1.483  0.1792  2.3879  0.6879
   99TMC2    H1 1546   3.539   4.261   1.481  0.4608 -0.5268 -0.7754
   99TMC2    H2 1547   3.545   4.624   1.708 -1.6069 -0.1835 -0.9158
   99TMC2    C7 1548   3.385   4.426   1.652 -0.5567 -0.2424 -0.3604
   99TMC2    C8 1549   3.759   4.717   1.583  0.4086  0.0152  0.1962
   99TMC2    O1 1550   3.348   4.510   1.733  0.1614 -0.1400 -0.5297
   99TMC2    O2 1551   3.842   0.022   1.499  0.2615  0.1432  0.6970
   99TMC2    O5 1552   3.728   0.059   1.693 -0.0687 -0.5037  0.4759
   99TMC2    H5 1553   3.720   0.001   1.771 -3.1616 -1.5007 -0.5537
  100MPD2     C 1554   3.839   4.122   1.153  0.4961 -0.3580  0.5441
  100MPD2    C1 1555   3.756   4.098   1.264  0.1479  1.3042 -0.3895
  100MPD2    C2 1556   3.710   3.966   1.266 -0.1011 -0.1910  0.5661
  100MPD2    C3 1557   3.732   3.868   1.179 -0.2126 -0.4884  0.5124
  100MPD2    C4 1558   3.809   3.900   1.070  0.0038  0.4045  0.1157
  100MPD2    C5 1559   3.864   4.023   1.061 -0.1095 -1.3684 -0.1871
  100MPD2     H 1560   3.649   3.942   1.352 -2.0793 -0.4661 -0.9369
  100MPD2    H1 1561   3.816   3.833   0.985 -1.8836 -1.3508  1.3437
  100MPD2    H2 1562   3.890   4.216   1.133  1.8204 -0.9160  1.2496
  100MPD2    H3 1563   3.916   4.047   0.969 -3.9867 -1.5675 -2.4412
  100MPD2     N 1564   3.665   3.748   1.198  0.6361 -0.1846  1.3894
  100MPD2    H5 1565   3.608   3.745   1.282 -0.4937  1.9628  0.6955
  100MPD2    N1 1566   3.727   4.188   1.366 -0.3993  0.3967 -0.4601
  100MPD2    H7 1567   3.682   4.153   1.450  0.3228  0.7707  0.0833
  101TMC2    C1 1568   4.649   0.433  12.920  0.6373 -0.1483 -0.3933
  101TMC2    C2 1569   4.701   0.489  13.036  1.0097  0.2535 -0.1588
  101TMC2    C3 1570   0.096   0.522  13.038  0.5726  0.0149 -0.3907
  101TMC2    C4 1571   4.721   0.442  12.802  0.7048  0.0211  0.3263
  101TMC2    C5 1572   0.115   0.485  12.806  0.2807  0.9340  0.2129
  101TMC2    C6 1573   0.176   0.513  12.927 -0.6655 -0.7933  0.2436
  101TMC2     C 1574   4.531   0.348  12.932 -0.0514 -0.4631 -0.1611
  101TMC2     O 1575   4.478   0.329  13.042  0.3803 -0.3827 -0.5795
  101TMC2     H 1576   4.656   0.475  13.134  0.1123 -3.4738 -1.1265
  101TMC2    H1 1577   4.675   0.427  12.705  1.3102 -0.8754  0.1761
  101TMC2    H2 1578   0.282   0.533  12.938 -0.6097 -1.8002  1.5578
  101TMC2    C7 1579   0.189   0.484  12.681 -0.2051  0.6193 -0.5132
  101TMC2    C8 1580   0.154   0.534  13.166  0.1940  0.7751 -0.0546
  101TMC2    O1 1581   0.126   0.444  12.588 -0.0968  0.7122  0.3526
  101TMC2    O2 1582   0.268   0.510  13.205  0.1828 -0.0667 -0.4599
  101TMC2    O5 1583   0.065   0.607  13.239 -0.0259 -0.0413  0.2021
  101TMC2    H5 1584   4.732   0.662  13.195  1.7890  0.5939 -1.8670
  102MPD2     C 1585   4.520   0.046  12.727 -0.4307 -0.6095  0.8573
  102MPD2    C1 1586   4.481   0.130  12.823  0.8784 -0.2261  0.2379
  102MPD2    C2 1587   4.371   0.097  12.903 -0.2284  0.4369  0.4774
  102MPD2    C3 1588   4.317   4.709  12.891  0.0140  0.2770  0.3459
  102MPD2    C4 1589   4.371   4.616  12.807  0.5352 -0.0950 -0.5169
  102MPD2    C5 1590   4.467   4.657  12.718 -0.1734  0.1206 -0.3718
  102MPD2     H 1591   4.349   0.173  12.976 -0.3263  1.0980 -0.2345
  102MPD2    H1 1592   4.347   4.510  12.798 -0.1381 -0.0895  1.1318
  102MPD2    H2 1593   4.602   0.075  12.662 -2.4986 -1.0396 -1.9372
  102MPD2    H3 1594   4.510   4.594  12.642  1.3697 -0.7680  1.2482
  102MPD2     N 1595   4.199   4.686  12.970 -0.0662 -0.1859 -0.2812
  102MPD2    H5 1596   4.177   0.027  13.032  1.0945  0.1172 -0.2413
  102MPD2    N1 1597   4.537   0.259  12.827 -0.9999  0.1452  0.6029
  102MPD2    H7 1598   4.581   0.285  12.739 -1.6283  2.1761  0.8959
  103TMC2    C1 1599   2.673   0.734  12.933 -0.3278  0.2593 -0.1888
  103TMC2    C2 1600   2.674   0.870  12.932  0.1961 -0.6460  0.0173
  103TMC2    C3 1601   2.717   0.935  13.047 -0.2505 -0.2750  0.1003
  103TMC2    C4 1602   2.695   0.664  13.046 -0.0385 -0.1387 -0.0100
  103TMC2    C5 1603   2.737   0.728  13.158 -0.2497  0.5173  0.6236
  103TMC2    C6 1604   2.747   0.867  13.162 -0.4280  0.5368 -0.0661
  103TMC2     C 1605   2.620   0.662  12.823  0.3151 -0.2055 -0.7931
  103TMC2     O 1606   2.572   0.734  12.735 -0.0486  0.4649  0.5052
  103TMC2     H 1607   2.677   0.933  12.844 -0.2259  0.6818  0.9504
  103TMC2    H1 1608   2.695   0.556  13.055 -1.2887  0.0681  2.7719
  103TMC2    H2 1609   2.755   0.925  13.253  0.5654  0.2775  0.0112
  103TMC2    C7 1610   2.689   0.669  13.280  0.4622  0.0955 -0.5140
  103TMC2    C8 1611   2.698   1.073  13.055  0.1922 -0.6378 -0.0367
  103TMC2    O1 1612   2.576   0.613  13.283  0.9015  0.1950 -0.4132
  103TMC2    O2 1613   2.657   1.116  13.161 -0.0171  0.0672 -0.2125
  103TMC2    O5 1614   2.756   1.145  12.957  0.4827 -0.0292 -0.5164
  103TMC2    H5 1615   2.813   1.086  12.902  1.1749  0.3597 -0.2034
  104MPD2     C 1616   2.743   0.336  12.716 -0.1668  0.2585 -0.3412
  104MPD2    C1 1617   2.674   0.452  12.706 -0.0763 -0.9813  0.0745
  104MPD2    C2 1618   2.610   0.479  12.588 -0.1514 -0.6802  0.0822
  104MPD2    C3 1619   2.608   0.393  12.479  0.0480  0.1488 -0.0430
  104MPD2    C4 1620   2.684   0.279  12.494  0.4389  0.9114  0.3764
  104MPD2    C5 1621   2.753   0.251  12.608  0.0117 -0.4276 -0.7356
  104MPD2     H 1622   2.543   0.564  12.580 -1.8926 -2.1263 -0.7006
  104MPD2    H1 1623   2.691   0.202  12.417  0.6026  0.3599  0.9468
  104MPD2    H2 1624   2.790   0.311  12.810  0.1404  0.7264 -0.3724
  104MPD2    H3 1625   2.804   0.155  12.615  0.1345 -0.1232  2.7078
  104MPD2     N 1626   2.530   0.427  12.363  0.0094  0.0152 -0.1541
  104MPD2    H5 1627   2.460   0.498  12.383  0.4440  0.3331  0.2480
  104MPD2    N1 1628   2.674   0.537  12.818 -0.2875 -0.1546  0.2275
  104MPD2    H7 1629   2.739   0.517  12.893 -1.6261 -2.4264  0.7998
  105TMC2    C1 1630   3.317   4.035  17.702  0.3226 -0.1619 -0.4963
  105TMC2    C2 1631   3.370   3.946   0.047 -0.0319  0.6369  0.1221
  105TMC2    C3 1632   3.355   3.980   0.178  0.5002 -0.3831  0.1376
  105TMC2    C4 1633   3.257   4.154  17.741 -0.3211  0.5313  0.0344
  105TMC2    C5 1634   3.249   4.181   0.136 -0.1342 -0.4289 -0.2562
  105TMC2    C6 1635   3.295   4.092   0.225 -1.2355 -0.2261  0.3359
  105TMC2     C 1636   3.339   4.001  17.561  0.4420  0.5835 -0.2756
  105TMC2     O 1637   3.316   3.891  17.517  0.4591  0.0436  0.4716
  105TMC2     H 1638   3.438   3.867   0.019 -2.3451 -1.0241 -0.8693
  105TMC2    H1 1639   3.199   4.214  17.671  0.4364  2.5522  1.1503
  105TMC2    H2 1640   3.267   4.103   0.330  0.3694  0.5867  0.6704
  105TMC2    C7 1641   3.155   4.274   0.184  0.7087  0.7452  0.0037
  105TMC2    C8 1642   3.411   3.887   0.278 -0.4448  0.0592  0.0018
  105TMC2    O1 1643   3.069   4.317   0.108 -0.9795 -0.1437 -0.2411
  105TMC2    O2 1644   3.457   3.774   0.250  0.2135 -0.0761  0.5888
  105TMC2    O5 1645   3.479   3.966   0.354 -0.3548  0.4934 -0.4350
  105TMC2    H5 1646   3.452   4.058   0.332 -0.5384  0.9063  1.4891
  106MPD2     C 1647   3.606   4.090  17.132 -0.5085 -0.4280  0.2885
  106MPD2    C1 1648   3.568   4.213  17.185 -0.3702 -1.7630 -0.2712
  106MPD2    C2 1649   3.489   4.221  17.303 -0.7215  0.0354 -0.2537
  106MPD2    C3 1650   3.449   4.105  17.366 -0.1706 -0.5780 -0.5101
  106MPD2    C4 1651   3.484   3.987  17.310 -0.1662  0.1515 -0.0609
  106MPD2    C5 1652   3.561   3.980  17.192 -0.3504 -0.5833  0.1011
  106MPD2     H 1653   3.458   4.322  17.329 -0.7263  0.1341 -0.6385
  106MPD2    H1 1654   3.447   3.894  17.352  0.6261 -0.5575 -0.9439
  106MPD2    H2 1655   3.664   4.077  17.042  0.0574 -0.4589  0.6567
  106MPD2    H3 1656   3.560   3.886  17.139 -1.1753  0.7945 -2.2977
  106MPD2     N 1657   3.384   4.113  17.491  0.0916  0.0546 -0.2964
  106MPD2    H5 1658   3.388   4.200  17.543  0.1774  0.1464 -0.4545
  106MPD2    N1 1659   3.607   4.331  17.118  0.2226  0.2098 -0.8299
  106MPD2    H7 1660   3.667   4.320  17.037 -0.5975 -2.6270 -1.0693
  107TMC2    C1 1661   0.414   3.339  11.482  0.2529 -0.4534  0.7662
  107TMC2    C2 1662   0.484   3.451  11.451 -0.2590  0.2096  0.4585
  107TMC2    C3 1663   0.602   3.429  11.396 -0.2955  0.6201 -0.1489
  107TMC2    C4 1664   0.455   3.217  11.446  0.1014 -0.3846 -0.1612
  107TMC2    C5 1665   0.574   3.201  11.387 -0.2611 -0.3563  0.4666
  107TMC2    C6 1666   0.654   3.306  11.359  0.3666 -0.2177 -0.3898
  107TMC2     C 1667   0.277   3.367  11.516  0.0940 -0.6691 -0.5918
  107TMC2     O 1668   0.254   3.475  11.571  0.2688 -0.3848  0.2265
  107TMC2     H 1669   0.455   3.546  11.496  0.9438  0.1465  1.3669
  107TMC2    H1 1670   0.398   3.131  11.480 -0.9881  0.9013  1.2260
  107TMC2    H2 1671   0.751   3.293  11.312 -0.0857 -2.0298 -0.8302
  107TMC2    C7 1672   0.609   3.065  11.363  0.1803  0.1684  0.0881
  107TMC2    C8 1673   0.679   3.545  11.349 -0.1959  0.4157 -0.4914
  107TMC2    O1 1674   0.550   2.982  11.433 -0.1181 -0.0783 -0.3692
  107TMC2    O2 1675   0.739   3.549  11.240 -0.8451 -0.6298  0.0052
  107TMC2    O5 1676   0.723   3.607  11.465  0.4594  0.0317 -0.1624
  107TMC2    H5 1677   0.685   3.568  11.546 -1.9060  2.5204 -0.0554
  108MPD2     C 1678   4.703   3.197  11.375 -0.5427 -0.1513 -0.7888
  108MPD2    C1 1679   0.041   3.300  11.433  0.2116  0.7082 -1.0341
  108MPD2    C2 1680   4.710   3.411  11.478 -0.6097 -0.4045  0.5956
  108MPD2    C3 1681   4.577   3.411  11.471  0.6826 -0.0203 -0.3917
  108MPD2    C4 1682   4.504   3.315  11.407 -0.0719 -0.5222 -0.5809
  108MPD2    C5 1683   4.570   3.211  11.352 -0.4512  0.0399 -0.8360
  108MPD2     H 1684   0.027   3.500  11.512 -0.0962 -0.9168  1.1424
  108MPD2    H1 1685   4.396   3.321  11.404 -0.0110  0.7336 -0.3830
  108MPD2    H2 1686   0.005   3.101  11.342  1.4955  1.7060 -3.8078
  108MPD2    H3 1687   4.520   3.126  11.306 -0.9448  0.4989 -1.1597
  108MPD2     N 1688   4.499   3.508  11.535  0.5646 -0.4291  0.0420
  108MPD2    H5 1689   4.399   3.495  11.522  0.2429  1.0561  1.2009
  108MPD2    N1 1690   0.184   3.283  11.452 -0.5956  0.3466 -0.2223
  108MPD2    H7 1691   0.228   3.199  11.414 -0.9590 -0.0855  0.3100
  109TMC2    C1 1692   3.810   1.193   0.148 -0.6292  0.3318 -0.0171
  109TMC2    C2 1693   3.746   1.240   0.036 -0.1330 -0.3722  0.0722
  109TMC2    C3 1694   3.802   1.353  17.725 -0.3732  0.6433  0.2169
  109TMC2    C4 1695   3.926   1.248   0.206  0.2329 -0.3784 -0.0658
  109TMC2    C5 1696   3.987   1.349   0.138  0.2700  0.5454  0.1998
  109TMC2    C6 1697   3.925   1.403   0.020  0.7975  0.0863  0.2470
  109TMC2     C 1698   3.749   1.078   0.212  0.5558  0.0120  0.5675
  109TMC2     O 1699   3.673   1.012   0.147 -0.0400  0.9957 -0.3448
  109TMC2     H 1700   3.641   1.218   0.023 -0.4242  0.0439  1.7275
  109TMC2    H1 1701   3.973   1.202   0.292 -0.2048 -1.6063 -0.4806
  109TMC2    H2 1702   3.963   1.490  17.708 -0.0497 -0.1406 -0.7297
  109TMC2    C7 1703   4.114   1.384   0.183 -0.4609 -0.5897 -0.1565
  109TMC2    C8 1704   3.753   1.412  17.602  0.4705 -0.2281  0.1221
  109TMC2    O1 1705   4.150   1.367   0.300  0.6196  0.2147  0.3209
  109TMC2    O2 1706   3.802   1.508  17.550  0.0176 -0.6447 -0.0510
  109TMC2    O5 1707   3.663   1.321  17.547  0.4770 -0.2425 -0.0143
  109TMC2    H5 1708   3.670   1.227  17.575 -0.6643 -0.7049 -1.2504
  110MPD2     C 1709   3.552   0.873   0.614 -0.4707 -0.3382 -0.1665
  110MPD2    C1 1710   3.656   0.956   0.657  0.7714  1.2564  0.2881
  110MPD2    C2 1711   3.746   0.992   0.563 -0.4023  0.2378 -0.2087
  110MPD2    C3 1712   3.707   0.981   0.428 -0.9681 -0.7226 -0.7799
  110MPD2    C4 1713   3.608   0.894   0.391 -0.6576 -0.2483  0.3473
  110MPD2    C5 1714   3.533   0.830   0.486 -0.1041 -0.2876  0.6553
  110MPD2     H 1715   3.826   1.057   0.597  0.9075 -1.7571  0.5066
  110MPD2    H1 1716   3.589   0.870   0.287 -1.3417 -0.2029  0.4626
  110MPD2    H2 1717   3.482   0.835   0.687  0.8801 -0.6481  0.9674
  110MPD2    H3 1718   3.453   0.763   0.456  0.0126 -0.8640  1.6206
  110MPD2     N 1719   3.779   1.064   0.343  0.4565 -0.6155  0.4654
  110MPD2    H5 1720   3.848   1.123   0.389  0.6201 -0.7745  0.4246
  110MPD2    N1 1721   3.657   0.996   0.795  0.4278 -0.3558 -0.5574
  110MPD2    H7 1722   3.566   0.989   0.840  1.0155  1.3869  0.9173
  111TMC2    C1 1723   3.936   0.976  11.712  0.6005 -0.0673 -0.1009
  111TMC2    C2 1724   3.886   0.990  11.839 -0.4929 -0.4002 -0.3623
  111TMC2    C3 1725   3.950   0.920  11.939 -0.5473  0.4139  0.2368
  111TMC2    C4 1726   4.042   0.889  11.684 -0.1313  0.2375  0.4198
  111TMC2    C5 1727   4.097   0.816  11.788  0.3354 -0.0409  0.2259
  111TMC2    C6 1728   4.057   0.835  11.918  0.5558  0.4240 -0.1400
  111TMC2     C 1729   3.890   1.054  11.596  0.2185  0.9283 -0.5859
  111TMC2     O 1730   3.893   0.996  11.489 -0.4681 -0.1765  0.1153
  111TMC2     H 1731   3.802   1.052  11.870 -1.9598 -2.3814 -0.3679
  111TMC2    H1 1732   4.072   0.881  11.581 -0.9278  0.2911  0.1845
  111TMC2    H2 1733   4.094   0.765  11.992  1.3793  0.6795 -0.3033
  111TMC2    C7 1734   4.235   0.775  11.763  0.0307 -0.2790  0.0093
  111TMC2    C8 1735   3.900   0.931  12.077 -0.1851  0.6347 -0.0795
  111TMC2    O1 1736   4.309   0.786  11.860 -0.2639 -0.3137 -0.6650
  111TMC2    O2 1737   3.977   0.917  12.169  0.0115 -0.1150 -0.1891
  111TMC2    O5 1738   3.768   0.909  12.076 -0.0314  0.3263  0.0266
  111TMC2    H5 1739   3.729   0.915  11.986 -0.9688  1.1113  0.4864
  112MPD2     C 1740   3.906   1.493  11.333 -0.3902  1.2255  0.0494
  112MPD2    C1 1741   3.919   1.361  11.295  0.1706 -0.4662  0.4538
  112MPD2    C2 1742   3.905   1.265  11.388  0.6052  0.1033 -0.9166
  112MPD2    C3 1743   3.875   1.287  11.518  0.1670 -1.1513 -0.3104
  112MPD2    C4 1744   3.852   1.417  11.552 -0.2853  0.4838  0.7439
  112MPD2    C5 1745   3.862   1.519  11.460 -0.0732 -0.3322  0.1013
  112MPD2     H 1746   3.927   1.167  11.348  1.1350 -0.7366  1.4439
  112MPD2    H1 1747   3.831   1.450  11.653  0.9189 -1.7679  1.7103
  112MPD2    H2 1748   3.912   1.577  11.265 -0.0238 -0.4621 -1.9777
  112MPD2    H3 1749   3.842   1.623  11.484 -1.8709 -0.2709 -1.6733
  112MPD2     N 1750   3.874   1.189  11.616  0.1832  0.3084 -0.6763
  112MPD2    H5 1751   3.873   1.236  11.705 -1.4371 -1.0592  0.0208
  112MPD2    N1 1752   3.960   1.313  11.166 -0.7688  0.4362  0.9278
  112MPD2    H7 1753   4.000   1.220  11.163  2.8027  2.0680 -0.8731
  113TMC2    C1 1754   2.224   4.073   0.434  0.0806 -0.6637 -0.1501
  113TMC2    C2 1755   2.113   4.148   0.448  0.6769  0.4338 -0.5454
  113TMC2    C3 1756   2.016   4.126   0.356  0.4588  0.7545 -0.3565
  113TMC2    C4 1757   2.221   3.960   0.362 -0.9318  0.0875 -0.3592
  113TMC2    C5 1758   2.116   3.935   0.278 -0.0160 -0.4773  0.0195
  113TMC2    C6 1759   2.019   4.025   0.265  0.7295  0.1638  0.1165
  113TMC2     C 1760   2.323   4.083   0.540  0.0891  0.1584  0.2175
  113TMC2     O 1761   2.290   4.151   0.638 -0.0845  0.5303 -0.3470
  113TMC2     H 1762   2.110   4.214   0.534 -0.4067 -0.1984 -0.1061
  113TMC2    H1 1763   2.300   3.887   0.376  0.4136  1.6140 -0.0422
  113TMC2    H2 1764   1.936   4.005   0.198 -0.0331  2.0265  0.5058
  113TMC2    C7 1765   2.094   3.804   0.227 -0.3322  0.4793 -0.4062
  113TMC2    C8 1766   1.886   4.184   0.376 -0.8056  0.5131 -0.1907
  113TMC2    O1 1767   1.992   3.789   0.160 -0.6203 -0.3483  0.6709
  113TMC2    O2 1768   1.849   4.225   0.482  0.2103 -0.2097 -0.6089
  113TMC2    O5 1769   1.814   4.204   0.256 -0.1456 -0.1954  0.1585
  113TMC2    H5 1770   1.866   4.209   0.172 -2.0032 -1.1163 -1.0335
  114MPD2     C 1771   2.764   3.980   0.793  0.3067 -0.4051 -0.1438
  114MPD2    C1 1772   2.654   4.062   0.831  0.7635  0.4758 -0.7871
  114MPD2    C2 1773   2.546   4.071   0.747  0.0964  0.0361 -0.4432
  114MPD2    C3 1774   2.537   4.001   0.626  0.4051 -0.0680  0.4507
  114MPD2    C4 1775   2.638   3.907   0.597  0.4226 -0.1300 -0.5484
  114MPD2    C5 1776   2.750   3.901   0.680 -0.4077 -0.1430 -0.3448
  114MPD2     H 1777   2.465   4.134   0.780 -1.0398 -1.0406 -1.1635
  114MPD2    H1 1778   2.653   3.870   0.496  1.6767  1.8552 -1.0964
  114MPD2    H2 1779   2.854   3.968   0.852 -0.9341  1.5211  2.1590
  114MPD2    H3 1780   2.841   3.848   0.655 -0.6810 -0.4565 -0.6897
  114MPD2     N 1781   2.443   4.014   0.527 -0.0254 -0.0568 -0.2428
  114MPD2    H5 1782   2.452   3.948   0.450  0.3637 -1.1324  0.7229
  114MPD2    N1 1783   2.656   4.146   0.945  0.5075  0.4936 -0.0360
  114MPD2    H7 1784   2.583   4.213   0.964  0.2140  0.8506 -2.3453
  115TMC2    C1 1785   3.297   2.021   0.273  0.6844 -0.0471 -0.1618
  115TMC2    C2 1786   3.258   2.000   0.401 -0.7195  0.7679 -0.1051
  115TMC2    C3 1787   3.238   2.106   0.486 -0.1342 -0.0898 -0.1587
  115TMC2    C4 1788   3.316   2.142   0.215 -0.6529 -0.1935 -0.9917
  115TMC2    C5 1789   3.305   2.244   0.303 -0.0005  0.5863  0.3409
  115TMC2    C6 1790   3.268   2.230   0.436 -0.1355  0.4255  0.5524
  115TMC2     C 1791   3.292   1.915   0.171  0.3556  0.1710  0.0678
  115TMC2     O 1792   3.321   1.940   0.054 -0.1427 -0.3823  0.3379
  115TMC2     H 1793   3.262   1.904   0.450 -0.7255  1.4178  1.1769
  115TMC2    H1 1794   3.309   2.150   0.108 -4.4594 -1.4918 -0.8730
  115TMC2    H2 1795   3.262   2.315   0.502  0.4633  0.1893  0.9122
  115TMC2    C7 1796   3.413   2.331   0.291  0.6018 -0.0365 -0.0253
  115TMC2    C8 1797   3.241   2.084   0.626  0.9634 -0.3048  0.0535
  115TMC2    O1 1798   3.437   2.395   0.393  0.0322  0.5502 -0.2837
  115TMC2    O2 1799   3.315   2.006   0.685  0.2719  0.4582  0.1272
  115TMC2    O5 1800   3.197   2.193   0.687  0.0284 -0.6410  0.0280
  115TMC2    H5 1801   3.119   2.221   0.635 -0.1721 -1.7565 -0.2792
  116MPD2     C 1802   3.097   1.454   0.058  0.3468 -0.4556 -0.6274
  116MPD2    C1 1803   3.125   1.556  17.713 -0.5906 -0.1083  0.4645
  116MPD2    C2 1804   3.184   1.668   0.022 -0.1342 -0.2377 -0.0799
  116MPD2    C3 1805   3.205   1.680   0.160 -0.0737 -0.3038  0.2447
  116MPD2    C4 1806   3.179   1.575   0.241  0.0769  0.1996 -0.0548
  116MPD2    C5 1807   3.123   1.463   0.193  0.4366  0.1087 -0.2894
  116MPD2     H 1808   3.200   1.751  17.695  1.7722  1.2775  2.1756
  116MPD2    H1 1809   3.196   1.584   0.348 -2.8528 -1.2915  0.5411
  116MPD2    H2 1810   3.049   1.361   0.028 -2.1735  0.3699  0.8220
  116MPD2    H3 1811   3.099   1.382   0.260 -1.4871  0.3957 -0.6267
  116MPD2     N 1812   3.254   1.797   0.224 -0.1802  0.0081 -0.0452
  116MPD2    H5 1813   3.251   1.797   0.326  2.0129  1.5059  0.0329
  116MPD2    N1 1814   3.088   1.545  17.575  0.0379  0.0410 -0.1349
  116MPD2    H7 1815   3.062   1.450  17.549  2.7128 -0.9377  0.7083
  117TMC2    C1 1816   2.177   2.938  13.951  0.1503 -0.2508 -0.4612
  117TMC2    C2 1817   2.298   2.898  13.984  0.3028 -0.1959  0.2065
  117TMC2    C3 1818   2.387   2.994  14.028  0.1118  0.4326  0.2555
  117TMC2    C4 1819   2.135   3.070  13.965 -0.1457 -0.4329  0.3483
  117TMC2    C5 1820   2.229   3.161  14.013  0.2359 -0.5803  0.7555
  117TMC2    C6 1821   2.348   3.122  14.051 -0.0249  0.5538 -0.4790
  117TMC2     C 1822   2.097   2.829  13.903  0.0107  0.3792 -0.2218
  117TMC2     O 1823   2.154   2.728  13.859  0.7590  0.7218 -0.0653
  117TMC2     H 1824   2.339   2.801  13.955 -3.4757 -2.2823  1.8897
  117TMC2    H1 1825   2.038   3.091  13.920  0.5399  0.8892 -0.5210
  117TMC2    H2 1826   2.426   3.191  14.084  1.2929 -1.3273  0.3371
  117TMC2    C7 1827   2.212   3.307  13.986  0.5869 -0.5197 -0.7376
  117TMC2    C8 1828   2.506   2.957  14.102 -0.0716 -0.4511  0.1192
  117TMC2    O1 1829   2.314   3.374  13.968  0.1915  0.3361 -0.3822
  117TMC2    O2 1830   2.544   3.020  14.200 -0.2118 -0.3571  0.1290
  117TMC2    O5 1831   2.570   2.874  14.024 -0.4630 -0.2888  0.2186
  117TMC2    H5 1832   2.534   2.883  13.933  3.1648 -0.1407 -1.2177
  118MPD2     C 1833   1.901   3.478  13.901  0.1530  0.4899 -0.3052
  118MPD2    C1 1834   2.034   3.452  13.896 -0.1338 -0.7649 -0.0195
  118MPD2    C2 1835   2.119   3.551  13.842 -0.6087 -0.0666  0.1125
  118MPD2    C3 1836   2.067   3.670  13.779 -0.4398 -0.6714 -0.5278
  118MPD2    C4 1837   1.932   3.691  13.789 -0.6576 -0.5024  0.5829
  118MPD2    C5 1838   1.856   3.600  13.862 -0.0449 -0.1997 -0.3196
  118MPD2     H 1839   2.225   3.530  13.842 -0.6121 -0.0856  0.2593
  118MPD2    H1 1840   1.896   3.788  13.756 -0.3101 -0.3275  0.7234
  118MPD2    H2 1841   1.827   3.405  13.931  0.8831 -0.1832 -0.1423
  118MPD2    H3 1842   1.751   3.626  13.864  0.3740  1.4076  1.0095
  118MPD2     N 1843   2.136   3.766  13.704  0.1695 -0.1124  0.2170
  118MPD2    H5 1844   2.093   3.846  13.658  0.2838 -0.0565  0.2050
  118MPD2    N1 1845   2.080   3.332  13.957 -0.5338  0.0653  0.1826
  118MPD2    H7 1846   2.010   3.266  13.990 -0.6059 -0.8859 -1.8403
  119TMC2    C1 1847   0.275   4.133  13.498 -0.4060 -0.4041 -0.4475
  119TMC2    C2 1848   0.345   4.024  13.453 -0.3990 -0.0085 -0.2411
  119TMC2    C3 1849   0.279   3.903  13.454 -0.0197 -0.4459  1.2763
  119TMC2    C4 1850   0.147   4.118  13.539 -0.1677 -0.7996 -0.0961
  119TMC2    C5 1851   0.082   3.998  13.527  0.1049 -0.4725  1.1077
  119TMC2    C6 1852   0.151   3.882  13.504  0.6553 -0.1424  0.0530
  119TMC2     C 1853   0.337   4.262  13.490  0.6712  0.0117  0.4110
  119TMC2     O 1854   0.264   4.349  13.521  0.7002  0.0789  0.3337
  119TMC2     H 1855   0.436   4.026  13.395  0.5011  0.0071  1.1705
  119TMC2    H1 1856   0.082   4.204  13.547  2.6227  1.3854 -0.8665
  119TMC2    H2 1857   0.105   3.784  13.501 -1.6446  0.9860 -2.1597
  119TMC2    C7 1858   4.671   3.984  13.558  0.1149  0.1587 -0.7683
  119TMC2    C8 1859   0.363   3.792  13.440  1.0210 -0.1293 -0.2384
  119TMC2    O1 1860   4.604   4.082  13.532 -0.1052 -0.3830 -0.1794
  119TMC2    O2 1861   0.477   3.796  13.393  0.1283  0.3809 -0.0810
  119TMC2    O5 1862   0.341   3.722  13.551 -0.1898 -0.0288  0.2398
  119TMC2    H5 1863   0.250   3.717  13.587 -0.1822 -0.1313  0.2462
  120MPD2     C 1864   0.709   4.595  13.505 -0.5784  0.0398  0.3928
  120MPD2    C1 1865   0.575   4.612  13.515  0.9201 -0.2427 -0.0491
  120MPD2    C2 1866   0.503   4.497  13.488 -0.0643  0.5770  0.6956
  120MPD2    C3 1867   0.558   4.372  13.480 -0.2501 -0.0405 -0.3536
  120MPD2    C4 1868   0.695   4.357  13.481 -0.9657  0.1135  0.0164
  120MPD2    C5 1869   0.765   4.472  13.490  0.4218 -0.0903  0.2649
  120MPD2     H 1870   0.402   4.512  13.452 -0.0362 -1.7879 -0.4145
  120MPD2    H1 1871   0.742   4.260  13.471  0.1995  0.4974  1.7221
  120MPD2    H2 1872   0.775   4.679  13.522 -1.1698  0.9000 -1.4607
  120MPD2    H3 1873   0.872   4.460  13.501  0.4155 -0.3058  0.0867
  120MPD2     N 1874   0.469   4.261  13.467  0.2755  0.2521 -0.2513
  120MPD2    H5 1875   0.507   4.168  13.478 -2.7519 -0.9614  0.1199
  120MPD2    N1 1876   0.521   0.008  13.507 -0.7010  0.6298  0.1485
  120MPD2    H7 1877   0.577   0.086  13.475  2.0460  0.0272  3.6306
  121TMC2    C1 1878   1.784   1.490  14.247  0.4893  1.0862  0.5435
  121TMC2    C2 1879   1.724   1.406  14.338 -0.4827  0.2744 -0.1262
  121TMC2    C3 1880   1.590   1.405  14.349 -0.3553 -0.1250 -0.5658
  121TMC2    C4 1881   1.711   1.565  14.164  0.1366 -0.3210  0.4861
  121TMC2    C5 1882   1.574   1.556  14.173 -0.1428  0.5366  0.3881
  121TMC2    C6 1883   1.516   1.483  14.269 -0.4487  0.2890 -0.4621
  121TMC2     C 1884   1.929   1.494  14.244  0.6384 -0.7569 -0.0751
  121TMC2     O 1885   1.990   1.452  14.339  0.3766 -0.4542  0.2868
  121TMC2     H 1886   1.794   1.354  14.403  0.2864  1.7298  0.2154
  121TMC2    H1 1887   1.751   1.626  14.083  1.9688 -2.3202 -0.1167
  121TMC2    H2 1888   1.409   1.486  14.286 -0.2404  1.3750  0.6346
  121TMC2    C7 1889   1.491   1.612  14.069 -0.1780 -0.4127  0.2816
  121TMC2    C8 1890   1.516   1.344  14.462  0.2076  0.7867  0.5161
  121TMC2    O1 1891   1.542   1.705  14.006 -0.6389  0.5395  0.0369
  121TMC2    O2 1892   1.403   1.387  14.481 -0.1022 -0.3795 -0.8332
  121TMC2    O5 1893   1.599   1.267  14.537  0.1378 -0.0136 -0.2769
  121TMC2    H5 1894   1.683   1.234  14.500  0.1282 -0.7134  0.3325
  122MPD2     C 1895   2.223   1.443  14.180 -0.2623  0.2594  0.0964
  122MPD2    C1 1896   2.114   1.457  14.089 -0.6286  0.6086  0.1872
  122MPD2    C2 1897   2.142   1.437  13.954 -0.1618  0.2583  0.3152
  122MPD2    C3 1898   2.270   1.384  13.919  0.2654 -0.0920 -0.5230
  122MPD2    C4 1899   2.368   1.361  14.016  0.5120 -0.4812  0.3994
  122MPD2    C5 1900   2.342   1.404  14.139  0.8222  0.0957  0.6349
  122MPD2     H 1901   2.059   1.453  13.886 -0.8765  0.5380  1.2543
  122MPD2    H1 1902   2.469   1.337  13.987  0.4832 -0.4626  0.2832
  122MPD2    H2 1903   2.205   1.455  14.286 -1.4494  1.1909 -0.2045
  122MPD2    H3 1904   2.418   1.410  14.217  3.8103 -0.6438 -2.2424
  122MPD2     N 1905   2.302   1.347  13.784  0.1389 -0.2385  0.5171
  122MPD2    H5 1906   2.400   1.322  13.770 -0.4515 -1.8192 -0.8682
  122MPD2    N1 1907   1.981   1.497  14.114  0.0662 -0.1426 -0.1015
  122MPD2    H7 1908   1.925   1.530  14.036 -0.4781 -1.8090 -0.4107
  123TMC2    C1 1909   1.314   4.388  10.595  0.6203  0.8198  0.1369
  123TMC2    C2 1910   1.406   4.404  10.496  0.0244 -0.1393  0.0512
  123TMC2    C3 1911   1.403   4.508  10.421 -0.1333  0.2045 -0.0712
  123TMC2    C4 1912   1.210   4.476  10.606  0.4298  0.1049 -0.2459
  123TMC2    C5 1913   1.209   4.582  10.522  0.1054  0.0087  0.7344
  123TMC2    C6 1914   1.312   4.603  10.431  0.0856  0.1742 -0.1357
  123TMC2     C 1915   1.304   4.254  10.649 -0.4222 -0.5974 -0.3259
  123TMC2     O 1916   1.378   4.166  10.617 -0.1118  0.1428 -0.4986
  123TMC2     H 1917   1.484   4.329  10.495  0.3818  0.2270  0.6972
  123TMC2    H1 1918   1.135   4.469  10.685 -0.5538  1.7717 -1.0397
  123TMC2    H2 1919   1.314   4.683  10.358  0.2740  0.5350  0.2679
  123TMC2    C7 1920   1.083   4.641  10.500 -0.0795 -0.4221  0.8810
  123TMC2    C8 1921   1.528   4.549  10.354  0.2950 -0.3599 -0.4778
  123TMC2    O1 1922   0.990   4.577  10.548  0.6899  0.5196 -0.3932
  123TMC2    O2 1923   1.546   4.656  10.296 -0.5545 -0.1409  0.2686
  123TMC2    O5 1924   1.591   4.436  10.323  0.0493 -0.3578 -0.2293
  123TMC2    H5 1925   1.540   4.353  10.333  0.3513 -0.6877 -1.3889
  124MPD2     C 1926   1.002   3.894  10.860  0.1295  0.0315 -0.4050
  124MPD2    C1 1927   0.932   4.009  10.850  0.7689  0.0715 -0.3130
  124MPD2    C2 1928   1.002   4.120  10.809  0.8617 -0.0019  0.3709
  124MPD2    C3 1929   1.138   4.119  10.782  0.0147 -0.6095  0.0204
  124MPD2    C4 1930   1.206   4.007  10.807 -0.4756  0.2955 -0.0132
  124MPD2    C5 1931   1.137   3.892  10.840 -0.5732  0.4962 -0.0460
  124MPD2     H 1932   0.940   4.203  10.779 -0.6248 -1.4554 -0.5558
  124MPD2    H1 1933   1.314   4.009  10.814 -0.4849  1.7024 -0.2453
  124MPD2    H2 1934   0.958   3.799  10.886 -3.2910  1.8157  0.2999
  124MPD2    H3 1935   1.183   3.797  10.866 -1.7428 -0.9169 -3.1965
  124MPD2     N 1936   1.189   4.239  10.720  0.0639  0.1771  0.3647
  124MPD2    H5 1937   1.112   4.302  10.702  0.8123  0.7798 -0.7041
  124MPD2    N1 1938   0.787   4.015  10.867 -0.4813  0.2836  0.3278
  124MPD2    H7 1939   0.745   3.923  10.861 -0.3424  0.3428 -1.5193
  125TMC2    C1 1940   0.790   2.050   9.773  0.0340  0.2873  0.3038
  125TMC2    C2 1941   0.844   1.928   9.811 -0.2008  0.4167  0.0435
  125TMC2    C3 1942   0.865   1.840   9.715 -0.9545 -0.0817 -0.0238
  125TMC2    C4 1943   0.758   2.080   9.640 -0.5725 -0.0612  0.5066
  125TMC2    C5 1944   0.801   1.995   9.548 -0.2586 -0.5584  0.2703
  125TMC2    C6 1945   0.849   1.868   9.580 -0.3156  0.3017  0.3530
  125TMC2     C 1946   0.747   2.139   9.878  0.2738  0.1946 -1.0204
  125TMC2     O 1947   0.808   2.120   9.980  1.0306 -0.3644  0.3602
  125TMC2     H 1948   0.836   1.894   9.914  0.0337  0.5207  0.0954
  125TMC2    H1 1949   0.730   2.180   9.607  2.2611  0.4688 -0.2928
  125TMC2    H2 1950   0.889   1.792   9.515  2.0653  1.7945  0.0620
  125TMC2    C7 1951   0.796   2.033   9.404 -0.1932 -0.3554  0.0053
  125TMC2    C8 1952   0.910   1.706   9.738  0.7060  0.5309  0.2825
  125TMC2    O1 1953   0.715   2.117   9.370  0.1487 -0.4674 -0.1639
  125TMC2    O2 1954   0.913   1.616   9.654  0.0538 -0.4713  0.5193
  125TMC2    O5 1955   0.969   1.699   9.859  0.2151 -0.4611 -0.1994
  125TMC2    H5 1956   0.985   1.788   9.898 -0.0664 -0.1489 -0.7884
  126MPD1     C 1957   0.495   2.538  10.051  0.1894  0.2765 -0.1672
  126MPD1    C1 1958   0.449   2.513   9.921  0.2532  0.0957  0.2228
  126MPD1    C2 1959   0.494   2.398   9.857 -0.1760 -0.7543  0.1244
  126MPD1    C3 1960   0.593   2.323   9.911  0.3720  0.1785 -0.2766
  126MPD1    C4 1961   0.641   2.350  10.037  0.3499 -1.1336 -0.0931
  126MPD1    C5 1962   0.593   2.464  10.105 -0.2294 -0.2049 -0.2836
  126MPD1     H 1963   0.444   2.364   9.767 -2.1100  2.4232  0.0089
  126MPD1    H1 1964   0.706   2.283  10.092 -0.0444 -1.2456  0.2294
  126MPD1    H2 1965   0.465   2.628  10.103 -0.5189 -0.6692  1.0630
  126MPD1    H3 1966   0.641   2.489  10.199 -1.5537 -1.5423  0.7516
  126MPD1     N 1967   0.655   2.225   9.835  0.0320 -0.8484 -0.3063
  126MPD1    H5 1968   0.611   2.219   9.744 -0.7702  0.0372  0.0344
  126MPD1    N1 1969   0.337   2.597   9.881  0.4560  0.1286  0.1014
  126MPD1    H6 1970   0.314   2.602   9.782  0.7497  1.0856  0.0744
  126MPD1    H7 1971   0.355   2.696   9.899 -1.9459  0.5929 -0.0381
  127TMC2    C1 1972   1.806   0.239   9.844 -0.4023 -0.2333 -0.1155
  127TMC2    C2 1973   1.871   0.236   9.962 -0.2082  0.3284  0.2389
  127TMC2    C3 1974   1.811   0.167  10.062 -0.8157  0.5958 -0.2184
  127TMC2    C4 1975   1.676   0.183   9.833 -0.2914  0.4285  0.0874
  127TMC2    C5 1976   1.619   0.124   9.941  0.5778 -0.1346 -0.5365
  127TMC2    C6 1977   1.683   0.112  10.059 -0.1269  1.3363 -0.5736
  127TMC2     C 1978   1.845   0.332   9.750 -0.0741  0.1144 -0.0926
  127TMC2     O 1979   1.960   0.362   9.730  0.5407 -0.3561 -0.6542
  127TMC2     H 1980   1.973   0.269   9.976  0.1409 -0.1846 -1.0389
  127TMC2    H1 1981   1.633   0.149   9.739  3.1708 -2.0539 -0.6052
  127TMC2    H2 1982   1.645   0.056  10.144  0.5053 -1.5266 -2.1805
  127TMC2    C7 1983   1.479   0.084   9.921 -0.5442 -0.7036  0.2623
  127TMC2    C8 1984   1.877   0.170  10.192 -0.2240 -0.3798 -0.4764
  127TMC2    O1 1985   1.424   0.121   9.823 -0.4214 -0.0759 -0.1249
  127TMC2    O2 1986   1.998   0.192  10.199 -0.5165  0.2568  0.3893
  127TMC2    O5 1987   1.781   0.236  10.266 -0.9364  0.4248 -0.4441
  127TMC2    H5 1988   1.694   0.250  10.224 -1.9386  0.1268  1.5528
  128MPD2     C 1989   1.595   0.491   9.519 -0.2986 -0.1073 -0.0307
  128MPD2    C1 1990   1.722   0.473   9.580  0.0982 -0.5673 -0.7080
  128MPD2    C2 1991   1.828   0.556   9.539 -0.1970  0.3649 -0.5247
  128MPD2    C3 1992   1.817   0.650   9.444 -0.0982 -0.3180  0.0214
  128MPD2    C4 1993   1.687   0.661   9.385 -0.4505  0.8282  0.1935
  128MPD2    C5 1994   1.582   0.580   9.420  0.0382  0.0608 -0.4482
  128MPD2     H 1995   1.923   0.534   9.585 -0.6740  1.2179  0.8740
  128MPD2    H1 1996   1.666   0.746   9.322  0.0232  0.5746 -0.3064
  128MPD2    H2 1997   1.512   0.424   9.535  0.9125 -1.5563  0.2594
  128MPD2    H3 1998   1.490   0.591   9.363  0.8739  0.9850 -1.6145
  128MPD2     N 1999   1.932   0.728   9.404  0.6873 -0.4372 -0.3792
  128MPD2    H5 2000   2.021   0.695   9.439 -0.2081 -2.6877 -0.2007
  128MPD2    N1 2001   1.730   0.375   9.685  0.6202  0.3093 -0.0192
  128MPD2    H7 2002   1.649   0.314   9.688  0.1856  0.9085  0.4218
  129TMC2    C1 2003   1.079   0.568   1.485  0.3631  0.3631 -0.4037
  129TMC2    C2 2004   1.038   0.695   1.528 -0.4833  0.0215 -0.4628
  129TMC2    C3 2005   0.907   0.722   1.549  0.4520 -0.6333 -0.7351
  129TMC2    C4 2006   0.982   0.483   1.451 -0.2478  0.5262  0.6429
  129TMC2    C5 2007   0.850   0.516   1.457 -0.6790  0.1897 -0.1782
  129TMC2    C6 2008   0.805   0.634   1.508 -0.1889  0.0729 -0.5688
  129TMC2     C 2009   1.194   0.557   1.409 -0.1404  0.0433  0.4620
  129TMC2     O 2010   1.207   0.459   1.335 -0.2472  0.1526  0.8743
  129TMC2     H 2011   1.104   0.776   1.556 -1.2770  1.0565 -1.5621
  129TMC2    H1 2012   1.004   0.380   1.427  0.4845  0.5557  1.1787
  129TMC2    H2 2013   0.700   0.660   1.509  0.0308  0.9092  0.8384
  129TMC2    C7 2014   0.742   0.424   1.440  1.5511  0.1433 -0.0896
  129TMC2    C8 2015   0.865   0.864   1.530  0.4957 -0.1596 -0.1328
  129TMC2    O1 2016   0.631   0.469   1.449  0.5164 -0.4912  0.0314
  129TMC2    O2 2017   0.936   0.963   1.492 -0.3765  0.4613 -0.4283
  129TMC2    O5 2018   0.741   0.879   1.578  0.6095  0.0260 -0.0634
  129TMC2    H5 2019   0.717   0.799   1.630  2.5356 -0.6540 -0.1991
  130MPD2     C 2020   1.411   0.620   1.201 -0.2543 -0.4412 -0.8787
  130MPD2    C1 2021   1.369   0.697   1.307  0.1506 -0.7039 -0.1810
  130MPD2    C2 2022   1.433   0.818   1.323  0.6133 -0.3731 -0.5472
  130MPD2    C3 2023   1.533   0.866   1.233 -0.4167 -0.1805  0.9311
  130MPD2    C4 2024   1.572   0.785   1.130 -0.5544 -0.4124  0.3271
  130MPD2    C5 2025   1.500   0.670   1.108 -0.4500 -0.1730 -0.0076
  130MPD2     H 2026   1.402   0.894   1.394  0.5621  0.2166 -1.1971
  130MPD2    H1 2027   1.648   0.806   1.055 -1.4251  0.3959 -0.3376
  130MPD2    H2 2028   1.373   0.521   1.178 -1.6961 -0.0476 -0.2193
  130MPD2    H3 2029   1.518   0.619   1.014 -1.4012 -1.4128  0.5013
  130MPD2     N 2030   1.589   0.994   1.244 -0.0164  0.0901  0.1839
  130MPD2    H5 2031   1.544   1.055   1.312 -0.6871 -1.5615  1.2262
  130MPD2    N1 2032   1.263   0.671   1.401  0.2326  0.0752  0.4554
  130MPD2    H7 2033   1.251   0.740   1.474 -0.5397 -0.0040  0.3936
  131TMC2    C1 2034   0.666   0.212  10.476  0.2160 -0.5984  0.1342
  131TMC2    C2 2035   0.783   0.242  10.538 -0.0346 -0.4726 -0.1602
  131TMC2    C3 2036   0.831   0.365  10.518 -0.1957  0.6153  0.1362
  131TMC2    C4 2037   0.598   0.297  10.391 -0.6637 -0.2493  0.0897
  131TMC2    C5 2038   0.659   0.421  10.366  0.2313  0.2982 -0.1317
  131TMC2    C6 2039   0.773   0.460  10.432  0.6337 -0.3331 -0.4134
  131TMC2     C 2040   0.598   0.089  10.517 -0.1896 -0.2002 -0.7342
  131TMC2     O 2041   0.645   0.038  10.620 -0.5578 -0.6867 -0.1547
  131TMC2     H 2042   0.829   0.165  10.598 -1.4567 -1.4200 -0.3118
  131TMC2    H1 2043   0.503   0.276  10.344 -0.4297  1.8215 -1.3124
  131TMC2    H2 2044   0.804   0.564  10.437  0.4152 -0.4766  3.3022
  131TMC2    C7 2045   0.573   0.528  10.310 -0.5829 -0.2800 -0.2188
  131TMC2    C8 2046   0.980   0.382  10.568  0.0703 -0.5176  0.1188
  131TMC2    O1 2047   0.460   0.488  10.286 -0.6059  0.1574  0.1136
  131TMC2    O2 2048   1.034   0.309  10.649 -0.4665  0.0748  0.1171
  131TMC2    O5 2049   1.045   0.428  10.456  0.5996  0.1575  0.4193
  131TMC2    H5 2050   0.990   0.489  10.403  0.4711 -2.0242 -2.0088
  132MPD2     C 2051   0.283   4.683  10.397  0.1982 -0.1349 -0.0157
  132MPD2    C1 2052   0.388   4.698  10.477  0.2358 -0.1178 -0.3205
  132MPD2    C2 2053   0.412   4.595  10.573  0.4617 -0.0750  0.2354
  132MPD2    C3 2054   0.327   4.482  10.583  0.1727  0.0661  0.3757
  132MPD2    C4 2055   0.208   4.483  10.511  0.1674 -0.0210  0.0489
  132MPD2    C5 2056   0.191   4.580  10.415  0.0730  0.2943 -0.2506
  132MPD2     H 2057   0.501   4.603  10.634  0.5282  3.0516 -0.2846
  132MPD2    H1 2058   0.141   4.398  10.509 -0.1083  0.1761  1.3428
  132MPD2    H2 2059   0.276   0.019  10.316 -2.0159 -0.1212  0.2082
  132MPD2    H3 2060   0.111   4.563  10.344  0.2301 -1.7074  0.0445
  132MPD2     N 2061   0.364   4.381  10.678  0.5131 -0.3002 -0.9283
  132MPD2    H5 2062   0.444   4.406  10.736 -0.2207 -0.0321 -0.0269
  132MPD2    N1 2063   0.483   0.064  10.450 -0.6666 -0.6459  0.0334
  132MPD2    H7 2064   0.461   0.115  10.366  2.4123  0.3216 -0.2071
  133TMC2    C1 2065   3.415   3.968   9.830 -0.3791 -0.0597  0.3891
  133TMC2    C2 2066   3.279   3.947   9.829  0.6191 -0.2408 -0.1269
  133TMC2    C3 2067   3.239   3.842   9.904 -1.2996  0.1331  0.6451
  133TMC2    C4 2068   3.496   3.882   9.894  0.3704  0.1847  0.3106
  133TMC2    C5 2069   3.447   3.769   9.956  0.2238  0.3995 -0.4175
  133TMC2    C6 2070   3.316   3.747   9.964 -0.1906 -0.2280 -0.4898
  133TMC2     C 2071   3.460   4.064   9.728 -0.6437 -1.1022  0.1474
  133TMC2     O 2072   3.380   4.150   9.698 -0.4188  0.1086 -0.2722
  133TMC2     H 2073   3.209   4.014   9.780  0.2682 -0.0598  0.6154
  133TMC2    H1 2074   3.601   3.905   9.904  0.2413  0.5598  0.8138
  133TMC2    H2 2075   3.270   3.671  10.026  0.0935 -1.5679 -1.9248
  133TMC2    C7 2076   3.526   3.690  10.042  0.7342 -0.2180  0.3926
  133TMC2    C8 2077   3.094   3.829   9.916  0.5014 -0.1074  0.0301
  133TMC2    O1 2078   3.470   3.643  10.141  0.9517  0.0380  0.6895
  133TMC2    O2 2079   3.019   3.920   9.938 -0.2046 -0.0903 -0.3392
  133TMC2    O5 2080   3.065   3.698   9.927 -0.1849  0.3304  0.1554
  133TMC2    H5 2081   3.143   3.643   9.904 -1.1052 -1.9899  2.6756
  134MPD2     C 2082   3.665   3.969   9.438  0.3720  0.6522  0.1694
  134MPD2    C1 2083   3.609   4.057   9.526  0.1334  0.4324  0.2630
  134MPD2    C2 2084   3.596   4.193   9.495  0.0156  0.3515  0.4525
  134MPD2    C3 2085   3.647   4.253   9.379  0.2722 -0.3109 -0.3189
  134MPD2    C4 2086   3.716   4.164   9.303 -0.0294  0.3627 -0.0148
  134MPD2    C5 2087   3.722   4.025   9.325  0.4388  0.1221  0.8051
  134MPD2     H 2088   3.568   4.261   9.574  3.3590 -0.3342  2.2272
  134MPD2    H1 2089   3.772   4.200   9.218  0.7570  1.0368  0.7846
  134MPD2    H2 2090   3.683   3.864   9.459 -0.8221  0.4694  0.2910
  134MPD2    H3 2091   3.784   3.961   9.264  0.4141 -0.9099  1.8603
  134MPD2     N 2092   3.636   4.391   9.341 -0.1102  0.7929 -0.1880
  134MPD2    H5 2093   3.692   4.423   9.263 -0.4378 -0.1794 -0.8283
  134MPD2    N1 2094   3.555   4.008   9.644 -0.2331 -0.1639 -0.1260
  134MPD2    H7 2095   3.587   3.916   9.672 -1.9188 -0.9496 -0.7794
  135TMC2    C1 2096   2.018   2.334   9.704 -0.4716 -0.5726 -0.7856
  135TMC2    C2 2097   2.142   2.376   9.686  0.6617 -0.1933 -0.1365
  135TMC2    C3 2098   2.213   2.436   9.786 -0.1886 -0.2424 -0.5934
  135TMC2    C4 2099   1.953   2.363   9.823 -0.3403 -0.0660 -0.5223
  135TMC2    C5 2100   2.033   2.413   9.927  0.1521  0.2459 -0.2095
  135TMC2    C6 2101   2.168   2.449   9.916  0.6430  0.3538 -0.1523
  135TMC2     C 2102   1.936   2.366   9.592 -0.0309 -0.7583 -0.0132
  135TMC2     O 2103   1.827   2.420   9.615  0.1214  0.0963 -0.2179
  135TMC2     H 2104   2.194   2.364   9.591 -0.9170  0.3152 -1.0515
  135TMC2    H1 2105   1.846   2.371   9.842 -0.3841  0.6905 -1.0725
  135TMC2    H2 2106   2.222   2.480  10.005  0.8580 -1.0952  0.2160
  135TMC2    C7 2107   1.981   2.426  10.060  0.2519  0.8682  0.3737
  135TMC2    C8 2108   2.358   2.443   9.762  0.0463  0.2120  0.2700
  135TMC2    O1 2109   2.028   2.525  10.115  0.1455 -0.3272 -0.5886
  135TMC2    O2 2110   2.423   2.399   9.668  0.3225  0.3568 -0.1582
  135TMC2    O5 2111   2.418   2.534   9.842 -0.0300 -0.4324  0.5392
  135TMC2    H5 2112   2.351   2.585   9.893 -0.3666  0.6306 -0.9928
  136MPD2     C 2113   1.795   2.379   9.333 -0.1672 -1.1458 -0.0079
  136MPD2    C1 2114   1.905   2.295   9.354  0.6247 -0.2488 -0.4206
  136MPD2    C2 2115   1.931   2.190   9.266 -0.2136 -0.3856  0.1543
  136MPD2    C3 2116   1.867   2.184   9.148 -0.2196 -0.0085 -0.7601
  136MPD2    C4 2117   1.753   2.264   9.126  0.6046 -0.2067 -0.7441
  136MPD2    C5 2118   1.724   2.365   9.217 -0.0511  0.0377  0.1004
  136MPD2     H 2119   2.024   2.136   9.280  0.4752  1.2132  1.7097
  136MPD2    H1 2120   1.689   2.258   9.039  1.1358  0.7635 -1.1907
  136MPD2    H2 2121   1.762   2.457   9.401 -0.1094 -2.4739  1.5719
  136MPD2    H3 2122   1.636   2.425   9.200 -1.4045 -1.4584  1.7763
  136MPD2     N 2123   1.881   2.081   9.047 -1.1208  0.4871  0.5241
  136MPD2    H5 2124   1.803   2.078   8.982 -0.9735 -0.8532  0.4172
  136MPD2    N1 2125   1.970   2.287   9.478  0.0255  0.0591  0.1420
  136MPD2    H7 2126   2.049   2.223   9.486  1.0099  1.0334 -1.6157
  137TMC2    C1 2127   0.799   1.602   9.114  0.4733  0.2132  0.3459
  137TMC2    C2 2128   0.754   1.588   8.987  0.4418 -0.2878  0.3161
  137TMC2    C3 2129   0.634   1.644   8.959 -0.9152 -0.3440 -0.3211
  137TMC2    C4 2130   0.742   1.678   9.206  0.5634 -0.0074  0.6017
  137TMC2    C5 2131   0.622   1.736   9.176 -0.0116 -0.0388  0.2435
  137TMC2    C6 2132   0.564   1.710   9.054  0.0595 -0.4149  0.1951
  137TMC2     C 2133   0.911   1.528   9.168  0.4033 -0.0090  0.1541
  137TMC2     O 2134   0.971   1.582   9.260 -0.1495  0.5205 -0.0666
  137TMC2     H 2135   0.827   1.545   8.919 -0.5797  0.4354 -1.2276
  137TMC2    H1 2136   0.788   1.688   9.304  0.3539 -0.2652  0.7230
  137TMC2    H2 2137   0.460   1.733   9.032  0.4401  1.0877  0.0059
  137TMC2    C7 2138   0.545   1.807   9.278 -0.4741  0.1615 -0.3960
  137TMC2    C8 2139   0.568   1.617   8.830  0.5308 -0.4473  0.4231
  137TMC2    O1 2140   0.462   1.885   9.241  0.1463 -0.1785 -0.7619
  137TMC2    O2 2141   0.487   1.694   8.778  0.0197  0.6135  1.2229
  137TMC2    O5 2142   0.647   1.527   8.765 -0.0106  0.3568  0.3204
  137TMC2    H5 2143   0.695   1.467   8.827 -0.0246  1.2285  1.1698
  138MPD2     C 2144   0.968   1.166   9.136  0.5690  0.0454 -0.1254
  138MPD2    C1 2145   0.995   1.299   9.176 -0.2981  0.2261  1.1276
  138MPD2    C2 2146   1.084   1.315   9.280 -0.5962  0.0390 -0.0015
  138MPD2    C3 2147   1.141   1.208   9.346 -0.3732  0.0921  0.2027
  138MPD2    C4 2148   1.120   1.078   9.299  0.6534  0.2079  0.4651
  138MPD2    C5 2149   1.042   1.062   9.189  0.1113 -0.5458 -0.1287
  138MPD2     H 2150   1.112   1.413   9.318 -0.3132  0.1425 -0.4704
  138MPD2    H1 2151   1.174   0.998   9.349  0.0299 -0.2079  0.4655
  138MPD2    H2 2152   0.891   1.150   9.062 -1.7374  0.9302  2.1070
  138MPD2    H3 2153   1.029   0.962   9.149 -0.8856 -1.0507  1.5082
  138MPD2     N 2154   1.219   1.249   9.459  0.0985 -0.5848 -0.1618
  138MPD2    H5 2155   1.226   1.348   9.479  0.6233 -0.8103  0.8039
  138MPD2    N1 2156   0.917   1.398   9.119 -0.0529 -0.7113 -0.4896
  138MPD2    H7 2157   0.849   1.378   9.047 -0.1474  2.6832 -1.3547
  139TMC2    C1 2158   1.806   3.827  13.374  0.1386  0.1648 -0.2024
  139TMC2    C2 2159   1.824   3.931  13.282  0.6480  0.5072  0.2181
  139TMC2    C3 2160   1.760   4.044  13.310  0.1188 -0.4378  0.3929
  139TMC2    C4 2161   1.717   3.826  13.483 -0.4508 -0.1124  0.1528
  139TMC2    C5 2162   1.647   3.943  13.497 -0.6467 -0.0821 -0.0166
  139TMC2    C6 2163   1.671   4.051  13.409 -0.4414 -0.1184  0.0709
  139TMC2     C 2164   1.884   3.704  13.345 -0.2312  0.0720 -0.0111
  139TMC2     O 2165   1.951   3.712  13.242  0.4233  0.1141 -0.1237
  139TMC2     H 2166   1.883   3.920  13.192  1.5158 -0.5950  0.9210
  139TMC2    H1 2167   1.709   3.741  13.550  1.3744  0.7706  1.4828
  139TMC2    H2 2168   1.603   4.135  13.411  2.4772  2.2353 -1.0814
  139TMC2    C7 2169   1.525   3.950  13.583 -0.4921  0.1262  0.1611
  139TMC2    C8 2170   1.760   4.138  13.202 -0.1835  0.6511  0.9864
  139TMC2    O1 2171   1.473   4.057  13.585  0.0672  0.3681  0.1083
  139TMC2    O2 2172   1.749   4.120  13.082 -0.7128  0.6068  0.2379
  139TMC2    O5 2173   1.766   4.253  13.267  0.2040 -0.1827  0.6800
  139TMC2    H5 2174   1.775   4.244  13.364 -0.2032 -0.1243  0.7224
  140MPD2     C 2175   1.989   3.420  13.559 -0.5138  0.1702 -0.5478
  140MPD2    C1 2176   1.990   3.503  13.444  0.1176 -0.3596 -0.3309
  140MPD2    C2 2177   2.076   3.468  13.345  0.0047 -0.5258  0.3507
  140MPD2    C3 2178   2.161   3.362  13.361 -0.1570 -0.2213 -0.3113
  140MPD2    C4 2179   2.165   3.282  13.472 -0.3439 -0.2388 -0.0574
  140MPD2    C5 2180   2.077   3.320  13.570 -0.5819  0.6997  0.4621
  140MPD2     H 2181   2.096   3.538  13.265 -0.8112 -1.2318 -0.4683
  140MPD2    H1 2182   2.229   3.194  13.478  2.7159  1.8737 -1.8809
  140MPD2    H2 2183   1.930   3.445  13.646 -1.8576  0.5006 -1.5530
  140MPD2    H3 2184   2.082   3.265  13.663  1.1801  0.4667  0.2445
  140MPD2     N 2185   2.237   3.334  13.250  0.0432  0.1950  0.1601
  140MPD2    H5 2186   2.208   3.390  13.170  2.1161 -1.1110 -1.4934
  140MPD2    N1 2187   1.907   3.614  13.452 -0.0131 -0.6950 -0.2816
  140MPD2    H7 2188   1.858   3.625  13.540 -0.0893 -0.3288 -0.3740
  141TMC2    C1 2189   1.744   0.258  14.659 -0.3096  0.0031  0.8167
  141TMC2    C2 2190   1.619   0.207  14.648  0.6469 -0.3344 -0.6907
  141TMC2    C3 2191   1.527   0.247  14.741  0.7419 -0.3308 -0.4007
  141TMC2    C4 2192   1.776   0.339  14.761  0.0086  0.1182 -0.0276
  141TMC2    C5 2193   1.681   0.379  14.850  0.5045  0.5185  0.2888
  141TMC2    C6 2194   1.550   0.333  14.845 -1.0149 -0.0321 -0.5644
  141TMC2     C 2195   1.826   0.278  14.533 -0.4075 -0.5112  0.4711
  141TMC2     O 2196   1.916   0.360  14.524 -0.1704 -0.0898 -0.0243
  141TMC2     H 2197   1.597   0.137  14.568  1.2686 -1.7395  0.3550
  141TMC2    H1 2198   1.867   0.394  14.745  0.9310 -1.4325 -0.1699
  141TMC2    H2 2199   1.483   0.354  14.928  0.5605  1.4116  0.3546
  141TMC2    C7 2200   1.702   0.502  14.923 -0.1144  0.5457  0.4754
  141TMC2    C8 2201   1.395   0.225  14.695  0.5095  0.6568 -0.8301
  141TMC2    O1 2202   1.620   0.542  15.006  0.2196 -0.2383  0.5334
  141TMC2    O2 2203   1.350   0.109  14.688  0.1365 -0.2867 -0.0598
  141TMC2    O5 2204   1.321   0.326  14.738 -0.0959 -0.6501 -0.4196
  141TMC2    H5 2205   1.370   0.410  14.734 -0.9638  0.0315  3.4367
  142TMC2    C1 2206   0.331   4.355  10.152 -0.1274 -0.4457  0.5088
  142TMC2    C2 2207   0.277   4.433  10.052  0.7977 -1.1471  0.0289
  142TMC2    C3 2208   0.350   4.541  10.007  1.0469 -0.6183 -0.2525
  142TMC2    C4 2209   0.446   4.398  10.216 -0.0062  0.0563 -0.3389
  142TMC2    C5 2210   0.509   4.510  10.173  0.3503  0.0316 -0.0822
  142TMC2    C6 2211   0.465   4.583  10.066  0.7761 -0.3303  0.0217
  142TMC2     C 2212   0.276   4.219  10.169  0.2309 -0.2859  0.0782
  142TMC2     O 2213   0.177   4.199  10.103 -0.1883 -0.4705  0.0529
  142TMC2     H 2214   0.181   4.411  10.008  0.6745 -1.4046  0.4287
  142TMC2    H1 2215   0.490   4.339  10.296  0.0647 -1.8542 -1.7829
  142TMC2    H2 2216   0.509   4.667  10.012  1.8169  0.1722  1.6630
  142TMC2    C7 2217   0.629   4.559  10.229 -0.5415 -0.0807  0.4311
  142TMC2    C8 2218   0.283   4.645   9.935  0.7175  0.2532 -0.5222
  142TMC2    O1 2219   0.697   4.476  10.285  0.2204 -0.6351 -0.4419
  142TMC2    O2 2220   0.294   0.032   9.950  1.6555 -0.0425 -0.0374
  142TMC2    O5 2221   0.194   4.580   9.857 -0.9154  0.0687  0.3782
  142TMC2    H5 2222   0.225   4.497   9.816 -1.0773  0.2829 -0.1857
  143MPD2     C 2223   0.201   3.801  10.472  0.3967 -0.0898 -1.1662
  143MPD2    C1 2224   0.151   3.836  10.350 -0.1591  0.7375 -0.4803
  143MPD2    C2 2225   0.193   3.955  10.284 -0.0032 -0.1593 -0.2542
  143MPD2    C3 2226   0.283   4.040  10.340 -0.9403  1.1785 -0.6441
  143MPD2    C4 2227   0.334   4.005  10.459  0.4464 -0.4379 -0.4684
  143MPD2    C5 2228   0.283   3.897  10.528 -0.2533 -0.1166 -0.4420
  143MPD2     H 2229   0.151   3.979  10.187 -1.5656 -0.2639  0.3906
  143MPD2    H1 2230   0.405   4.067  10.513 -2.7848  2.4246  0.5047
  143MPD2    H2 2231   0.174   3.716  10.534  0.3435  0.5773 -0.2729
  143MPD2    H3 2232   0.318   3.885  10.630 -0.9375  0.6104 -0.1304
  143MPD2     N 2233   0.325   4.162  10.282 -0.3015 -0.0739 -0.0093
  143MPD2    H5 2234   0.399   4.214  10.330 -1.8082  1.7064  0.3727
  143MPD2    N1 2235   0.056   3.744  10.298 -0.1747  0.1319  0.2124
  143MPD2    H7 2236   0.040   3.658  10.349  0.8057  0.7878  1.6335
  144TMC2    C1 2237   2.943   2.806   0.778  0.1778  0.2934  0.0874
  144TMC2    C2 2238   3.027   2.713   0.715 -0.0769 -0.1942  0.8506
  144TMC2    C3 2239   3.148   2.680   0.769  0.8605  0.3070 -0.8168
  144TMC2    C4 2240   2.986   2.879   0.887 -0.1063  0.1271 -0.4322
  144TMC2    C5 2241   3.109   2.842   0.930 -0.6607 -0.5503 -0.0062
  144TMC2    C6 2242   3.191   2.747   0.876 -0.4235 -0.4105 -0.9366
  144TMC2     C 2243   2.809   2.814   0.728  0.4092 -0.1372  0.3700
  144TMC2     O 2244   2.777   2.724   0.655 -0.7400 -0.2186 -0.2743
  144TMC2     H 2245   2.989   2.653   0.634 -1.1717  0.7137  0.6914
  144TMC2    H1 2246   2.917   2.914   0.963 -0.0688 -3.0392  1.0574
  144TMC2    H2 2247   3.287   2.756   0.924 -1.8449  1.1252  1.6426
  144TMC2    C7 2248   3.164   2.929   1.034  0.3149 -0.4016  0.5297
  144TMC2    C8 2249   3.224   2.568   0.716  0.4114  0.2948  0.4093
  144TMC2    O1 2250   3.258   2.876   1.096 -0.0718  0.1031 -0.3118
  144TMC2    O2 2251   3.304   2.518   0.796  0.1158 -0.1318 -0.0294
  144TMC2    O5 2252   3.142   2.497   0.633  0.9541 -0.3633 -0.0958
  144TMC2    H5 2253   3.123   2.551   0.553 -0.1193  1.6780  1.5278
  145MPD2     C 2254   2.415   3.100   0.590  0.3891 -0.2237 -0.2493
  145MPD2    C1 2255   2.444   2.966   0.558  0.4455  0.2456 -0.1204
  145MPD2    C2 2256   2.549   2.904   0.624 -0.2090 -0.3594 -0.5969
  145MPD2    C3 2257   2.623   2.974   0.717  0.1255 -0.3148  0.1761
  145MPD2    C4 2258   2.583   3.099   0.756 -0.5051  0.7372 -0.5582
  145MPD2    C5 2259   2.482   3.166   0.686  0.0286 -0.0612  0.1216
  145MPD2     H 2260   2.566   2.798   0.615 -1.5594 -0.6602  0.4469
  145MPD2    H1 2261   2.648   3.144   0.830 -0.6329  0.6556 -0.3949
  145MPD2    H2 2262   2.333   3.146   0.537  1.9667  1.3978 -1.2976
  145MPD2    H3 2263   2.460   3.271   0.702  0.4744 -0.2153  1.7485
  145MPD2     N 2264   2.751   2.932   0.762 -0.0221 -0.1741 -0.4204
  145MPD2    H5 2265   2.806   2.985   0.829 -1.5022 -0.9852  1.4046
  145MPD2    N1 2266   2.373   2.887   0.463 -0.0021  0.3904  0.6099
  145MPD2    H7 2267   2.404   2.791   0.454  0.5816  0.5888  0.4884
  146TMC2    C1 2268   4.315   1.126  11.597  0.4073 -0.0479 -0.1872
  146TMC2    C2 2269   4.248   1.138  11.478  0.0162 -0.1231  0.6754
  146TMC2    C3 2270   4.316   1.088  11.373 -0.2222  0.3240  0.2133
  146TMC2    C4 2271   4.443   1.073  11.615 -0.3922  0.0729 -0.1836
  146TMC2    C5 2272   4.503   1.027  11.499  0.1923 -0.1222  0.0570
  146TMC2    C6 2273   4.437   1.035  11.379  0.5240  0.3140 -0.4052
  146TMC2     C 2274   4.250   1.185  11.711  0.2641 -0.6203 -0.4329
  146TMC2     O 2275   4.168   1.270  11.693 -0.0590  0.1171  0.2845
  146TMC2     H 2276   4.146   1.174  11.468  0.4220  0.7332 -0.4705
  146TMC2    H1 2277   4.492   1.082  11.711  1.1204  0.3917 -0.9855
  146TMC2    H2 2278   4.487   0.995  11.291  0.9393 -1.1483  0.4894
  146TMC2    C7 2279   4.645   0.982  11.503  0.4593  0.2691 -0.6524
  146TMC2    C8 2280   4.243   1.090  11.254  0.3917 -0.0882 -0.2647
  146TMC2    O1 2281   4.698   0.959  11.394  0.0112 -0.6520  0.4109
  146TMC2    O2 2282   4.125   1.059  11.237  0.1004 -0.9292  0.2222
  146TMC2    O5 2283   4.309   1.184  11.195  0.7551 -0.6603 -0.8125
  146TMC2    H5 2284   4.401   1.192  11.227  0.1731 -0.5963  0.8164
  147MPD2     C 2285   0.366   0.940  11.750  0.0854 -0.4558 -0.0750
  147MPD2    C1 2286   0.265   0.940  11.847  0.1534  0.3667  0.3959
  147MPD2    C2 2287   0.133   0.957  11.796 -0.4176  0.4303 -0.3237
  147MPD2    C3 2288   0.101   0.965  11.662 -0.4846  0.5485 -0.4391
  147MPD2    C4 2289   0.204   0.977  11.572 -0.8886  0.5438  0.7895
  147MPD2    C5 2290   0.332   0.968  11.622  0.1160 -0.4052 -0.2748
  147MPD2     H 2291   0.060   0.948  11.875  1.3397  0.3847  1.3110
  147MPD2    H1 2292   0.191   0.982  11.464 -0.0230 -1.6955  0.5683
  147MPD2    H2 2293   0.468   0.912  11.773  0.1458  0.0611  0.2886
  147MPD2    H3 2294   0.415   0.980  11.554  0.2666 -1.1030 -0.2100
  147MPD2     N 2295   4.696   0.969  11.629 -0.0276 -0.0529 -0.4692
  147MPD2    H5 2296   4.628   0.963  11.704  0.2882 -1.0318 -0.2635
  147MPD2    N1 2297   0.299   0.913  11.982 -0.1126  0.1854 -0.0241
  147MPD2    H7 2298   0.397   0.894  11.997 -0.0522  0.3307 -0.2293
  148TMC2    C1 2299   4.393   0.543  10.185  0.2958 -0.3845  0.2141
  148TMC2    C2 2300   4.486   0.629  10.138  0.4413 -0.1258  0.3050
  148TMC2    C3 2301   4.619   0.599  10.150  0.1970 -1.0097 -0.7637
  148TMC2    C4 2302   4.421   0.428  10.245 -0.2842 -0.3321  0.1504
  148TMC2    C5 2303   4.551   0.400  10.247 -0.2746  0.2755  0.3337
  148TMC2    C6 2304   4.658   0.475  10.196 -0.3538  0.3448 -0.7318
  148TMC2     C 2305   4.251   0.576  10.150  0.4206 -0.0868  0.6173
  148TMC2     O 2306   4.222   0.691  10.131 -0.0590 -0.0413  0.4090
  148TMC2     H 2307   4.466   0.720  10.083  1.1350 -0.7688 -0.9948
  148TMC2    H1 2308   4.342   0.364  10.282  0.5404 -1.4459 -0.0124
  148TMC2    H2 2309   0.029   0.456  10.198 -0.1768  1.4575  0.3908
  148TMC2    C7 2310   4.590   0.273  10.288 -1.2173 -0.4715  0.1212
  148TMC2    C8 2311   4.711   0.694  10.092  1.1503  0.5321 -0.3042
  148TMC2    O1 2312   4.708   0.241  10.275  0.1326  0.0918  0.7721
  148TMC2    O2 2313   4.703   0.817  10.081 -0.6234  0.2472  0.5716
  148TMC2    O5 2314   0.068   0.623  10.031 -0.6025 -0.5089 -0.2173
  148TMC2    H5 2315   0.053   0.526  10.032  0.1952 -0.6415 -0.4662
  149MPD2     C 2316   3.965   0.562  10.100 -0.0025  0.2921  0.4756
  149MPD2    C1 2317   4.044   0.452  10.085  0.2035  0.3572  0.9400
  149MPD2    C2 2318   3.992   0.337  10.025 -0.4338  0.1198 -0.0444
  149MPD2    C3 2319   3.864   0.334   9.983  0.2055  0.0413  0.3290
  149MPD2    C4 2320   3.785   0.447   9.989 -0.0818 -0.2410 -0.1402
  149MPD2    C5 2321   3.843   0.556  10.047  0.0838 -0.4919  0.8809
  149MPD2     H 2322   4.054   0.249  10.011 -1.4682 -0.7442  0.8868
  149MPD2    H1 2323   3.681   0.448   9.962 -0.3495  0.4451  0.9116
  149MPD2    H2 2324   3.995   0.659  10.136 -0.5084  0.5473  0.2142
  149MPD2    H3 2325   3.787   0.649  10.058  0.2670 -0.4533  1.5068
  149MPD2     N 2326   3.802   0.220   9.937  0.0851 -0.6128  0.6840
  149MPD2    H5 2327   3.712   0.226   9.891  0.0921  1.1588  0.9061
  149MPD2    N1 2328   4.183   0.460  10.117  0.2646 -0.0997 -0.0382
  149MPD2    H7 2329   4.235   0.372  10.112  0.1495 -0.2683  1.8114
  150TMC2    C1 2330   1.911   4.270  12.131 -0.4312  0.7717 -0.2646
  150TMC2    C2 2331   1.845   4.376  12.082 -0.6329  0.6650  0.6405
  150TMC2    C3 2332   1.920   4.480  12.043 -0.4944 -0.2292  0.7440
  150TMC2    C4 2333   2.047   4.277  12.159 -0.5505 -0.0684 -0.6882
  150TMC2    C5 2334   2.121   4.380  12.108  0.1338 -0.1379 -0.1778
  150TMC2    C6 2335   2.059   4.480  12.038  0.1439 -0.6743 -0.0322
  150TMC2     C 2336   1.845   4.156  12.188 -0.0525  0.6826  0.4630
  150TMC2     O 2337   1.907   4.064  12.241 -0.7240  0.0281 -0.3513
  150TMC2     H 2338   1.737   4.384  12.090 -0.8081 -1.3383  0.1811
  150TMC2    H1 2339   2.099   4.183  12.179 -0.0431  0.2093 -0.7019
  150TMC2    H2 2340   2.107   4.574  12.015 -0.6053 -0.5186 -0.9511
  150TMC2    C7 2341   2.267   4.379  12.114 -0.5208  0.0977 -0.1609
  150TMC2    C8 2342   1.865   4.573  11.946  0.6103  0.2657  0.3689
  150TMC2    O1 2343   2.316   4.462  12.040  0.0116  0.3005 -0.5551
  150TMC2    O2 2344   1.915   4.680  11.915 -0.4545  0.0488 -0.3034
  150TMC2    O5 2345   1.743   4.533  11.902 -0.4140 -0.1492 -0.0450
  150TMC2    H5 2346   1.709   4.449  11.940 -1.5986 -0.4664 -1.8081
  151MPD2     C 2347   1.415   3.896  12.320  1.1418 -0.3688  0.1210
  151MPD2    C1 2348   1.374   4.008  12.248 -0.9879 -0.2023 -0.2685
  151MPD2    C2 2349   1.474   4.093  12.189 -0.0014 -0.4218 -0.0285
  151MPD2    C3 2350   1.611   4.067  12.217  0.0667 -0.7419  0.3863
  151MPD2    C4 2351   1.647   3.965  12.299  0.4126  0.3005 -0.1343
  151MPD2    C5 2352   1.548   3.881  12.347 -0.0292 -0.7223 -0.2656
  151MPD2     H 2353   1.458   4.169  12.114  2.2102  1.1214  1.0819
  151MPD2    H1 2354   1.747   3.938  12.330 -1.3204 -2.1375  3.3316
  151MPD2    H2 2355   1.346   3.819  12.354 -1.0813  1.7603  0.4360
  151MPD2    H3 2356   1.565   3.784  12.393 -0.8681 -0.7899 -0.0904
  151MPD2     N 2357   1.705   4.161  12.163 -0.3065  0.0101  0.1155
  151MPD2    H5 2358   1.668   4.240  12.111 -0.4114 -1.5671 -2.1915
  151MPD2    N1 2359   1.239   4.011  12.207  0.5333 -0.7132  0.2074
  151MPD2    H7 2360   1.186   3.934  12.246 -1.2477  0.8009  0.7515
  152TMC2    C1 2361   1.461   3.917  12.717 -0.0168  0.0768 -0.0528
  152TMC2    C2 2362   1.569   3.877  12.788 -1.0177  0.2729  0.0514
  152TMC2    C3 2363   1.673   3.962  12.777  0.1797 -0.2265 -0.1048
  152TMC2    C4 2364   1.457   4.033  12.642 -0.4987 -0.0708  0.1210
  152TMC2    C5 2365   1.569   4.110  12.642 -0.2648 -0.3296  0.1410
  152TMC2    C6 2366   1.680   4.072  12.706 -1.0300 -0.4920  0.1166
  152TMC2     C 2367   1.330   3.852  12.740  0.1257  0.2382  0.0486
  152TMC2     O 2368   1.244   3.881  12.662  0.1826 -0.4853  0.0995
  152TMC2     H 2369   1.576   3.787  12.848  1.6751  0.7273  0.4139
  152TMC2    H1 2370   1.369   4.070  12.590  0.6821 -0.0436 -1.8254
  152TMC2    H2 2371   1.756   4.147  12.726  0.9771 -2.3659 -0.6175
  152TMC2    C7 2372   1.568   4.225  12.549 -0.4486 -0.5833 -0.0493
  152TMC2    C8 2373   1.785   3.915  12.862  0.1394  0.3498  0.1960
  152TMC2    O1 2374   1.456   4.257  12.511 -0.2281  0.2890  0.1980
  152TMC2    O2 2375   1.773   3.839  12.955 -0.5865 -0.0374  0.1830
  152TMC2    O5 2376   1.890   3.923  12.778  0.4032  0.4226 -0.2123
  152TMC2    H5 2377   1.880   3.981  12.700  1.3329  0.4364 -0.3159
  153MPD2     C 2378   1.236   3.578  12.958 -0.1246  0.0042 -1.0939
  153MPD2    C1 2379   1.213   3.670  12.865 -0.2373 -0.4237  0.3541
  153MPD2    C2 2380   1.085   3.692  12.825  0.2050  0.1123  0.4550
  153MPD2    C3 2381   0.978   3.627  12.885  0.3000  0.0123 -0.4358
  153MPD2    C4 2382   1.005   3.529  12.979  0.0369 -0.1671  0.5138
  153MPD2    C5 2383   1.138   3.502  13.010 -0.7455 -0.3891 -0.2252
  153MPD2     H 2384   1.075   3.766  12.746  0.0224 -0.9919 -0.5604
  153MPD2    H1 2385   0.924   3.482  13.033  0.0306  0.6405  1.2033
  153MPD2    H2 2386   1.339   3.570  12.992  0.0925  0.4560 -1.6548
  153MPD2    H3 2387   1.164   3.427  13.084  0.9781  0.7263  0.2896
  153MPD2     N 2388   0.846   3.663  12.835  0.0999 -0.3298 -0.2683
  153MPD2    H5 2389   0.844   3.742  12.772 -1.2930 -0.4129 -0.3346
  153MPD2    N1 2390   1.332   3.740  12.818  0.7054  0.0883 -0.0100
  153MPD2    H7 2391   1.423   3.709  12.853  0.3814  1.1855  1.8000
  154TMC2    C1 2392   2.736   4.346   0.606 -0.0631  0.4409  0.1430
  154TMC2    C2 2393   2.794   4.395   0.723 -0.4288 -0.4409 -0.0442
  154TMC2    C3 2394   2.922   4.360   0.755 -0.2612 -0.3911 -0.1298
  154TMC2    C4 2395   2.798   4.254   0.528 -0.3502  0.0751 -0.0300
  154TMC2    C5 2396   2.922   4.219   0.566  0.0449  0.1527  0.6359
  154TMC2    C6 2397   2.981   4.263   0.679 -0.1980 -0.2745 -0.4634
  154TMC2     C 2398   2.605   4.392   0.581 -0.7785 -0.5240  0.5736
  154TMC2     O 2399   2.543   4.455   0.666  1.0299 -0.0479  0.2000
  154TMC2     H 2400   2.736   4.462   0.786  2.2100  2.2866 -0.4951
  154TMC2    H1 2401   2.743   4.209   0.446 -1.3261  0.1609  0.5777
  154TMC2    H2 2402   3.076   4.220   0.711  0.5327  2.8778  1.6577
  154TMC2    C7 2403   2.985   4.109   0.497 -0.1486 -0.4691  0.1342
  154TMC2    C8 2404   2.973   4.403   0.886 -0.2494 -0.7814 -0.2436
  154TMC2    O1 2405   3.068   4.047   0.565  0.3568  0.4647 -0.8777
  154TMC2    O2 2406   2.912   4.476   0.959 -0.2730  0.0085 -0.1721
  154TMC2    O5 2407   3.076   4.328   0.923 -0.5282  0.4005 -0.5935
  154TMC2    H5 2408   3.138   4.293   0.855 -0.4976 -1.5900  0.4515
  155MPD2     C 2409   2.427   4.372   0.263 -0.1692  0.5377 -0.1374
  155MPD2    C1 2410   2.444   4.404   0.395 -0.2873 -0.1215 -0.7288
  155MPD2    C2 2411   2.339   4.457   0.467  0.4258 -0.6833  0.2348
  155MPD2    C3 2412   2.210   4.465   0.408  0.3644  0.2389  0.1057
  155MPD2    C4 2413   2.195   4.429   0.279  0.3327 -0.0881  0.1278
  155MPD2    C5 2414   2.307   4.390   0.204 -0.3444 -0.3466 -0.3395
  155MPD2     H 2415   2.346   4.479   0.572 -0.2844  0.3170  0.0726
  155MPD2    H1 2416   2.098   4.443   0.233  1.6259  2.1746 -1.9326
  155MPD2    H2 2417   2.506   4.323   0.206 -0.5825 -1.7130  1.2453
  155MPD2    H3 2418   2.291   4.360   0.102 -1.5543  0.2169 -0.3049
  155MPD2     N 2419   2.105   4.508   0.492  0.5064  0.5462  0.4743
  155MPD2    H5 2420   2.118   4.503   0.592 -2.3729 -0.8040  0.7820
  155MPD2    N1 2421   2.570   4.372   0.450 -0.2578  0.1356 -0.1201
  155MPD2    H7 2422   2.644   4.347   0.386  0.0126  0.4528  0.0680
  156TMC2    C1 2423   1.683   1.505  11.443 -0.0735  0.5264 -0.2412
  156TMC2    C2 2424   1.756   1.491  11.333 -0.3466  0.3629  0.2908
  156TMC2    C3 2425   1.700   1.497  11.210  0.6574 -0.6548  0.5176
  156TMC2    C4 2426   1.548   1.533  11.434 -0.4353 -0.1842 -0.2885
  156TMC2    C5 2427   1.494   1.531  11.310 -0.2068 -0.1016  0.0227
  156TMC2    C6 2428   1.563   1.498  11.197  0.6269 -0.4432 -0.4612
  156TMC2     C 2429   1.760   1.522  11.575 -0.3079 -0.3824 -0.2228
  156TMC2     O 2430   1.698   1.586  11.658 -0.0313 -0.6306  0.4458
  156TMC2     H 2431   1.863   1.478  11.338 -0.3028  1.4278  2.0123
  156TMC2    H1 2432   1.493   1.572  11.519  0.0203  0.1546 -0.1456
  156TMC2    H2 2433   1.514   1.483  11.102  0.6375  0.7173 -0.6523
  156TMC2    C7 2434   1.370   1.606  11.292  0.5937  0.7163  0.6948
  156TMC2    C8 2435   1.776   1.457  11.101 -0.1225 -0.3014 -0.0396
  156TMC2    O1 2436   1.297   1.560  11.206 -0.5313  0.2481  0.1315
  156TMC2    O2 2437   1.728   1.417  10.994 -0.6303 -0.0199 -0.1130
  156TMC2    O5 2438   1.873   1.554  11.099 -0.1682  0.2997 -0.5438
  156TMC2    H5 2439   1.901   1.599  11.182 -0.6803  0.2596 -0.3448
  157MPD2     C 2440   2.036   1.336  11.751  0.0761 -0.2537 -0.3288
  157MPD2    C1 2441   1.913   1.396  11.725 -0.4173  1.1484 -0.3998
  157MPD2    C2 2442   1.830   1.405  11.830  0.6751 -0.1806 -0.1041
  157MPD2    C3 2443   1.870   1.375  11.956  0.0381  0.0973 -0.3250
  157MPD2    C4 2444   1.995   1.323  11.983  0.3117  0.0712  0.1284
  157MPD2    C5 2445   2.076   1.301  11.877 -0.9251 -0.0722 -0.3508
  157MPD2     H 2446   1.727   1.439  11.826  1.3064  1.8257  0.7220
  157MPD2    H1 2447   2.027   1.293  12.082  3.7919 -2.0543 -1.6523
  157MPD2    H2 2448   2.106   1.318  11.670  2.1563 -0.7077  1.6095
  157MPD2    H3 2449   2.174   1.256  11.889 -0.0219  1.1276 -3.2222
  157MPD2     N 2450   1.767   1.386  12.051 -0.0399  0.2958  0.4481
  157MPD2    H5 2451   1.678   1.420  12.018  0.6541  0.4711 -1.2617
  157MPD2    N1 2452   1.863   1.429  11.598  0.8182  0.0681 -0.3690
  157MPD2    H7 2453   1.909   1.399  11.513  2.0812  0.4318  0.1835
  158TMC2    C1 2454   1.586   0.185  13.460 -0.5160  0.0018 -0.4366
  158TMC2    C2 2455   1.607   0.271  13.354 -0.1026 -0.6803 -0.1068
  158TMC2    C3 2456   1.513   0.361  13.328  0.2572  0.3209 -0.1660
  158TMC2    C4 2457   1.463   0.174  13.528 -0.6692 -0.0957 -0.3928
  158TMC2    C5 2458   1.361   0.250  13.471 -1.1199  0.0673 -0.3287
  158TMC2    C6 2459   1.388   0.340  13.371 -0.0459  0.2584  0.1796
  158TMC2     C 2460   1.695   0.086  13.474  0.3131 -0.3100  0.0588
  158TMC2     O 2461   1.792   0.097  13.404 -0.4103 -0.0441  0.0276
  158TMC2     H 2462   1.706   0.278  13.310  0.2513 -0.6921  0.6824
  158TMC2    H1 2463   1.451   0.121  13.622  1.5618 -2.3630 -1.4157
  158TMC2    H2 2464   1.311   0.403  13.329  0.1014 -0.7685 -1.6166
  158TMC2    C7 2465   1.221   0.240  13.520 -0.2316  0.4393  0.0379
  158TMC2    C8 2466   1.547   0.440  13.217 -0.5034 -0.6156 -0.5539
  158TMC2    O1 2467   1.140   0.325  13.480 -0.2144  0.5424 -0.0997
  158TMC2    O2 2468   1.468   0.478  13.130  0.4930 -0.2924 -0.1214
  158TMC2    O5 2469   1.630   0.531  13.269 -0.4161  0.5755 -0.1251
  158TMC2    H5 2470   1.682   0.498  13.345  0.2582  2.7772  0.3461
  159MPD2     C 2471   1.941   4.544  13.829  0.1955  0.1918 -0.3699
  159MPD2    C1 2472   1.807   4.555  13.870 -0.2494 -0.5766  0.1537
  159MPD2    C2 2473   1.722   4.620  13.785 -0.0787 -0.0861  0.0267
  159MPD2    C3 2474   1.767   4.676  13.664  0.2225 -0.3467  0.3849
  159MPD2    C4 2475   1.896   4.660  13.623 -0.2530  0.5401 -0.3792
  159MPD2    C5 2476   1.984   4.598  13.709 -0.3240 -0.3897 -0.0600
  159MPD2     H 2477   1.617   4.629  13.810 -0.2903  1.6854 -1.4800
  159MPD2    H1 2478   1.940   4.708  13.536 -0.3867 -0.1283 -0.8109
  159MPD2    H2 2479   2.002   4.485  13.895  1.3901 -0.6444 -2.2321
  159MPD2    H3 2480   2.089   4.588  13.684 -0.3710  0.1604 -0.4709
  159MPD2     N 2481   1.676   0.009  13.582  0.2832  0.1181  0.5466
  159MPD2    H5 2482   1.581   0.023  13.615 -0.0499 -1.9237  0.3931
  159MPD2    N1 2483   1.779   4.508  14.002  0.2784 -0.0721 -0.3440
  159MPD2    H7 2484   1.855   4.455  14.045  1.1973  1.0229 -0.6071
  160TMC2    C1 2485   1.465   3.157   1.188  0.1603 -0.0558 -0.9312
  160TMC2    C2 2486   1.442   3.025   1.215  0.0963  0.1428  0.9638
  160TMC2    C3 2487   1.516   2.936   1.146  0.4564  0.5542 -0.1382
  160TMC2    C4 2488   1.531   3.201   1.075  0.2711  0.0836  0.6427
  160TMC2    C5 2489   1.605   3.106   1.007 -0.0312  0.4615  0.1436
  160TMC2    C6 2490   1.595   2.970   1.040  0.0381 -0.5158 -0.2475
  160TMC2     C 2491   1.398   3.246   1.269  0.3452 -0.5247 -0.2494
  160TMC2     O 2492   1.364   3.211   1.384 -0.3494 -0.4143 -0.2953
  160TMC2     H 2493   1.382   2.995   1.301 -0.3332  0.7309  0.8648
  160TMC2    H1 2494   1.533   3.307   1.050  1.0053 -0.3072 -0.9496
  160TMC2    H2 2495   1.641   2.892   0.981 -1.6604 -0.3624 -1.7555
  160TMC2    C7 2496   1.680   3.147   0.895  0.1713  0.0214 -0.5249
  160TMC2    C8 2497   1.501   2.792   1.166  0.1439  0.1894 -0.1116
  160TMC2    O1 2498   1.707   3.061   0.809 -0.1269  0.6118 -0.2311
  160TMC2    O2 2499   1.603   2.723   1.175 -0.0792 -0.8094 -0.2352
  160TMC2    O5 2500   1.388   2.769   1.238 -0.5956  0.2806  0.2010
  160TMC2    H5 2501   1.309   2.821   1.215 -0.6205  0.2645  0.2517
  161MPD2     C 2502   1.361   3.503   1.406  0.3680  0.1627  0.4294
  161MPD2    C1 2503   1.332   3.483   1.273 -0.4109 -0.4097 -0.4165
  161MPD2    C2 2504   1.262   3.575   1.199 -0.3022  0.4381 -0.5092
  161MPD2    C3 2505   1.208   3.684   1.265 -0.1102  0.3169 -0.1733
  161MPD2    C4 2506   1.238   3.699   1.400  0.2578 -0.3086  0.3886
  161MPD2    C5 2507   1.316   3.610   1.468 -0.8492  0.2401  0.5090
  161MPD2     H 2508   1.248   3.547   1.095 -1.2060  0.3522 -0.3629
  161MPD2    H1 2509   1.188   3.771   1.462  1.6715  1.0749 -0.0771
  161MPD2    H2 2510   1.430   3.438   1.460  1.2655 -0.7404 -1.8241
  161MPD2    H3 2511   1.337   3.632   1.573 -0.9425  0.3738  0.4999
  161MPD2     N 2512   1.125   3.780   1.209  0.0820 -0.2706 -0.2824
  161MPD2    H5 2513   1.102   3.859   1.268 -2.0475  0.1902 -1.7533
  161MPD2    N1 2514   1.362   3.361   1.205 -0.0731 -0.1594 -0.2599
  161MPD2    H7 2515   1.358   3.363   1.104  0.3496  2.3732 -0.2428
  162TMC2    C1 2516   4.021   0.808   1.255 -0.4416 -0.2997 -0.9779
  162TMC2    C2 2517   3.932   0.855   1.345  0.5012  0.1963 -0.5905
  162TMC2    C3 2518   3.981   0.895   1.472 -0.9220  0.3888  0.0021
  162TMC2    C4 2519   4.156   0.795   1.275 -0.0482  0.5218 -0.0220
  162TMC2    C5 2520   4.195   0.849   1.400  1.0199 -0.3603  0.6511
  162TMC2    C6 2521   4.116   0.908   1.491 -0.3717  0.0188  0.6419
  162TMC2     C 2522   3.972   0.784   1.117  0.6483 -0.6547  0.4849
  162TMC2     O 2523   4.047   0.811   1.022 -0.4170 -0.6008 -0.1378
  162TMC2     H 2524   3.827   0.871   1.324  0.1445 -2.5109 -0.9283
  162TMC2    H1 2525   4.217   0.759   1.193  0.4163 -0.0815  0.5935
  162TMC2    H2 2526   4.171   0.955   1.572  0.6305 -1.5696  0.8920
  162TMC2    C7 2527   4.340   0.837   1.435  0.2662 -0.8908 -0.7625
  162TMC2    C8 2528   3.879   0.956   1.554 -0.1380 -1.1166  0.4585
  162TMC2    O1 2529   4.385   0.891   1.536  0.3363 -0.5499 -0.1151
  162TMC2    O2 2530   3.764   0.970   1.513  0.5089  0.1465 -0.1759
  162TMC2    O5 2531   3.941   1.010   1.664 -0.2772  0.3437  0.3185
  162TMC2    H5 2532   4.024   0.966   1.693 -0.2784 -1.6084 -2.6356
  163MPD2     C 2533   3.610   0.623   0.790  0.6534  0.4749  0.6875
  163MPD2    C1 2534   3.748   0.645   0.779  0.1118 -0.3360 -0.0554
  163MPD2    C2 2535   3.821   0.693   0.889 -0.0407 -0.5893 -0.7909
  163MPD2    C3 2536   3.771   0.696   1.011  0.2882  0.7320 -0.5956
  163MPD2    C4 2537   3.638   0.670   1.024  1.1853 -0.0090 -0.2436
  163MPD2    C5 2538   3.558   0.637   0.916  0.8087 -0.9362 -0.0647
  163MPD2     H 2539   3.927   0.711   0.877  0.0272 -0.5693 -0.1861
  163MPD2    H1 2540   3.597   0.661   1.125 -2.0769 -0.0054 -1.5706
  163MPD2    H2 2541   3.552   0.594   0.703  0.7153 -0.6883  1.0335
  163MPD2    H3 2542   3.452   0.626   0.935  1.0291 -0.6290  1.3720
  163MPD2     N 2543   3.848   0.735   1.123  0.0994  0.1366 -0.3029
  163MPD2    H5 2544   3.803   0.715   1.212 -1.2269  0.9382 -0.7975
  163MPD2    N1 2545   3.819   0.601   0.666 -0.1550 -0.0608  0.5019
  163MPD2    H7 2546   3.918   0.620   0.671 -0.0892 -0.1226 -0.5764
  164TMC2    C1 2547   0.135   4.523  10.908  0.0226 -0.6849 -0.2095
  164TMC2    C2 2548   0.239   4.616  10.882  0.2274  0.5670  0.7300
  164TMC2    C3 2549   0.189   0.006  10.843 -0.5084  0.2835  0.0900
  164TMC2    C4 2550   0.003   4.559  10.897  0.3576 -0.2403 -0.0065
  164TMC2    C5 2551   4.706   4.682  10.855 -0.0609  0.1084  0.0448
  164TMC2    C6 2552   0.062   0.037  10.824  0.8101  0.6179 -1.4004
  164TMC2     C 2553   0.161   4.396  10.974 -0.0045 -0.0105  0.6726
  164TMC2     O 2554   0.062   4.327  10.987  0.9809  0.0829 -0.5056
  164TMC2     H 2555   0.345   4.597  10.881  0.1851  0.3316  0.7205
  164TMC2    H1 2556   4.661   4.489  10.926 -0.4478  0.8529  0.4943
  164TMC2    H2 2557   0.035   0.138  10.798  0.8425  0.9175 -0.2551
  164TMC2    C7 2558   4.570   0.001  10.872 -0.3406 -0.4793  0.6066
  164TMC2    C8 2559   0.282   0.120  10.828 -0.6755 -0.1125  0.0587
  164TMC2    O1 2560   4.538   0.104  10.817  0.2140  0.4302 -0.6602
  164TMC2    O2 2561   0.374   0.131  10.905 -0.1134 -0.4130 -0.3060
  164TMC2    O5 2562   0.244   0.204  10.725  0.6506 -0.5022 -0.1386
  164TMC2    H5 2563   0.172   0.177  10.664  0.5887  1.4735 -0.9455
  165TMC2    C1 2564   1.147   2.494   0.972  0.1269  0.5453 -0.3159
  165TMC2    C2 2565   1.103   2.401   0.881  1.0355  0.0113 -0.6455
  165TMC2    C3 2566   1.157   2.414   0.752  0.7231 -0.3462 -0.4102
  165TMC2    C4 2567   1.243   2.589   0.940  0.8311  0.0477  0.1606
  165TMC2    C5 2568   1.287   2.604   0.815  0.0366  0.3084 -0.5745
  165TMC2    C6 2569   1.245   2.516   0.720 -0.3641  0.4075  0.3099
  165TMC2     C 2570   1.111   2.465   1.110  0.0351  0.4782  0.2241
  165TMC2     O 2571   1.093   2.351   1.141 -0.4581 -0.1977 -0.3417
  165TMC2     H 2572   1.030   2.325   0.909  1.8835 -1.4869 -2.4925
  165TMC2    H1 2573   1.280   2.652   1.020 -0.6628 -1.0628  1.7362
  165TMC2    H2 2574   1.265   2.551   0.620 -2.0001 -0.6314 -0.3692
  165TMC2    C7 2575   1.428   2.639   0.814  0.2857  0.4985  0.5259
  165TMC2    C8 2576   1.107   2.324   0.645 -0.3104  0.4775 -0.5869
  165TMC2    O1 2577   1.473   2.715   0.893  0.4251 -0.1253 -0.0237
  165TMC2    O2 2578   1.094   2.363   0.529 -0.2618 -0.4254 -0.4008
  165TMC2    O5 2579   1.109   2.201   0.695  0.8326  0.3639  0.0880
  165TMC2    H5 2580   1.145   2.205   0.786  1.3167 -2.1113  0.0085
  166MPD2     C 2581   1.001   2.627   1.585 -0.3141 -0.5004  0.1323
  166MPD2    C1 2582   1.062   2.514   1.542  0.3133 -0.2168 -0.1190
  166MPD2    C2 2583   1.080   2.498   1.406  0.3277 -0.6378 -0.1517
  166MPD2    C3 2584   1.041   2.591   1.317 -0.1664 -0.0387 -0.3860
  166MPD2    C4 2585   0.980   2.703   1.358 -0.4142  0.4547 -0.5413
  166MPD2    C5 2586   0.959   2.717   1.494  0.2427  0.0102 -0.3652
  166MPD2     H 2587   1.148   2.424   1.365 -0.7473 -3.6914  3.5707
  166MPD2    H1 2588   0.947   2.788   1.300 -2.6641 -0.6774 -0.9216
  166MPD2    H2 2589   0.985   2.650   1.689  1.4300  0.4917  0.1758
  166MPD2    H3 2590   0.904   2.801   1.534 -0.9662 -1.5649  1.2476
  166MPD2     N 2591   1.076   2.578   1.181  0.7952 -0.0724 -0.0690
  166MPD2    H5 2592   1.053   2.662   1.128  2.0712 -0.9814 -2.0977
  166MPD2    N1 2593   1.122   2.425   1.635 -0.2805 -0.4260 -0.3015
  166MPD2    H7 2594   1.098   2.449   1.730  0.8254 -2.1012  0.3964
  167TMC2    C1 2595   3.932   0.264  12.904 -1.0857 -0.1576  0.2945
  167TMC2    C2 2596   3.909   0.306  13.031  0.7087  0.3353  0.3788
  167TMC2    C3 2597   3.823   0.225  13.107  0.1490  0.1351 -0.3525
  167TMC2    C4 2598   3.875   0.155  12.853  0.2115 -0.7154 -0.6020
  167TMC2    C5 2599   3.779   0.090  12.928  0.4967  0.8819  0.5344
  167TMC2    C6 2600   3.750   0.127  13.058 -0.7482  0.3296  0.7272
  167TMC2     C 2601   4.026   0.334  12.826 -0.2707  0.2943  0.2446
  167TMC2     O 2602   4.055   0.449  12.860 -0.3120  0.2446  0.0993
  167TMC2     H 2603   3.958   0.395  13.068  0.2772  0.5557  0.4178
  167TMC2    H1 2604   3.879   0.127  12.748 -0.0711 -0.2676 -0.7322
  167TMC2    H2 2605   3.671   0.089  13.121  1.8598  0.2866  3.9283
  167TMC2    C7 2606   3.679   0.009  12.862 -0.2626  0.1302  0.7001
  167TMC2    C8 2607   3.745   0.279  13.221  0.2420 -0.0340  0.2509
  167TMC2    O1 2608   3.571   4.733  12.918  0.3647  0.6874  0.0299
  167TMC2    O2 2609   3.745   0.218  13.328 -0.0499 -0.1819  0.4652
  167TMC2    O5 2610   3.641   0.348  13.170  0.0922 -0.0418  0.4127
  167TMC2    H5 2611   3.640   0.357  13.072  3.3949  0.9849  0.4677
  168MPD2     C 2612   4.239   0.415  12.629  0.3904  0.3828 -0.2146
  168MPD2    C1 2613   4.186   0.289  12.636  0.3240 -0.2952 -0.3432
  168MPD2    C2 2614   4.237   0.187  12.554  0.3459 -1.0559 -0.0354
  168MPD2    C3 2615   4.340   0.218  12.468  0.1441 -0.0794 -0.1373
  168MPD2    C4 2616   4.393   0.343  12.463 -0.3870  0.5932 -0.2875
  168MPD2    C5 2617   4.345   0.440  12.544 -0.5343  0.0023 -0.8393
  168MPD2     H 2618   4.208   0.083  12.565  0.7509 -1.1753 -0.0934
  168MPD2    H1 2619   4.471   0.373  12.393 -1.6357  1.0846 -1.4739
  168MPD2    H2 2620   4.210   0.489  12.703  0.3898 -0.8913  1.0531
  168MPD2    H3 2621   4.381   0.541  12.537  0.2484 -0.1047  1.7403
  168MPD2     N 2622   4.409   0.119  12.390 -0.2492  0.1129 -0.4473
  168MPD2    H5 2623   4.493   0.143  12.340  0.0854  0.3256  0.2216
  168MPD2    N1 2624   4.092   0.251  12.738  0.1584  0.3432 -0.8200
  168MPD2    H7 2625   4.060   0.155  12.727  0.9434 -0.0654  0.4625
  169MPD1     C 2626   0.760   4.343   9.887  0.0131 -0.3959  0.0492
  169MPD1    C1 2627   0.830   4.227   9.923 -0.4496  0.6212  0.2792
  169MPD1    C2 2628   0.966   4.240   9.912 -0.6786 -0.2249 -0.4800
  169MPD1    C3 2629   1.025   4.337   9.836 -0.5633 -0.4279 -0.6256
  169MPD1    C4 2630   0.953   4.448   9.795  0.5290  0.3553  0.2266
  169MPD1    C5 2631   0.821   4.449   9.822 -0.6966 -0.2761  0.3748
  169MPD1     H 2632   1.022   4.152   9.945  3.0504  2.2217 -0.2184
  169MPD1    H1 2633   1.001   4.521   9.731  0.2240 -0.1969 -0.6440
  169MPD1    H2 2634   0.652   4.348   9.887  0.0897  1.4524 -2.0966
  169MPD1    H3 2635   0.751   4.525   9.787  1.1278  0.5770 -1.4068
  169MPD1     N 2636   1.166   4.333   9.840  0.3669 -0.8210  0.2921
  169MPD1    H5 2637   1.216   4.256   9.883  1.6949 -1.4266 -2.3417
  169MPD1    N1 2638   0.758   4.142  10.007  0.0089 -0.0066 -0.4045
  169MPD1    H6 2639   0.661   4.135   9.978  0.1053 -2.5468 -0.1631
  169MPD1    H7 2640   0.803   4.051  10.019 -0.7229 -0.8491 -4.0931
  170MPD1     C 2641   0.774   2.032  13.106 -0.3688  0.5290  0.3182
  170MPD1    C1 2642   0.805   2.129  13.207 -1.0310  0.1752  0.2164
  170MPD1    C2 2643   0.706   2.205  13.256 -0.1952 -0.7527  1.1059
  170MPD1    C3 2644   0.576   2.197  13.210 -0.3116  0.0980 -0.3452
  170MPD1    C4 2645   0.540   2.099  13.119  0.0770 -0.1390 -0.4469
  170MPD1    C5 2646   0.639   2.022  13.067  0.2905 -0.1436 -0.2744
  170MPD1     H 2647   0.745   2.293  13.305 -1.2183 -0.4333  1.3434
  170MPD1    H1 2648   0.444   2.095  13.071  0.8043 -0.6180 -1.8503
  170MPD1    H2 2649   0.847   1.960  13.072 -1.9966  0.4558 -3.0336
  170MPD1    H3 2650   0.612   1.941  13.000 -0.6852 -0.0307 -0.0141
  170MPD1     N 2651   0.490   2.289  13.269  0.8068  0.0554  0.1023
  170MPD1    H5 2652   0.530   2.329  13.353 -0.8342  2.0187 -0.0516
  170MPD1    N1 2653   0.937   2.144  13.254 -0.6316  0.4180  0.4446
  170MPD1    H6 2654   0.959   2.200  13.336 -1.0808 -2.2188  2.3779
  170MPD1    H7 2655   0.993   2.059  13.247  0.3887  1.0354  1.1018
  171MPD1     C 2656   3.309   3.830  15.471  0.0026  0.2676 -0.1091
  171MPD1    C1 2657   3.298   3.722  15.385 -0.9393 -1.3218 -0.3239
  171MPD1    C2 2658   3.350   3.606  15.434 -0.3950 -0.4810 -0.3595
  171MPD1    C3 2659   3.426   3.590  15.545  0.2818  0.4738 -0.6031
  171MPD1    C4 2660   3.439   3.701  15.622 -0.6877 -0.5772 -0.0619
  171MPD1    C5 2661   3.381   3.816  15.587  0.1067 -0.1891  0.1273
  171MPD1     H 2662   3.344   3.518  15.371  3.5912 -1.3731  0.4913
  171MPD1    H1 2663   3.506   3.699  15.706 -1.2013 -0.3423  0.3525
  171MPD1    H2 2664   3.266   3.927  15.449 -3.1016 -1.1856 -0.4415
  171MPD1    H3 2665   3.403   3.904  15.645  2.0135 -1.4852  1.3458
  171MPD1     N 2666   3.480   3.472  15.594 -0.1898  0.4462 -0.0837
  171MPD1    H5 2667   3.535   3.493  15.676 -1.2501 -0.1577  0.7952
  171MPD1    N1 2668   3.217   3.727  15.276  0.2318  0.1754 -0.4094
  171MPD1    H6 2669   3.207   3.816  15.229  1.2254  0.3097 -0.3604
  171MPD1    H7 2670   3.223   3.649  15.210  1.1050 -0.3705  0.3153
  172MPD1     C 2671   2.570   2.253   0.069  0.1205  0.4762  0.3385
  172MPD1    C1 2672   2.514   2.316   0.171 -0.0539  0.4713 -0.1239
  172MPD1    C2 2673   2.564   2.437   0.213  0.5367  0.4981  0.1290
  172MPD1    C3 2674   2.678   2.494   0.160  0.3197 -0.2023 -0.5596
  172MPD1    C4 2675   2.733   2.422   0.055  0.4480  0.3107 -0.5819
  172MPD1    C5 2676   2.688   2.296   0.018  0.2650  0.6297  0.1247
  172MPD1     H 2677   2.516   2.485   0.297 -3.1254 -2.6989 -0.0942
  172MPD1    H1 2678   2.821   2.460   0.005  1.0690 -2.4543 -1.5814
  172MPD1    H2 2679   2.536   2.154   0.043 -1.3450  0.8200  0.9113
  172MPD1    H3 2680   2.745   2.246  17.682 -0.2714 -0.3822  0.3889
  172MPD1     N 2681   2.725   2.623   0.191 -0.0026 -0.4077 -0.5745
  172MPD1    H5 2682   2.796   2.656   0.126  1.5002  1.6231  2.0885
  172MPD1    N1 2683   2.395   2.264   0.227 -0.4396  0.5354  0.3286
  172MPD1    H6 2684   2.410   2.165   0.245  0.6205  0.4018 -1.3376
  172MPD1    H7 2685   2.352   2.315   0.304 -0.7763  2.2893 -1.0286
  173MPD1     C 2686   3.476   2.829  13.665  0.3877  0.4204  0.2329
  173MPD1    C1 2687   3.597   2.862  13.733 -0.3755 -0.3913 -0.1636
  173MPD1    C2 2688   3.646   2.762  13.814  0.4986 -0.3068  0.4234
  173MPD1    C3 2689   3.583   2.632  13.823  0.1725 -0.4424  0.6738
  173MPD1    C4 2690   3.475   2.607  13.744 -0.2109 -0.3481  0.2317
  173MPD1    C5 2691   3.423   2.707  13.665 -0.3441  0.0595 -0.2470
  173MPD1     H 2692   3.730   2.797  13.872  1.1257  0.6581 -1.0627
  173MPD1    H1 2693   3.429   2.509  13.740 -0.0628 -0.3349 -1.5275
  173MPD1    H2 2694   3.441   2.904  13.594  2.4805 -0.2855 -1.5692
  173MPD1    H3 2695   3.337   2.687  13.602  0.4089 -0.2210 -1.1882
  173MPD1     N 2696   3.635   2.547  13.926 -0.4116 -0.3746  0.9034
  173MPD1    H5 2697   3.702   2.580  13.994 -0.4518  1.5169  0.0505
  173MPD1    N1 2698   3.633   2.998  13.756 -0.6940 -0.4296 -0.4995
  173MPD1    H6 2699   3.616   3.059  13.676  0.5975  1.4543  0.6618
  173MPD1    H7 2700   3.561   3.039  13.816 -0.7645 -0.5227 -0.5216
  174MPD1     C 2701   3.696   1.595  14.466  0.8470  0.1715 -0.1734
  174MPD1    C1 2702   3.594   1.658  14.397  0.0807  0.7141  0.1012
  174MPD1    C2 2703   3.629   1.760  14.314 -0.6333  0.3051 -0.1931
  174MPD1    C3 2704   3.757   1.796  14.283 -0.4844 -0.2914  0.2069
  174MPD1    C4 2705   3.852   1.715  14.341 -0.3159  0.6057  0.2702
  174MPD1    C5 2706   3.821   1.620  14.427 -0.2793  0.4011  0.2940
  174MPD1     H 2707   3.551   1.832  14.294  0.5670  1.8990  0.8720
  174MPD1    H1 2708   3.957   1.728  14.319 -0.6721  0.7787 -1.4004
  174MPD1    H2 2709   3.677   1.522  14.544 -0.7474 -0.8462 -1.5335
  174MPD1    H3 2710   3.903   1.577  14.485  0.4060  0.4376 -0.6536
  174MPD1     N 2711   3.783   1.925  14.221 -0.3940 -0.3082  0.4725
  174MPD1    H5 2712   3.873   1.968  14.243  0.6419 -2.3648  0.2847
  174MPD1    N1 2713   3.459   1.646  14.438 -0.2276  0.0721 -0.0770
  174MPD1    H6 2714   3.395   1.650  14.359  2.1948  0.1523 -2.0511
  174MPD1    H7 2715   3.440   1.556  14.483  0.4624 -0.2061 -0.3264
  175MPD1     C 2716   3.038   3.367  15.525 -1.0180 -0.3844  0.8836
  175MPD1    C1 2717   2.913   3.323  15.516 -0.0610 -1.0331 -0.5721
  175MPD1    C2 2718   2.842   3.279  15.622 -0.2684 -0.1234 -1.2958
  175MPD1    C3 2719   2.897   3.279  15.748 -1.0782 -0.2031  0.0952
  175MPD1    C4 2720   3.026   3.321  15.754  0.0814  0.0043  0.8164
  175MPD1    C5 2721   3.096   3.355  15.645 -0.4115 -1.0443 -0.2246
  175MPD1     H 2722   2.739   3.251  15.607 -0.7373  0.9490 -0.0238
  175MPD1    H1 2723   3.081   3.316  15.847  1.2670  1.3132  0.1889
  175MPD1    H2 2724   3.091   3.405  15.438  0.3912 -2.8430  0.6522
  175MPD1    H3 2725   3.201   3.384  15.648 -0.1686 -2.0432  0.9864
  175MPD1     N 2726   2.835   3.221  15.862  0.6799 -0.2671  0.8310
  175MPD1    H5 2727   2.898   3.204  15.940  2.5702  0.9346 -0.4309
  175MPD1    N1 2728   2.844   3.346  15.388  0.1752 -0.6068 -0.1949
  175MPD1    H6 2729   2.768   3.279  15.384 -0.4488  0.1829 -1.8051
  175MPD1    H7 2730   2.893   3.353  15.299 -0.9747 -0.8699 -0.8511
  176MPD1     C 2731   3.996   0.646  16.272 -0.3889  0.1376  0.4358
  176MPD1    C1 2732   4.040   0.599  16.402 -0.6179  0.0833 -0.4171
  176MPD1    C2 2733   4.035   0.688  16.506 -0.0970  0.2772  0.2507
  176MPD1    C3 2734   3.965   0.809  16.497  0.8981  0.1411 -0.4314
  176MPD1    C4 2735   3.907   0.842  16.380 -0.5172 -0.0319 -0.1743
  176MPD1    C5 2736   3.933   0.763  16.268  0.0383 -0.0334  0.3363
  176MPD1     H 2737   4.086   0.664  16.599 -3.1249  0.4592  1.9682
  176MPD1    H1 2738   3.840   0.927  16.364 -0.3271 -0.1507 -1.6630
  176MPD1    H2 2739   4.009   0.586  16.183  0.7103 -0.3509  0.9219
  176MPD1    H3 2740   3.901   0.793  16.168  2.3639  1.2714 -0.0134
  176MPD1     N 2741   3.946   0.881  16.614  0.1401  0.2866  0.3205
  176MPD1    H5 2742   3.980   0.836  16.699  0.2917 -0.5684 -0.1871
  176MPD1    N1 2743   4.127   0.487  16.410  0.4130 -0.4982 -0.4842
  176MPD1    H6 2744   4.126   0.429  16.494 -0.2273 -2.8682 -2.1075
  176MPD1    H7 2745   4.096   0.424  16.336  1.4898 -1.3196 -0.2497
  177MPD1     C 2746   2.917   0.925   9.469 -0.2670  0.1313  0.8417
  177MPD1    C1 2747   2.865   1.031   9.538  0.1289  0.2817 -0.0151
  177MPD1    C2 2748   2.730   1.046   9.533  0.3268 -0.5748 -0.3284
  177MPD1    C3 2749   2.643   0.961   9.470  0.6994 -0.6348  0.0758
  177MPD1    C4 2750   2.693   0.835   9.430  0.5178  0.3150 -0.6821
  177MPD1    C5 2751   2.829   0.828   9.432  0.1207 -0.4271  0.3231
  177MPD1     H 2752   2.684   1.138   9.565  1.1630 -0.0711 -0.5910
  177MPD1    H1 2753   2.639   0.742   9.415  0.5401  0.7632 -3.6390
  177MPD1    H2 2754   3.022   0.917   9.444 -0.7242 -1.0741 -0.6768
  177MPD1    H3 2755   2.866   0.744   9.374 -2.7980 -2.0583  0.8548
  177MPD1     N 2756   2.499   0.989   9.460  0.1549  0.3070 -0.0533
  177MPD1    H5 2757   2.466   1.072   9.508 -0.8785 -1.8794  3.0040
  177MPD1    N1 2758   2.943   1.121   9.607 -0.4886 -0.4870  0.0642
  177MPD1    H6 2759   2.889   1.196   9.650 -1.1980 -0.2353 -1.2673
  177MPD1    H7 2760   3.018   1.157   9.549 -0.1865  0.5830  1.1255
  178MPD1     C 2761   0.273   1.688   0.407 -0.0818 -0.7329 -0.2158
  178MPD1    C1 2762   0.223   1.579   0.341 -0.3190  0.0099 -0.7145
  178MPD1    C2 2763   0.207   1.596   0.208  0.0123  0.0975 -0.5331
  178MPD1    C3 2764   0.254   1.701   0.133 -0.0451 -0.5043  0.2615
  178MPD1    C4 2765   0.302   1.811   0.209  0.4355  0.5835 -0.0300
  178MPD1    C5 2766   0.305   1.806   0.346 -0.0343  0.7379 -0.5759
  178MPD1     H 2767   0.169   1.505   0.163 -1.3855  0.0166  0.8180
  178MPD1    H1 2768   0.353   1.891   0.157  0.7730  0.4612  0.1139
  178MPD1    H2 2769   0.281   1.689   0.515  0.8581  0.0735 -0.2957
  178MPD1    H3 2770   0.341   1.889   0.405 -0.6089  2.4421 -2.5962
  178MPD1     N 2771   0.259   1.717  17.737  0.4485  0.6594  0.2433
  178MPD1    H5 2772   0.301   1.799  17.694 -2.2895  1.8192 -0.1809
  178MPD1    N1 2773   0.165   1.472   0.406 -0.4487 -0.8613 -0.0620
  178MPD1    H6 2774   0.202   1.458   0.500 -0.1796  0.7630  0.0626
  178MPD1    H7 2775   0.188   1.391   0.348  2.3860  0.5293 -0.8516
  179MPD1     C 2776   4.547   0.053  15.229  0.1193  0.3311  0.1693
  179MPD1    C1 2777   4.407   0.027  15.206 -0.3819  0.3616  0.0993
  179MPD1    C2 2778   4.351   4.678  15.296 -0.4097  0.0537 -0.1839
  179MPD1    C3 2779   4.417   4.609  15.399 -0.7037  0.8394 -0.5776
  179MPD1    C4 2780   4.559   4.631  15.410  0.3147  0.3261 -0.7949
  179MPD1    C5 2781   4.616   4.721  15.325 -0.1498  0.2415 -0.2618
  179MPD1     H 2782   4.243   4.675  15.306 -0.3758  1.5552  0.6932
  179MPD1    H1 2783   4.615   4.574  15.483 -0.3944  1.1060  0.3585
  179MPD1    H2 2784   4.609   0.120  15.170  1.1696 -1.3668 -0.6424
  179MPD1    H3 2785   4.724   4.729  15.326 -0.1231 -0.5038  1.3428
  179MPD1     N 2786   4.360   4.507  15.482  0.5978 -0.2980  0.7334
  179MPD1    H5 2787   4.416   4.479  15.561  3.3680 -2.8414 -2.1355
  179MPD1    N1 2788   4.333   0.117  15.129 -0.3931 -0.1863 -0.2485
  179MPD1    H6 2789   4.380   0.161  15.051 -1.0149 -0.6710 -0.9031
  179MPD1    H7 2790   4.234   0.101  15.111 -0.4459 -0.9540  0.6772
  180MPD1     C 2791   3.961   1.039  14.832 -0.7467 -0.3786 -0.2061
  180MPD1    C1 2792   4.069   1.108  14.794 -0.0673  0.0248  0.9561
  180MPD1    C2 2793   4.129   1.066  14.677 -0.2137  0.8382  0.1444
  180MPD1    C3 2794   4.067   0.978  14.593 -0.1031  0.3129 -0.4709
  180MPD1    C4 2795   3.950   0.925  14.628 -0.3079  0.4730 -0.4500
  180MPD1    C5 2796   3.899   0.947  14.749 -0.1217 -0.4073 -0.7774
  180MPD1     H 2797   4.226   1.105  14.648 -0.4327  0.8703 -0.5505
  180MPD1    H1 2798   3.887   0.861  14.566  1.9466 -1.5507 -0.6843
  180MPD1    H2 2799   3.909   1.061  14.925 -1.5341  0.4662 -0.8511
  180MPD1    H3 2800   3.811   0.892  14.781 -0.0972  0.4768  0.7805
  180MPD1     N 2801   4.139   0.948  14.474 -0.1505  0.8581 -0.4735
  180MPD1    H5 2802   4.229   0.994  14.464 -0.0895  1.5132  3.2114
  180MPD1    N1 2803   4.142   1.191  14.882  0.2072  0.2428 -0.1147
  180MPD1    H6 2804   4.175   1.274  14.833 -0.3262  0.7942  0.4786
  180MPD1    H7 2805   4.093   1.230  14.962  2.9679  0.1942  1.6136
  181MPD1     C 2806   1.475   2.585  10.215 -1.0054  0.0790 -0.0242
  181MPD1    C1 2807   1.533   2.679  10.293 -0.1848 -0.8350 -0.2772
  181MPD1    C2 2808   1.637   2.756  10.242 -0.0593 -0.5073  0.2918
  181MPD1    C3 2809   1.689   2.724  10.115 -0.4889 -0.8802  0.5383
  181MPD1    C4 2810   1.626   2.626  10.040 -0.2802  0.0337 -0.5225
  181MPD1    C5 2811   1.516   2.557  10.091  0.5519  0.4017  0.2110
  181MPD1     H 2812   1.690   2.830  10.301 -0.0313 -1.8508  1.9317
  181MPD1    H1 2813   1.661   2.598   9.941 -1.7100 -2.4914 -0.3067
  181MPD1    H2 2814   1.389   2.532  10.256 -0.4157 -0.1153  0.9673
  181MPD1    H3 2815   1.480   2.479  10.024 -0.7739  2.2326 -1.1904
  181MPD1     N 2816   1.804   2.785  10.056  0.1655 -0.4563  0.3363
  181MPD1    H5 2817   1.821   2.755   9.960 -2.3378 -0.5488 -0.0843
  181MPD1    N1 2818   1.472   2.721  10.412  0.0733 -0.3190 -0.2072
  181MPD1    H6 2819   1.534   2.767  10.477 -0.3324 -2.7960  1.9693
  181MPD1    H7 2820   1.431   2.640  10.459  0.8268  0.4725  1.8218
  182MPD1     C 2821   2.375   1.987   1.605 -0.2451  0.1430  0.1150
  182MPD1    C1 2822   2.436   1.910   1.508  0.4730 -0.0183  0.7198
  182MPD1    C2 2823   2.384   1.911   1.381  0.9565  0.8072 -0.2114
  182MPD1    C3 2824   2.281   1.997   1.347  0.4980  0.8947 -0.5319
  182MPD1    C4 2825   2.222   2.074   1.441  0.3864  0.1005  0.6477
  182MPD1    C5 2826   2.273   2.065   1.564  0.2366 -0.5733 -0.3369
  182MPD1     H 2827   2.434   1.854   1.303 -2.2226 -3.6459  1.0285
  182MPD1    H1 2828   2.138   2.141   1.427  0.9784  0.7840  0.3543
  182MPD1    H2 2829   2.408   1.998   1.708 -0.8702 -0.5029  0.3864
  182MPD1    H3 2830   2.231   2.128   1.642 -1.0763 -3.2606  1.0943
  182MPD1     N 2831   2.246   2.016   1.207  1.2347  0.7584  0.0662
  182MPD1    H5 2832   2.188   2.098   1.193  0.1069  0.0924  0.8399
  182MPD1    N1 2833   2.556   1.851   1.535  0.4344  0.1584 -0.0551
  182MPD1    H6 2834   2.572   1.770   1.475 -1.4613 -1.1509  1.2197
  182MPD1    H7 2835   2.572   1.830   1.633  1.9888 -1.7560 -0.7066
  183MPD1     C 2836   2.498   2.059   8.250 -0.0143 -0.1420 -0.4185
  183MPD1    C1 2837   2.541   2.006   8.370 -0.2979  0.1790  0.5933
  183MPD1    C2 2838   2.539   2.086   8.479 -0.3711  0.0254  0.5824
  183MPD1    C3 2839   2.487   2.214   8.484 -0.9275  0.7476 -0.1461
  183MPD1    C4 2840   2.456   2.271   8.362 -0.1260 -0.2221  0.0241
  183MPD1    C5 2841   2.453   2.189   8.251 -0.1330  0.8019  0.3792
  183MPD1     H 2842   2.562   2.033   8.571 -1.5789 -0.8841  0.3650
  183MPD1    H1 2843   2.421   2.373   8.349 -1.8536 -0.8438 -0.1375
  183MPD1    H2 2844   2.516   2.009   8.156  0.5084  1.3921 -1.1469
  183MPD1    H3 2845   2.425   2.236   8.158  2.0035 -0.9260 -1.1581
  183MPD1     N 2846   2.487   2.281   8.608 -0.1709 -0.1532 -0.6615
  183MPD1    H5 2847   2.535   2.237   8.686 -2.1740  1.8039  1.6773
  183MPD1    N1 2848   2.598   1.880   8.371 -0.1896 -0.3034 -0.3466
  183MPD1    H6 2849   2.556   1.813   8.307  1.5770 -0.1310 -1.7016
  183MPD1    H7 2850   2.602   1.840   8.465  0.0112 -0.5531 -0.4617
  184MPD1     C 2851   1.338   0.339  10.157 -0.2959  0.6490  0.4836
  184MPD1    C1 2852   1.459   0.361  10.209  0.4777  0.5883 -0.1061
  184MPD1    C2 2853   1.536   0.444  10.137  0.5297  0.4944  0.5737
  184MPD1    C3 2854   1.501   0.500  10.012  0.8570  0.4378 -0.1237
  184MPD1    C4 2855   1.374   0.475   9.966 -0.0648 -0.1345 -0.2528
  184MPD1    C5 2856   1.293   0.394  10.039 -0.0010 -0.6675  0.9072
  184MPD1     H 2857   1.633   0.476  10.175  1.1934 -0.1728 -0.5407
  184MPD1    H1 2858   1.340   0.523   9.875  0.9174 -0.4528 -0.7950
  184MPD1    H2 2859   1.273   0.282  10.222  0.6931 -0.2073  0.7225
  184MPD1    H3 2860   1.201   0.367   9.990  0.0928  1.0395 -0.2447
  184MPD1     N 2861   1.586   0.588   9.939 -0.1473  0.8643  0.7967
  184MPD1    H5 2862   1.539   0.631   9.860 -0.5477  0.0846  0.6031
  184MPD1    N1 2863   1.505   0.297  10.323  0.5774 -0.1123 -0.1027
  184MPD1    H6 2864   1.556   0.370  10.372  1.2135 -1.0588  0.6588
  184MPD1    H7 2865   1.434   0.258  10.385 -1.2623  0.5730 -1.7847
  185MPD1     C 2866   1.597   1.325   9.271  0.4767 -0.1677  0.3684
  185MPD1    C1 2867   1.522   1.207   9.306  0.3832 -0.2599  0.4375
  185MPD1    C2 2868   1.571   1.128   9.406  0.8242 -0.4656 -0.0794
  185MPD1    C3 2869   1.679   1.166   9.484 -0.7424 -0.2094  0.0268
  185MPD1    C4 2870   1.745   1.286   9.463 -1.0931  0.9388  0.6892
  185MPD1    C5 2871   1.691   1.363   9.364  0.8734 -0.3740 -0.7504
  185MPD1     H 2872   1.521   1.032   9.415 -1.9000  1.0067  0.3850
  185MPD1    H1 2873   1.830   1.314   9.524  0.0054 -1.3104  0.1743
  185MPD1    H2 2874   1.575   1.396   9.192  1.1730 -0.6247 -0.2347
  185MPD1    H3 2875   1.729   1.464   9.353 -0.4621  0.4234  1.9970
  185MPD1     N 2876   1.733   1.082   9.590  0.3546  0.2576  0.0627
  185MPD1    H5 2877   1.823   1.103   9.631  0.4947  1.5562 -0.9053
  185MPD1    N1 2878   1.433   1.161   9.207 -0.2435  0.2564  0.4812
  185MPD1    H6 2879   1.384   1.231   9.152  1.3982  1.1106  0.0958
  185MPD1    H7 2880   1.356   1.105   9.241 -0.3401 -0.2528 -0.5767
  186MPD1     C 2881   0.022   4.365  15.938 -0.1326  0.6613  0.1926
  186MPD1    C1 2882   0.072   4.471  15.864  0.1659 -0.0502 -0.5163
  186MPD1    C2 2883   0.060   4.601  15.913 -0.4020 -0.1359 -0.6124
  186MPD1    C3 2884   4.728   4.627  16.034  0.3597 -0.1949 -0.7305
  186MPD1    C4 2885   4.677   4.514  16.103 -0.6540 -0.3731  0.5748
  186MPD1    C5 2886   4.704   4.392  16.058 -0.2603 -1.1930 -0.1371
  186MPD1     H 2887   0.086   4.680  15.844 -1.6029 -0.7700 -1.8011
  186MPD1    H1 2888   4.609   4.536  16.185 -1.8822 -0.1953 -0.4899
  186MPD1    H2 2889   0.047   4.263  15.911 -0.1996  0.2598  1.6562
  186MPD1    H3 2890   4.673   4.306  16.117  0.2380 -0.2593  1.4760
  186MPD1     N 2891   4.710   0.019  16.091 -0.2010 -0.8729 -0.1822
  186MPD1    H5 2892   4.670   0.012  16.184  1.2695 -0.1665  0.5058
  186MPD1    N1 2893   0.138   4.456  15.740 -0.5239 -0.3667 -0.2711
  186MPD1    H6 2894   0.100   4.381  15.681 -0.0937  0.0331 -1.0593
  186MPD1    H7 2895   0.153   4.541  15.686  0.7788 -0.5616 -0.2198
  187MPD1     C 2896   4.175   1.778   0.832  0.0322  0.8357 -0.2054
  187MPD1    C1 2897   4.175   1.679   0.737  0.0361 -0.2554 -0.1819
  187MPD1    C2 2898   4.235   1.716   0.617 -0.4583  0.2885 -1.0045
  187MPD1    C3 2899   4.267   1.845   0.579  0.4485  0.1951  0.6382
  187MPD1    C4 2900   4.255   1.939   0.676  0.7345  0.0951  0.1113
  187MPD1    C5 2901   4.207   1.909   0.801  0.4271 -0.0457 -0.3396
  187MPD1     H 2902   4.267   1.630   0.559 -0.5647  0.6259 -1.5664
  187MPD1    H1 2903   4.289   2.040   0.656 -1.7340  0.8018 -0.5093
  187MPD1    H2 2904   4.135   1.756   0.930  0.0763 -1.0669 -0.6114
  187MPD1    H3 2905   4.176   1.992   0.864  0.8966 -0.7062  0.7765
  187MPD1     N 2906   4.318   1.871   0.450 -0.1824  0.1651  0.6232
  187MPD1    H5 2907   4.366   1.960   0.444 -2.4717  1.4627  1.6606
  187MPD1    N1 2908   4.160   1.547   0.784 -0.5805 -0.3633 -0.2870
  187MPD1    H6 2909   4.093   1.553   0.860  0.6734 -0.0863  0.7924
  187MPD1    H7 2910   4.132   1.484   0.709  2.6443 -1.3902 -0.6070
  188MPD1     C 2911   4.242   1.908  10.067  0.1276 -0.3441 -0.3023
  188MPD1    C1 2912   4.266   1.800  10.148  0.0117 -0.0071 -0.3097
  188MPD1    C2 2913   4.267   1.672  10.107 -0.2129 -0.0635 -0.7168
  188MPD1    C3 2914   4.220   1.644   9.981 -0.8237 -0.1253  0.3435
  188MPD1    C4 2915   4.186   1.751   9.901  0.2060 -0.0640 -0.3179
  188MPD1    C5 2916   4.192   1.879   9.943  0.1024 -0.3546 -0.7331
  188MPD1     H 2917   4.312   1.596  10.170 -1.0302  1.4885  1.7281
  188MPD1    H1 2918   4.145   1.740   9.801 -1.1322 -0.0868  0.2344
  188MPD1    H2 2919   4.228   2.009  10.105  1.9246  0.8006 -2.6653
  188MPD1    H3 2920   4.179   1.961   9.874  3.6168 -1.5677 -2.8243
  188MPD1     N 2921   4.207   1.515   9.926 -0.0413 -0.0811 -0.5145
  188MPD1    H5 2922   4.175   1.517   9.829 -2.4634  2.9202  0.3154
  188MPD1    N1 2923   4.346   1.838  10.257  0.0371  0.0713  0.3384
  188MPD1    H6 2924   4.307   1.923  10.298 -1.3419  0.0004 -0.8225
  188MPD1    H7 2925   4.339   1.769  10.331  0.4999  1.0969  1.3412
  189MPD1     C 2926   1.098   2.823   0.399  0.5041  0.2332 -0.1801
  189MPD1    C1 2927   0.963   2.791   0.389  0.0335 -0.3541 -0.5594
  189MPD1    C2 2928   0.879   2.895   0.363 -0.7939  0.1952  0.5929
  189MPD1    C3 2929   0.925   3.027   0.346 -0.0713  0.0396 -0.1768
  189MPD1    C4 2930   1.056   3.058   0.354  0.0172 -0.1179 -0.3801
  189MPD1    C5 2931   1.136   2.959   0.382  0.1526 -0.5871  0.0165
  189MPD1     H 2932   0.773   2.872   0.365 -0.8315  0.2932 -0.2442
  189MPD1    H1 2933   1.093   3.158   0.333  1.6170 -0.7891 -0.7858
  189MPD1    H2 2934   1.171   2.744   0.411  2.8526  2.2238 -1.2537
  189MPD1    H3 2935   1.242   2.977   0.395 -0.0168 -0.4310  1.1395
  189MPD1     N 2936   0.834   3.128   0.328  0.2111  0.4204 -0.2612
  189MPD1    H5 2937   0.740   3.092   0.314  0.2682  0.1813 -0.0432
  189MPD1    N1 2938   0.915   2.660   0.421  0.0741  0.1375 -0.4300
  189MPD1    H6 2939   0.823   2.637   0.385 -0.2454  0.1327  0.3937
  189MPD1    H7 2940   0.982   2.602   0.370  0.5979  0.0023  0.4161
  190MPD1     C 2941   4.582   1.858  15.178  0.3704  0.1328  0.7205
  190MPD1    C1 2942   4.722   1.844  15.188 -0.2547  0.2226 -0.0506
  190MPD1    C2 2943   0.040   1.745  15.269 -0.6443  0.0503 -0.2231
  190MPD1    C3 2944   4.694   1.652  15.327  0.3128  0.4742 -0.3601
  190MPD1    C4 2945   4.556   1.660  15.304 -0.7402  0.4450  0.0178
  190MPD1    C5 2946   4.502   1.762  15.236 -0.1469 -0.0754 -0.3003
  190MPD1     H 2947   0.148   1.734  15.271 -0.7286 -0.5070  1.6192
  190MPD1    H1 2948   4.488   1.589  15.351  0.0119  0.9592  1.8779
  190MPD1    H2 2949   4.529   1.940  15.132  0.1043 -1.1271 -1.2088
  190MPD1    H3 2950   4.394   1.769  15.224 -0.0209  1.2682 -0.6609
  190MPD1     N 2951   0.021   1.564  15.420  0.0240  0.4939  0.0079
  190MPD1    H5 2952   0.118   1.579  15.447  0.4792 -1.7750 -0.3746
  190MPD1    N1 2953   0.068   1.943  15.141 -0.0672  0.1166 -0.2218
  190MPD1    H6 2954   0.032   1.979  15.052 -1.2450 -2.0327 -0.6032
  190MPD1    H7 2955   0.162   1.908  15.123 -0.4793 -1.0621 -0.0713
  191MPD1     C 2956   4.001   2.599  12.316  0.1490  0.0284 -0.4779
  191MPD1    C1 2957   4.015   2.736  12.315  0.1168  0.7265 -0.4600
  191MPD1    C2 2958   4.048   2.801  12.201 -0.9807  0.0560 -0.0770
  191MPD1    C3 2959   4.059   2.733  12.076  0.1010  0.1992 -0.0227
  191MPD1    C4 2960   4.024   2.599  12.074 -0.0711 -0.4103  0.2132
  191MPD1    C5 2961   4.002   2.529  12.193  0.0961 -0.6163 -0.0311
  191MPD1     H 2962   4.052   2.910  12.198  2.2048 -0.1623 -2.5545
  191MPD1    H1 2963   4.021   2.537  11.985  1.9856 -1.0498  0.5994
  191MPD1    H2 2964   3.984   2.537  12.404 -1.1672  0.8871 -0.1271
  191MPD1    H3 2965   3.983   2.422  12.190  3.2292 -1.1473 -0.5169
  191MPD1     N 2966   4.097   2.808  11.964 -0.4679 -0.5609  0.3514
  191MPD1    H5 2967   4.111   2.906  11.983  1.0377 -1.0030  1.5285
  191MPD1    N1 2968   4.017   2.815  12.434 -0.3217  0.0316 -0.5872
  191MPD1    H6 2969   3.991   2.763  12.518  0.7624 -3.1736 -2.2416
  191MPD1    H7 2970   3.971   2.906  12.428 -2.2498 -0.8255  1.1502
  192MPD1     C 2971   4.429   2.511  11.051  0.3542 -0.1893 -0.1972
  192MPD1    C1 2972   4.374   2.632  11.029  0.0245 -0.5765 -0.3459
  192MPD1    C2 2973   4.325   2.704  11.139  0.1428  0.2178  0.1790
  192MPD1    C3 2974   4.363   2.673  11.269 -0.0080  0.1157 -0.3163
  192MPD1    C4 2975   4.442   2.562  11.286  0.3997 -0.5384  0.8332
  192MPD1    C5 2976   4.475   2.484  11.180  0.7018 -0.7468 -0.1588
  192MPD1     H 2977   4.262   2.792  11.130  0.0215  0.2278  1.0741
  192MPD1    H1 2978   4.480   2.546  11.386 -0.7179  2.0733  1.6874
  192MPD1    H2 2979   4.470   2.447  10.974 -0.0019  0.8407 -1.2402
  192MPD1    H3 2980   4.542   2.402  11.201  0.2484 -1.1718 -0.3847
  192MPD1     N 2981   4.335   2.751  11.385 -0.9704 -0.2576  0.0692
  192MPD1    H5 2982   4.366   2.707  11.471  0.7527 -0.6076 -0.7379
  192MPD1    N1 2983   4.351   2.679  10.899  0.1243 -0.2295 -0.1332
  192MPD1    H6 2984   4.332   2.779  10.902  0.6287 -0.1806  1.3738
  192MPD1    H7 2985   4.272   2.627  10.863 -1.4021  1.7903  0.2972
  193MPD1     C 2986   3.358   3.332  15.999 -0.2511  0.0595  0.7523
  193MPD1    C1 2987   3.394   3.243  16.095 -0.3107 -0.0344 -0.0725
  193MPD1    C2 2988   3.465   3.297  16.203 -0.1810  0.3160  0.1674
  193MPD1    C3 2989   3.518   3.423  16.211  0.6594 -0.6723 -0.7475
  193MPD1    C4 2990   3.489   3.505  16.101 -0.1671  0.0586 -1.1493
  193MPD1    C5 2991   3.404   3.456  16.001 -0.2109  0.0669 -0.3300
  193MPD1     H 2992   3.476   3.232  16.289  0.2914 -2.2321 -1.8195
  193MPD1    H1 2993   3.531   3.605  16.102 -1.6052  0.6475  0.3206
  193MPD1    H2 2994   3.298   3.301  15.915 -0.3038 -0.9178  1.1424
  193MPD1    H3 2995   3.376   3.528  15.924 -0.5414  0.0288 -0.2441
  193MPD1     N 2996   3.594   3.472  16.324 -0.0719 -0.1542 -0.2207
  193MPD1    H5 2997   3.638   3.562  16.308 -0.3024 -0.0884 -0.4815
  193MPD1    N1 2998   3.338   3.117  16.114 -0.0024 -0.3653 -0.0460
  193MPD1    H6 2999   3.399   3.048  16.157 -2.5451 -1.5488  1.7271
  193MPD1    H7 3000   3.315   3.086  16.020 -1.1991  2.0623 -0.5516
  194MPD1     C 3001   1.207   0.824  16.447  0.3467 -0.2622  0.1066
  194MPD1    C1 3002   1.187   0.700  16.393  0.7387 -0.1300 -0.0618
  194MPD1    C2 3003   1.243   0.588  16.453 -0.1930 -0.3586 -0.3579
  194MPD1    C3 3004   1.345   0.606  16.546  0.0999 -0.7049 -0.1924
  194MPD1    C4 3005   1.365   0.734  16.593 -0.0924  0.2717  0.6555
  194MPD1    C5 3006   1.289   0.837  16.551 -0.3612  0.4434  1.0140
  194MPD1     H 3007   1.211   0.489  16.423  1.5939 -1.3315  0.8987
  194MPD1    H1 3008   1.453   0.745  16.655  0.2884  2.0609 -0.2091
  194MPD1    H2 3009   1.161   0.916  16.412  1.3402 -0.1425 -0.8972
  194MPD1    H3 3010   1.300   0.935  16.596 -2.0657  1.5652 -0.9886
  194MPD1     N 3011   1.415   0.499  16.606  0.2736 -0.0804  0.0589
  194MPD1    H5 3012   1.460   0.515  16.696  0.4485  1.8222 -0.3637
  194MPD1    N1 3013   1.096   0.683  16.291  0.8508 -0.0638  0.0740
  194MPD1    H6 3014   1.107   0.597  16.237  1.1007  0.4696 -0.7124
  194MPD1    H7 3015   1.096   0.764  16.229  1.3787  0.4635  0.7696
  195MPD1     C 3016   4.078   2.212   0.465  0.2568 -0.3571  0.5220
  195MPD1    C1 3017   4.113   2.210   0.331  0.2374  0.5496 -0.4133
  195MPD1    C2 3018   4.055   2.114   0.251  0.9239 -0.6895  1.1873
  195MPD1    C3 3019   3.962   2.030   0.311  0.5388 -1.0977 -0.7355
  195MPD1    C4 3020   3.938   2.015   0.443 -0.4819 -0.3068 -0.5705
  195MPD1    C5 3021   3.994   2.110   0.520 -0.0724 -0.2574  0.1129
  195MPD1     H 3022   4.062   2.110   0.142  1.9858 -0.1445  1.2407
  195MPD1    H1 3023   3.863   1.947   0.482 -0.6930  0.2903  0.0616
  195MPD1    H2 3024   4.114   2.288   0.534  1.2089 -0.4694  0.1512
  195MPD1    H3 3025   3.976   2.117   0.626  2.3575 -0.0577  0.5147
  195MPD1     N 3026   3.880   1.952   0.228 -0.3728  0.8139  0.1849
  195MPD1    H5 3027   3.806   1.902   0.276  0.1632 -0.2234 -0.0587
  195MPD1    N1 3028   4.208   2.304   0.280  0.7807  0.3630  0.2938
  195MPD1    H6 3029   4.203   2.396   0.323 -0.7650  0.5613 -0.2976
  195MPD1    H7 3030   4.212   2.309   0.179 -1.2892  0.4272  0.2172
  196MPD1     C 3031   2.614   1.593  17.452 -0.7584  0.8853  1.0022
  196MPD1    C1 3032   2.588   1.497  17.547  0.0770  0.5593  0.3541
  196MPD1    C2 3033   2.646   1.511  17.671 -0.4627  0.4828 -0.6222
  196MPD1    C3 3034   2.741   1.614  17.703 -0.1935 -0.2182  0.2215
  196MPD1    C4 3035   2.766   1.704  17.605  0.0079  0.6217  0.9605
  196MPD1    C5 3036   2.697   1.694  17.489 -0.0546  0.0015 -0.3203
  196MPD1     H 3037   2.602   1.442   0.001  0.2791 -0.2677 -0.8979
  196MPD1    H1 3038   2.834   1.787  17.623  1.1578  0.3611 -2.1286
  196MPD1    H2 3039   2.573   1.594  17.351 -1.4322 -0.2867  1.2619
  196MPD1    H3 3040   2.702   1.774  17.416  0.9770 -0.1052 -0.3658
  196MPD1     N 3041   2.789   1.633   0.098 -0.0357 -0.4651 -0.3948
  196MPD1    H5 3042   2.863   1.701   0.109 -0.2709 -0.2381 -0.2272
  196MPD1    N1 3043   2.501   1.389  17.519 -0.4163  0.3179  0.1469
  196MPD1    H6 3044   2.427   1.419  17.455 -0.1305  0.9588  0.1183
  196MPD1    H7 3045   2.458   1.344  17.599 -0.0588  0.5842  0.4866
  197MPD1     C 3046   2.453   3.227  17.508  0.1662 -0.6562 -0.3040
  197MPD1    C1 3047   2.552   3.313  17.557 -0.0920  0.5564 -0.1098
  197MPD1    C2 3048   2.581   3.425  17.487 -0.1266 -0.0187 -0.1454
  197MPD1    C3 3049   2.530   3.441  17.359  0.5907 -0.7388 -0.3844
  197MPD1    C4 3050   2.439   3.356  17.310  0.3324 -0.1624 -0.4051
  197MPD1    C5 3051   2.398   3.249  17.386 -0.1187  0.8555 -0.3085
  197MPD1     H 3052   2.652   3.494  17.532 -1.3820  0.6914  0.7391
  197MPD1    H1 3053   2.393   3.384  17.216  1.6668  1.2134 -0.6440
  197MPD1    H2 3054   2.407   3.151  17.570 -0.6952  1.1683  1.2754
  197MPD1    H3 3055   2.315   3.192  17.346  0.4523 -0.1366 -0.0677
  197MPD1     N 3056   2.568   3.550  17.281  0.0347 -0.3084  0.7179
  197MPD1    H5 3057   2.529   3.555  17.188  1.4497  2.2892  0.2563
  197MPD1    N1 3058   2.590   3.309  17.690  0.2305  0.0984  0.2822
  197MPD1    H6 3059   2.591   3.216  17.732 -1.7187  0.2145  0.5945
  197MPD1    H7 3060   2.681   3.352  17.705 -1.1275  3.1161 -0.2136
  198MPD1     C 3061   4.538   2.529  14.764  0.3148  0.5705 -0.6935
  198MPD1    C1 3062   4.673   2.529  14.766  0.3031  0.0486 -0.0481
  198MPD1    C2 3063   4.735   2.524  14.894 -0.7937 -0.7503  0.5810
  198MPD1    C3 3064   4.657   2.539  15.007 -0.2409  0.5242 -0.5236
  198MPD1    C4 3065   4.520   2.547  14.999 -0.2526  0.1196 -0.6207
  198MPD1    C5 3066   4.461   2.534  14.878  0.1159  0.1810 -0.6287
  198MPD1     H 3067   0.107   2.522  14.895 -0.7910 -0.4914  1.0932
  198MPD1    H1 3068   4.457   2.563  15.086  1.4503  0.0117  0.6363
  198MPD1    H2 3069   4.492   2.525  14.666 -2.6018  2.0942  0.6228
  198MPD1    H3 3070   4.353   2.535  14.874  0.0764  0.4628  0.5349
  198MPD1     N 3071   4.720   2.546  15.134 -0.7697 -0.4084 -0.4056
  198MPD1    H5 3072   0.086   2.536  15.130 -0.8274 -1.6999  1.8205
  198MPD1    N1 3073   0.012   2.512  14.646 -0.4412 -0.5837 -0.3267
  198MPD1    H6 3074   0.111   2.530  14.659 -0.8902  1.5395  0.2123
  198MPD1    H7 3075   4.701   2.558  14.568 -0.1670 -1.1354 -0.8139
  199MPD1     C 3076   2.686   3.723   8.851  0.4199 -0.2900 -0.5879
  199MPD1    C1 3077   2.700   3.803   8.961  0.4535  0.1247 -0.2941
  199MPD1    C2 3078   2.606   3.780   9.069  0.1585  0.3865 -0.5990
  199MPD1    C3 3079   2.506   3.680   9.061 -0.2042 -0.6200 -0.4744
  199MPD1    C4 3080   2.519   3.599   8.954  0.1069  0.5452 -0.2501
  199MPD1    C5 3081   2.599   3.624   8.852  0.1822 -0.0919 -1.4812
  199MPD1     H 3082   2.619   3.840   9.158  0.1883 -2.1082  1.0785
  199MPD1    H1 3083   2.463   3.507   8.942  1.2565 -0.2870  0.8156
  199MPD1    H2 3084   2.736   3.739   8.756 -0.7837  2.4961 -0.7607
  199MPD1    H3 3085   2.593   3.548   8.774 -0.6875  1.7716 -3.2339
  199MPD1     N 3086   2.404   3.652   9.151 -0.4250  0.0573 -0.0491
  199MPD1    H5 3087   2.344   3.570   9.145  0.8565 -1.1200  3.0146
  199MPD1    N1 3088   2.780   3.916   8.956 -0.5624 -0.3829  1.0152
  199MPD1    H6 3089   2.803   3.945   9.051 -1.3551  3.8009 -0.0794
  199MPD1    H7 3090   2.862   3.909   8.896  0.3859  2.3675  1.9609
  200MPD1     C 3091   1.315   3.929  15.642 -0.6378 -0.0845  0.4172
  200MPD1    C1 3092   1.389   3.834  15.571  0.4291  0.2242 -1.0289
  200MPD1    C2 3093   1.375   3.828  15.434 -0.0862  0.0505 -0.0840
  200MPD1    C3 3094   1.302   3.914  15.365  0.4383  0.0428 -0.2645
  200MPD1    C4 3095   1.243   4.021  15.430 -0.1555 -0.4197  0.4544
  200MPD1    C5 3096   1.248   4.024  15.566  0.5545  0.2829  0.2627
  200MPD1     H 3097   1.437   3.757  15.380  1.2815  1.6471 -0.6052
  200MPD1    H1 3098   1.170   4.090  15.390  0.3213  0.6365  1.3990
  200MPD1    H2 3099   1.315   3.934  15.750 -2.2666 -0.4698  0.4436
  200MPD1    H3 3100   1.193   4.098  15.623  0.7684  0.7517 -0.1467
  200MPD1     N 3101   1.281   3.887  15.229 -0.0363  0.0043 -0.7674
  200MPD1    H5 3102   1.325   3.807  15.184 -1.0902 -0.3028 -1.2510
  200MPD1    N1 3103   1.476   3.753  15.641  0.1796  0.4670  0.0590
  200MPD1    H6 3104   1.463   3.748  15.742 -0.4907 -1.7742 -0.1252
  200MPD1    H7 3105   1.476   3.665  15.590  0.1561  1.0004 -0.8626
  201MPD1     C 3106   2.977   2.433  12.967  0.1303 -0.5049  0.1461
  201MPD1    C1 3107   3.074   2.472  13.059 -0.6096 -0.4304  0.5866
  201MPD1    C2 3108   3.125   2.363  13.134  0.2674 -0.2589  0.2845
  201MPD1    C3 3109   3.061   2.239  13.139  0.1783  0.0595 -0.2925
  201MPD1    C4 3110   2.957   2.211  13.051  0.2528  0.1482  0.5122
  201MPD1    C5 3111   2.915   2.310  12.969  0.1367 -1.2062  0.6994
  201MPD1     H 3112   3.209   2.369  13.203 -0.1117  0.2244  0.7059
  201MPD1    H1 3113   2.900   2.119  13.056  0.6440 -0.3272 -4.1880
  201MPD1    H2 3114   2.943   2.510  12.898  0.6173 -0.6909 -0.2981
  201MPD1    H3 3115   2.827   2.294  12.908  1.0402  0.4413 -1.0497
  201MPD1     N 3116   3.096   2.152  13.240  0.1827 -0.0398  0.0625
  201MPD1    H5 3117   3.177   2.174  13.297 -0.6433  0.3568  1.0820
  201MPD1    N1 3118   3.146   2.593  13.042 -0.5236 -0.3778  0.2293
  201MPD1    H6 3119   3.098   2.682  13.035 -0.0494 -0.1368  0.0182
  201MPD1    H7 3120   3.211   2.604  13.120 -0.7444 -4.1588  0.9749
  202MPD1     C 3121   2.782   1.215   8.617  0.1395  0.2419  0.2081
  202MPD1    C1 3122   2.712   1.320   8.664  0.4087 -0.0318  0.2610
  202MPD1    C2 3123   2.760   1.368   8.790  0.1684 -0.1019 -0.1146
  202MPD1    C3 3124   2.883   1.335   8.841  0.0494  0.1039 -0.4422
  202MPD1    C4 3125   2.944   1.224   8.787  0.4409 -0.0730 -0.0844
  202MPD1    C5 3126   2.896   1.171   8.676 -0.3740  0.0494 -0.3096
  202MPD1     H 3127   2.697   1.445   8.834 -1.3643 -1.4743  0.1091
  202MPD1    H1 3128   3.041   1.187   8.820  0.1981 -0.0302  0.6859
  202MPD1    H2 3129   2.751   1.162   8.527  1.4569  0.1410 -0.1796
  202MPD1    H3 3130   2.952   1.091   8.627 -1.1444 -0.0973 -0.9644
  202MPD1     N 3131   2.958   1.404   8.940  0.0615  0.1278 -0.4678
  202MPD1    H5 3132   3.054   1.374   8.957  0.7179  1.8145 -1.1811
  202MPD1    N1 3133   2.578   1.330   8.627  0.4662  0.3513  0.1833
  202MPD1    H6 3134   2.571   1.321   8.525 -1.6142  0.5347  0.3292
  202MPD1    H7 3135   2.535   1.416   8.658 -2.5652 -0.3288 -2.1519
  203MPD1     C 3136   1.528   2.033  12.197 -0.6808 -0.4121 -0.3617
  203MPD1    C1 3137   1.596   1.954  12.116 -0.3257 -0.7231 -0.0723
  203MPD1    C2 3138   1.704   1.883  12.171 -0.3447  0.2734  0.5098
  203MPD1    C3 3139   1.742   1.895  12.303 -0.3548 -0.5345  0.2817
  203MPD1    C4 3140   1.672   1.979  12.383  0.1442 -0.2275  0.2665
  203MPD1    C5 3141   1.568   2.043  12.326  0.5902  0.0944  0.3361
  203MPD1     H 3142   1.765   1.828  12.100 -0.9283 -1.9961  1.7814
  203MPD1    H1 3143   1.690   1.989  12.489 -0.9248  0.7108  0.3625
  203MPD1    H2 3144   1.439   2.085  12.164  0.5294  1.8648 -0.0453
  203MPD1    H3 3145   1.513   2.110  12.391  0.8456  1.5551 -0.9430
  203MPD1     N 3146   1.858   1.830  12.348  0.3694 -1.3063 -0.4510
  203MPD1    H5 3147   1.901   1.764  12.283  1.5706  1.5267 -2.5281
  203MPD1    N1 3148   1.577   1.944  11.979  0.0010  0.4237 -0.1571
  203MPD1    H6 3149   1.477   1.939  11.960 -0.3940 -2.8472  2.8201
  203MPD1    H7 3150   1.609   1.853  11.946  1.2017  1.1792 -1.0612
  204MPD1     C 3151   1.068   4.423  17.181 -0.2079 -0.0020  1.3344
  204MPD1    C1 3152   1.145   4.380  17.079 -0.6477  0.8733  0.0920
  204MPD1    C2 3153   1.218   4.260  17.093 -0.9764 -0.6549  0.1562
  204MPD1    C3 3154   1.211   4.195  17.213  0.0917 -0.2104  0.2026
  204MPD1    C4 3155   1.122   4.228  17.309 -0.0138  0.0237 -0.0107
  204MPD1    C5 3156   1.059   4.347  17.294 -0.4070 -0.1551 -0.6057
  204MPD1     H 3157   1.293   4.240  17.017 -2.0910  1.4646 -1.4894
  204MPD1    H1 3158   1.091   4.173  17.398  1.0438  0.8276  0.8479
  204MPD1    H2 3159   1.004   4.510  17.169  0.7687  0.5142 -0.2204
  204MPD1    H3 3160   0.978   4.375  17.361  2.5829  0.4245  2.7613
  204MPD1     N 3161   1.301   4.086  17.231 -0.6956 -0.5816 -0.7814
  204MPD1    H5 3162   1.369   4.071  17.158  0.4633 -0.8213  0.3485
  204MPD1    N1 3163   1.168   4.453  16.965 -0.4009 -0.1865 -0.1073
  204MPD1    H6 3164   1.162   4.554  16.978  0.5168 -0.3989  2.0718
  204MPD1    H7 3165   1.263   4.432  16.936 -0.5172  0.1169 -0.7076
  205MPD1     C 3166   1.812   2.431  16.682  0.6670  0.6680  0.6914
  205MPD1    C1 3167   1.862   2.529  16.763  0.6161  0.2597  0.5787
  205MPD1    C2 3168   1.787   2.578  16.871  0.6727  0.2971  0.0828
  205MPD1    C3 3169   1.663   2.531  16.903  0.0470 -0.7764 -0.0520
  205MPD1    C4 3170   1.614   2.424  16.824  0.5932 -0.3501 -0.1560
  205MPD1    C5 3171   1.690   2.372  16.712  0.1283 -0.4532 -0.4726
  205MPD1     H 3172   1.830   2.655  16.934 -0.2745  0.4899  0.4962
  205MPD1    H1 3173   1.513   2.390  16.848  0.8788 -0.5552  0.7405
  205MPD1    H2 3174   1.859   2.398  16.591 -0.3975 -1.6515  0.9839
  205MPD1    H3 3175   1.645   2.303  16.642  1.3678  0.9768 -2.6683
  205MPD1     N 3176   1.587   2.575  17.016 -0.5120 -0.3020  0.0821
  205MPD1    H5 3177   1.492   2.540  17.024 -1.0180  1.2471  0.7939
  205MPD1    N1 3178   1.981   2.595  16.728  0.1918 -0.0216  0.2563
  205MPD1    H6 3179   2.027   2.605  16.818  0.9925  1.0158 -0.2591
  205MPD1    H7 3180   2.031   2.525  16.674 -0.2029  0.7853 -1.1700
  206MPD1     C 3181   1.862   0.509  16.618  0.2953 -0.3603  0.2170
  206MPD1    C1 3182   1.795   0.631  16.635  0.8411 -0.6466  0.5806
  206MPD1    C2 3183   1.718   0.683  16.532  0.2108  0.2888 -0.4565
  206MPD1    C3 3184   1.691   0.604  16.422 -0.4314  0.3567  0.0809
  206MPD1    C4 3185   1.731   0.475  16.419 -0.1426 -0.4362 -0.0311
  206MPD1    C5 3186   1.815   0.430  16.514  0.6000  0.0272 -0.1220
  206MPD1     H 3187   1.671   0.780  16.544  0.6386  0.5485 -0.8458
  206MPD1    H1 3188   1.713   0.407  16.337 -2.1816  1.2774 -1.0107
  206MPD1    H2 3189   1.928   0.470  16.694  0.6712  1.5391  0.8362
  206MPD1    H3 3190   1.862   0.335  16.493  0.7926  0.6356 -2.5523
  206MPD1     N 3191   1.607   0.640  16.312  0.4004 -0.0328  0.1604
  206MPD1    H5 3192   1.568   0.564  16.256  1.8114  0.4924 -1.5290
  206MPD1    N1 3193   1.842   0.716  16.735  0.0643  0.5916  0.2204
  206MPD1    H6 3194   1.874   0.670  16.820 -1.8202 -0.0275  0.5959
  206MPD1    H7 3195   1.780   0.795  16.752  2.8276  2.3484  2.0268
  207MPD1     C 3196   4.314   3.358   9.388  0.0963  0.1722  0.8329
  207MPD1    C1 3197   4.328   3.488   9.432  0.4989  0.9650  0.3837
  207MPD1    C2 3198   4.382   3.510   9.560  0.0840  0.0121 -0.6341
  207MPD1    C3 3199   4.415   3.402   9.647 -0.2109 -0.2406 -0.0857
  207MPD1    C4 3200   4.389   3.275   9.602  0.0242  0.8616  0.0380
  207MPD1    C5 3201   4.351   3.262   9.472 -0.0617 -0.5500  0.0823
  207MPD1     H 3202   4.383   3.614   9.592  2.5108 -0.1875 -0.1032
  207MPD1    H1 3203   4.399   3.188   9.665 -0.0189 -0.6513 -2.0586
  207MPD1    H2 3204   4.270   3.329   9.293 -0.1347 -1.9534  1.5919
  207MPD1    H3 3205   4.332   3.161   9.439  1.3108 -1.1933  1.2791
  207MPD1     N 3206   4.461   3.420   9.781 -0.5002  0.0899  0.5911
  207MPD1    H5 3207   4.464   3.337   9.840  0.6667  0.7421  1.4424
  207MPD1    N1 3208   4.266   3.595   9.362  0.1393 -0.0706  0.0512
  207MPD1    H6 3209   4.300   3.605   9.267  0.8015 -0.2814  0.2585
  207MPD1    H7 3210   4.274   3.682   9.414 -1.5806 -1.6143  2.9063
  208MPD1     C 3211   2.070   2.541  17.270 -0.2362 -0.3786  0.3586
  208MPD1    C1 3212   2.021   2.439  17.185 -0.1755  0.9017  0.0680
  208MPD1    C2 3213   1.985   2.314  17.240  0.6337 -0.4122  0.0513
  208MPD1    C3 3214   2.006   2.294  17.379 -0.2471  0.3080 -0.0394
  208MPD1    C4 3215   2.059   2.400  17.449 -0.6285 -1.4642 -0.5716
  208MPD1    C5 3216   2.066   2.529  17.403 -0.3502  0.0953  0.3816
  208MPD1     H 3217   1.947   2.234  17.179 -0.3682 -1.2494  1.7862
  208MPD1    H1 3218   2.067   2.403  17.557 -0.2289  0.8486 -0.6457
  208MPD1    H2 3219   2.111   2.631  17.227 -0.8015 -0.4316 -0.2999
  208MPD1    H3 3220   2.111   2.608  17.462 -0.9062 -0.1023  1.0744
  208MPD1     N 3221   1.977   2.164  17.428 -0.4436 -0.4567 -0.7869
  208MPD1    H5 3222   1.931   2.102  17.363 -1.1154 -1.1688  0.3627
  208MPD1    N1 3223   2.031   2.462  17.049 -0.8340  0.3072  0.3408
  208MPD1    H6 3224   1.975   2.397  16.994 -0.1277  2.0146 -2.4072
  208MPD1    H7 3225   2.012   2.561  17.037 -0.9930 -0.1267 -3.2397
  209MPD1     C 3226   4.037   2.416   9.754 -0.1598 -0.9706 -0.4857
  209MPD1    C1 3227   4.122   2.526   9.756  0.6234 -0.0401  0.5292
  209MPD1    C2 3228   4.218   2.522   9.849 -0.4967 -0.3864  0.6439
  209MPD1    C3 3229   4.230   2.424   9.955  0.2808 -1.1388 -0.6581
  209MPD1    C4 3230   4.139   2.322   9.949 -0.5584  0.3312 -0.3031
  209MPD1    C5 3231   4.041   2.321   9.852 -0.3317 -0.0997  0.0399
  209MPD1     H 3232   4.298   2.596   9.846 -2.2754  1.5342  0.4289
  209MPD1    H1 3233   4.139   2.236  10.014 -1.4925  0.9403  0.4966
  209MPD1    H2 3234   3.963   2.398   9.677 -2.2125 -0.2061  1.3037
  209MPD1    H3 3235   3.973   2.240   9.829  0.3581 -1.2653  2.1290
  209MPD1     N 3236   4.332   2.431  10.044 -0.1684 -0.2190 -0.1208
  209MPD1    H5 3237   4.392   2.512  10.032  0.0493 -0.1113  1.8309
  209MPD1    N1 3238   4.111   2.638   9.668  0.3451 -0.0733 -0.2458
  209MPD1    H6 3239   4.012   2.647   9.648  0.5530 -1.2159 -1.8439
  209MPD1    H7 3240   4.132   2.727   9.712 -0.2074 -0.7489  1.3642
  210MPD1     C 3241   0.489   2.054  10.373  0.0504  0.1983  0.0452
  210MPD1    C1 3242   0.364   1.996  10.407 -0.0478  0.2967 -0.9934
  210MPD1    C2 3243   0.248   2.069  10.398  0.5709  0.4878  0.0477
  210MPD1    C3 3244   0.256   2.202  10.359 -0.2178 -0.0919 -0.4954
  210MPD1    C4 3245   0.380   2.258  10.331  0.1315 -0.2382 -0.3638
  210MPD1    C5 3246   0.490   2.181  10.333  0.4845  0.7834 -0.4469
  210MPD1     H 3247   0.154   2.019  10.421  0.1994  0.9009 -0.5553
  210MPD1    H1 3248   0.391   2.363  10.304 -0.4052 -0.7222 -2.4949
  210MPD1    H2 3249   0.582   1.999  10.380 -0.1316 -0.3307 -1.6867
  210MPD1    H3 3250   0.582   2.235  10.311  0.6629  0.2452 -1.0298
  210MPD1     N 3251   0.137   2.280  10.343  0.8674 -0.7181 -0.2452
  210MPD1    H5 3252   0.143   2.375  10.308  1.0301 -0.5615  0.2132
  210MPD1    N1 3253   0.361   1.862  10.434  0.2589  0.4172  0.8418
  210MPD1    H6 3254   0.281   1.832  10.488  0.4161  0.5024  1.1232
  210MPD1    H7 3255   0.443   1.829  10.486 -0.5961 -0.1491  1.8210
  211MPD1     C 3256   1.402   2.340  16.320  0.2318  0.3867  0.1383
  211MPD1    C1 3257   1.372   2.281  16.443 -0.1771  0.6491  0.0031
  211MPD1    C2 3258   1.363   2.360  16.554 -0.0570 -0.1526  0.4119
  211MPD1    C3 3259   1.397   2.492  16.552 -0.4786  0.8152  0.2694
  211MPD1    C4 3260   1.430   2.555  16.432  0.2694 -0.1742 -0.1016
  211MPD1    C5 3261   1.435   2.473  16.321 -0.3082 -0.2796 -0.4202
  211MPD1     H 3262   1.340   2.318  16.651 -0.8380 -2.7958 -0.9277
  211MPD1    H1 3263   1.453   2.660  16.418  1.9249 -0.6593 -1.0198
  211MPD1    H2 3264   1.408   2.279  16.231  0.1979  1.0514 -0.3234
  211MPD1    H3 3265   1.476   2.517  16.231  0.0396 -0.2923 -0.2711
  211MPD1     N 3266   1.382   2.573  16.670  0.7567 -0.4129  0.1669
  211MPD1    H5 3267   1.332   2.530  16.748 -0.1045 -1.8182 -1.1661
  211MPD1    N1 3268   1.348   2.146  16.450  0.2700  0.7530 -0.0650
  211MPD1    H6 3269   1.382   2.105  16.537  0.5700 -1.4973 -1.2365
  211MPD1    H7 3270   1.384   2.089  16.374 -2.1030 -0.1819 -0.5144
  212MPD1     C 3271   1.121   0.735  16.867  0.7734 -0.4266  0.0363
  212MPD1    C1 3272   1.067   0.724  16.995  0.2779  0.2460 -0.5439
  212MPD1    C2 3273   0.946   0.656  17.008  0.3880 -0.3812  0.0031
  212MPD1    C3 3274   0.886   0.586  16.904 -0.2704  0.0170 -0.1098
  212MPD1    C4 3275   0.946   0.588  16.780 -0.6663  0.5927 -0.4425
  212MPD1    C5 3276   1.055   0.672  16.762 -0.4575  0.3622 -0.2999
  212MPD1     H 3277   0.908   0.640  17.108 -0.7636  2.4738  0.0060
  212MPD1    H1 3278   0.900   0.540  16.694  0.5520  1.6799 -1.6909
  212MPD1    H2 3279   1.218   0.775  16.840  1.3159 -0.9766  1.1517
  212MPD1    H3 3280   1.094   0.671  16.661  0.5808  3.2082  0.1046
  212MPD1     N 3281   0.768   0.511  16.921 -0.7333 -0.2407 -0.1238
  212MPD1    H5 3282   0.739   0.453  16.842 -2.2615 -1.9774  1.7040
  212MPD1    N1 3283   1.142   0.777  17.106  0.7256  0.0087  0.6344
  212MPD1    H6 3284   1.079   0.844  17.151  1.5620  0.6771  0.7998
  212MPD1    H7 3285   1.226   0.831  17.087  0.5731  0.7134  1.9492
  213MPD1     C 3286   4.066   1.454  15.747  0.3379  0.3991 -0.1061
  213MPD1    C1 3287   3.932   1.420  15.752  0.2590 -0.3714 -0.1956
  213MPD1    C2 3288   3.855   1.486  15.654 -0.3053 -0.2114 -0.3210
  213MPD1    C3 3289   3.915   1.534  15.535  1.1699 -0.1788  0.6798
  213MPD1    C4 3290   4.053   1.542  15.521  0.1181 -0.4951  0.6735
  213MPD1    C5 3291   4.121   1.501  15.628  0.1870 -0.0949 -0.3711
  213MPD1     H 3292   3.751   1.509  15.676  0.0134  2.5504 -1.6211
  213MPD1    H1 3293   4.107   1.581  15.436 -0.3634 -1.1977  0.0417
  213MPD1    H2 3294   4.141   1.407  15.809 -1.1909 -2.6268 -0.5326
  213MPD1    H3 3295   4.228   1.511  15.614  0.3899  1.2333  2.1959
  213MPD1     N 3296   3.832   1.575  15.421 -0.1960  0.3585 -0.3078
  213MPD1    H5 3297   3.731   1.568  15.433 -0.1095  1.5844  1.2041
  213MPD1    N1 3298   3.879   1.392  15.877 -0.1400 -0.1056 -0.3713
  213MPD1    H6 3299   3.933   1.321  15.927 -1.8781 -1.8492 -0.9906
  213MPD1    H7 3300   3.783   1.359  15.871 -0.0803 -0.0781 -1.4377
  214MPD1     C 3301   3.236   1.024  15.134  0.0263  0.3164 -0.1078
  214MPD1    C1 3302   3.218   1.118  15.035 -0.1928 -0.0399 -0.5832
  214MPD1    C2 3303   3.283   1.238  15.053  0.0448  0.0050  0.0351
  214MPD1    C3 3304   3.389   1.253  15.142 -0.0751  0.6409 -0.1934
  214MPD1    C4 3305   3.417   1.147  15.226  0.3161 -0.1388  0.0065
  214MPD1    C5 3306   3.347   1.034  15.222  0.7336 -0.4828 -0.3116
  214MPD1     H 3307   3.251   1.324  14.996  0.1277  0.8060  1.2051
  214MPD1    H1 3308   3.492   1.143  15.303 -0.6904 -1.0830  0.9394
  214MPD1    H2 3309   3.176   0.934  15.134  0.0450  0.3041 -0.1870
  214MPD1    H3 3310   3.367   0.955  15.294 -0.0573  0.2611  0.7389
  214MPD1     N 3311   3.472   1.364  15.158  0.0890  0.1281  0.3057
  214MPD1    H5 3312   3.543   1.359  15.231  0.5202  0.6104 -0.0766
  214MPD1    N1 3313   3.106   1.101  14.943 -0.2727  0.2626 -0.1782
  214MPD1    H6 3314   3.130   1.152  14.858  1.4903 -1.2728 -0.5999
  214MPD1    H7 3315   3.094   1.003  14.920 -3.1066  1.0109 -1.8110
  215MPD1     C 3316   0.048   1.594  10.357 -0.2918  0.1432  0.1892
  215MPD1    C1 3317   4.725   1.708  10.315 -0.3229 -0.0662 -0.3251
  215MPD1    C2 3318   4.701   1.808  10.407 -0.0518  0.0340 -0.1631
  215MPD1    C3 3319   0.001   1.799  10.547 -0.4914  0.3673  0.0521
  215MPD1    C4 3320   0.069   1.682  10.584  0.2568  0.1478 -0.1573
  215MPD1    C5 3321   0.098   1.586  10.487 -0.7797  0.7249  0.7228
  215MPD1     H 3322   4.652   1.898  10.372  1.1022  0.9356  0.5092
  215MPD1    H1 3323   0.103   1.667  10.685  3.8339  1.4605 -1.1599
  215MPD1    H2 3324   0.076   1.528  10.276 -2.2358  2.1407 -2.1208
  215MPD1    H3 3325   0.157   1.503  10.523  0.3364  0.9536 -0.5679
  215MPD1     N 3326   4.687   1.900  10.641  0.7705  0.6438 -0.4582
  215MPD1    H5 3327   4.637   1.981  10.606 -1.5793 -0.9543 -0.7811
  215MPD1    N1 3328   4.718   1.734  10.177 -0.1920 -0.0748  0.0152
  215MPD1    H6 3329   4.690   1.647  10.134 -0.5977 -0.4335  0.9997
  215MPD1    H7 3330   4.636   1.789  10.149 -1.2445 -0.9681  1.3441
  216MPD1     C 3331   1.201   4.527  16.362  0.3849  0.0533  0.1597
  216MPD1    C1 3332   1.186   4.406  16.430 -0.1846  0.2526 -0.1933
  216MPD1    C2 3333   1.099   4.404  16.534 -0.3465  0.0776 -0.2382
  216MPD1    C3 3334   1.011   4.506  16.560 -0.4424  0.5086  0.1373
  216MPD1    C4 3335   1.020   4.623  16.482  0.2266  0.2920 -0.9907
  216MPD1    C5 3336   1.110   4.624  16.381 -0.4819 -0.4953 -0.3655
  216MPD1     H 3337   1.100   4.316  16.597 -2.3358  1.9418  2.3985
  216MPD1    H1 3338   0.951   4.705  16.493  0.7146  0.7172 -1.1422
  216MPD1    H2 3339   1.249   4.529  16.265  1.6207  2.1930  0.8159
  216MPD1    H3 3340   1.120   4.713  16.321  0.5135 -1.5531 -1.7686
  216MPD1     N 3341   0.922   4.493  16.670  0.4344 -0.2487  0.2732
  216MPD1    H5 3342   0.921   4.399  16.710 -0.6785  0.2829  1.4663
  216MPD1    N1 3343   1.286   4.305  16.409  0.2416  0.1926 -0.5337
  216MPD1    H6 3344   1.329   4.311  16.317 -0.3983 -1.6701 -0.9682
  216MPD1    H7 3345   1.257   4.209  16.426 -1.6963  1.0030  0.7071
  217MPD1     C 3346   1.516   1.687   8.250 -0.4016  0.6588 -0.1385
  217MPD1    C1 3347   1.486   1.773   8.355 -0.6430 -0.5411  0.1381
  217MPD1    C2 3348   1.584   1.794   8.448 -0.1325  0.4078  0.0722
  217MPD1    C3 3349   1.711   1.752   8.425 -0.5467 -1.3159  0.4527
  217MPD1    C4 3350   1.741   1.675   8.313 -0.4175  0.2271 -0.3445
  217MPD1    C5 3351   1.641   1.636   8.230  0.1244 -0.4072  0.2757
  217MPD1     H 3352   1.558   1.848   8.539  0.1783  0.8483 -0.1023
  217MPD1    H1 3353   1.845   1.649   8.293 -0.3347 -0.4644  0.9762
  217MPD1    H2 3354   1.443   1.667   8.173  1.3756 -0.2697 -1.5684
  217MPD1    H3 3355   1.657   1.569   8.146  0.4880  0.0752 -0.0343
  217MPD1     N 3356   1.815   1.766   8.518  0.0412 -0.2998 -0.5556
  217MPD1    H5 3357   1.904   1.721   8.496  0.1019  0.3705 -1.7051
  217MPD1    N1 3358   1.353   1.796   8.404 -0.6343  0.1839  0.0101
  217MPD1    H6 3359   1.352   1.878   8.465  0.9965  0.0690  0.1831
  217MPD1    H7 3360   1.290   1.810   8.325  1.1440  0.1851 -1.3957
  218MPD1     C 3361   2.643   1.841  12.320  0.2301 -0.6448  0.1300
  218MPD1    C1 3362   2.617   1.867  12.452  1.1129  0.3244 -1.0725
  218MPD1    C2 3363   2.710   1.945  12.530  0.3270 -0.6333  0.2043
  218MPD1    C3 3364   2.821   1.994  12.472 -0.4104 -0.7802  0.1182
  218MPD1    C4 3365   2.836   1.979  12.334 -0.2509  0.3939  0.0680
  218MPD1    C5 3366   2.745   1.909  12.263  0.9794  0.0269  0.1547
  218MPD1     H 3367   2.689   1.948  12.637  0.3557  0.9374  0.1640
  218MPD1    H1 3368   2.914   2.025  12.274 -1.9437  2.0976 -0.8193
  218MPD1    H2 3369   2.590   1.775  12.252 -0.6550 -0.0817  0.2754
  218MPD1    H3 3370   2.756   1.903  12.155  1.4375  0.9615  0.1498
  218MPD1     N 3371   2.907   2.070  12.547  0.9101  0.5407 -0.1029
  218MPD1    H5 3372   2.876   2.077  12.643 -0.2561  1.1088 -0.5329
  218MPD1    N1 3373   2.502   1.817  12.514  0.3351 -0.2130  0.2963
  218MPD1    H6 3374   2.516   1.760  12.597  0.5432 -0.7464 -0.1069
  218MPD1    H7 3375   2.448   1.760  12.449 -0.5462 -0.8655  1.5907
  219MPD1     C 3376   3.594   2.886  12.774  0.3650 -0.1252  0.1777
  219MPD1    C1 3377   3.577   2.818  12.658 -0.1969  0.1365 -0.6489
  219MPD1    C2 3378   3.490   2.708  12.654  0.1970 -0.0014 -0.1661
  219MPD1    C3 3379   3.416   2.679  12.765 -0.0049 -0.4445 -0.3416
  219MPD1    C4 3380   3.432   2.755  12.876 -0.5576  0.1118 -0.0509
  219MPD1    C5 3381   3.511   2.862  12.878 -0.3469  0.3933  0.1264
  219MPD1     H 3382   3.468   2.662  12.558 -0.3171 -1.3201  0.5964
  219MPD1    H1 3383   3.372   2.732  12.964 -1.8117 -0.2450 -0.9927
  219MPD1    H2 3384   3.668   2.963  12.791  0.2578 -0.7745  3.6341
  219MPD1    H3 3385   3.529   2.918  12.969 -2.5814  2.1172 -0.4867
  219MPD1     N 3386   3.337   2.562  12.768  0.2763  0.0262 -0.3288
  219MPD1    H5 3387   3.288   2.544  12.855 -1.2910 -0.4527 -1.3124
  219MPD1    N1 3388   3.675   2.843  12.558  0.1133  0.3038 -0.0326
  219MPD1    H6 3389   3.632   2.809  12.472  2.4588 -3.4212  0.2645
  219MPD1    H7 3390   3.678   2.944  12.549  0.3380  0.3597  0.6760
  220MPD1     C 3391   3.804   1.681   9.906  0.6148  0.4719 -0.5699
  220MPD1    C1 3392   3.725   1.769   9.852  1.1314  0.4540  0.2873
  220MPD1    C2 3393   3.732   1.894   9.898  0.2443 -0.1531  0.1557
  220MPD1    C3 3394   3.817   1.925  10.005  0.6923 -0.2411 -0.1773
  220MPD1    C4 3395   3.897   1.832  10.069  0.3541  0.3520 -0.1299
  220MPD1    C5 3396   3.884   1.705  10.018  0.0422  0.2450 -0.6961
  220MPD1     H 3397   3.676   1.972   9.848  0.3742 -0.0365  0.1905
  220MPD1    H1 3398   3.966   1.847  10.151  0.9312 -1.3639 -0.3020
  220MPD1    H2 3399   3.820   1.585   9.858 -0.3897 -0.8234  1.6421
  220MPD1    H3 3400   3.940   1.627  10.068 -2.2845 -0.5019  0.7371
  220MPD1     N 3401   3.807   2.053  10.061 -0.2315 -1.0292  0.1039
  220MPD1    H5 3402   3.736   2.110  10.018  2.7925  2.8460  0.1979
  220MPD1    N1 3403   3.661   1.746   9.730 -0.3546  0.1058  0.1194
  220MPD1    H6 3404   3.639   1.647   9.720  1.7315 -0.3372 -0.1682
  220MPD1    H7 3405   3.575   1.798   9.716 -0.1840  0.0143 -1.2324
  221MPD1     C 3406   1.022   1.860  16.575  0.0034  0.6663  0.6784
  221MPD1    C1 3407   1.093   1.943  16.656 -0.0040 -0.6941  0.0893
  221MPD1    C2 3408   1.231   1.934  16.658 -0.9604  0.2795 -0.2965
  221MPD1    C3 3409   1.306   1.853  16.578 -0.1304 -0.2125  0.8753
  221MPD1    C4 3410   1.233   1.769  16.495  0.0838  0.2542  0.6996
  221MPD1    C5 3411   1.091   1.775  16.500 -0.0129 -0.6437  0.0357
  221MPD1     H 3412   1.280   2.001  16.728  0.9221 -0.0078 -1.3442
  221MPD1    H1 3413   1.282   1.698  16.430 -2.9869 -0.4192 -0.9002
  221MPD1    H2 3414   0.915   1.850  16.565  0.2289  0.3064 -1.3342
  221MPD1    H3 3415   1.033   1.706  16.439  0.0695 -0.5754 -0.1181
  221MPD1     N 3416   1.449   1.833  16.581 -0.0451 -0.2397  0.2307
  221MPD1    H5 3417   1.484   1.760  16.519 -1.8701 -0.3411 -0.6901
  221MPD1    N1 3418   1.023   2.026  16.745 -0.2907  0.7976 -0.2254
  221MPD1    H6 3419   1.066   2.115  16.771  1.9381 -0.6000  0.8910
  221MPD1    H7 3420   0.933   2.060  16.713 -0.7845 -0.5562 -0.2891
  222MPD1     C 3421   0.865   0.284  17.710  0.6497 -0.1664  0.3345
  222MPD1    C1 3422   0.783   0.346   0.057 -0.3738 -0.2055 -0.0700
  222MPD1    C2 3423   0.828   0.460   0.120  0.0155 -0.0782  0.1642
  222MPD1    C3 3424   0.956   0.513   0.085  0.0465 -0.3943  0.3373
  222MPD1    C4 3425   1.033   0.454  17.724 -0.4255  0.0280  0.4781
  222MPD1    C5 3426   0.987   0.335  17.673  0.0631 -0.3555 -0.0321
  222MPD1     H 3427   0.762   0.502   0.194 -0.3520  0.3553 -0.4078
  222MPD1    H1 3428   1.122   0.493  17.674 -0.9648  2.1325  1.1757
  222MPD1    H2 3429   0.836   0.189  17.665 -0.4540  0.8751 -1.1568
  222MPD1    H3 3430   1.048   0.289  17.597  0.0915 -1.9208  0.9439
  222MPD1     N 3431   1.002   0.632   0.147 -0.0470  0.7695  0.2404
  222MPD1    H5 3432   1.094   0.659   0.115  0.0252  3.0230  2.3471
  222MPD1    N1 3433   0.666   0.276   0.100 -0.4648  0.8615 -0.5992
  222MPD1    H6 3434   0.609   0.331   0.165  2.5214  3.5401 -0.2287
  222MPD1    H7 3435   0.608   0.232   0.029  0.7795 -2.8201  0.6749
  223MPD1     C 3436   1.122   0.853   1.095  0.4615 -0.0033  0.2167
  223MPD1    C1 3437   1.105   0.731   1.026 -0.6652 -0.2480  0.1724
  223MPD1    C2 3438   1.081   0.744   0.887  0.3203 -0.3700  0.0723
  223MPD1    C3 3439   1.093   0.874   0.827  0.3647  0.0079  0.3918
  223MPD1    C4 3440   1.107   0.979   0.901 -0.2257  0.7283 -0.3119
  223MPD1    C5 3441   1.128   0.970   1.034  0.5150  0.5707  0.0910
  223MPD1     H 3442   1.070   0.652   0.831  0.1951  0.9233 -2.0097
  223MPD1    H1 3443   1.114   1.082   0.868 -0.3716  0.5772 -0.8216
  223MPD1    H2 3444   1.139   0.855   1.202 -1.4236  0.9296  0.4848
  223MPD1    H3 3445   1.149   1.066   1.080 -1.1329  1.1965 -0.4359
  223MPD1     N 3446   1.068   0.878   0.689 -0.4173  0.6703  0.0377
  223MPD1    H5 3447   1.054   0.787   0.644 -0.2518  0.8314 -0.3393
  223MPD1    N1 3448   1.088   0.603   1.083  0.4142 -0.1369  0.3252
  223MPD1    H6 3449   1.140   0.600   1.170  2.3328  0.6305 -0.7919
  223MPD1    H7 3450   1.111   0.529   1.017 -0.1993 -0.2957  0.2952
  224MPD1     C 3451   2.073   2.043   8.472  0.2343 -0.2461 -0.4650
  224MPD1    C1 3452   2.015   2.148   8.538 -0.1135 -0.7786 -0.2457
  224MPD1    C2 3453   2.075   2.182   8.654  0.4476 -0.0646 -0.0695
  224MPD1    C3 3454   2.188   2.110   8.710  0.2376 -0.0076  0.6997
  224MPD1    C4 3455   2.230   1.995   8.646  0.4034  0.5664 -0.3548
  224MPD1    C5 3456   2.171   1.965   8.526 -0.9346  0.3184 -0.8686
  224MPD1     H 3457   2.038   2.271   8.704 -0.8730  0.3768 -1.8239
  224MPD1    H1 3458   2.316   1.935   8.673 -0.9651 -1.4461 -0.4758
  224MPD1    H2 3459   2.031   2.014   8.377 -3.8507  0.0893  1.1938
  224MPD1    H3 3460   2.200   1.876   8.471  1.8561 -0.0191  1.1557
  224MPD1     N 3461   2.250   2.139   8.838  0.7130 -0.2869  0.2728
  224MPD1    H5 3462   2.308   2.063   8.872  1.5556  0.5343  0.6815
  224MPD1    N1 3463   1.929   2.236   8.475  0.2503  0.0101 -0.0619
  224MPD1    H6 3464   1.872   2.190   8.404 -0.6597 -0.1268  0.7523
  224MPD1    H7 3465   1.860   2.264   8.545  0.8080  1.1517  0.0292
  225MPD1     C 3466   4.336   3.274  12.206 -0.1851  0.1648 -0.6021
  225MPD1    C1 3467   4.280   3.165  12.265  0.4136 -0.0694 -0.4538
  225MPD1    C2 3468   4.143   3.158  12.282 -0.0249 -0.1835  0.5075
  225MPD1    C3 3469   4.061   3.256  12.216 -0.6887  0.2572 -0.5784
  225MPD1    C4 3470   4.127   3.350  12.133 -0.2869 -0.4855 -0.4392
  225MPD1    C5 3471   4.260   3.363  12.133  0.0227  0.2685 -0.4216
  225MPD1     H 3472   4.098   3.084  12.347  0.5022  0.8862  2.1013
  225MPD1    H1 3473   4.075   3.429  12.081 -1.5118  0.1041  1.6967
  225MPD1    H2 3474   4.441   3.301  12.210 -0.2316  0.0536  1.2743
  225MPD1    H3 3475   4.308   3.450  12.090 -0.1244 -0.1521 -1.4476
  225MPD1     N 3476   3.922   3.258  12.224 -0.0336  0.6592  0.1998
  225MPD1    H5 3477   3.877   3.339  12.182 -0.6907 -0.1768 -0.6776
  225MPD1    N1 3478   4.364   3.091  12.350  0.4236  0.0380  0.2747
  225MPD1    H6 3479   4.455   3.077  12.307  0.7756 -0.0759  1.0534
  225MPD1    H7 3480   4.329   2.999  12.377 -0.7678  0.2717 -0.4448
  226MPD1     C 3481   0.998   3.283   9.551  0.0472  0.3498  0.0819
  226MPD1    C1 3482   1.056   3.161   9.590 -0.3510  0.4331  0.1957
  226MPD1    C2 3483   1.192   3.154   9.563 -0.3763  0.2878  0.0025
  226MPD1    C3 3484   1.269   3.260   9.508 -0.2159  0.2149 -0.1746
  226MPD1    C4 3485   1.203   3.372   9.468  0.2577 -0.0657  0.6781
  226MPD1    C5 3486   1.070   3.384   9.498  0.2574 -0.0199 -0.0052
  226MPD1     H 3487   1.250   3.065   9.587 -1.3562 -0.7012 -1.2406
  226MPD1    H1 3488   1.244   3.457   9.415 -0.1016  0.2534  0.9128
  226MPD1    H2 3489   0.895   3.307   9.575 -0.3660 -0.0788 -1.2769
  226MPD1    H3 3490   1.022   3.475   9.464 -2.0925 -1.8547 -1.5626
  226MPD1     N 3491   1.412   3.229   9.490  0.5402  0.0948 -0.4332
  226MPD1    H5 3492   1.453   3.137   9.502 -1.2013 -0.2645  2.9767
  226MPD1    N1 3493   0.989   3.058   9.666  0.0513  0.2595 -0.5718
  226MPD1    H6 3494   1.035   2.968   9.667  1.7253  1.1123 -0.7535
  226MPD1    H7 3495   0.890   3.046   9.645  0.7164 -0.8627 -3.0619
  227MPD1     C 3496   2.074   3.890   9.066 -0.7178 -0.1349  0.1284
  227MPD1    C1 3497   1.966   3.905   9.146  0.0231 -0.9444  0.3093
  227MPD1    C2 3498   1.903   3.794   9.192 -0.4755 -0.4528  0.2575
  227MPD1    C3 3499   1.954   3.669   9.170  0.3336 -0.2645 -0.2507
  227MPD1    C4 3500   2.057   3.649   9.080 -0.5828  0.9944  0.2871
  227MPD1    C5 3501   2.115   3.763   9.030 -0.0872  0.0126 -0.2852
  227MPD1     H 3502   1.814   3.799   9.253  1.2057  0.4198  2.6574
  227MPD1    H1 3503   2.091   3.551   9.047 -1.6953  0.2734  1.2694
  227MPD1    H2 3504   2.130   3.976   9.033  0.3245 -0.3260  1.3786
  227MPD1    H3 3505   2.201   3.745   8.968  0.9687 -0.4738  1.3021
  227MPD1     N 3506   1.889   3.562   9.234 -0.1076 -0.1524  0.6519
  227MPD1    H5 3507   1.804   3.584   9.285 -1.0263 -0.2104 -0.8518
  227MPD1    N1 3508   1.920   4.040   9.179  0.5091  0.2141  0.1259
  227MPD1    H6 3509   1.861   4.044   9.261 -0.2591  2.9289 -0.5725
  227MPD1    H7 3510   1.990   4.114   9.176  1.2936 -0.4789  1.4076
  228MPD1     C 3511   0.473   1.663  12.248  0.8950  0.0334 -0.4348
  228MPD1    C1 3512   0.346   1.619  12.212  0.7564 -0.0103 -0.5073
  228MPD1    C2 3513   0.335   1.485  12.213  0.2790  0.4314  0.2819
  228MPD1    C3 3514   0.429   1.401  12.257 -0.1455  0.2136 -0.1337
  228MPD1    C4 3515   0.561   1.448  12.285  0.3142 -0.8453 -0.3166
  228MPD1    C5 3516   0.570   1.581  12.286 -0.3291  0.4631 -0.2264
  228MPD1     H 3517   0.245   1.435  12.180  2.0542 -1.4556 -1.7234
  228MPD1    H1 3518   0.641   1.391  12.332  0.5792 -0.9080 -0.8422
  228MPD1    H2 3519   0.483   1.770  12.263  0.7647  0.0426 -0.4128
  228MPD1    H3 3520   0.668   1.621  12.308  0.0048  0.7271 -2.2498
  228MPD1     N 3521   0.395   1.266  12.285 -0.0352 -0.2405  0.4728
  228MPD1    H5 3522   0.299   1.238  12.267 -0.3406  0.2308  1.3679
  228MPD1    N1 3523   0.236   1.709  12.196  0.5576 -0.0946 -0.1808
  228MPD1    H6 3524   0.266   1.801  12.163 -1.6240  0.6289 -0.1478
  228MPD1    H7 3525   0.160   1.684  12.132 -0.7571 -1.0851  1.7787
  229MPD1     C 3526   4.280   4.664  14.115 -0.5800 -0.6093 -0.1565
  229MPD1    C1 3527   4.284   4.718  14.243  0.0794 -0.3416  0.8178
  229MPD1    C2 3528   4.352   4.642  14.337  0.2542 -0.4132 -0.4427
  229MPD1    C3 3529   4.387   4.506  14.311  0.1334  0.6691  0.3938
  229MPD1    C4 3530   4.349   4.451  14.187 -0.8464 -0.0113 -0.1167
  229MPD1    C5 3531   4.299   4.529  14.092 -0.0449 -0.1657 -0.1035
  229MPD1     H 3532   4.372   4.677  14.438 -0.0459 -2.4000  0.2942
  229MPD1    H1 3533   4.386   4.351  14.168  0.8724  0.7054 -0.5541
  229MPD1    H2 3534   4.247   4.718  14.026  1.6046  0.0176 -0.6010
  229MPD1    H3 3535   4.292   4.501  13.988 -1.7730 -0.5295  0.1096
  229MPD1     N 3536   4.463   4.427  14.402 -0.1893 -0.3654  0.5730
  229MPD1    H5 3537   4.461   4.327  14.386 -0.0483 -0.1716 -0.7235
  229MPD1    N1 3538   4.240   0.115  14.269  0.1791  0.2570  0.1395
  229MPD1    H6 3539   4.224   0.129  14.369 -0.3286  2.4620 -0.2332
  229MPD1    H7 3540   4.172   0.153  14.204  1.1549 -0.8172 -1.5025
  230MPD1     C 3541   0.277   4.332  15.373 -0.5097 -0.2544 -0.5762
  230MPD1    C1 3542   0.332   4.254  15.273  0.2513  0.2231 -0.3341
  230MPD1    C2 3543   0.265   4.240  15.151  0.0847 -0.2354  0.3061
  230MPD1    C3 3544   0.160   4.315  15.120 -0.5949  0.0745  0.1498
  230MPD1    C4 3545   0.112   4.404  15.213 -0.0165  0.2814  0.0596
  230MPD1    C5 3546   0.173   4.414  15.338  0.1949 -0.7416  0.1236
  230MPD1     H 3547   0.303   4.173  15.074  1.0930 -1.0204  1.4880
  230MPD1    H1 3548   0.040   4.482  15.189  0.4015  0.8266  0.5553
  230MPD1    H2 3549   0.325   4.353  15.467  2.1094  0.2766 -2.0448
  230MPD1    H3 3550   0.134   4.483  15.411 -2.0389  0.9580 -2.6690
  230MPD1     N 3551   0.093   4.297  14.999 -0.0520 -0.2522 -0.1843
  230MPD1    H5 3552   0.122   4.237  14.922  0.8099 -1.1858  0.8822
  230MPD1    N1 3553   0.428   4.162  15.309  0.4454  0.0148 -0.3533
  230MPD1    H6 3554   0.481   4.204  15.385  1.8405  1.9365 -2.3739
  230MPD1    H7 3555   0.500   4.163  15.236  0.1014  1.6871 -0.6653
  231MPD1     C 3556   2.781   1.394  15.491 -0.4057 -0.0333  0.6886
  231MPD1    C1 3557   2.713   1.437  15.377  0.2906  0.3304  0.0977
  231MPD1    C2 3558   2.793   1.501  15.281 -0.4270 -0.8588  0.4489
  231MPD1    C3 3559   2.920   1.543  15.303  0.2570 -0.2988  0.4400
  231MPD1    C4 3560   2.980   1.504  15.415 -0.2758  0.4189  0.1919
  231MPD1    C5 3561   2.914   1.432  15.508 -0.0975 -0.6473  0.1892
  231MPD1     H 3562   2.734   1.523  15.193  1.4264  2.3195  0.0027
  231MPD1    H1 3563   3.084   1.526  15.438 -0.3514  2.1569 -1.0952
  231MPD1    H2 3564   2.733   1.338  15.570  1.1979 -2.1947  0.1592
  231MPD1    H3 3565   2.960   1.399  15.600 -1.0267  2.8831  1.9180
  231MPD1     N 3566   2.986   1.603  15.200 -0.0114 -0.2110  0.1425
  231MPD1    H5 3567   2.932   1.605  15.114  1.7707  1.9995 -0.9194
  231MPD1    N1 3568   2.585   1.394  15.348  0.5159  0.7607  0.0545
  231MPD1    H6 3569   2.544   1.460  15.281  0.1249 -0.0928 -0.5493
  231MPD1    H7 3570   2.533   1.390  15.435 -0.8820  0.1269 -0.8097
  232MPD1     C 3571   0.196   4.552   0.336 -0.9362  0.2534 -0.2469
  232MPD1    C1 3572   0.170   4.453   0.249 -0.0385  0.2100  0.4170
  232MPD1    C2 3573   0.040   4.443   0.214 -0.4936  0.4840  0.1676
  232MPD1    C3 3574   4.672   4.500   0.280 -0.3206  0.0559 -0.2490
  232MPD1    C4 3575   4.704   4.593   0.375  0.5226  0.6066  0.3927
  232MPD1    C5 3576   0.096   4.631   0.394 -0.1628 -0.5197 -0.2179
  232MPD1     H 3577   0.026   4.372   0.133  1.1653 -0.6515  0.8445
  232MPD1    H1 3578   4.623   4.655   0.414  0.3610  0.7395 -0.1553
  232MPD1    H2 3579   0.296   4.592   0.352 -1.1652  0.2503  1.2019
  232MPD1    H3 3580   0.128   4.711   0.460 -0.7971 -0.1934 -0.2966
  232MPD1     N 3581   4.538   4.469   0.241  0.4020  0.6630 -0.1064
  232MPD1    H5 3582   4.524   4.390   0.179 -0.1844 -1.7192  3.0770
  232MPD1    N1 3583   0.274   4.400   0.177  0.0890  0.3343 -0.5057
  232MPD1    H6 3584   0.361   4.395   0.230  0.0986  0.8446 -0.4783
  232MPD1    H7 3585   0.248   4.310   0.136 -1.4258  0.3705  0.3860
  233MPD1     C 3586   1.083   1.627   1.019 -0.2253  0.1396  0.6912
  233MPD1    C1 3587   1.096   1.719   0.915  0.0823 -0.0240 -0.0589
  233MPD1    C2 3588   1.163   1.839   0.929  0.5373 -0.2469 -0.3888
  233MPD1    C3 3589   1.203   1.869   1.062  0.3473  0.5769 -0.3776
  233MPD1    C4 3590   1.185   1.778   1.163 -0.3252 -0.3052  0.1296
  233MPD1    C5 3591   1.131   1.652   1.144 -0.1329  0.3913 -0.0095
  233MPD1     H 3592   1.180   1.914   0.852 -0.7237  0.9743  0.5013
  233MPD1    H1 3593   1.213   1.812   1.262  3.5228 -2.1221 -0.3619
  233MPD1    H2 3594   1.053   1.524   1.009  0.5424 -0.0972  0.8279
  233MPD1    H3 3595   1.123   1.578   1.223 -2.1453  0.6574  0.0257
  233MPD1     N 3596   1.267   1.993   1.105 -0.1422  0.2474  1.1313
  233MPD1    H5 3597   1.309   2.000   1.197  1.6345  1.0924  0.2584
  233MPD1    N1 3598   1.059   1.677   0.789 -0.0021 -0.0429 -0.2799
  233MPD1    H6 3599   0.970   1.629   0.785  0.3232 -0.8298  1.8352
  233MPD1    H7 3600   1.062   1.761   0.731 -1.8672 -0.5582 -1.1015
  234MPD1     C 3601   3.095   0.640   8.970 -0.7860 -0.7431  0.3179
  234MPD1    C1 3602   2.973   0.676   8.920  0.3077  0.0513  0.3604
  234MPD1    C2 3603   2.904   0.785   8.976 -0.2306  0.9655 -0.3876
  234MPD1    C3 3604   2.973   0.885   9.044  0.3957  0.3727 -0.3412
  234MPD1    C4 3605   3.107   0.862   9.074  0.2942 -0.2172 -0.1397
  234MPD1    C5 3606   3.159   0.735   9.047 -0.0555  0.5453  0.7460
  234MPD1     H 3607   2.796   0.782   8.966 -0.2209  0.6490 -0.3940
  234MPD1    H1 3608   3.166   0.939   9.123  1.9369  0.1126 -2.6017
  234MPD1    H2 3609   3.143   0.547   8.943  0.8392  0.8814 -2.3074
  234MPD1    H3 3610   3.263   0.712   9.064 -0.0351  0.4209  0.4525
  234MPD1     N 3611   2.895   0.993   9.091 -0.1394  0.4889  0.6978
  234MPD1    H5 3612   2.796   0.979   9.071 -0.4605  2.1821  1.0561
  234MPD1    N1 3613   2.900   0.582   8.844  0.1763 -0.5104  0.3013
  234MPD1    H6 3614   2.966   0.527   8.790  0.3612 -0.4263  0.4418
  234MPD1    H7 3615   2.842   0.625   8.771  0.6813  0.1123  0.2629
  235MPD1     C 3616   0.308   3.362  11.100  0.2784  0.0718  0.2681
  235MPD1    C1 3617   0.430   3.386  11.049 -0.4814  0.0716  0.3829
  235MPD1    C2 3618   0.465   3.517  11.005  0.3153  0.3377 -0.4768
  235MPD1    C3 3619   0.374   3.614  11.023  0.0668 -0.4602 -0.1866
  235MPD1    C4 3620   0.257   3.596  11.092  0.1303  0.7630  0.4835
  235MPD1    C5 3621   0.224   3.465  11.122 -1.0032  0.0466  0.4263
  235MPD1     H 3622   0.550   3.534  10.940 -0.1589  0.4172 -1.0673
  235MPD1    H1 3623   0.191   3.679  11.116  0.0063  0.9123 -0.3949
  235MPD1    H2 3624   0.266   3.266  11.128 -1.1165  0.9721  1.2373
  235MPD1    H3 3625   0.134   3.456  11.182 -1.0241 -0.6645  0.2874
  235MPD1     N 3626   0.408   3.746  10.970 -0.2075 -1.2140 -0.3395
  235MPD1    H5 3627   0.507   3.754  10.948 -0.6769 -0.9171 -2.3511
  235MPD1    N1 3628   0.501   3.272  11.016 -0.6369  1.0602 -0.4488
  235MPD1    H6 3629   0.602   3.287  11.007 -0.2154 -1.1325  0.4610
  235MPD1    H7 3630   0.484   3.181  11.059  3.5236  0.8053  0.6763
  236MPD1     C 3631   2.942   4.609   9.618 -0.8475  0.7455  0.2640
  236MPD1    C1 3632   3.031   4.701   9.577  0.0693  0.6735  0.1918
  236MPD1    C2 3633   3.158   4.693   9.632 -0.6988  0.5335  0.3656
  236MPD1    C3 3634   3.201   4.580   9.700  0.8213 -0.2126  0.5350
  236MPD1    C4 3635   3.117   4.475   9.713 -0.4990  0.4341 -1.0798
  236MPD1    C5 3636   2.984   4.489   9.669  0.2976  0.1173  0.1532
  236MPD1     H 3637   3.217   0.046   9.615  2.3963 -1.1762  2.2390
  236MPD1    H1 3638   3.152   4.390   9.770  0.5174  1.1567 -0.6337
  236MPD1    H2 3639   2.837   4.606   9.593 -0.4504  0.9145 -1.4324
  236MPD1    H3 3640   2.917   4.405   9.683 -0.2568  0.1767 -2.1311
  236MPD1     N 3641   3.331   4.569   9.755 -0.2093 -0.5107 -0.2210
  236MPD1    H5 3642   3.362   4.482   9.797  1.0827 -0.4074 -0.9827
  236MPD1    N1 3643   2.994   0.083   9.504  0.6181 -0.0494  0.5069
  236MPD1    H6 3644   3.073   0.122   9.454 -0.8798  3.7814  1.1494
  236MPD1    H7 3645   2.921   0.055   9.438  0.1373  2.1242  0.1245
  237MPD1     C 3646   3.839   2.975  14.500 -0.3246 -0.4854  0.2367
  237MPD1    C1 3647   3.791   2.845  14.512  0.7004  0.7323  0.7082
  237MPD1    C2 3648   3.685   2.821  14.598 -0.3877  0.0975 -0.3552
  237MPD1    C3 3649   3.622   2.922  14.674 -0.1115  0.5678  0.7693
  237MPD1    C4 3650   3.666   3.049  14.654 -0.2131  0.0805  0.5557
  237MPD1    C5 3651   3.766   3.072  14.566 -0.1563  0.5481 -0.1582
  237MPD1     H 3652   3.652   2.718  14.601 -1.8960  0.5763 -0.8788
  237MPD1    H1 3653   3.616   3.129  14.709  1.3000  0.0526  1.9581
  237MPD1    H2 3654   3.916   3.009  14.432 -0.0038  1.0483  1.3682
  237MPD1    H3 3655   3.807   3.170  14.547  0.5582  0.5911  1.6186
  237MPD1     N 3656   3.514   2.911  14.759 -0.0642 -0.7351  0.2593
  237MPD1    H5 3657   3.472   2.998  14.792 -3.5329 -3.3063  2.6554
  237MPD1    N1 3658   3.869   2.737  14.463  0.3379 -0.5173  0.0072
  237MPD1    H6 3659   3.822   2.647  14.462 -3.9438  1.6715  2.0211
  237MPD1    H7 3660   3.926   2.756  14.381 -0.2679 -0.0052 -0.2986
  238MPD1     C 3661   0.109   2.295  14.170 -0.2186  0.1732 -0.2196
  238MPD1    C1 3662   0.117   2.194  14.076 -0.6806 -0.4007  0.6929
  238MPD1    C2 3663   0.042   2.081  14.091  0.7596  0.4055 -0.1852
  238MPD1    C3 3664   4.708   2.043  14.206 -0.0473 -0.8347 -0.3047
  238MPD1    C4 3665   4.702   2.147  14.296 -0.5524  0.3910 -0.4637
  238MPD1    C5 3666   0.030   2.268  14.281 -0.0540 -0.1594  0.0726
  238MPD1     H 3667   0.057   2.012  14.009 -0.9909 -0.8218  0.5321
  238MPD1    H1 3668   4.646   2.138  14.388 -1.7771  0.6046 -1.1841
  238MPD1    H2 3669   0.172   2.383  14.166 -2.0501  1.4188 -1.3424
  238MPD1    H3 3670   0.025   2.346  14.356 -0.7866 -0.7737  0.6707
  238MPD1     N 3671   4.665   1.910  14.235  0.0894 -1.0384 -0.0582
  238MPD1    H5 3672   4.618   1.894  14.324 -1.9192  0.3982 -0.8553
  238MPD1    N1 3673   0.180   2.229  13.952 -0.4475  0.2003 -0.3640
  238MPD1    H6 3674   0.265   2.282  13.972  1.0707 -2.4933  0.3732
  238MPD1    H7 3675   0.194   2.152  13.887 -3.6160 -1.9157  1.4934
  239MPD1     C 3676   0.520   3.180  14.769 -0.8176  0.1671  0.2336
  239MPD1    C1 3677   0.399   3.237  14.738 -0.1101 -0.0256 -0.6488
  239MPD1    C2 3678   0.333   3.191  14.623 -0.1119  0.4020 -0.8356
  239MPD1    C3 3679   0.385   3.087  14.545  0.2139 -0.5204  0.0683
  239MPD1    C4 3680   0.500   3.026  14.578  0.6839 -0.2090 -0.2842
  239MPD1    C5 3681   0.572   3.077  14.691  0.2882 -0.8044 -0.5045
  239MPD1     H 3682   0.251   3.252  14.588  1.0232  2.4080 -0.0439
  239MPD1    H1 3683   0.537   2.947  14.514  2.9401 -0.3447  1.1953
  239MPD1    H2 3684   0.581   3.216  14.850 -0.8263  1.0932 -0.1716
  239MPD1    H3 3685   0.675   3.049  14.713  0.1038 -0.4387  0.8497
  239MPD1     N 3686   0.328   3.038  14.426 -0.8407  0.4778  0.2373
  239MPD1    H5 3687   0.372   2.975  14.360  0.9757 -0.3546  2.2370
  239MPD1    N1 3688   0.347   3.343  14.809  0.9952  0.1280 -0.2004
  239MPD1    H6 3689   0.246   3.348  14.800  0.7744 -0.9621  1.6424
  239MPD1    H7 3690   0.362   3.337  14.910 -0.2343 -0.1335 -0.0401
  240MPD1     C 3691   4.192   2.065  12.740  0.6580 -0.4392 -0.0102
  240MPD1    C1 3692   4.267   1.955  12.740 -0.3291 -0.3944 -0.2619
  240MPD1    C2 3693   4.327   1.908  12.853 -0.0315 -0.5947 -0.1194
  240MPD1    C3 3694   4.302   1.976  12.970  0.3759 -0.2336  0.1049
  240MPD1    C4 3695   4.234   2.098  12.966  0.3212 -0.2134 -0.0322
  240MPD1    C5 3696   4.174   2.138  12.854  0.2367 -0.2269  0.6779
  240MPD1     H 3697   4.366   1.806  12.852 -0.4333 -0.7249 -1.9262
  240MPD1    H1 3698   4.224   2.165  13.051 -2.8997 -0.4309 -0.2456
  240MPD1    H2 3699   4.130   2.097  12.657  0.7258  1.1691  0.5520
  240MPD1    H3 3700   4.112   2.227  12.851  0.3718 -0.1966 -1.3666
  240MPD1     N 3701   4.367   1.924  13.087  0.3447 -0.8759  0.0450
  240MPD1    H5 3702   4.429   1.844  13.074  2.1637  0.4888  0.3003
  240MPD1    N1 3703   4.260   1.868  12.626  0.2887 -0.2091  0.4333
  240MPD1    H6 3704   4.253   1.924  12.541 -1.0957 -3.4875 -1.6361
  240MPD1    H7 3705   4.351   1.822  12.620 -0.2802 -0.8508 -3.6165
  241MPD1     C 3706   0.353   1.432  13.567 -0.1484  0.1669  0.4863
  241MPD1    C1 3707   0.309   1.442  13.441  0.4276 -0.1844 -0.5306
  241MPD1    C2 3708   0.184   1.509  13.414 -0.2083  0.6239 -0.1743
  241MPD1    C3 3709   0.107   1.552  13.512 -0.0308 -0.2870 -0.4434
  241MPD1    C4 3710   0.147   1.524  13.641 -0.0810  0.3102  0.1685
  241MPD1    C5 3711   0.270   1.463  13.669 -0.6368 -0.7647  0.1144
  241MPD1     H 3712   0.168   1.538  13.311  0.8467  1.3963 -0.1260
  241MPD1    H1 3713   0.073   1.532  13.720 -1.7774  4.4600 -1.8421
  241MPD1    H2 3714   0.458   1.405  13.575 -0.4463 -1.0909  0.0101
  241MPD1    H3 3715   0.298   1.430  13.768 -1.4461 -1.5864  0.0705
  241MPD1     N 3716   4.728   1.632  13.489  0.0269  0.7521 -0.2270
  241MPD1    H5 3717   4.689   1.687  13.565 -0.4354 -1.7109  1.3181
  241MPD1    N1 3718   0.399   1.436  13.336  0.2721  0.1219 -0.1059
  241MPD1    H6 3719   0.469   1.362  13.341  0.3030  0.1273 -0.4076
  241MPD1    H7 3720   0.345   1.409  13.254 -0.7249 -1.2526  1.0058
  242MPD1     C 3721   4.200   0.001  15.719 -0.3604 -0.0453 -1.0513
  242MPD1    C1 3722   4.083   0.029  15.662  0.0770 -0.2150  0.3678
  242MPD1    C2 3723   4.089   0.114  15.554 -0.1917 -0.4768  0.0731
  242MPD1    C3 3724   4.209   0.162  15.502 -0.4837 -0.2922 -0.6889
  242MPD1    C4 3725   4.325   0.134  15.566  0.4168  0.9632  0.0026
  242MPD1    C5 3726   4.320   0.058  15.677  0.6559  0.8405  0.2294
  242MPD1     H 3727   3.994   0.148  15.514 -0.1495  1.1158  1.3251
  242MPD1    H1 3728   4.420   0.169  15.527  1.0586 -0.8377 -0.0654
  242MPD1    H2 3729   4.216   4.662  15.796 -1.9590 -0.4198 -1.0831
  242MPD1    H3 3730   4.417   0.034  15.719  1.0320  0.8256 -0.6468
  242MPD1     N 3731   4.211   0.260  15.399  0.1949  0.1129 -0.1245
  242MPD1    H5 3732   4.301   0.294  15.367 -1.0540  1.4751 -2.1432
  242MPD1    N1 3733   3.970   4.699  15.703  0.3815 -0.3905 -0.1583
  242MPD1    H6 3734   3.969   4.677  15.803 -2.4498  0.8620  0.0783
  242MPD1    H7 3735   3.885   0.006  15.668 -0.3551 -2.6674 -1.0768
  243MPD1     C 3736   0.229   4.286  17.581  0.4670 -0.4082  0.8611
  243MPD1    C1 3737   0.277   4.162  17.616  0.0237  0.1258  0.1294
  243MPD1    C2 3738   0.395   4.115  17.563  0.3934 -0.3489  1.0298
  243MPD1    C3 3739   0.465   4.192  17.476 -0.1012  0.3714  0.6070
  243MPD1    C4 3740   0.422   4.320  17.446 -0.2468 -0.3525  0.2811
  243MPD1    C5 3741   0.300   4.364  17.493 -0.1017  0.2791 -0.7442
  243MPD1     H 3742   0.420   4.010  17.576  1.1640 -0.4726 -1.4770
  243MPD1    H1 3743   0.467   4.385  17.371  1.9413 -2.0099  0.1599
  243MPD1    H2 3744   0.134   4.327  17.613  0.6594  1.1071 -0.4865
  243MPD1    H3 3745   0.267   4.458  17.451 -1.2633 -0.2549 -1.0357
  243MPD1     N 3746   0.574   4.133  17.410  0.2347 -0.3746  0.0256
  243MPD1    H5 3747   0.589   4.036  17.436  2.5381 -0.3071 -1.0581
  243MPD1    N1 3748   0.196   4.082  17.699 -0.0802  0.5218 -0.9270
  243MPD1    H6 3749   0.134   4.130   0.022  2.3510 -0.4545  2.1167
  243MPD1    H7 3750   0.239   4.001   0.001  0.9485 -0.2626 -3.4051
  244MPD1     C 3751   1.026   3.472   0.020 -0.3651 -0.6750  0.1054
  244MPD1    C1 3752   1.012   3.603   0.065 -0.5801  0.1742 -0.1957
  244MPD1    C2 3753   0.976   3.710  17.724  0.0160  0.3922  0.4187
  244MPD1    C3 3754   0.963   3.689  17.586  0.3148 -0.6557  0.3196
  244MPD1    C4 3755   0.984   3.562  17.538  0.1475  0.9959 -0.5818
  244MPD1    C5 3756   1.018   3.458  17.626  0.4013  0.2748  0.0920
  244MPD1     H 3757   0.957   3.808   0.025  2.7318  1.2986 -0.5020
  244MPD1    H1 3758   0.974   3.538  17.433 -1.6157 -1.4655  0.1269
  244MPD1    H2 3759   1.043   3.379   0.073  1.1972  0.0540  0.8656
  244MPD1    H3 3760   1.040   3.365  17.575 -1.4452 -0.4356  0.5692
  244MPD1     N 3761   0.942   3.802  17.506 -0.0353  0.2015  0.1777
  244MPD1    H5 3762   0.959   3.890  17.554 -0.3554  0.3316  0.0510
  244MPD1    N1 3763   0.988   3.624   0.203 -0.0160  0.1383 -0.8725
  244MPD1    H6 3764   1.035   3.554   0.260 -0.9135  0.8171  0.7097
  244MPD1    H7 3765   1.033   3.710   0.231  0.3491 -0.0287 -0.9432
  245MPD1     C 3766   3.646   4.219  13.641 -0.2438  0.1388  1.3795
  245MPD1    C1 3767   3.687   4.335  13.704  0.1349 -0.7916  0.3888
  245MPD1    C2 3768   3.641   4.457  13.659  0.0367 -0.7745  0.2808
  245MPD1    C3 3769   3.566   4.469  13.543 -0.2590 -0.1697  0.7902
  245MPD1    C4 3770   3.532   4.355  13.472  0.1517 -0.6804  0.2003
  245MPD1    C5 3771   3.567   4.230  13.532  1.1204  0.3935 -0.1847
  245MPD1     H 3772   3.657   4.553  13.707 -0.5029 -1.4017  1.7277
  245MPD1    H1 3773   3.470   4.352  13.383  2.4864 -2.0916 -1.3669
  245MPD1    H2 3774   3.669   4.121  13.680 -2.6322  0.6940  4.2305
  245MPD1    H3 3775   3.529   4.146  13.475 -0.2708  1.2000 -0.4434
  245MPD1     N 3776   3.537   4.596  13.498  0.4107  0.1831  0.9080
  245MPD1    H5 3777   3.567   4.666  13.565 -0.4734  0.4008  1.0645
  245MPD1    N1 3778   3.744   4.326  13.835 -0.4056 -0.1832 -0.0110
  245MPD1    H6 3779   3.797   4.241  13.854 -2.2691 -1.6119 -1.2361
  245MPD1    H7 3780   3.805   4.406  13.849  0.3345 -0.4324 -1.8579
  246MPD1     C 3781   3.973   3.509  10.218 -0.1645 -0.3247  0.6789
  246MPD1    C1 3782   4.005   3.565  10.093  0.2172  0.5865  0.4674
  246MPD1    C2 3783   3.904   3.642  10.034  0.1501 -0.5137 -0.1204
  246MPD1    C3 3784   3.774   3.626  10.077  0.2950  0.6774 -0.0525
  246MPD1    C4 3785   3.744   3.566  10.200  0.0662 -0.5632  0.5931
  246MPD1    C5 3786   3.851   3.522  10.282 -1.1826 -0.7764  0.8046
  246MPD1     H 3787   3.922   3.689   9.938  0.6734 -1.0853 -0.2948
  246MPD1    H1 3788   3.649   3.575  10.251 -0.2282  0.6412 -0.1553
  246MPD1    H2 3789   4.060   3.468  10.269  0.2546 -1.4504 -0.9550
  246MPD1    H3 3790   3.829   3.480  10.380  3.2184 -1.1427  1.6412
  246MPD1     N 3791   3.665   3.688  10.004 -0.0407  0.3362  0.0466
  246MPD1    H5 3792   3.688   3.729   9.914 -2.7684  0.3708 -0.6511
  246MPD1    N1 3793   4.142   3.593  10.066 -0.4765 -0.1509 -0.8580
  246MPD1    H6 3794   4.158   3.590   9.965 -2.9688 -1.4493 -1.2056
  246MPD1    H7 3795   4.206   3.522  10.101  0.1181  1.0601  0.5072
  247MPD1     C 3796   2.590   0.620  16.778  0.3941  0.2776  0.4736
  247MPD1    C1 3797   2.515   0.508  16.809 -0.4954  0.0888  0.0598
  247MPD1    C2 3798   2.517   0.390  16.743  0.1510  0.2484  0.0279
  247MPD1    C3 3799   2.593   0.388  16.625 -0.1236  0.0523 -0.0579
  247MPD1    C4 3800   2.645   0.510  16.580  1.1159 -0.5752 -0.0218
  247MPD1    C5 3801   2.649   0.619  16.653  0.2794 -0.5197 -0.6647
  247MPD1     H 3802   2.460   0.306  16.782  1.9751 -2.1580 -2.3878
  247MPD1    H1 3803   2.703   0.519  16.489 -0.5393 -0.0031 -1.0104
  247MPD1    H2 3804   2.600   0.708  16.840 -1.4370  1.5426 -1.0233
  247MPD1    H3 3805   2.707   0.701  16.612 -3.1614  2.7421  0.9924
  247MPD1     N 3806   2.611   0.278  16.537 -0.4986  0.5257  0.1236
  247MPD1    H5 3807   2.650   0.287  16.443 -0.0293  2.0444  0.4612
  247MPD1    N1 3808   2.466   0.503  16.941 -0.3773  0.2764  0.1422
  247MPD1    H6 3809   2.435   0.594  16.974  0.3909  0.5107  0.2018
  247MPD1    H7 3810   2.402   0.426  16.962 -1.4790 -0.0779 -4.5230
  248MPD1     C 3811   3.032   3.753   0.137  0.2082  0.3862 -0.0792
  248MPD1    C1 3812   2.980   3.871   0.077 -0.0159  0.4252  0.2244
  248MPD1    C2 3813   2.946   3.977   0.157 -0.2670 -0.1248  0.2436
  248MPD1    C3 3814   2.978   3.971   0.294 -0.1034  0.3739 -0.2056
  248MPD1    C4 3815   3.038   3.859   0.348 -0.3540  0.5975 -0.4456
  248MPD1    C5 3816   3.067   3.752   0.269 -0.4403 -0.7017 -0.5879
  248MPD1     H 3817   2.891   4.055   0.107 -0.1967 -0.1837  0.0703
  248MPD1    H1 3818   3.053   3.842   0.454  1.6976  3.1299 -0.3203
  248MPD1    H2 3819   3.038   3.660   0.083  1.5173 -1.1243  2.6750
  248MPD1    H3 3820   3.115   3.664   0.309 -1.1814 -0.4181  0.9373
  248MPD1     N 3821   2.946   4.090   0.370  0.4007  0.0812  0.3911
  248MPD1    H5 3822   2.895   4.166   0.325 -0.7661  0.2155  1.9597
  248MPD1    N1 3823   2.933   3.860  17.687  0.7613  0.2121  0.1574
  248MPD1    H6 3824   2.922   3.947  17.635 -1.2462  1.1871  2.2094
  248MPD1    H7 3825   2.960   3.781  17.629  1.4044 -0.2916  1.1301
  249MPD1     C 3826   1.525   4.113   9.452 -0.2401  0.5697 -0.3243
  249MPD1    C1 3827   1.610   4.023   9.513 -0.0117  0.4127 -0.0338
  249MPD1    C2 3828   1.563   3.943   9.617  0.2091  0.2829  0.0024
  249MPD1    C3 3829   1.443   3.974   9.671 -0.1107  0.1304 -0.5934
  249MPD1    C4 3830   1.357   4.062   9.610 -0.0873 -0.3797 -0.5302
  249MPD1    C5 3831   1.395   4.135   9.498 -0.0256 -0.5138 -0.3440
  249MPD1     H 3832   1.627   3.871   9.667 -0.7109 -1.4002 -1.2178
  249MPD1    H1 3833   1.255   4.080   9.644  0.2739 -3.5401  2.2149
  249MPD1    H2 3834   1.551   4.168   9.363  0.1684 -1.5617 -1.5042
  249MPD1    H3 3835   1.335   4.219   9.464  1.4177 -0.0139 -1.6069
  249MPD1     N 3836   1.410   3.907   9.793 -0.2405  0.5394 -0.1997
  249MPD1    H5 3837   1.482   3.840   9.822 -0.4152 -0.0783 -1.2125
  249MPD1    N1 3838   1.734   3.998   9.448  0.0670 -0.0488 -0.7903
  249MPD1    H6 3839   1.805   3.953   9.505 -0.0994  2.6259  1.5033
  249MPD1    H7 3840   1.769   4.088   9.415 -0.7681 -0.2648 -2.2251
  250MPD2     C 3841   1.491   2.872  13.254 -0.2464 -0.8299  0.3948
  250MPD2    C1 3842   1.544   2.924  13.143  0.5635  0.2021  0.5301
  250MPD2    C2 3843   1.537   2.838  13.030  0.0400  0.2036  0.9902
  250MPD2    C3 3844   1.465   2.717  13.020  0.6578  0.3948 -0.1573
  250MPD2    C4 3845   1.402   2.677  13.139  0.3532  0.3575 -0.1853
  250MPD2    C5 3846   1.414   2.749  13.250 -0.4023  0.1426  0.2702
  250MPD2     H 3847   1.579   2.868  12.934  1.8774  3.9176  2.9830
  250MPD2    H1 3848   1.346   2.584  13.133  1.9311 -0.5400 -0.7681
  250MPD2    H2 3849   1.504   2.922  13.350  0.1108 -0.0360 -0.0738
  250MPD2    H3 3850   1.350   2.719  13.332 -0.5387  0.4004  0.2570
  250MPD2     N 3851   1.446   2.630  12.904 -0.3080  0.2114 -0.8848
  250MPD2    H5 3852   1.380   2.554  12.903 -0.1794  0.0973 -0.5793
  250MPD2    N1 3853   1.623   3.045  13.154 -0.4079 -0.2413 -0.3865
  250MPD2    H7 3854   1.602   3.114  13.225 -0.3111  0.1230 -0.7127
  251TMC3    C1 3855   1.745   3.229  13.102  0.7095  0.3252  0.5397
  251TMC3    C2 3856   1.640   3.312  13.115  0.1865  0.2969 -0.1183
  251TMC3    C3 3857   1.666   3.447  13.105 -0.2824 -0.4853  0.9046
  251TMC3    C4 3858   1.867   3.275  13.050 -0.3420 -0.4562  0.0763
  251TMC3    C5 3859   1.882   3.405  13.034  0.3274 -0.0022 -0.6578
  251TMC3    C6 3860   1.783   3.500  13.070 -0.0034  0.3766 -0.7794
  251TMC3     C 3861   1.713   3.096  13.068  0.3347  0.3262  0.3589
  251TMC3     O 3862   1.773   3.035  12.976 -0.2457 -0.3142  0.1392
  251TMC3     H 3863   1.536   3.283  13.126 -0.1654  2.8203  2.9378
  251TMC3    H1 3864   1.938   3.204  13.011  1.8778  1.2167  1.0898
  251TMC3    H2 3865   1.800   3.606  13.059  1.4827  0.1318 -0.8907
  251TMC3    C7 3866   2.017   3.443  13.004  0.5710 -0.1204  0.5497
  251TMC3    C8 3867   1.557   3.532  13.152 -1.2350 -0.4779 -0.1847
  251TMC3    O1 3868   2.112   3.360  13.017  0.0983  0.2714  0.1494
  251TMC3    O2 3869   1.475   3.464  13.219  0.1696 -0.7638 -0.1229
  252TMC3    C1 3870   1.391   4.393   9.801  0.8221 -0.0214 -0.6898
  252TMC3    C2 3871   1.484   4.482   9.754 -0.0312  0.1150 -0.3036
  252TMC3    C3 3872   1.612   4.461   9.794  0.4760 -0.4430 -0.7803
  252TMC3    C4 3873   1.422   4.291   9.892 -0.2203  0.0179  0.0338
  252TMC3    C5 3874   1.556   4.276   9.922  0.6119 -0.2573  0.0443
  252TMC3    C6 3875   1.652   4.361   9.873  0.8203 -0.1213 -1.4966
  252TMC3     C 3876   1.249   4.423   9.776 -0.5244 -0.3909 -0.1041
  252TMC3     O 3877   1.217   4.514   9.704 -0.5487 -0.0115  0.2393
  252TMC3     H 3878   1.455   4.574   9.704 -0.2056  0.3157  0.1699
  252TMC3    H1 3879   1.357   4.216   9.936 -0.5467  0.1814 -0.1664
  252TMC3    H2 3880   1.753   4.331   9.897 -0.4876 -1.9319  1.6712
  252TMC3    C7 3881   1.599   4.148   9.969 -0.2270 -0.3085 -0.3562
  252TMC3    C8 3882   1.701   4.555   9.745  0.4275  0.0757  0.0842
  252TMC3    O1 3883   1.523   4.108  10.058 -0.5896  0.4735 -0.3920
  252TMC3    O2 3884   1.679   4.621   9.646 -0.0734  0.1938  0.4932
  253MPD2     C 3885   2.978   3.085  15.031  0.5198 -0.6719 -0.7131
  253MPD2    C1 3886   2.837   3.105  15.018  0.0034 -0.3641 -0.8252
  253MPD2    C2 3887   2.757   3.081  15.128 -0.0520 -0.0547  0.1869
  253MPD2    C3 3888   2.814   3.060  15.255 -0.8112 -0.2048 -0.2620
  253MPD2    C4 3889   2.950   3.029  15.266  0.2315 -0.3125  0.1933
  253MPD2    C5 3890   3.027   3.050  15.156  0.5281 -0.3289  0.4122
  253MPD2     H 3891   2.651   3.101  15.116  0.1881 -0.2342 -2.1665
  253MPD2    H1 3892   2.988   2.994  15.362  1.7983  1.6417  0.2835
  253MPD2    H2 3893   3.049   3.102  14.950  0.4989 -0.0460 -0.5942
  253MPD2    H3 3894   3.133   3.031  15.161  0.5912  0.7140  3.3435
  253MPD2     N 3895   2.731   3.054  15.374 -0.4613 -0.2530  0.9869
  253MPD2    H5 3896   2.775   3.022  15.460  1.5689 -0.7514 -0.2457
  253MPD2    N1 3897   2.772   3.145  14.901 -0.1469  0.0607  0.0134
  253MPD2    H7 3898   2.672   3.147  14.913 -0.3352 -2.8850 -0.8832
  254TMC3    C1 3899   2.533   3.051  15.506  0.7921 -0.6528 -0.4128
  254TMC3    C2 3900   2.406   3.099  15.528  0.4859 -0.4310 -0.0500
  254TMC3    C3 3901   2.335   3.055  15.639 -0.6676  0.8070  0.6203
  254TMC3    C4 3902   2.584   2.944  15.578 -0.1793  0.4785 -0.2353
  254TMC3    C5 3903   2.501   2.892  15.675 -0.1111 -0.9016  0.0575
  254TMC3    C6 3904   2.380   2.947  15.716  0.2137 -0.7882  0.3567
  254TMC3     C 3905   2.603   3.091  15.383 -0.4779  0.2042  0.4974
  254TMC3     O 3906   2.535   3.150  15.298  0.6420  0.4396  0.4746
  254TMC3     H 3907   2.390   3.196  15.481 -0.5018 -0.6258 -0.1173
  254TMC3    H1 3908   2.673   2.893  15.544 -1.3219 -3.3040  2.3956
  254TMC3    H2 3909   2.331   2.913  15.806 -0.9167  0.0434  0.0540
  254TMC3    C7 3910   2.556   2.808  15.777 -0.0248  0.0864 -0.0689
  254TMC3    C8 3911   2.245   3.142  15.712  0.3197 -0.0205 -0.5065
  254TMC3    O1 3912   2.470   2.742  15.836 -0.9192  0.6736  0.3542
  254TMC3    O2 3913   2.228   3.112  15.827 -0.3434  0.0729  0.4949
  255MPD2     C 3914   1.604   1.252  10.436  0.0253 -0.1130  0.2266
  255MPD2    C1 3915   1.588   1.380  10.377  0.6837  0.0219  0.7489
  255MPD2    C2 3916   1.572   1.389  10.239 -0.0505  0.0180  0.3987
  255MPD2    C3 3917   1.586   1.271  10.159 -0.4827 -0.4354 -0.1189
  255MPD2    C4 3918   1.631   1.156  10.215  0.2671  0.4089  0.2989
  255MPD2    C5 3919   1.635   1.143  10.354 -0.0245  0.3837  0.8668
  255MPD2     H 3920   1.539   1.475  10.183  0.4515  0.3614  0.6290
  255MPD2    H1 3921   1.648   1.063  10.161  1.1768  0.1133  1.0940
  255MPD2    H2 3922   1.602   1.245  10.544  1.1832  3.1392  0.4576
  255MPD2    H3 3923   1.676   1.052  10.397  0.9418  1.1308  1.5184
  255MPD2     N 3924   1.561   1.285  10.025 -0.2697 -0.5792 -0.2227
  255MPD2    H5 3925   1.539   1.382  10.005  1.3379 -0.4608 -1.4524
  255MPD2    N1 3926   1.558   1.487  10.457 -0.0561 -0.3102 -0.3746
  255MPD2    H7 3927   1.543   1.472  10.556 -0.9183 -1.0354 -0.6160
  256TMC3    C1 3928   1.531   1.717  10.530 -0.3595  0.1424  0.2690
  256TMC3    C2 3929   1.580   1.847  10.511 -0.2425 -0.1730  0.5640
  256TMC3    C3 3930   1.522   1.948  10.583  0.0088  0.2857 -0.0711
  256TMC3    C4 3931   1.421   1.697  10.611 -0.1314 -0.2929  0.1624
  256TMC3    C5 3932   1.357   1.806  10.668  0.0560 -0.4155  0.3855
  256TMC3    C6 3933   1.410   1.929  10.657 -0.6036  0.5121 -0.7118
  256TMC3     C 3934   1.572   1.620  10.423 -0.5452 -0.0426 -0.2079
  256TMC3     O 3935   1.598   1.675  10.319  0.3402  0.4726 -0.4100
  256TMC3     H 3936   1.678   1.857  10.466 -0.8764 -0.6175 -0.9404
  256TMC3    H1 3937   1.384   1.595  10.619  1.4356 -0.8223  0.7627
  256TMC3    H2 3938   1.377   2.007  10.725  0.3726 -0.6717  1.1320
  256TMC3    C7 3939   1.212   1.800  10.645  0.1714 -0.0446 -0.5266
  256TMC3    C8 3940   1.567   2.083  10.557  0.2313  0.0726  0.5822
  256TMC3    O1 3941   1.169   1.684  10.637 -0.7755 -0.3727 -0.3448
  256TMC3    O2 3942   1.521   2.158  10.643  0.1978  0.3679  0.1359
  257MPD2     C 3943   4.600   3.005  12.944 -0.1588  0.1031  0.1928
  257MPD2    C1 3944   4.725   2.963  12.904  1.1641  0.4195 -0.8802
  257MPD2    C2 3945   0.060   2.866  12.982 -0.0552  0.3224  0.3282
  257MPD2    C3 3946   0.005   2.816  13.102  0.2834 -0.5917  0.1248
  257MPD2    C4 3947   4.616   2.869  13.141  0.2472 -0.0862  0.2222
  257MPD2    C5 3948   4.549   2.958  13.060  0.7740 -0.4321  0.2759
  257MPD2     H 3949   0.157   2.829  12.951 -1.5571  0.8538 -5.0066
  257MPD2    H1 3950   4.561   2.833  13.227  1.3660  3.3811  2.4201
  257MPD2    H2 3951   4.551   3.082  12.886  0.6799  0.5033  0.0268
  257MPD2    H3 3952   4.461   3.004  13.104 -0.7500 -1.3472 -1.8424
  257MPD2     N 3953   0.069   2.711  13.170  0.3068 -0.4812  0.4493
  257MPD2    H5 3954   0.154   2.676  13.126 -1.0543 -3.4512  0.1600
  257MPD2    N1 3955   0.042   3.004  12.782  0.0569  0.4312 -0.2787
  257MPD2    H7 3956   4.717   3.064  12.728 -0.5736 -2.1270 -2.3941
  258TMC3    C1 3957   0.140   2.582  13.341 -0.5357 -0.1007  0.3156
  258TMC3    C2 3958   0.208   2.499  13.254 -0.2609  0.2456 -0.0321
  258TMC3    C3 3959   0.303   2.418  13.312 -0.1538  0.3325  0.1127
  258TMC3    C4 3960   0.174   2.588  13.472 -0.3847 -0.0099  0.1845
  258TMC3    C5 3961   0.263   2.498  13.521 -0.3836 -0.6244  1.0909
  258TMC3    C6 3962   0.340   2.412  13.443  0.0869  0.5810  0.4726
  258TMC3     C 3963   0.044   2.677  13.296  0.8523  0.2481  0.4323
  258TMC3     O 3964   4.706   2.726  13.377 -0.0700  0.8341  0.3308
  258TMC3     H 3965   0.185   2.493  13.148 -0.0663  2.0016 -0.1830
  258TMC3    H1 3966   0.119   2.654  13.538  0.9881  1.9652 -0.6542
  258TMC3    H2 3967   0.409   2.340  13.486 -0.1080  0.7073  0.9956
  258TMC3    C7 3968   0.282   2.489  13.662 -0.1546  0.2135 -0.0824
  258TMC3    C8 3969   0.363   2.316  13.225 -0.5258  0.0389  0.0332
  258TMC3    O1 3970   0.190   2.506  13.737 -0.2056 -0.6722  0.5535
  258TMC3    O2 3971   0.302   2.284  13.121 -0.0837 -0.2210  0.2166
  259MPD2     C 3972   3.498   0.146   0.614  0.1149  0.2649  0.3263
  259MPD2    C1 3973   3.516   0.011   0.572  0.6310  0.2425 -0.3664
  259MPD2    C2 3974   3.443   4.694   0.466  1.2343  0.3952 -0.0290
  259MPD2    C3 3975   3.356   0.038   0.396  0.6113  0.0314 -0.2553
  259MPD2    C4 3976   3.326   0.164   0.453  0.1806 -0.2804 -0.4992
  259MPD2    C5 3977   3.406   0.221   0.549 -0.5613  0.1907 -0.0745
  259MPD2     H 3978   3.458   4.592   0.431 -0.9238 -0.0279  0.2874
  259MPD2    H1 3979   3.247   0.229   0.416  0.3768 -0.1124 -0.6224
  259MPD2    H2 3980   3.569   0.187   0.685  1.3101 -2.3085  0.5999
  259MPD2    H3 3981   3.384   0.322   0.580  1.5645  0.7347 -0.2748
  259MPD2     N 3982   3.308   4.730   0.274 -0.5843 -0.4385 -0.5726
  259MPD2    H5 3983   3.349   4.643   0.241  0.7058 -0.4956  1.1980
  259MPD2    N1 3984   3.608   4.663   0.641 -0.0954  0.1535 -0.4015
  259MPD2    H7 3985   3.673   4.716   0.697  0.0399  1.1351 -1.4799
  260TMC3    C1 3986   3.232   4.734   0.051  0.0060 -0.6868  0.2768
  260TMC3    C2 3987   3.257   0.078  17.686  0.0737  0.4016  0.6875
  260TMC3    C3 3988   3.350   0.038  17.594 -0.0900 -0.2241 -0.0370
  260TMC3    C4 3989   3.277   4.600   0.056 -0.1289 -0.7418 -1.0331
  260TMC3    C5 3990   3.353   4.559  17.692 -0.0852  0.6239  0.4651
  260TMC3    C6 3991   3.378   4.639  17.585 -0.9340  0.9889  0.8889
  260TMC3     C 3992   3.238   0.072   0.179 -0.3028 -0.2871 -0.5711
  260TMC3     O 3993   3.177   0.179   0.193 -0.5740 -0.3139 -0.3764
  260TMC3     H 3994   3.234   0.183  17.698  0.0840  0.6304 -1.2191
  260TMC3    H1 3995   3.239   4.534   0.133  2.2205 -1.5330 -0.5611
  260TMC3    H2 3996   3.444   4.601  17.508 -0.3468  2.1240  0.8353
  260TMC3    C7 3997   3.433   4.440  17.706 -0.8568  0.3177  0.0820
  260TMC3    C8 3998   3.454   0.133  17.603 -0.2023 -0.8622 -0.1915
  260TMC3    O1 3999   3.443   4.383  17.600 -0.1660 -0.0477 -0.5715
  260TMC3    O2 4000   3.439   0.252  17.612  0.3346  0.5674 -0.3016
  261MPD2     C 4001   0.993   2.578  12.231  0.2592 -0.1282 -0.2791
  261MPD2    C1 4002   1.115   2.632  12.271  0.0207 -0.0256  0.2998
  261MPD2    C2 4003   1.181   2.712  12.180  0.3174  0.1838 -0.2595
  261MPD2    C3 4004   1.131   2.728  12.049 -0.7294 -0.2273  0.0165
  261MPD2    C4 4005   1.010   2.672  12.020 -0.4225  0.0260 -0.4383
  261MPD2    C5 4006   0.940   2.604  12.110 -0.6583 -0.1226  0.1094
  261MPD2     H 4007   1.274   2.757  12.215  0.4615  0.5205 -1.0728
  261MPD2    H1 4008   0.969   2.683  11.920 -1.0680 -0.0838 -0.1910
  261MPD2    H2 4009   0.937   2.516  12.301 -0.0270  0.1781 -0.2381
  261MPD2    H3 4010   0.841   2.568  12.087 -0.1422 -0.0984 -2.1422
  261MPD2     N 4011   1.200   2.800  11.953  0.6001 -0.0069  0.3914
  261MPD2    H5 4012   1.282   2.850  11.986  1.7771 -0.0985 -2.3241
  261MPD2    N1 4013   1.185   2.611  12.396  0.3888 -0.9752  0.5464
  261MPD2    H7 4014   1.274   2.660  12.409  0.3522 -0.6544 -0.4020
  262TMC3    C1 4015   1.238   2.937  11.763 -0.1468 -0.4721  0.6094
  262TMC3    C2 4016   1.213   3.059  11.814 -0.2468 -0.2025 -0.3356
  262TMC3    C3 4017   1.218   3.159  11.726 -1.3277 -0.2343  0.2920
  262TMC3    C4 4018   1.290   2.919  11.642  0.5666  0.3433 -0.7111
  262TMC3    C5 4019   1.296   3.029  11.560  0.5364  0.4638 -0.2958
  262TMC3    C6 4020   1.261   3.152  11.597  0.0742 -0.1302  0.3510
  262TMC3     C 4021   1.160   2.825  11.821 -0.1741 -0.1666  0.6120
  262TMC3     O 4022   1.087   2.759  11.748  0.1518  0.5207 -0.2994
  262TMC3     H 4023   1.191   3.063  11.920 -1.0460 -2.6490 -0.3984
  262TMC3    H1 4024   1.322   2.825  11.599  0.4368 -0.3865  0.7611
  262TMC3    H2 4025   1.252   3.237  11.530  0.5356 -0.8387 -0.6054
  262TMC3    C7 4026   1.367   3.015  11.429 -0.3064 -0.0411 -0.0410
  262TMC3    C8 4027   1.156   3.280  11.775 -0.1186 -0.0261  0.5306
  262TMC3    O1 4028   1.402   2.904  11.392 -0.5389  0.1598  0.4134
  262TMC3    O2 4029   1.203   3.386  11.742 -0.2349  0.2943 -0.4874
  263MPD2     C 4030   2.254   2.140  11.777  0.6341 -0.4590  0.2946
  263MPD2    C1 4031   2.350   2.125  11.675  0.5356  0.3782  0.7925
  263MPD2    C2 4032   2.324   2.185  11.555  0.5202 -0.4055 -0.1769
  263MPD2    C3 4033   2.202   2.257  11.533 -0.9857  0.0074 -0.2676
  263MPD2    C4 4034   2.106   2.248  11.626 -1.1642 -0.0206  0.0091
  263MPD2    C5 4035   2.129   2.194  11.750 -0.2478 -0.6008  0.3560
  263MPD2     H 4036   2.389   2.174  11.470  0.1046 -0.3326 -0.5046
  263MPD2    H1 4037   2.005   2.280  11.603 -0.6425 -0.4523 -2.9584
  263MPD2    H2 4038   2.272   2.099  11.876  2.0586  0.3281  0.3422
  263MPD2    H3 4039   2.057   2.194  11.832 -1.0129  2.1234 -0.3100
  263MPD2     N 4040   2.175   2.319  11.411  0.3494 -0.1207 -0.1188
  263MPD2    H5 4041   2.231   2.277  11.337  0.2962  1.7910 -1.2327
  263MPD2    N1 4042   2.465   2.054  11.710 -0.5521 -0.2531  0.2430
  263MPD2    H7 4043   2.455   1.993  11.790 -0.3320 -0.4014  0.1584
  264TMC3    C1 4044   2.120   2.493  11.267  0.7485 -0.6955 -0.0372
  264TMC3    C2 4045   2.142   2.624  11.269  0.1032  0.0822 -0.7585
  264TMC3    C3 4046   2.188   2.686  11.160  0.1075  0.2455 -0.0478
  264TMC3    C4 4047   2.158   2.412  11.161 -0.2513 -1.0325  0.5174
  264TMC3    C5 4048   2.199   2.482  11.050  0.5964 -0.9928 -0.1031
  264TMC3    C6 4049   2.225   2.619  11.052 -0.2299 -0.3065  0.3274
  264TMC3     C 4050   2.083   2.423  11.390  0.0852  0.0887  0.1095
  264TMC3     O 4051   2.023   2.487  11.479 -0.1562 -0.4529 -0.2644
  264TMC3     H 4052   2.112   2.678  11.358  0.6366  2.5602 -2.0715
  264TMC3    H1 4053   2.130   2.307  11.161 -0.4159 -0.9792 -1.5171
  264TMC3    H2 4054   2.260   2.681  10.970  0.7286 -0.0403  0.9375
  264TMC3    C7 4055   2.270   2.415  10.934  0.3939 -1.3372 -0.0270
  264TMC3    C8 4056   2.207   2.829  11.164  0.2749  0.0185  0.0601
  264TMC3    O1 4057   2.332   2.482  10.852 -0.0386 -0.0283  0.8364
  264TMC3    O2 4058   2.259   2.875  11.062 -0.2841  0.0873  0.2598
  265MPD2     C 4059   3.613   2.675  15.352 -0.3307 -0.5760 -0.2021
  265MPD2    C1 4060   3.651   2.798  15.317 -0.5859  0.0240 -0.1248
  265MPD2    C2 4061   3.708   2.816  15.188  0.3543 -0.0572  1.1112
  265MPD2    C3 4062   3.722   2.703  15.108  0.8096 -0.6225  0.3309
  265MPD2    C4 4063   3.683   2.578  15.154  0.3580 -0.7553 -0.2632
  265MPD2    C5 4064   3.618   2.565  15.271 -0.3296 -0.2294 -0.6105
  265MPD2     H 4065   3.751   2.914  15.173  0.1406  0.2633  2.5885
  265MPD2    H1 4066   3.712   2.494  15.092  1.4511  0.2055 -1.0603
  265MPD2    H2 4067   3.562   2.655  15.446 -0.6792 -1.1717 -0.5202
  265MPD2    H3 4068   3.592   2.464  15.297 -0.0870 -0.2801 -0.5614
  265MPD2     N 4069   3.798   2.704  14.985 -0.3187  0.5186  0.1294
  265MPD2    H5 4070   3.830   2.610  14.964 -1.4322  0.3175 -0.6422
  265MPD2    N1 4071   3.651   2.908  15.404  0.1551 -0.0186 -0.1751
  265MPD2    H7 4072   3.667   3.004  15.372 -0.0463  0.5412  1.4100
  266TMC3    C1 4073   3.640   3.030  15.606 -0.1649 -0.1674  0.3317
  266TMC3    C2 4074   3.686   3.034  15.735  0.6412  0.4495  0.4223
  266TMC3    C3 4075   3.658   3.155  15.804 -0.8007 -0.1029  0.1323
  266TMC3    C4 4076   3.567   3.128  15.546 -0.2166 -0.0934 -0.0852
  266TMC3    C5 4077   3.550   3.248  15.617  0.1691  0.6453 -0.0159
  266TMC3    C6 4078   3.597   3.269  15.746 -0.3541 -0.7580  1.3402
  266TMC3     C 4079   3.638   2.896  15.537 -0.0797 -0.9397  0.7165
  266TMC3     O 4080   3.613   2.795  15.604  0.3314  0.6935 -0.3607
  266TMC3     H 4081   3.724   2.951  15.793  1.1298  0.3616 -0.0246
  266TMC3    H1 4082   3.523   3.116  15.447  0.1606 -0.6983 -0.1760
  266TMC3    H2 4083   3.553   3.348  15.806  0.6769 -0.5634  1.8355
  266TMC3    C7 4084   3.469   3.346  15.547 -0.2611 -0.1316  0.1554
  266TMC3    C8 4085   3.737   3.173  15.921  1.4109  0.5031 -0.0338
  266TMC3    O1 4086   3.407   3.324  15.446  0.4201 -0.5081 -0.3384
  266TMC3    O2 4087   3.786   3.072  15.976 -0.4626  0.1039  0.5247
  267MPD2     C 4088   0.716   4.640  17.675 -0.1942 -0.0542  0.0302
  267MPD2    C1 4089   0.828   4.667  17.604 -0.1715 -0.4382 -0.9236
  267MPD2    C2 4090   0.812   4.686  17.467 -0.4026  0.5323 -0.0475
  267MPD2    C3 4091   0.687   4.699  17.414  0.0923  0.0797 -0.3544
  267MPD2    C4 4092   0.577   4.678  17.491 -0.2533  0.3545  0.2177
  267MPD2    C5 4093   0.596   4.655  17.622  0.4520  0.1962  0.4488
  267MPD2     H 4094   0.888   4.669  17.392 -2.3612  0.9759 -2.1122
  267MPD2    H1 4095   0.476   4.697  17.457 -0.9536 -1.3267  1.3296
  267MPD2    H2 4096   0.722   4.609   0.037  2.6175 -0.1519 -0.1659
  267MPD2    H3 4097   0.514   4.662  17.693  0.1411 -0.6220  0.1707
  267MPD2     N 4098   0.661   4.693  17.274  0.2052 -0.2961  0.0535
  267MPD2    H5 4099   0.563   4.669  17.263  0.6650 -1.4764 -1.4754
  267MPD2    N1 4100   0.954   4.642  17.658 -0.8746 -0.8558  0.3251
  267MPD2    H7 4101   0.964   4.623   0.016 -0.9333  1.8307  0.8476
  268TMC3    C1 4102   1.200   4.633  17.650 -0.2834  0.7510  0.3192
  268TMC3    C2 4103   1.311   4.660  17.576  0.5474 -0.1598 -0.0844
  268TMC3    C3 4104   1.435   4.651  17.638  0.0569 -0.1611 -0.0317
  268TMC3    C4 4105   1.206   4.588   0.037 -0.8030  0.3288 -0.9725
  268TMC3    C5 4106   1.335   4.576   0.093 -0.1297 -0.5494 -0.5670
  268TMC3    C6 4107   1.447   4.611   0.023 -0.0780 -0.2544  0.6351
  268TMC3     C 4108   1.072   4.665  17.583  0.1953 -0.0404  0.0632
  268TMC3     O 4109   1.085   4.719  17.475 -0.1308  0.4486 -0.4780
  268TMC3     H 4110   1.299   4.702  17.477 -2.1321  0.6493  0.5901
  268TMC3    H1 4111   1.111   4.574   0.088 -0.3516 -2.2159 -0.8010
  268TMC3    H2 4112   1.547   4.602   0.062 -0.7105 -1.0794  2.0721
  268TMC3    C7 4113   1.343   4.595   0.233  0.2241 -0.7549 -0.3529
  268TMC3    C8 4114   1.554   4.701  17.577 -0.0433 -0.0336  0.3897
  268TMC3    O1 4115   1.247   4.649   0.285  0.0460  0.7044  0.1515
  268TMC3    O2 4116   1.645   0.008  17.653 -0.6339 -0.2215 -0.3423
  269MPD2     C 4117   1.920   3.577  15.284  0.5956 -0.1090  0.1610
  269MPD2    C1 4118   1.821   3.569  15.379  0.5526  0.5282 -0.0574
  269MPD2    C2 4119   1.761   3.691  15.421  0.3734 -0.9775 -0.5009
  269MPD2    C3 4120   1.794   3.809  15.365 -0.3449  0.7028  0.0921
  269MPD2    C4 4121   1.894   3.814  15.267 -0.2434  0.3638 -0.9563
  269MPD2    C5 4122   1.962   3.697  15.231 -0.6433  0.7085  0.2076
  269MPD2     H 4123   1.684   3.690  15.498  2.4500  0.0940  1.6093
  269MPD2    H1 4124   1.920   3.907  15.219  1.2100  1.7452  2.5166
  269MPD2    H2 4125   1.963   3.483  15.251 -0.8195 -0.5126 -0.5436
  269MPD2    H3 4126   2.044   3.693  15.161  0.1121 -1.8638  1.2033
  269MPD2     N 4127   1.733   3.930  15.411  0.1938 -0.3335  0.0742
  269MPD2    H5 4128   1.656   3.912  15.475  0.1134 -1.4295 -0.3297
  269MPD2    N1 4129   1.784   3.441  15.424  0.6278 -0.7308 -0.2297
  269MPD2    H7 4130   1.828   3.366  15.370  2.3156 -1.1481  1.7251
  270TMC3    C1 4131   1.689   3.268  15.544 -0.2359 -0.9211 -0.1874
  270TMC3    C2 4132   1.562   3.217  15.565  0.5962  0.0738 -0.0654
  270TMC3    C3 4133   1.542   3.081  15.575 -0.0746  0.8689 -0.5777
  270TMC3    C4 4134   1.803   3.190  15.582 -0.0044  0.3267  0.1215
  270TMC3    C5 4135   1.782   3.063  15.616  0.4283  0.5276 -0.2295
  270TMC3    C6 4136   1.657   3.012  15.606 -0.0457  0.4645 -0.0997
  270TMC3     C 4137   1.689   3.410  15.517 -0.2828  0.4089  0.3837
  270TMC3     O 4138   1.594   3.477  15.558  0.2629 -0.6024  1.2588
  270TMC3     H 4139   1.476   3.283  15.572  0.4936 -0.2045  1.4528
  270TMC3    H1 4140   1.896   3.241  15.604  0.0438 -0.3658  1.5041
  270TMC3    H2 4141   1.654   2.907  15.633 -1.1775  0.7582  0.9111
  270TMC3    C7 4142   1.892   2.987  15.562 -0.8267 -0.8542 -0.1101
  270TMC3    C8 4143   1.489   3.014  15.453 -0.0544  0.0696  0.3856
  270TMC3    O1 4144   2.000   2.992  15.616  0.2924  0.2955 -0.4111
  270TMC3    O2 4145   1.562   2.921  15.418  0.8764  0.5425 -0.7791
  271MPD2     C 4146   1.036   2.740  13.651 -0.9925 -0.5199  0.0803
  271MPD2    C1 4147   0.988   2.790  13.773 -0.3709  0.6493  0.0371
  271MPD2    C2 4148   0.902   2.900  13.760  0.2796  0.3024  0.2530
  271MPD2    C3 4149   0.856   2.948  13.642  0.6552  0.1923  0.1461
  271MPD2    C4 4150   0.897   2.895  13.526 -0.0273  0.4898 -0.2219
  271MPD2    C5 4151   0.975   2.784  13.534 -0.3835  0.3785 -0.3238
  271MPD2     H 4152   0.877   2.947  13.855 -1.4000 -0.1138  0.0220
  271MPD2    H1 4153   0.852   2.924  13.433  0.2443  1.4298 -0.0586
  271MPD2    H2 4154   1.109   2.660  13.644  0.5565  1.0944 -2.3344
  271MPD2    H3 4155   0.997   2.735  13.440 -1.6070 -1.1249  0.1738
  271MPD2     N 4156   0.770   3.057  13.631  0.1145  0.4189  0.7437
  271MPD2    H5 4157   0.742   3.076  13.535  0.6453  2.5336  0.9876
  271MPD2    N1 4158   1.035   2.744  13.896 -0.2489  0.1576  0.2758
  271MPD2    H7 4159   0.979   2.764  13.978 -2.0694  2.1261 -1.4404
  272TMC3    C1 4160   1.179   2.668  14.063  0.1129  0.4814  0.4228
  272TMC3    C2 4161   1.280   2.586  14.099 -0.3901 -0.5536 -0.4219
  272TMC3    C3 4162   1.340   2.593  14.223  0.7270  0.2301 -0.0028
  272TMC3    C4 4163   1.134   2.767  14.153  0.7084 -0.4872 -0.9893
  272TMC3    C5 4164   1.187   2.766  14.278  0.2723 -0.3458  0.1982
  272TMC3    C6 4165   1.298   2.684  14.313 -0.3079 -0.1350 -0.0045
  272TMC3     C 4166   1.141   2.662  13.919 -1.0851  0.0751 -0.2036
  272TMC3     O 4167   1.224   2.642  13.838 -0.3540  0.3040 -0.1955
  272TMC3     H 4168   1.324   2.517  14.028 -2.2256 -2.4962  0.3249
  272TMC3    H1 4169   1.045   2.825  14.135  0.3920 -0.2977  1.1489
  272TMC3    H2 4170   1.336   2.681  14.415  0.5070  1.4851 -0.2446
  272TMC3    C7 4171   1.120   2.840  14.382 -0.3064  0.0307  0.1886
  272TMC3    C8 4172   1.482   2.560  14.220 -0.0407 -0.2522  0.2952
  272TMC3    O1 4173   1.000   2.868  14.361  0.5360  0.4369 -0.0993
  272TMC3    O2 4174   1.530   2.524  14.115 -0.6807 -0.6213 -0.3465
  273MPD2     C 4175   2.695   0.878  11.726  0.4880  0.1935 -0.2956
  273MPD2    C1 4176   2.733   1.007  11.703 -0.2919  0.1454 -0.0870
  273MPD2    C2 4177   2.703   1.054  11.573 -0.3778  0.3611  0.2364
  273MPD2    C3 4178   2.665   0.973  11.468  0.1774  0.1436 -0.1175
  273MPD2    C4 4179   2.624   0.845  11.500 -0.1818  0.2988 -0.0867
  273MPD2    C5 4180   2.634   0.807  11.632  0.1608  0.4114  0.2689
  273MPD2     H 4181   2.720   1.159  11.552  0.0501 -0.0226 -1.3393
  273MPD2    H1 4182   2.580   0.786  11.421  1.9699 -3.3198  1.4074
  273MPD2    H2 4183   2.705   0.840  11.828 -2.4338 -0.4548 -0.2774
  273MPD2    H3 4184   2.585   0.715  11.660  0.6611  0.0311 -0.1140
  273MPD2     N 4185   2.676   1.003  11.335  0.5014  0.0400  0.0530
  273MPD2    H5 4186   2.643   0.935  11.268 -0.4681  1.5118 -0.9774
  273MPD2    N1 4187   2.800   1.092  11.796 -1.1392  0.4112 -0.4989
  273MPD2    H7 4188   2.829   1.051  11.884 -1.5046 -0.6683 -0.8869
  274TMC3    C1 4189   2.771   1.111  11.144  0.0348 -0.0184 -0.4899
  274TMC3    C2 4190   2.672   1.075  11.054  0.0055 -0.2937  0.3720
  274TMC3    C3 4191   2.693   1.103  10.925  0.4880 -0.1607 -1.2272
  274TMC3    C4 4192   2.884   1.186  11.110  0.1361 -0.1561 -0.3655
  274TMC3    C5 4193   2.890   1.220  10.975  0.3258  0.0425  0.2354
  274TMC3    C6 4194   2.807   1.169  10.880  0.0150 -0.0265  0.0184
  274TMC3     C 4195   2.748   1.111  11.287  0.3041 -0.0843  0.1163
  274TMC3     O 4196   2.816   1.194  11.344 -0.2487 -0.3629  0.5341
  274TMC3     H 4197   2.573   1.039  11.080 -0.0625  0.7862  1.5964
  274TMC3    H1 4198   2.961   1.208  11.183 -0.5069 -0.5388  0.4265
  274TMC3    H2 4199   2.812   1.218  10.784  1.5679 -0.1393  0.0427
  274TMC3    C7 4200   2.931   1.353  10.949  0.0210 -0.2646 -0.6970
  274TMC3    C8 4201   2.576   1.106  10.836  0.1876  0.2661  0.8566
  274TMC3    O1 4202   2.958   1.393  10.832  0.6040  0.0090  0.7566
  274TMC3    O2 4203   2.467   1.094  10.888 -0.4217 -0.3015 -0.1621
  275MPD2     C 4204   2.399   4.363  14.257 -0.2346 -0.4813 -0.3456
  275MPD2    C1 4205   2.432   4.284  14.365  0.1656 -0.1445  0.2936
  275MPD2    C2 4206   2.363   4.166  14.393  0.2192 -0.0946  0.5150
  275MPD2    C3 4207   2.271   4.117  14.297 -0.4138  0.2720  0.3864
  275MPD2    C4 4208   2.247   4.190  14.182 -0.8864  0.7441 -0.0241
  275MPD2    C5 4209   2.319   4.312  14.166  0.1780  0.3851 -0.4738
  275MPD2     H 4210   2.381   4.122  14.490 -1.1257 -0.3444  0.6605
  275MPD2    H1 4211   2.161   4.177  14.117  0.5328  0.9667 -1.9379
  275MPD2    H2 4212   2.458   4.451  14.235  0.8757 -1.5803 -1.8749
  275MPD2    H3 4213   2.288   4.375  14.084  0.2975 -2.6889 -2.9164
  275MPD2     N 4214   2.213   3.988  14.324 -0.4650  0.1811 -0.5837
  275MPD2    H5 4215   2.228   3.951  14.417 -1.2251  0.2999 -0.4134
  275MPD2    N1 4216   2.536   4.329  14.454  0.0342  0.4040 -0.8934
  275MPD2    H7 4217   2.568   4.252  14.512  0.7387  0.5557 -1.0758
  276TMC3    C1 4218   2.685   4.457  14.558 -0.0143  0.4007  0.3909
  276TMC3    C2 4219   2.767   4.346  14.551  0.1513 -0.5001  0.5030
  276TMC3    C3 4220   2.881   4.356  14.622  0.4271 -0.3014  0.1684
  276TMC3    C4 4221   2.725   4.572  14.621 -0.5448 -0.2221  0.4905
  276TMC3    C5 4222   2.833   4.566  14.700  0.3653  0.4345  0.0817
  276TMC3    C6 4223   2.919   4.459  14.705 -0.2929 -0.7651 -0.3463
  276TMC3     C 4224   2.572   4.458  14.476 -0.3753  0.3265 -0.9914
  276TMC3     O 4225   2.530   4.562  14.437 -0.2121 -0.1010  0.2688
  276TMC3     H 4226   2.754   4.267  14.479  1.1637 -1.0539  0.9300
  276TMC3    H1 4227   2.662   4.660  14.611 -0.5204 -0.0249  2.0904
  276TMC3    H2 4228   3.000   4.453  14.776 -0.1235 -1.4201 -0.5973
  276TMC3    C7 4229   2.885   4.692  14.757  0.4435 -0.2294 -0.2316
  276TMC3    C8 4230   2.968   4.235  14.629  0.0814  0.1740  1.4539
  276TMC3    O1 4231   3.004   4.695  14.790 -0.1418 -1.2286  0.3234
  276TMC3    O2 4232   3.083   4.248  14.674  0.5123 -0.1907 -0.0842
  277MPD2     C 4233   4.294   2.941  12.762  0.4345 -0.8025 -0.3083
  277MPD2    C1 4234   4.166   2.992  12.767 -0.4273 -0.6787 -0.0774
  277MPD2    C2 4235   4.081   2.951  12.873 -0.0652  0.6021 -0.7119
  277MPD2    C3 4236   4.127   2.864  12.970 -0.1617  0.2717  0.3206
  277MPD2    C4 4237   4.258   2.820  12.963  0.1547  0.7295  0.3031
  277MPD2    C5 4238   4.332   2.848  12.855 -0.2041  0.3937  0.8964
  277MPD2     H 4239   3.983   2.993  12.891  0.2475  0.3955  1.4518
  277MPD2    H1 4240   4.292   2.748  13.038  1.0918  1.2951  0.4141
  277MPD2    H2 4241   4.356   2.969  12.678  1.6491 -1.7546  0.2743
  277MPD2    H3 4242   4.433   2.813  12.839 -1.0109 -1.1543 -0.7003
  277MPD2     N 4243   4.031   2.821  13.069  0.0044 -0.0570  0.3385
  277MPD2    H5 4244   3.935   2.847  13.050  0.0952 -0.1697 -0.2588
  277MPD2    N1 4245   4.120   3.085  12.665  0.1267  0.4499 -0.3073
  277MPD2    H7 4246   4.194   3.123  12.608 -0.0652  0.0477 -0.8287
  278TMC3    C1 4247   3.944   2.730  13.271  0.1722  0.3615  0.4129
  278TMC3    C2 4248   3.955   2.653  13.379  0.6668  0.6394 -0.3053
  278TMC3    C3 4249   3.849   2.625  13.451 -0.3400 -0.4217 -0.6103
  278TMC3    C4 4250   3.828   2.785  13.245 -0.4146  0.5221  0.0419
  278TMC3    C5 4251   3.714   2.760  13.323 -0.7519 -0.5270  0.1840
  278TMC3    C6 4252   3.725   2.673  13.424 -0.1592  1.0311  0.5606
  278TMC3     C 4253   4.060   2.760  13.189 -0.2564  0.0275 -0.0977
  278TMC3     O 4254   4.171   2.728  13.237 -0.0329  0.1453 -0.4123
  278TMC3     H 4255   4.054   2.614  13.400 -0.4654 -1.8510  0.4165
  278TMC3    H1 4256   3.822   2.848  13.157 -0.8513  1.0333  0.4330
  278TMC3    H2 4257   3.649   2.647  13.496  1.7731 -2.1220  1.4881
  278TMC3    C7 4258   3.592   2.835  13.300 -0.5516  0.1930 -0.0883
  278TMC3    C8 4259   3.853   2.497  13.522  1.0540 -0.2270  0.5980
  278TMC3    O1 4260   3.614   2.948  13.263 -0.5236 -0.5983 -0.6008
  278TMC3    O2 4261   3.947   2.478  13.599 -0.0891  0.3647 -0.7641
  279MPD2     C 4262   3.343   3.228   0.175  0.0778  0.8714  0.1804
  279MPD2    C1 4263   3.254   3.137   0.119 -0.3152 -1.0960 -0.3219
  279MPD2    C2 4264   3.254   3.120  17.723  0.1857  0.4100 -0.6935
  279MPD2    C3 4265   3.335   3.187  17.635  0.4331 -0.7007 -0.5598
  279MPD2    C4 4266   3.422   3.278  17.694  0.2562  0.1216  0.0744
  279MPD2    C5 4267   3.420   3.298   0.091  0.4396 -0.7683  0.0793
  279MPD2     H 4268   3.197   3.034  17.688 -1.1118  1.4747 -1.2191
  279MPD2    H1 4269   3.487   3.343  17.637  0.2349  2.2777  2.5436
  279MPD2    H2 4270   3.361   3.257   0.278 -1.3692  1.6712  0.2134
  279MPD2    H3 4271   3.471   3.378   0.145  1.0217 -1.4280  0.5096
  279MPD2     N 4272   3.335   3.172  17.494  0.0316 -0.0676  0.4041
  279MPD2    H5 4273   3.392   3.231  17.433  0.4454 -1.1544 -0.2569
  279MPD2    N1 4274   3.157   3.083   0.203  0.1324 -0.8166 -0.2842
  279MPD2    H7 4275   3.136   3.145   0.281  2.3936 -0.5350  0.1018
  280TMC3    C1 4276   2.970   2.948   0.270 -0.0407  0.2381  0.6848
  280TMC3    C2 4277   2.896   2.833   0.261  0.9025 -0.5937  0.3688
  280TMC3    C3 4278   2.765   2.835   0.290 -0.4952  0.1118 -0.3428
  280TMC3    C4 4279   2.912   3.058   0.338  0.4501  0.8764 -0.6310
  280TMC3    C5 4280   2.783   3.058   0.372 -0.1269 -0.1292 -0.3299
  280TMC3    C6 4281   2.710   2.950   0.341 -0.5837 -0.6301 -0.9370
  280TMC3     C 4282   3.083   2.969   0.178  0.0469  0.1004  0.3896
  280TMC3     O 4283   3.094   2.893   0.081  0.3097  0.0716  0.2093
  280TMC3     H 4284   2.943   2.751   0.208  3.0375  0.1500  1.1029
  280TMC3    H1 4285   2.975   3.146   0.335  1.0289  0.3765 -3.4108
  280TMC3    H2 4286   2.602   2.947   0.349 -0.4507 -1.7784  0.3290
  280TMC3    C7 4287   2.703   3.175   0.364  0.2777  0.4895 -0.1973
  280TMC3    C8 4288   2.684   2.712   0.287 -0.0381 -0.3296  0.0094
  280TMC3    O1 4289   2.587   3.174   0.324  0.1566 -0.2584 -0.5899
  280TMC3    O2 4290   2.604   2.687   0.376  0.5941  0.2590 -0.4943
  281TMC3    C1 4291   2.396   3.247  13.098  0.4822  0.3984  0.2375
  281TMC3    C2 4292   2.422   3.370  13.044 -0.4324  0.5222 -0.1721
  281TMC3    C3 4293   2.472   3.374  12.918  0.0926  0.0079 -0.5900
  281TMC3    C4 4294   2.402   3.132  13.024  0.7414  0.3457  0.0485
  281TMC3    C5 4295   2.469   3.137  12.904 -0.1958  0.2418 -0.2910
  281TMC3    C6 4296   2.499   3.261  12.848  0.9329 -0.3657  0.5734
  281TMC3     C 4297   2.336   3.238  13.233 -0.1391 -0.2822  0.8467
  281TMC3     O 4298   2.366   3.144  13.301  0.5690  0.3531  0.4268
  281TMC3     H 4299   2.429   3.459  13.105  3.0152  0.5391 -0.6192
  281TMC3    H1 4300   2.378   3.034  13.063  0.7465  0.5483  0.5671
  281TMC3    H2 4301   2.557   3.271  12.757  1.9649  0.9697  1.3688
  281TMC3    C7 4302   2.474   3.017  12.825 -0.3855  0.2816  0.1304
  281TMC3    C8 4303   2.553   3.482  12.882 -0.0851 -0.6997  0.3015
  281TMC3    O1 4304   2.569   3.024  12.746 -0.0192  0.0157  0.2795
  281TMC3    O2 4305   2.669   3.451  12.865  0.2937  0.7398  0.3920
  282MPD2     C 4306   3.787   4.620  14.876  0.0017 -0.6975  0.5724
  282MPD2    C1 4307   3.661   4.675  14.904 -0.6992 -0.7331 -0.7374
  282MPD2    C2 4308   3.571   4.693  14.796  0.0767  0.5132 -0.9174
  282MPD2    C3 4309   3.594   4.640  14.669  0.4160  0.4798 -0.0845
  282MPD2    C4 4310   3.718   4.582  14.647  0.3657 -0.3071  0.7746
  282MPD2    C5 4311   3.813   4.589  14.746 -0.5470 -0.2764  0.3445
  282MPD2     H 4312   3.473   4.735  14.814  0.3845  1.0917 -0.5963
  282MPD2    H1 4313   3.739   4.546  14.546 -0.6437 -0.0189  0.4635
  282MPD2    H2 4314   3.873   4.628  14.942  3.0076 -1.4013 -3.2187
  282MPD2    H3 4315   3.912   4.554  14.719 -0.7522  0.6312 -1.5874
  282MPD2     N 4316   3.502   4.678  14.571 -0.1580 -0.7388 -0.1031
  282MPD2    H5 4317   3.423   4.728  14.611 -0.1070 -0.4892 -0.3099
  282MPD2    N1 4318   3.624   4.734  15.027  0.3493  0.4634 -0.4053
  282MPD2    H7 4319   3.538   0.052  15.023  2.2281  3.5897  0.9722
  283TMC3    C1 4320   3.628   0.054  15.248  0.1226 -0.2303 -0.1425
  283TMC3    C2 4321   3.690   0.156  15.323  0.3053 -0.6004  0.0890
  283TMC3    C3 4322   3.652   0.178  15.451 -0.0766  0.3608 -0.3075
  283TMC3    C4 4323   3.540   4.712  15.307  0.4327 -0.4321  0.1282
  283TMC3    C5 4324   3.509   0.002  15.443 -0.0687 -0.1864 -0.3780
  283TMC3    C6 4325   3.565   0.100  15.517  0.5623  0.1175 -0.0785
  283TMC3     C 4326   3.701   4.732  15.139  0.1287  0.4223  0.5535
  283TMC3     O 4327   3.806   4.673  15.161 -0.1458  0.3703  0.0781
  283TMC3     H 4328   3.779   0.201  15.281  0.9840 -1.1337  0.9626
  283TMC3    H1 4329   3.500   4.632  15.245  0.5840 -2.5004  2.6926
  283TMC3    H2 4330   3.521   0.129  15.612  1.8616 -0.0771  0.5877
  283TMC3    C7 4331   3.420   4.649  15.516 -0.1666 -0.3017 -0.9648
  283TMC3    C8 4332   3.732   0.253  15.538  0.6670 -0.8690  0.1845
  283TMC3    O1 4333   3.370   4.692  15.617 -0.3311  0.1597 -0.2226
  283TMC3    O2 4334   3.762   0.193  15.642 -0.3927  0.0816  0.6038
  284MPD2     C 4335   2.207   4.143  11.751  0.4600  0.0272 -0.5619
  284MPD2    C1 4336   2.344   4.148  11.766  0.6696 -0.3487 -0.0254
  284MPD2    C2 4337   2.409   4.095  11.877  0.1427 -0.2362  0.2256
  284MPD2    C3 4338   2.334   4.040  11.975 -0.0728 -0.0283 -0.1604
  284MPD2    C4 4339   2.202   4.058  11.966 -0.1421 -0.2383  0.2722
  284MPD2    C5 4340   2.132   4.105  11.859 -0.2452  0.4110 -0.4736
  284MPD2     H 4341   2.517   4.087  11.878  0.1000 -0.7285  2.1636
  284MPD2    H1 4342   2.129   4.021  12.038 -0.2149  1.0898  0.8885
  284MPD2    H2 4343   2.155   4.185  11.666  0.0358  1.9528  0.6388
  284MPD2    H3 4344   2.024   4.105  11.852 -0.3997  1.5987  2.0344
  284MPD2     N 4345   2.396   3.964  12.081 -0.0695 -0.3756 -0.0377
  284MPD2    H5 4346   2.335   3.908  12.138 -1.1839 -0.4568 -1.3097
  284MPD2    N1 4347   2.427   4.204  11.667  0.1893  0.1145  0.3750
  284MPD2    H7 4348   2.521   4.218  11.703  1.4090  0.1092 -2.7907
  285TMC3    C1 4349   2.512   4.279  11.458 -0.4554 -0.4621  0.3269
  285TMC3    C2 4350   2.613   4.187  11.475  0.3791 -0.5039 -0.1697
  285TMC3    C3 4351   2.719   4.201  11.395 -0.2331 -0.2869 -0.3501
  285TMC3    C4 4352   2.518   4.385  11.379 -0.3781  0.0316  0.4713
  285TMC3    C5 4353   2.636   4.401  11.305  0.0349  0.4987 -0.1439
  285TMC3    C6 4354   2.732   4.309  11.309 -1.0493  0.3125 -0.0943
  285TMC3     C 4355   2.391   4.255  11.536  0.4003  0.0570 -0.6594
  285TMC3     O 4356   2.282   4.279  11.485 -0.2453  0.0874  0.2140
  285TMC3     H 4357   2.605   4.102  11.542 -0.3601 -0.8315 -0.6666
  285TMC3    H1 4358   2.438   4.457  11.380 -0.9924 -0.6564  0.8483
  285TMC3    H2 4359   2.821   4.324  11.249 -1.1892  0.4900 -0.2572
  285TMC3    C7 4360   2.658   4.523  11.228 -0.7863  0.1587 -0.4173
  285TMC3    C8 4361   2.781   4.074  11.357  0.1989 -0.1789 -0.1817
  285TMC3    O1 4362   2.777   4.554  11.216 -0.2653  1.0219 -0.1697
  285TMC3    O2 4363   2.727   3.976  11.404 -0.2926 -0.7909  0.8318
  286MPD2     C 4364   2.358   2.982   1.321 -1.0541  1.0157 -0.3329
  286MPD2    C1 4365   2.340   2.899   1.216  0.1790  0.0917  0.1281
  286MPD2    C2 4366   2.362   2.762   1.233 -0.6529 -0.3162 -0.1858
  286MPD2    C3 4367   2.423   2.711   1.348 -0.1601  0.8563 -0.5285
  286MPD2    C4 4368   2.454   2.806   1.445 -0.1445  0.1687  0.3119
  286MPD2    C5 4369   2.415   2.935   1.432  0.1178 -0.0516 -0.5802
  286MPD2     H 4370   2.338   2.695   1.150  0.5245 -3.3801  1.9631
  286MPD2    H1 4371   2.508   2.778   1.534  0.1725 -1.6644 -0.4513
  286MPD2    H2 4372   2.325   3.085   1.322  1.8897  1.9760 -0.7900
  286MPD2    H3 4373   2.437   3.003   1.514 -0.3825 -1.5517  0.7963
  286MPD2     N 4374   2.457   2.573   1.364 -0.3818 -0.0463  0.2831
  286MPD2    H5 4375   2.515   2.552   1.444 -0.3558 -2.6088 -0.4156
  286MPD2    N1 4376   2.298   2.938   1.088 -0.4405  0.0695 -0.5663
  286MPD2    H7 4377   2.285   2.864   1.019  0.5085  1.5018 -2.2912
  287TMC3    C1 4378   2.480   2.348   1.318 -0.2323  0.0933  0.0920
  287TMC3    C2 4379   2.499   2.265   1.213  0.5721  0.1168  0.1868
  287TMC3    C3 4380   2.597   2.168   1.223  0.4184 -0.4547 -0.5949
  287TMC3    C4 4381   2.552   2.330   1.434  0.3718 -0.1569  0.5508
  287TMC3    C5 4382   2.636   2.219   1.449 -0.7060 -0.1124 -0.0468
  287TMC3    C6 4383   2.670   2.150   1.341 -0.5416 -0.4318 -0.2004
  287TMC3     C 4384   2.412   2.472   1.283 -1.2348 -0.2879  0.0807
  287TMC3     O 4385   2.352   2.465   1.177  0.0532  0.4740  0.2337
  287TMC3     H 4386   2.431   2.266   1.129 -0.3659 -0.3828  0.9354
  287TMC3    H1 4387   2.534   2.378   1.530 -1.2426 -1.0120  0.6682
  287TMC3    H2 4388   2.739   2.067   1.347  0.4802  0.4901  0.9834
  287TMC3    C7 4389   2.717   2.203   1.570  0.3818  0.2294 -0.2862
  287TMC3    C8 4390   2.631   2.087   1.108  0.0772 -0.1933  0.0332
  287TMC3    O1 4391   2.711   2.299   1.647 -0.0871 -0.2449  0.0049
  287TMC3    O2 4392   2.648   1.970   1.131  0.3177 -0.2484  0.0464
  288TMC3    C1 4393   3.708   2.143  14.152  0.3372  0.1370  0.2266
  288TMC3    C2 4394   3.739   2.204  14.271  0.9133  0.5925 -0.4102
  288TMC3    C3 4395   3.712   2.340  14.290  0.2109 -0.2975  0.7104
  288TMC3    C4 4396   3.644   2.217  14.050 -0.2468  0.5708  0.8378
  288TMC3    C5 4397   3.624   2.352  14.075  0.1686  0.0195 -0.0919
  288TMC3    C6 4398   3.656   2.417  14.192  0.5777  0.2161  0.3747
  288TMC3     C 4399   3.692   1.995  14.140  0.1508 -0.3303 -0.5839
  288TMC3     O 4400   3.589   1.960  14.089 -0.5645  0.4382 -0.2856
  288TMC3     H 4401   3.777   2.145  14.355 -3.1300  0.0658  1.0545
  288TMC3    H1 4402   3.612   2.170  13.958  2.0895 -2.1603  1.4173
  288TMC3    H2 4403   3.609   2.514  14.208  2.3055  1.2382 -0.7680
  288TMC3    C7 4404   3.577   2.423  13.949  0.0375  0.4062 -0.3705
  288TMC3    C8 4405   3.685   2.383  14.427  0.0531 -0.4202 -0.6739
  288TMC3    O1 4406   3.511   2.349  13.873  0.0307 -0.4607  0.9336
  288TMC3    O2 4407   3.673   2.501  14.456  0.0129  0.0948  0.3838
  289MPD2     C 4408   4.304   1.480  13.869  0.0190 -1.0027 -0.2519
  289MPD2    C1 4409   4.247   1.580  13.806 -0.0277 -0.0909 -0.2535
  289MPD2    C2 4410   4.120   1.617  13.845 -0.4740  0.2390 -0.5515
  289MPD2    C3 4411   4.043   1.545  13.937 -0.4400 -0.0228 -0.4219
  289MPD2    C4 4412   4.105   1.438  13.996  0.2183 -0.3981  0.4609
  289MPD2    C5 4413   4.238   1.413  13.965 -0.2557  0.4599 -0.0294
  289MPD2     H 4414   4.074   1.697  13.789 -1.1173  1.0909  1.1650
  289MPD2    H1 4415   4.053   1.381  14.072 -0.3576 -1.3673 -0.6657
  289MPD2    H2 4416   4.404   1.445  13.847 -0.3623 -2.7681  0.7138
  289MPD2    H3 4417   4.296   1.332  14.008 -0.0936  0.6015  0.0165
  289MPD2     N 4418   3.906   1.578  13.979 -0.3605  0.0054  0.2618
  289MPD2    H5 4419   3.869   1.520  14.054  0.7372 -1.0244  0.0024
  289MPD2    N1 4420   4.319   1.640  13.702 -0.5276  0.2657 -0.6766
  289MPD2    H7 4421   4.382   1.579  13.651 -0.6659  0.5215 -1.1617
  290TMC3    C1 4422   3.694   1.652  13.975 -0.3479 -0.6458  0.5105
  290TMC3    C2 4423   3.596   1.729  13.912 -0.5640  0.0882  0.0722
  290TMC3    C3 4424   3.464   1.693  13.917 -0.1051 -0.0557  0.2818
  290TMC3    C4 4425   3.656   1.548  14.056  0.7029  1.3596  0.5484
  290TMC3    C5 4426   3.520   1.522  14.065 -0.4571  0.2183 -0.6608
  290TMC3    C6 4427   3.422   1.586  13.998  0.8962  1.2597  0.0445
  290TMC3     C 4428   3.830   1.676  13.929  0.1869  0.8399 -0.4063
  290TMC3     O 4429   3.863   1.764  13.849  0.6195 -0.1682 -1.0212
  290TMC3     H 4430   3.619   1.826  13.868 -0.2564 -1.1209 -2.4089
  290TMC3    H1 4431   3.718   1.495  14.127  0.0680  1.4440  1.1700
  290TMC3    H2 4432   3.319   1.554  13.997  0.8968  1.2578  0.0465
  290TMC3    C7 4433   3.477   1.429  14.165 -0.7082  0.5808 -0.4551
  290TMC3    C8 4434   3.364   1.774  13.853  0.2879  0.4128 -0.2919
  290TMC3    O1 4435   3.362   1.442  14.211 -0.2278  0.2695  0.4593
  290TMC3    O2 4436   3.280   1.715  13.787  0.0049  0.1543 -0.1227
  291MPD2     C 4437   3.528   1.250   0.534 -0.2553  0.4869 -0.2924
  291MPD2    C1 4438   3.446   1.272   0.431  0.3821  0.1171 -0.1320
  291MPD2    C2 4439   3.477   1.362   0.334 -0.3220 -0.2388 -0.0093
  291MPD2    C3 4440   3.592   1.439   0.346  0.3574  0.6779 -1.2355
  291MPD2    C4 4441   3.678   1.419   0.451 -0.3117  0.0287  0.2281
  291MPD2    C5 4442   3.637   1.333   0.551  0.3504  1.0769 -0.4494
  291MPD2     H 4443   3.406   1.381   0.253  0.1190  1.9318  0.1303
  291MPD2    H1 4444   3.764   1.483   0.467 -0.6821  0.7465 -0.6577
  291MPD2    H2 4445   3.508   1.170   0.604 -1.6747  0.7689 -0.3651
  291MPD2    H3 4446   3.696   1.330   0.642 -0.3726 -1.3965 -0.0674
  291MPD2     N 4447   3.639   1.530   0.251  0.3527 -0.7805 -0.1814
  291MPD2    H5 4448   3.719   1.581   0.289 -1.6918  1.7649  0.6907
  291MPD2    N1 4449   3.333   1.192   0.409 -0.3926 -0.9858 -0.3756
  291MPD2    H7 4450   3.292   1.206   0.317  1.3160 -2.4109 -1.3550
  292TMC3    C1 4451   3.140   1.088   0.480  0.1361 -0.0116 -0.1396
  292TMC3    C2 4452   3.047   1.092   0.582 -1.0560  0.1428  0.2400
  292TMC3    C3 4453   2.919   1.105   0.541 -0.5781  0.0191 -0.3501
  292TMC3    C4 4454   3.109   1.068   0.343  0.1978  0.3125  0.4936
  292TMC3    C5 4455   2.982   1.073   0.311 -0.4614 -0.8307 -0.8192
  292TMC3    C6 4456   2.886   1.095   0.409 -0.1608 -0.1535  0.2658
  292TMC3     C 4457   3.278   1.110   0.512  0.1631 -0.7041  0.1686
  292TMC3     O 4458   3.309   1.106   0.627  0.3011 -0.7219  0.3103
  292TMC3     H 4459   3.072   1.112   0.686 -1.0965 -1.1750  0.5059
  292TMC3    H1 4460   3.181   1.039   0.268  1.4849 -1.6264  2.4801
  292TMC3    H2 4461   2.786   1.117   0.376 -0.0991 -0.6575 -0.2521
  292TMC3    C7 4462   2.948   1.016   0.186  0.0343 -0.3162  0.2559
  292TMC3    C8 4463   2.816   1.158   0.622  0.3747 -0.2704 -0.1777
  292TMC3    O1 4464   3.034   1.022   0.098 -0.0083 -0.2261  0.1719
  292TMC3    O2 4465   2.742   1.241   0.572  0.1124  0.1245 -0.1072
  293MPD2     C 4466   0.548   2.705  12.351 -0.4119  0.1407  0.1974
  293MPD2    C1 4467   0.423   2.708  12.417  0.2474 -0.0443 -0.1757
  293MPD2    C2 4468   0.424   2.749  12.550 -0.3686 -0.1412  0.8331
  293MPD2    C3 4469   0.541   2.784  12.616 -0.4287 -0.8212 -0.0127
  293MPD2    C4 4470   0.658   2.783  12.541  1.5345  0.6459  0.0213
  293MPD2    C5 4471   0.660   2.752  12.415  1.1587 -0.0000 -0.7954
  293MPD2     H 4472   0.332   2.745  12.608  0.6275  0.6559  2.4695
  293MPD2    H1 4473   0.754   2.814  12.581  1.6561  0.2191  0.0703
  293MPD2    H2 4474   0.549   2.676  12.246 -0.9102 -1.9094  0.7614
  293MPD2    H3 4475   0.757   2.747  12.369  0.8885 -1.4056 -1.2369
  293MPD2     N 4476   0.535   2.817  12.752  0.0092  1.1969  0.2336
  293MPD2    H5 4477   0.439   2.828  12.786 -0.7017 -0.8290 -1.1807
  293MPD2    N1 4478   0.306   2.666  12.346 -0.3059 -0.3669  0.0175
  293MPD2    H7 4479   0.328   2.628  12.255 -1.5216 -2.3143  0.5197
  294TMC3    C1 4480   0.075   2.600  12.302 -0.5223 -0.2176  0.0364
  294TMC3    C2 4481   4.696   2.558  12.358 -0.3054 -0.0044  0.1129
  294TMC3    C3 4482   4.634   2.453  12.304  0.5286 -0.2615  0.3867
  294TMC3    C4 4483   0.129   2.542  12.186  0.2582 -0.1642  0.0664
  294TMC3    C5 4484   0.061   2.435  12.137 -0.1516 -0.0100  0.2575
  294TMC3    C6 4485   4.682   2.390  12.189  0.2210 -0.0519 -0.0006
  294TMC3     C 4486   0.172   2.671  12.391  0.4100  0.0439  0.2792
  294TMC3     O 4487   0.125   2.720  12.494  0.1313  0.3588  0.3670
  294TMC3     H 4488   4.662   2.602  12.451  1.6732  1.7349  0.0024
  294TMC3    H1 4489   0.215   2.588  12.139  0.6530  0.9618  1.8677
  294TMC3    H2 4490   4.629   2.306  12.147 -0.1317 -0.3628  1.0640
  294TMC3    C7 4491   0.124   2.358  12.029 -0.1135  1.0636 -0.4847
  294TMC3    C8 4492   4.503   2.417  12.364 -0.0868 -0.0410 -0.4884
  294TMC3    O1 4493   0.105   2.237  12.035 -0.0298  0.1050 -0.4493
  294TMC3    O2 4494   4.444   2.499  12.435 -0.1946 -1.0583 -0.3272
  295MPD2     C 4495   1.902   1.965   0.806 -0.4621  0.0153 -0.2247
  295MPD2    C1 4496   1.834   1.856   0.753 -0.4840  0.0825 -1.1358
  295MPD2    C2 4497   1.820   1.741   0.834 -0.0747 -0.0584 -0.9045
  295MPD2    C3 4498   1.874   1.725   0.956  0.5939 -0.1451 -0.3103
  295MPD2    C4 4499   1.939   1.835   1.004 -0.2597 -0.3669  0.2344
  295MPD2    C5 4500   1.949   1.953   0.936  0.9002 -0.2934  0.1973
  295MPD2     H 4501   1.759   1.660   0.794  0.5253 -0.8245 -0.2725
  295MPD2    H1 4502   1.983   1.829   1.103  0.6327  2.0657 -0.0002
  295MPD2    H2 4503   1.913   2.059   0.753  3.7306 -1.0448 -1.2210
  295MPD2    H3 4504   1.998   2.035   0.986  2.0283 -1.4095  0.9247
  295MPD2     N 4505   1.855   1.610   1.037  0.8335 -0.3246 -0.1583
  295MPD2    H5 4506   1.897   1.609   1.129  0.2853 -1.0424  0.0861
  295MPD2    N1 4507   1.782   1.858   0.623 -0.4977 -0.1560 -0.8419
  295MPD2    H7 4508   1.712   1.789   0.596 -2.6558  2.9812 -3.2462
  296TMC3    C1 4509   1.768   1.401   1.110 -0.3677  0.9217  0.3248
  296TMC3    C2 4510   1.744   1.451   1.233 -0.1764  0.6813 -0.2473
  296TMC3    C3 4511   1.705   1.361   1.334  0.1518 -0.5535  0.5575
  296TMC3    C4 4512   1.747   1.267   1.087  0.3220  0.5672  0.9864
  296TMC3    C5 4513   1.714   1.184   1.191  0.1682  0.4884  0.3628
  296TMC3    C6 4514   1.695   1.226   1.320  0.5272  0.1121 -0.3629
  296TMC3     C 4515   1.788   1.494   0.999 -0.6337 -0.1892 -0.0270
  296TMC3     O 4516   1.757   1.462   0.886  0.4975  0.4235  0.9950
  296TMC3     H 4517   1.758   1.556   1.257  1.6642 -0.2686  2.7968
  296TMC3    H1 4518   1.737   1.226   0.987  0.1653  1.9162  0.4388
  296TMC3    H2 4519   1.661   1.163   1.401 -2.8417  0.7190 -1.2899
  296TMC3    C7 4520   1.675   1.049   1.156  0.9084  0.0763 -0.1021
  296TMC3    C8 4521   1.744   1.408   1.467 -0.1312 -0.2558  0.6141
  296TMC3    O1 4522   1.717   1.008   1.048 -0.2731  0.4257  0.7145
  296TMC3    O2 4523   1.783   1.324   1.546  0.2884  0.3370 -0.0987
  297MPD2     C 4524   3.020   3.188  16.511  0.5832  0.1277  0.2555
  297MPD2    C1 4525   2.975   3.255  16.398  0.0374 -0.0647  0.0648
  297MPD2    C2 4526   3.027   3.386  16.372  0.3469  0.1223 -0.1128
  297MPD2    C3 4527   3.123   3.447  16.455  0.5922 -0.0491  0.4320
  297MPD2    C4 4528   3.164   3.374  16.568  0.5912  0.2108  0.0788
  297MPD2    C5 4529   3.112   3.246  16.587  0.2674  0.3038  0.2536
  297MPD2     H 4530   2.984   3.434  16.284 -1.9064 -2.3305 -0.3626
  297MPD2    H1 4531   3.253   3.400  16.624 -1.4462  2.5217  2.1814
  297MPD2    H2 4532   2.981   3.092  16.544 -3.5985  1.2728 -1.3435
  297MPD2    H3 4533   3.160   3.178  16.655 -0.2987 -1.1645 -0.8077
  297MPD2     N 4534   3.162   3.572  16.426  0.0065 -0.3744  0.3361
  297MPD2    H5 4535   3.148   3.603  16.330  1.5690 -2.9201 -0.6992
  297MPD2    N1 4536   2.863   3.210  16.320 -0.0628 -0.1280 -0.7951
  297MPD2    H7 4537   2.834   3.280  16.252  1.1212 -0.4995 -1.6873
  298TMC3    C1 4538   2.715   3.059  16.223 -0.0791 -0.0324 -0.0996
  298TMC3    C2 4539   2.764   3.086  16.092  0.0272 -0.6244 -0.0007
  298TMC3    C3 4540   2.671   3.117  16.000 -0.3148  0.4888 -0.1995
  298TMC3    C4 4541   2.591   3.105  16.255  0.4255  0.2057  0.7352
  298TMC3    C5 4542   2.499   3.145  16.161 -0.2322  0.1409  0.5078
  298TMC3    C6 4543   2.533   3.121  16.028 -0.7402  0.2723 -0.6605
  298TMC3     C 4544   2.805   3.090  16.331  0.2774 -0.2392  0.0333
  298TMC3     O 4545   2.833   2.995  16.407  0.5096 -0.2056  0.1195
  298TMC3     H 4546   2.865   3.053  16.075 -0.5624 -0.7808 -3.1037
  298TMC3    H1 4547   2.574   3.115  16.362  5.6861 -0.0332  1.5794
  298TMC3    H2 4548   2.463   3.108  15.946 -1.1677 -0.0378 -0.2480
  298TMC3    C7 4549   2.423   3.263  16.188  0.3698  0.2085 -0.1154
  298TMC3    C8 4550   2.702   3.181  15.873  0.5061 -0.1480 -0.7290
  298TMC3    O1 4551   2.416   3.300  16.306 -0.8466 -0.9584  0.2367
  298TMC3    O2 4552   2.617   3.186  15.790  0.7271 -0.4469  0.3685
  299MPD2     C 4553   3.979   2.690  10.051  0.1908 -0.5993 -0.0891
  299MPD2    C1 4554   3.950   2.826  10.060  0.3124  0.3043  0.2994
  299MPD2    C2 4555   3.822   2.869  10.064  0.2385  0.1078  0.2750
  299MPD2    C3 4556   3.720   2.781  10.049  0.0270  0.0083 -0.2374
  299MPD2    C4 4557   3.743   2.648  10.026 -0.0009 -0.1515 -0.8944
  299MPD2    C5 4558   3.880   2.602  10.021 -0.1044  0.2804 -0.7255
  299MPD2     H 4559   3.801   2.975  10.073 -1.9879 -0.3164 -0.0538
  299MPD2    H1 4560   3.660   2.584  10.000 -1.2053  2.2776 -2.9872
  299MPD2    H2 4561   4.084   2.663  10.046  0.6172  1.1837 -1.0239
  299MPD2    H3 4562   3.902   2.500   9.993 -1.6086 -0.2792  0.1062
  299MPD2     N 4563   3.579   2.819  10.062 -0.6731  0.1829  0.0601
  299MPD2    H5 4564   3.516   2.740  10.069  0.7269 -1.0200 -0.8866
  299MPD2    N1 4565   4.065   2.908  10.088  0.0297 -0.1604 -0.5036
  299MPD2    H7 4566   4.152   2.856  10.083  1.1976  1.7278  0.1728
  300TMC3    C1 4567   3.379   2.935  10.102  0.3558 -1.2083 -0.9903
  300TMC3    C2 4568   3.290   3.020  10.048  0.5343  0.1873 -0.4498
  300TMC3    C3 4569   3.155   3.021  10.093  0.0475 -1.3174  0.0969
  300TMC3    C4 4570   3.349   2.849  10.212  0.4093  0.0553 -0.2513
  300TMC3    C5 4571   3.222   2.870  10.263 -0.1130 -0.0014 -0.8454
  300TMC3    C6 4572   3.122   2.951  10.208 -0.6534 -0.1202 -0.2154
  300TMC3     C 4573   3.516   2.939  10.051 -0.2561 -0.7564 -0.8482
  300TMC3     O 4574   3.555   3.046  10.005  0.5626  0.5981  0.0814
  300TMC3     H 4575   3.319   3.089   9.970 -1.4419  2.9849  1.2930
  300TMC3    H1 4576   3.427   2.797  10.265 -0.8850 -1.4494  0.1549
  300TMC3    H2 4577   3.027   2.964  10.258  0.5272  0.6795  1.8755
  300TMC3    C7 4578   3.219   2.816  10.395  0.4641 -1.0703 -0.4912
  300TMC3    C8 4579   3.107   3.152  10.088  0.7749  0.6361 -0.0242
  300TMC3    O1 4580   3.290   2.718  10.423 -0.2044 -0.0589  0.2925
  300TMC3    O2 4581   3.191   3.239  10.075 -0.0593  0.3413  0.3107
  301MPD2     C 4582   1.129   4.629   1.321 -0.6124 -0.3502  0.1809
  301MPD2    C1 4583   1.050   4.620   1.208  0.4810  0.3865 -0.5514
  301MPD2    C2 4584   1.038   4.502   1.150 -0.0162 -0.6441 -0.1516
  301MPD2    C3 4585   1.080   4.383   1.212  0.4711  0.5527  0.4365
  301MPD2    C4 4586   1.128   4.397   1.341  0.1077 -0.6899  0.2467
  301MPD2    C5 4587   1.157   4.516   1.391 -0.2007 -0.5980  0.5749
  301MPD2     H 4588   1.001   4.494   1.048  0.5452 -0.3472 -0.3764
  301MPD2    H1 4589   1.160   4.316   1.405 -0.0313 -0.9497 -0.0165
  301MPD2    H2 4590   1.138   4.725   1.369  2.0552 -1.8362  2.6053
  301MPD2    H3 4591   1.191   4.521   1.494 -0.9593  1.1220  0.7488
  301MPD2     N 4592   1.047   4.254   1.168 -0.0395  0.1629 -0.5371
  301MPD2    H5 4593   1.068   4.178   1.232  0.2571 -0.3952 -1.2976
  301MPD2    N1 4594   0.983   4.724   1.142  0.6320 -0.2016  0.5613
  301MPD2    H7 4595   0.934   4.701   1.057  0.1524 -0.2929  0.8603
  302TMC3    C1 4596   0.941   4.098   1.024 -0.0290  0.1928  0.7732
  302TMC3    C2 4597   1.019   4.000   1.077 -0.3603 -0.3283  0.8911
  302TMC3    C3 4598   0.992   3.874   1.033  0.0118 -0.5828  0.3641
  302TMC3    C4 4599   0.857   4.075   0.924 -0.2592 -0.3995  0.2163
  302TMC3    C5 4600   0.827   3.950   0.887 -0.0979 -0.6915  0.8056
  302TMC3    C6 4601   0.899   3.850   0.934 -0.6876  1.2109  0.8712
  302TMC3     C 4602   0.967   4.235   1.057  0.0909  0.0459  0.3626
  302TMC3     O 4603   0.887   4.314   1.010 -0.2733  0.2084  0.1529
  302TMC3     H 4604   1.100   4.020   1.146  1.5801  0.5562 -1.6823
  302TMC3    H1 4605   0.827   4.159   0.863 -0.2112  0.5910  1.5448
  302TMC3    H2 4606   0.888   3.747   0.900  4.3206  0.8865  0.1943
  302TMC3    C7 4607   0.713   3.923   0.792  0.8828  0.0607 -0.0264
  302TMC3    C8 4608   1.066   3.762   1.084  0.6541  0.4881  0.1190
  302TMC3    O1 4609   0.716   3.811   0.744  0.2221  0.1062  0.5459
  302TMC3    O2 4610   1.051   3.660   1.014  0.0619 -0.4425  0.4151
  303MPD2     C 4611   0.890   2.596  10.296 -0.5950  1.1316  0.0616
  303MPD2    C1 4612   0.877   2.732  10.312  0.0673  0.2408 -0.5946
  303MPD2    C2 4613   0.979   2.809  10.256 -0.3140 -0.0086  0.1189
  303MPD2    C3 4614   1.084   2.758  10.175  0.0593 -0.4432 -0.4217
  303MPD2    C4 4615   1.092   2.620  10.166 -0.0921 -0.4812  0.0338
  303MPD2    C5 4616   0.995   2.542  10.225  0.5891  0.3368  0.0146
  303MPD2     H 4617   0.987   2.917  10.262 -0.8474 -0.0316  1.2764
  303MPD2    H1 4618   1.169   2.574  10.106  1.3143  1.6517  0.2060
  303MPD2    H2 4619   0.815   2.528  10.335 -2.2392  2.9427  0.0552
  303MPD2    H3 4620   0.994   2.435  10.213 -2.1205  0.0228  2.9332
  303MPD2     N 4621   1.169   2.837  10.092  0.0067 -0.1266  0.7093
  303MPD2    H5 4622   1.228   2.793  10.022 -0.2036  1.5475 -0.5366
  303MPD2    N1 4623   0.776   2.785  10.401 -0.2779 -0.1507  0.1350
  303MPD2    H7 4624   0.699   2.729  10.437  0.1237 -1.3150 -0.8109
  304TMC3    C1 4625   0.626   2.947  10.494 -0.9387  0.3345  0.0753
  304TMC3    C2 4626   0.627   3.064  10.566 -0.7636  0.2951 -0.2792
  304TMC3    C3 4627   0.509   3.139  10.584  0.1030 -0.0852 -0.4784
  304TMC3    C4 4628   0.517   2.902  10.427  0.1108  0.1320  0.0234
  304TMC3    C5 4629   0.403   2.972  10.455  0.3815  0.2568 -0.4782
  304TMC3    C6 4630   0.396   3.092  10.527 -0.1482  0.0282  0.7157
  304TMC3     C 4631   0.753   2.917  10.426 -0.0222  1.2832  0.3036
  304TMC3     O 4632   0.820   3.016  10.406 -0.5210  0.3914  0.3178
  304TMC3     H 4633   0.721   3.102  10.605 -0.5820  0.4389 -0.8445
  304TMC3    H1 4634   0.522   2.824  10.352 -1.1585 -0.2236  0.3011
  304TMC3    H2 4635   0.301   3.136  10.556 -1.0233 -1.0607 -0.4745
  304TMC3    C7 4636   0.333   2.997  10.323 -0.0737  0.1958  0.1379
  304TMC3    C8 4637   0.524   3.277  10.551 -0.4228  0.2831 -0.1547
  304TMC3    O1 4638   0.338   2.901  10.244 -0.1832  0.0417 -0.3328
  304TMC3    O2 4639   0.427   3.312  10.481  0.6603 -0.2427  0.0862
  305MPD2     C 4640   4.141   0.141  13.786  0.2378  0.3368 -0.3802
  305MPD2    C1 4641   4.060   0.031  13.790  0.8538 -0.7650  0.0416
  305MPD2    C2 4642   4.025   4.699  13.675  0.2208  0.0832  0.2258
  305MPD2    C3 4643   4.078   0.009  13.551  0.5206  0.3553  0.4181
  305MPD2    C4 4644   4.176   0.108  13.551 -0.8362 -0.1533 -0.0657
  305MPD2    C5 4645   4.199   0.170  13.668  0.2277  0.3456  0.0409
  305MPD2     H 4646   3.955   4.616  13.675  1.8670 -1.2875  1.7981
  305MPD2    H1 4647   4.227   0.139  13.461  2.9034  0.9612  2.4462
  305MPD2    H2 4648   4.156   0.206  13.872 -0.2619  2.2960 -1.7681
  305MPD2    H3 4649   4.280   0.242  13.672  0.0690  0.5772 -0.8861
  305MPD2     N 4650   4.049   4.686  13.424 -0.7549  1.0615 -0.3488
  305MPD2    H5 4651   4.109   4.722  13.350 -0.4829  1.0169 -0.1514
  305MPD2    N1 4652   4.005   0.001  13.919 -0.5311  0.4270  0.0619
  305MPD2    H7 4653   4.011   0.065  13.998  0.0530  1.2620 -0.6621
  306TMC3    C1 4654   3.927   4.605  14.093  0.3257 -0.4398 -0.1236
  306TMC3    C2 4655   3.967   4.496  14.163  0.0062 -0.4056 -0.1185
  306TMC3    C3 4656   3.984   4.513  14.298 -0.1102  0.1727  0.0500
  306TMC3    C4 4657   3.894   4.720  14.154 -0.3591 -0.7816 -0.4302
  306TMC3    C5 4658   3.893   4.726  14.288 -0.0540 -0.4206 -0.4414
  306TMC3    C6 4659   3.942   4.624  14.363 -0.1316 -0.7871  0.3095
  306TMC3     C 4660   3.956   4.611  13.948  0.0484  0.2872 -0.4350
  306TMC3     O 4661   3.956   4.507  13.888  0.6719 -0.1618  0.2128
  306TMC3     H 4662   3.995   4.405  14.111  1.6370  1.4907 -2.5050
  306TMC3    H1 4663   3.845   0.063  14.099  1.2082  1.7204  1.7503
  306TMC3    H2 4664   3.915   4.616  14.468 -0.8341 -0.7483  0.1305
  306TMC3    C7 4665   3.818   0.093  14.356  0.6517 -0.3044 -0.3262
  306TMC3    C8 4666   4.037   4.401  14.381 -0.0025 -0.2810 -0.3858
  306TMC3    O1 4667   3.717   0.128  14.299  0.7597  0.0082 -0.3056
  306TMC3    O2 4668   4.032   4.289  14.334 -0.0111 -0.2964 -0.4982
  307MPD2     C 4669   1.693   2.870   0.130 -0.4755 -0.4881 -0.3875
  307MPD2    C1 4670   1.669   3.006   0.143  0.2882  0.1515 -0.0367
  307MPD2    C2 4671   1.619   3.053   0.263  0.2590  0.9816  0.6057
  307MPD2    C3 4672   1.599   2.973   0.380  0.4551  0.4796  0.4619
  307MPD2    C4 4673   1.649   2.842   0.368  0.5827  0.1550  0.2802
  307MPD2    C5 4674   1.686   2.792   0.243 -0.0169 -0.3446 -0.4670
  307MPD2     H 4675   1.578   3.153   0.271 -0.7601  0.5157  1.2330
  307MPD2    H1 4676   1.637   2.772   0.450 -0.3582  1.0051  0.8680
  307MPD2    H2 4677   1.738   2.825   0.042 -0.9879  1.9249 -1.8952
  307MPD2    H3 4678   1.722   2.690   0.243  2.7411  0.6122  0.6543
  307MPD2     N 4679   1.542   3.028   0.496  0.9808 -0.2443  0.3757
  307MPD2    H5 4680   1.527   3.129   0.502 -1.3359 -0.6125  0.7164
  307MPD2    N1 4681   1.698   3.103   0.048 -0.1872 -0.2205 -0.0382
  307MPD2    H7 4682   1.682   3.200   0.076 -0.1089 -0.8829  2.3466
  308TMC3    C1 4683   1.221   3.061   0.835  0.2763 -0.6439  0.2617
  308TMC3    C2 4684   1.240   3.194   0.837  0.3465 -0.1181 -0.7385
  308TMC3    C3 4685   1.338   3.245   0.759  0.2610 -0.2017 -0.0667
  308TMC3    C4 4686   1.295   2.971   0.761  0.4530 -0.1954  0.1179
  308TMC3    C5 4687   1.400   3.028   0.692 -0.1049 -0.0679  0.0472
  308TMC3    C6 4688   1.434   3.163   0.702  0.0369  0.5787 -0.4934
  308TMC3     C 4689   1.082   3.024   0.850 -0.7952  0.5951 -0.2748
  308TMC3     O 4690   1.069   2.903   0.856  0.0851 -0.1886  0.0571
  308TMC3     H 4691   1.182   3.257   0.904 -0.1881 -0.2739 -1.0533
  308TMC3    H1 4692   1.265   2.867   0.753  1.7778 -0.4399 -1.5953
  308TMC3    H2 4693   1.527   3.201   0.661  0.6976  0.4243  0.8573
  308TMC3    C7 4694   1.464   2.951   0.581 -0.2147 -0.2801 -0.0206
  308TMC3    C8 4695   1.375   3.380   0.799 -0.2300 -0.6062  0.0962
  308TMC3    O1 4696   1.451   2.829   0.586 -0.2383  0.5075 -0.3838
  308TMC3    O2 4697   1.364   3.396   0.920 -0.0012  0.1011  0.0110
  309MPD2     C 4698   0.601   3.668  17.466  0.2357  0.2490  0.8001
  309MPD2    C1 4699   0.536   3.653  17.344 -0.0898 -0.1279  0.7753
  309MPD2    C2 4700   0.399   3.660  17.341 -0.1099 -0.2658  0.4564
  309MPD2    C3 4701   0.324   3.668  17.458  0.2864 -0.0019 -0.0832
  309MPD2    C4 4702   0.397   3.693  17.577  0.2416 -0.0885  0.1672
  309MPD2    C5 4703   0.531   3.687  17.581  0.7901  0.5716  0.5167
  309MPD2     H 4704   0.354   3.646  17.244 -0.0486 -0.6864  0.4908
  309MPD2    H1 4705   0.336   3.717  17.665  0.9579 -2.4022  1.2965
  309MPD2    H2 4706   0.709   3.664  17.462  0.1965  0.5403 -0.8383
  309MPD2    H3 4707   0.580   3.717  17.673  0.5737 -0.0188  0.8282
  309MPD2     N 4708   0.184   3.684  17.462 -0.0559  0.4405  0.7048
  309MPD2    H5 4709   0.137   3.689  17.552 -0.3846  0.8365  0.5140
  309MPD2    N1 4710   0.618   3.635  17.230  0.1449 -0.2604  0.0673
  309MPD2    H7 4711   0.718   3.635  17.242  0.1717  0.9182 -0.2056
  310TMC3    C1 4712   0.685   3.648  17.004 -0.6161 -0.2602 -0.0913
  310TMC3    C2 4713   0.660   3.716  16.891 -0.0921 -0.1198 -0.1620
  310TMC3    C3 4714   0.769   3.745  16.809 -0.0212 -0.0356  0.1957
  310TMC3    C4 4715   0.804   3.612  17.047 -0.2079 -0.1139  0.5321
  310TMC3    C5 4716   0.911   3.660  16.970  0.2004 -0.7644  0.2508
  310TMC3    C6 4717   0.895   3.718  16.850  0.0369 -0.0783  0.4843
  310TMC3     C 4718   0.575   3.624  17.098 -0.2006 -0.0840 -0.4636
  310TMC3     O 4719   0.463   3.633  17.051  0.6004 -0.6986 -0.8177
  310TMC3     H 4720   0.556   3.739  16.865 -0.1340  0.0284  0.1398
  310TMC3    H1 4721   0.830   3.575  17.145  0.1140  1.7233  1.1516
  310TMC3    H2 4722   0.975   3.729  16.777 -1.2899  2.3643 -0.6014
  310TMC3    C7 4723   1.033   3.581  16.982 -0.4631 -0.3602 -0.7723
  310TMC3    C8 4724   0.737   3.771  16.671 -0.2421 -0.0474 -0.0347
  310TMC3    O1 4725   1.013   3.475  17.049 -0.6342 -0.2557  0.2138
  310TMC3    O2 4726   0.623   3.813  16.651 -0.1654 -0.2448  0.2681
  311MPD2     C 4727   3.046   4.424  12.483 -0.4148 -0.2366  0.0084
  311MPD2    C1 4728   3.012   4.542  12.419 -0.0428 -0.6617  0.0708
  311MPD2    C2 4729   2.889   4.602  12.440 -0.2074 -0.5277  0.2988
  311MPD2    C3 4730   2.796   4.535  12.521 -0.7399  0.8338 -0.2708
  311MPD2    C4 4731   2.827   4.416  12.586 -0.7486  0.2473 -0.4971
  311MPD2    C5 4732   2.952   4.365  12.570  1.3276 -0.6086  0.6343
  311MPD2     H 4733   2.858   4.697  12.399 -0.3428 -0.8071 -0.2479
  311MPD2    H1 4734   2.760   4.357  12.647 -0.2733  1.2902  1.0281
  311MPD2    H2 4735   3.139   4.373  12.462  1.2162  2.4856  0.6172
  311MPD2    H3 4736   2.979   4.272  12.618 -1.7084 -1.4294  0.7538
  311MPD2     N 4737   2.673   4.590  12.533  0.2920  0.3357  0.0668
  311MPD2    H5 4738   2.651   4.664  12.468 -1.2041  0.1111  0.3064
  311MPD2    N1 4739   3.105   4.629  12.341 -0.3022 -0.1416 -0.0170
  311MPD2    H7 4740   3.075   4.721  12.311  0.6415  0.4134  0.7245
  312TMC3    C1 4741   2.446   4.614  12.529  0.1007 -0.0498  0.1658
  312TMC3    C2 4742   2.339   4.550  12.473 -0.1126  0.1824 -0.1367
  312TMC3    C3 4743   2.229   4.628  12.455 -0.3440 -0.8006 -0.1685
  312TMC3    C4 4744   2.455   0.014  12.551  0.0616  0.3829 -0.8725
  312TMC3    C5 4745   2.343   0.083  12.528  0.1403 -0.0074 -0.1225
  312TMC3    C6 4746   2.226   0.028  12.479 -0.3458  0.1086 -0.8108
  312TMC3     C 4747   2.559   4.529  12.563  0.0658  0.3052  0.0012
  312TMC3     O 4748   2.528   4.419  12.611  0.4133  0.1154  0.4141
  312TMC3     H 4749   2.350   4.442  12.468  1.3576  0.2223  2.4070
  312TMC3    H1 4750   2.546   0.059  12.586  0.3216  0.3212 -1.4657
  312TMC3    H2 4751   2.138   0.091  12.470  0.8388  1.9342  0.3917
  312TMC3    C7 4752   2.315   0.208  12.598 -0.2367 -0.0091  0.1251
  312TMC3    C8 4753   2.115   4.538  12.427  0.2597 -0.1407  0.3010
  312TMC3    O1 4754   2.226   0.281  12.553 -0.2615  0.0012  0.1140
  312TMC3    O2 4755   2.139   4.420  12.450 -0.5332 -0.2046  0.1773
  313MPD2     C 4756   1.877   3.658  11.256  0.5531 -0.1635 -0.0458
  313MPD2    C1 4757   1.995   3.714  11.211  0.3727 -0.2094  0.2880
  313MPD2    C2 4758   2.105   3.646  11.167 -0.3201 -0.3514 -0.3830
  313MPD2    C3 4759   2.094   3.508  11.152  0.4281  0.6111  1.0600
  313MPD2    C4 4760   1.977   3.450  11.200  0.4615  0.5427 -0.3536
  313MPD2    C5 4761   1.878   3.518  11.263 -0.3477  1.1478 -0.6267
  313MPD2     H 4762   2.184   3.698  11.114  1.7287 -1.6714  1.3676
  313MPD2    H1 4763   1.967   3.342  11.212 -0.0817  0.8356  1.9177
  313MPD2    H2 4764   1.791   3.709  11.297  0.2869 -0.8392  0.2532
  313MPD2    H3 4765   1.798   3.465  11.314 -0.7615  0.8522 -1.5757
  313MPD2     N 4766   2.189   3.428  11.086 -0.3410  0.0607  0.1291
  313MPD2    H5 4767   2.277   3.471  11.059 -0.7557  0.3539 -0.7549
  313MPD2    N1 4768   2.001   3.853  11.189 -0.2013 -0.0181 -0.3938
  313MPD2    H7 4769   2.078   3.885  11.132 -1.3930 -1.8791 -3.0671
  314TMC3    C1 4770   1.983   4.073  11.215 -0.3313 -0.9418 -0.0317
  314TMC3    C2 4771   2.120   4.085  11.205  0.2545  0.1526  0.5894
  314TMC3    C3 4772   2.161   4.205  11.159  0.3426  0.1981 -0.2705
  314TMC3    C4 4773   1.891   4.167  11.179  0.4725 -0.0525  0.2338
  314TMC3    C5 4774   1.948   4.274  11.113 -0.6278 -0.4171  0.4164
  314TMC3    C6 4775   2.079   4.303  11.118 -0.2432 -0.0143  0.6406
  314TMC3     C 4776   1.926   3.952  11.234  0.0773 -0.2761 -0.2579
  314TMC3     O 4777   1.828   3.948  11.303  0.0585 -0.9246 -0.0416
  314TMC3     H 4778   2.182   4.016  11.261  0.0798  0.8805  1.6830
  314TMC3    H1 4779   1.784   4.156  11.165  0.6612 -4.0038  1.9841
  314TMC3    H2 4780   2.120   4.401  11.097  1.4412 -0.4721  1.7552
  314TMC3    C7 4781   1.872   4.324  11.003 -0.3729  0.6168 -0.6986
  314TMC3    C8 4782   2.310   4.233  11.155 -0.1187 -0.7552  0.1306
  314TMC3    O1 4783   1.748   4.313  11.001  0.1789  0.0346 -0.0604
  314TMC3    O2 4784   2.339   4.345  11.104 -0.2343  0.3244  0.0573
  315MPD2     C 4785   2.026   3.057  17.521  0.0084 -0.1594  1.0030
  315MPD2    C1 4786   2.072   3.091  17.646  0.7238  0.1802  0.4679
  315MPD2    C2 4787   2.123   3.218  17.672  0.6313 -0.8717  0.6440
  315MPD2    C3 4788   2.106   3.319  17.577 -0.3672 -0.2847  0.4107
  315MPD2    C4 4789   2.050   3.291  17.452  0.0538  0.2230 -0.4515
  315MPD2    C5 4790   2.019   3.158  17.425 -0.1739 -0.6120 -0.8017
  315MPD2     H 4791   2.173   3.230   0.026  0.6656  0.1709  0.4970
  315MPD2    H1 4792   2.051   3.361  17.370  1.3480  0.4698 -0.2169
  315MPD2    H2 4793   2.000   2.956  17.491 -3.2678  0.3373  2.1315
  315MPD2    H3 4794   1.984   3.146  17.323 -1.3333 -0.5422 -0.4116
  315MPD2     N 4795   2.160   3.443  17.615 -0.1078 -0.3118 -0.2430
  315MPD2    H5 4796   2.218   3.445  17.699 -0.3033 -1.4422 -0.0808
  315MPD2    N1 4797   2.090   2.997   0.006  0.1559 -0.4538 -0.1232
  315MPD2    H7 4798   2.150   3.028   0.082  1.7749 -0.9757 -1.1789
  316TMC3    C1 4799   2.234   3.661  17.577 -0.1532 -0.0246 -0.1218
  316TMC3    C2 4800   2.307   3.656  17.688 -0.0967 -0.1813  0.1209
  316TMC3    C3 4801   2.401   3.749  17.699 -1.0278 -0.0274  0.3117
  316TMC3    C4 4802   2.256   3.760  17.483 -0.7972  0.3905 -0.4678
  316TMC3    C5 4803   2.364   3.847  17.491  0.4494 -0.2317 -0.8775
  316TMC3    C6 4804   2.443   3.833  17.603  0.0957  0.6502 -0.8019
  316TMC3     C 4805   2.147   3.553  17.535  0.4140  0.0936  0.0321
  316TMC3     O 4806   2.068   3.573  17.446  0.7433  0.1547 -0.4507
  316TMC3     H 4807   2.272   3.600   0.032 -0.6709 -0.2934 -0.1883
  316TMC3    H1 4808   2.208   3.765  17.386  1.1409  2.7324 -1.3223
  316TMC3    H2 4809   2.528   3.899  17.617 -1.4011  2.1238  1.3865
  316TMC3    C7 4810   2.391   3.940  17.387  0.0337  0.5113 -0.1641
  316TMC3    C8 4811   2.499   3.741   0.069 -0.4052 -0.0920 -0.2789
  316TMC3    O1 4812   2.475   4.028  17.409  0.2073  0.0852  0.1063
  316TMC3    O2 4813   2.556   3.842   0.099 -0.7673 -0.2922 -0.0879
  317MPD2     C 4814   4.158   1.249  11.988  0.3069 -0.2855 -0.2897
  317MPD2    C1 4815   4.257   1.167  11.961 -0.0931  0.0392  0.2802
  317MPD2    C2 4816   4.330   1.114  12.070  0.2827  0.1184  0.1382
  317MPD2    C3 4817   4.296   1.137  12.204  0.1814  1.0752  0.2536
  317MPD2    C4 4818   4.178   1.211  12.228  0.5570  0.1328  0.0741
  317MPD2    C5 4819   4.102   1.263  12.119  0.2159  0.0107 -0.4173
  317MPD2     H 4820   4.422   1.059  12.049  0.1042 -0.6147  1.2976
  317MPD2    H1 4821   4.137   1.227  12.328 -0.3125 -1.0970 -0.0882
  317MPD2    H2 4822   4.092   1.281  11.909 -2.6447 -3.1569  1.0453
  317MPD2    H3 4823   4.008   1.315  12.139 -0.7585 -2.3053  1.0525
  317MPD2     N 4824   4.380   1.093  12.311 -0.2430 -0.1334  0.5985
  317MPD2    H5 4825   4.471   1.055  12.287 -1.0230 -0.6783 -1.4992
  317MPD2    N1 4826   4.300   1.135  11.830  0.0313 -0.0319 -0.3811
  317MPD2    H7 4827   4.374   1.066  11.820 -0.0754 -0.4350  1.7646
  318TMC3    C1 4828   4.446   1.082  12.542  0.3043 -0.4796 -0.1709
  318TMC3    C2 4829   4.388   1.060  12.671  0.0441 -0.0796  0.5523
  318TMC3    C3 4830   4.459   1.113  12.776 -0.6392 -0.2208 -0.3651
  318TMC3    C4 4831   4.565   1.145  12.522 -0.5878  0.3928  0.0279
  318TMC3    C5 4832   4.637   1.162  12.635  0.9958  0.3264  0.7411
  318TMC3    C6 4833   4.587   1.156  12.765 -0.4220  0.4934 -0.2058
  318TMC3     C 4834   4.346   1.097  12.443 -0.1548  0.1077 -0.0824
  318TMC3     O 4835   4.234   1.110  12.484 -0.6508  0.3133 -0.2438
  318TMC3     H 4836   4.293   1.008  12.674 -0.0140 -0.0696 -0.9145
  318TMC3    H1 4837   4.603   1.160  12.422 -0.9535  1.5258  0.0624
  318TMC3    H2 4838   4.647   1.173  12.853 -1.2051  0.9689  0.2391
  318TMC3    C7 4839   0.018   1.243  12.609 -0.5496 -0.3371 -0.9052
  318TMC3    C8 4840   4.399   1.111  12.905  0.0823  0.4609 -0.0331
  318TMC3    O1 4841   0.039   1.289  12.498 -0.0998  0.7197  0.6721
  318TMC3    O2 4842   4.471   1.121  13.002 -0.5039  0.0827  0.6153
  319MPD2     C 4843   0.274   2.912  16.584  0.6667 -0.3197  0.7014
  319MPD2    C1 4844   0.187   2.824  16.654 -0.1922  0.4744  0.5897
  319MPD2    C2 4845   0.077   2.773  16.585 -0.0908 -0.0488 -0.7584
  319MPD2    C3 4846   0.060   2.797  16.450  0.0758  0.2139  0.3115
  319MPD2    C4 4847   0.166   2.853  16.385  0.3044  0.4969  0.1320
  319MPD2    C5 4848   0.268   2.906  16.453 -0.7013  0.3437  0.8071
  319MPD2     H 4849   0.002   2.716  16.638 -0.0364 -0.4800 -1.1499
  319MPD2    H1 4850   0.166   2.873  16.278 -0.2974  1.7337  0.3664
  319MPD2    H2 4851   0.353   2.972  16.629  2.3014 -1.5924 -0.5087
  319MPD2    H3 4852   0.338   2.960  16.390 -0.3739  2.3984  2.9022
  319MPD2     N 4853   4.685   2.764  16.370 -0.1455 -0.0027 -0.1683
  319MPD2    H5 4854   4.700   2.776  16.271 -1.1320  2.1026 -0.0483
  319MPD2    N1 4855   0.195   2.802  16.795 -0.3331 -0.1837 -0.5351
  319MPD2    H7 4856   0.125   2.735  16.826 -2.5372  1.3945 -2.0405
  320TMC3    C1 4857   4.475   2.663  16.310  0.3032  0.5249  0.1458
  320TMC3    C2 4858   4.429   2.754  16.219 -0.3841 -0.1473 -0.2086
  320TMC3    C3 4859   4.315   2.725  16.148 -0.5972 -0.6216 -0.1450
  320TMC3    C4 4860   4.400   2.555  16.349  0.4229 -0.3219 -0.4196
  320TMC3    C5 4861   4.277   2.534  16.284 -0.7893 -0.3492  0.9002
  320TMC3    C6 4862   4.232   2.617  16.184 -0.5563  0.9610  0.6146
  320TMC3     C 4863   4.567   2.703  16.413  0.4359  0.1040 -0.1817
  320TMC3     O 4864   4.540   2.674  16.531 -0.1502 -0.1995  0.0230
  320TMC3     H 4865   4.477   2.852  16.221 -0.7500 -0.0463  4.4927
  320TMC3    H1 4866   4.419   2.507  16.445 -5.0945  1.0550  1.3365
  320TMC3    H2 4867   4.141   2.602  16.127  0.6881 -0.1596 -1.0458
  320TMC3    C7 4868   4.232   2.399  16.265  0.0582 -0.7522 -0.2647
  320TMC3    C8 4869   4.269   2.833  16.054  0.0089 -0.2142  0.9131
  320TMC3    O1 4870   4.172   2.381  16.160  0.3580  0.1767  0.0910
  320TMC3    O2 4871   4.328   2.938  16.050 -0.1282 -0.3150  0.3393
  321TMC3    C1 4872   0.245   2.864  17.017 -0.2481  0.0068  0.7194
  321TMC3    C2 4873   0.203   2.742  17.070 -0.8123  0.3372 -0.4261
  321TMC3    C3 4874   0.214   2.736  17.202  0.5418 -0.3582 -0.3365
  321TMC3    C4 4875   0.300   2.965  17.096 -0.3131  0.4109 -0.1565
  321TMC3    C5 4876   0.294   2.960  17.226 -0.5694  0.8302 -0.2927
  321TMC3    C6 4877   0.235   2.846  17.283  0.1021  0.2458  0.2702
  321TMC3     C 4878   0.283   2.869  16.880 -0.1006 -0.4060  0.1917
  321TMC3     O 4879   0.366   2.956  16.850  0.1567 -0.2034 -0.4281
  321TMC3     H 4880   0.190   2.653  17.010 -1.2410  1.0107 -1.3321
  321TMC3    H1 4881   0.345   3.056  17.058 -0.4652  0.8474  0.6853
  321TMC3    H2 4882   0.223   2.845  17.391  0.8002  2.8413  0.3774
  321TMC3    C7 4883   0.415   2.990  17.295  0.5213 -0.2080  0.1319
  321TMC3    C8 4884   0.265   2.617  17.263  0.1903 -0.0321 -0.3165
  321TMC3    O1 4885   0.458   2.895  17.360 -0.4269 -0.1373  0.5822
  321TMC3    O2 4886   0.239   2.507  17.218 -0.2329 -0.1847 -0.7943
  322MPD2     C 4887   3.934   4.007  12.842  0.0335  0.3917 -0.1025
  322MPD2    C1 4888   3.921   3.953  12.968  0.1888 -0.0114 -0.1030
  322MPD2    C2 4889   3.994   3.844  12.991 -0.0810 -0.4547  0.3118
  322MPD2    C3 4890   4.061   3.769  12.897  0.2848  0.6612  0.2231
  322MPD2    C4 4891   4.076   3.829  12.776  0.0755  0.2184 -0.2723
  322MPD2    C5 4892   4.005   3.938  12.748 -0.8333  0.3390  0.4973
  322MPD2     H 4893   4.011   3.823  13.096  2.0412 -0.9438 -0.1220
  322MPD2    H1 4894   4.144   3.792  12.700 -0.1845 -1.9108  0.5249
  322MPD2    H2 4895   3.891   4.105  12.822 -0.0752  1.0989  3.4938
  322MPD2    H3 4896   4.011   3.986  12.651 -0.4811  2.4417  1.5557
  322MPD2     N 4897   4.126   3.656  12.940 -0.0465  0.3605  0.6220
  322MPD2    H5 4898   4.107   3.610  13.028 -0.6448 -1.0803 -0.2662
  322MPD2    N1 4899   3.854   4.032  13.070 -0.4676  0.1883 -0.2203
  322MPD2    H7 4900   3.807   4.120  13.052  0.8096  1.1627  1.1893
  323TMC3    C1 4901   3.874   4.101  13.291 -0.5418 -0.4115 -0.4546
  323TMC3    C2 4902   3.973   4.186  13.236  0.4708  0.1683 -0.0213
  323TMC3    C3 4903   4.052   4.261  13.326 -0.0044 -1.0522  0.2694
  323TMC3    C4 4904   3.867   4.075  13.421 -0.3164  0.0968  0.2037
  323TMC3    C5 4905   3.959   4.136  13.501  0.0509  0.0852 -0.0322
  323TMC3    C6 4906   4.052   4.225  13.463  0.4802 -0.7681  0.1248
  323TMC3     C 4907   3.841   3.991  13.200 -0.4194 -0.5077  0.1272
  323TMC3     O 4908   3.840   3.874  13.247  0.0925  0.0760 -0.1689
  323TMC3     H 4909   3.991   4.203  13.131  1.0007  0.6055  0.1356
  323TMC3    H1 4910   3.785   4.014  13.457 -0.0009 -0.2743  0.2902
  323TMC3    H2 4911   4.140   4.253  13.520 -0.4680 -0.1787  1.2920
  323TMC3    C7 4912   3.952   4.087  13.641 -0.2368  0.8220 -0.1097
  323TMC3    C8 4913   4.178   4.307  13.268 -0.0465  0.0576  0.6660
  323TMC3    O1 4914   3.885   3.985  13.660 -0.3200 -0.4657  0.2891
  323TMC3    O2 4915   4.179   4.301  13.146 -0.0117  0.0677  0.3987
  324MPD2     C 4916   1.152   0.235  14.093  0.1664 -0.2868 -0.3120
  324MPD2    C1 4917   1.117   0.313  14.207 -0.9557 -0.1326 -0.3329
  324MPD2    C2 4918   0.993   0.294  14.271 -0.0844 -0.0957  0.6907
  324MPD2    C3 4919   0.890   0.215  14.213 -0.1080 -0.1209  0.8737
  324MPD2    C4 4920   0.929   0.155  14.088  0.6089 -0.0238  0.8968
  324MPD2    C5 4921   1.054   0.155  14.036  0.3859  0.6501  0.1534
  324MPD2     H 4922   0.981   0.331  14.372 -3.1793 -1.7598  0.9252
  324MPD2    H1 4923   0.861   0.100  14.024  0.8995  0.7153 -0.0471
  324MPD2    H2 4924   1.242   0.255  14.037  0.6115 -0.9567  0.1633
  324MPD2    H3 4925   1.085   0.096  13.950 -3.0725 -1.6318  0.4898
  324MPD2     N 4926   0.763   0.197  14.274 -0.8409  0.5995  0.3286
  324MPD2    H5 4927   0.711   0.116  14.239 -2.1651  0.7906  1.8618
  324MPD2    N1 4928   1.191   0.415  14.257  0.6725  0.3754 -0.0472
  324MPD2    H7 4929   1.166   0.451  14.348 -0.2244 -1.3388  0.4013
  325TMC3    C1 4930   0.569   0.241  14.392  0.3312  0.1189  0.3742
  325TMC3    C2 4931   0.507   0.169  14.297 -0.9581  0.0146 -0.6621
  325TMC3    C3 4932   0.375   0.154  14.319 -0.3114 -0.1012  0.0507
  325TMC3    C4 4933   0.504   0.319  14.481  0.6547 -0.2923 -0.2647
  325TMC3    C5 4934   0.366   0.307  14.486  0.2634  0.0411 -0.4011
  325TMC3    C6 4935   0.299   0.224  14.411 -0.7022 -0.3818 -0.1791
  325TMC3     C 4936   0.708   0.282  14.370 -0.5788  0.2300 -0.6312
  325TMC3     O 4937   0.742   0.394  14.406  0.1623 -0.2780 -0.3913
  325TMC3     H 4938   0.561   0.116  14.219  2.0000  3.1661 -0.7375
  325TMC3    H1 4939   0.554   0.393  14.542  1.1938 -1.0331  0.1929
  325TMC3    H2 4940   0.191   0.214  14.421 -0.6267 -0.4601  0.5857
  325TMC3    C7 4941   0.294   0.405  14.564 -0.7099  0.0941  0.1292
  325TMC3    C8 4942   0.307   0.092  14.203  0.2750 -0.2477  0.0001
  325TMC3    O1 4943   0.362   0.449  14.656 -0.0047 -0.5321  0.1475
  325TMC3    O2 4944   0.365   0.097  14.093  0.2447  0.5530  0.3974
  326MPD2     C 4945   2.083   1.067  11.059 -0.0742  0.1924 -0.4379
  326MPD2    C1 4946   2.062   1.203  11.031  0.5704  0.5738 -0.3884
  326MPD2    C2 4947   2.149   1.293  11.081  0.6040  0.6234  0.3473
  326MPD2    C3 4948   2.249   1.252  11.164  0.1003 -0.0707 -0.3533
  326MPD2    C4 4949   2.265   1.122  11.199 -0.1618 -0.4137  0.3576
  326MPD2    C5 4950   2.175   1.029  11.154 -1.0809  0.4298  0.0259
  326MPD2     H 4951   2.143   1.394  11.041  1.5546  0.7348  0.4825
  326MPD2    H1 4952   2.345   1.097  11.268  0.7682  0.1811 -0.5036
  326MPD2    H2 4953   2.022   0.989  11.015 -0.5642  0.1949  0.2339
  326MPD2    H3 4954   2.186   0.924  11.177 -0.5669  0.2300 -1.1642
  326MPD2     N 4955   2.344   1.351  11.196 -0.5961  0.4575 -0.1162
  326MPD2    H5 4956   2.433   1.326  11.240 -0.5721 -1.8572 -1.4967
  326MPD2    N1 4957   1.984   1.253  10.926 -0.1224 -0.0932  0.3427
  326MPD2    H7 4958   1.975   1.353  10.916 -0.3254 -0.2661 -1.2217
  327TMC3    C1 4959   1.876   1.236  10.703  0.9222  0.2254 -0.0113
  327TMC3    C2 4960   1.860   1.376  10.706 -0.0887 -0.2782  0.9317
  327TMC3    C3 4961   1.880   1.452  10.596  0.7703 -0.4919 -0.4357
  327TMC3    C4 4962   1.920   1.181  10.587  0.2424 -0.0077  0.5399
  327TMC3    C5 4963   1.953   1.258  10.479  0.1574 -0.1050 -0.3088
  327TMC3    C6 4964   1.924   1.393  10.485  0.3300  0.1017 -0.2644
  327TMC3     C 4965   1.933   1.170  10.821 -0.1237  0.7258  0.1330
  327TMC3     O 4966   1.944   1.050  10.807  0.3651  0.3829 -0.6663
  327TMC3     H 4967   1.847   1.422  10.803  1.2674  1.0334  0.4786
  327TMC3    H1 4968   1.944   1.076  10.584  1.0753  0.1684  0.8682
  327TMC3    H2 4969   1.948   1.460  10.403  0.3060 -1.8704 -1.8696
  327TMC3    C7 4970   2.082   1.236  10.419  0.1329  0.0358 -0.3912
  327TMC3    C8 4971   1.865   1.593  10.599  0.6912  0.0609 -0.0238
  327TMC3    O1 4972   2.106   1.283  10.305 -0.4051 -0.6502  0.2931
  327TMC3    O2 4973   1.873   1.657  10.496 -0.7238  0.0154  0.4353
  328MPD2     C 4974   3.982   1.155  17.394 -0.2021  0.1897  0.1452
  328MPD2    C1 4975   3.970   1.124  17.262  0.5346  0.4045 -0.5883
  328MPD2    C2 4976   4.029   1.214  17.178  0.8757  0.7581 -0.0742
  328MPD2    C3 4977   4.089   1.328  17.223  0.0726  1.0408  0.0254
  328MPD2    C4 4978   4.092   1.354  17.361 -0.7635  0.1821  0.4527
  328MPD2    C5 4979   4.051   1.259  17.435  0.2960  0.6635  0.0333
  328MPD2     H 4980   4.027   1.198  17.071  0.7118 -1.2633  0.2182
  328MPD2    H1 4981   4.149   1.438  17.398 -3.4965  2.2614 -0.0691
  328MPD2    H2 4982   3.951   1.083  17.469  1.3268  0.5278  1.0935
  328MPD2    H3 4983   4.088   1.252  17.537  1.0594  2.6311 -0.1051
  328MPD2     N 4984   4.134   1.441  17.138  0.4536  0.1795  0.6368
  328MPD2    H5 4985   4.166   1.525  17.185  1.2182  0.3428 -0.1970
  328MPD2    N1 4986   3.924   0.997  17.224  0.6951  0.1351  0.5450
  328MPD2    H7 4987   3.918   0.930  17.300  0.9792 -2.0285 -1.3247
  329TMC3    C1 4988   3.866   1.013  16.999  0.4589 -1.0646 -0.3397
  329TMC3    C2 4989   3.788   1.120  17.020  0.3766 -0.5829 -0.1189
  329TMC3    C3 4990   3.732   1.182  16.907  0.5018  0.5995  0.4738
  329TMC3    C4 4991   3.904   0.968  16.875 -0.2416  0.2016  0.7516
  329TMC3    C5 4992   3.856   1.035  16.760 -0.0904  0.3564 -0.1997
  329TMC3    C6 4993   3.776   1.148  16.780 -0.3471 -0.0529 -0.4558
  329TMC3     C 4994   3.921   0.936  17.105 -0.1177  0.2795 -0.2157
  329TMC3     O 4995   3.940   0.816  17.080  0.6039 -0.1734  0.3538
  329TMC3     H 4996   3.772   1.154  17.122 -0.5414  1.0239 -0.7981
  329TMC3    H1 4997   3.985   0.896  16.871 -0.0477  0.3607  1.7961
  329TMC3    H2 4998   3.743   1.212  16.699  0.5846  1.3875  0.2919
  329TMC3    C7 4999   3.886   1.000  16.625 -0.3157 -0.1158 -0.3936
  329TMC3    C8 5000   3.705   1.322  16.919  0.5162 -0.0054 -0.5995
  329TMC3    O1 5001   3.851   1.082  16.540  0.3317  0.3746 -0.0269
  329TMC3    O2 5002   3.706   1.386  16.818 -0.4525  0.3292 -0.0815
  330TMC3    C1 5003   2.143   1.143   9.294 -0.8065  0.1358  0.0437
  330TMC3    C2 5004   2.032   1.064   9.291  0.1272  0.0943  0.1473
  330TMC3    C3 5005   2.049   0.931   9.329 -0.4633 -0.2354  0.0919
  330TMC3    C4 5006   2.269   1.102   9.330  0.5893 -0.2298 -0.0583
  330TMC3    C5 5007   2.276   0.970   9.368  0.4112 -0.2128 -0.3397
  330TMC3    C6 5008   2.171   0.881   9.364  0.3641  0.1495  0.0735
  330TMC3     C 5009   2.123   1.284   9.304 -0.1822 -0.0951  0.1089
  330TMC3     O 5010   2.191   1.349   9.383 -0.6813 -0.2636 -0.4689
  330TMC3     H 5011   1.932   1.100   9.269  0.2611 -1.0577 -2.2475
  330TMC3    H1 5012   2.351   1.173   9.327  1.0768 -0.7511  1.1134
  330TMC3    H2 5013   2.186   0.788   9.418  2.7624  0.3634 -0.1890
  330TMC3    C7 5014   2.408   0.913   9.394  0.5205  0.4230 -0.2470
  330TMC3    C8 5015   1.924   0.848   9.331 -0.6803 -0.9138 -0.4817
  330TMC3    O1 5016   2.428   0.809   9.336 -0.3146 -0.4042 -0.5630
  330TMC3    O2 5017   1.824   0.903   9.287  0.3526  0.0861  0.2091
  331MPD2     C 5018   0.253   4.290  13.133 -0.3374  0.1384 -0.7536
  331MPD2    C1 5019   0.336   4.296  13.024 -0.0654  0.3001  0.1178
  331MPD2    C2 5020   0.380   4.181  12.960  0.9497  0.1076 -0.1101
  331MPD2    C3 5021   0.323   4.059  13.002 -0.3289 -0.7542 -0.8181
  331MPD2    C4 5022   0.237   4.054  13.109  0.0417  0.7990 -0.0237
  331MPD2    C5 5023   0.206   4.168  13.170 -0.4272 -0.3958 -0.5201
  331MPD2     H 5024   0.444   4.185  12.873 -0.7853  0.3947 -1.3706
  331MPD2    H1 5025   0.188   3.961  13.136 -0.8455  1.2394 -0.0782
  331MPD2    H2 5026   0.229   4.377  13.193  0.7634  1.0077 -1.5694
  331MPD2    H3 5027   0.147   4.161  13.260  0.2775  0.6830  0.0186
  331MPD2     N 5028   0.358   3.944  12.929 -0.6043  0.4865 -0.2400
  331MPD2    H5 5029   0.406   3.952  12.840  1.6891 -1.4450  0.8007
  331MPD2    N1 5030   0.399   4.418  12.987 -0.2122 -0.1178  0.2844
  331MPD2    H7 5031   0.388   4.493  13.055 -0.5674  1.0451 -1.0649
  332TMC3    C1 5032   0.384   3.728  12.865  0.9330  0.4921  0.0829
  332TMC3    C2 5033   0.382   3.788  12.740  0.1527 -0.1134 -0.5318
  332TMC3    C3 5034   0.491   3.791  12.658 -0.3069  0.1286  0.5527
  332TMC3    C4 5035   0.501   3.666  12.905 -0.0547 -0.1635  0.9046
  332TMC3    C5 5036   0.604   3.676  12.819 -0.4389 -0.0976  0.7522
  332TMC3    C6 5037   0.606   3.729  12.698 -0.4555 -0.0785  0.1540
  332TMC3     C 5038   0.334   3.819  12.972  0.0478 -0.7683  0.5017
  332TMC3     O 5039   0.306   3.774  13.084 -1.1667 -0.4391  0.3971
  332TMC3     H 5040   0.296   3.852  12.720  0.1599  0.1482  0.2502
  332TMC3    H1 5041   0.505   3.630  13.007  0.6191  0.6867  1.1724
  332TMC3    H2 5042   0.689   3.723  12.627 -0.2347  1.0525  0.3126
  332TMC3    C7 5043   0.722   3.612  12.877 -0.3749 -0.5045  0.2246
  332TMC3    C8 5044   0.506   3.902  12.572  0.0216  0.2306 -0.2942
  332TMC3    O1 5045   0.696   3.525  12.958  0.1186 -0.0330 -0.0526
  332TMC3    O2 5046   0.615   3.953  12.585  0.1542 -0.3662  0.3951
  333MPD2     C 5047   0.223   4.719  11.183 -0.1187  1.0580  0.5388
  333MPD2    C1 5048   0.341   4.663  11.211 -0.7800  0.3263  0.1171
  333MPD2    C2 5049   0.335   4.564  11.303 -0.4214 -0.1491 -0.2579
  333MPD2    C3 5050   0.225   4.517  11.366 -0.8456 -0.2399 -0.0876
  333MPD2    C4 5051   0.104   4.561  11.318  0.1075 -0.3410 -0.1729
  333MPD2    C5 5052   0.105   4.668  11.231  0.8712 -0.3959 -0.0704
  333MPD2     H 5053   0.425   4.509  11.328 -0.7730 -1.0527 -0.9850
  333MPD2    H1 5054   0.013   4.514  11.353 -0.2937  1.4385  1.1747
  333MPD2    H2 5055   0.229   0.069  11.118 -0.9213  0.7582  0.0632
  333MPD2    H3 5056   0.013   4.720  11.207  0.9242 -0.2214  0.1063
  333MPD2     N 5057   0.244   4.416  11.466  0.0888  0.5862  0.4118
  333MPD2    H5 5058   0.337   4.380  11.487 -1.0790 -1.8595  1.4443
  333MPD2    N1 5059   0.459   4.716  11.152 -0.0938  0.1102  0.1389
  333MPD2    H7 5060   0.450   0.063  11.094  1.7573  0.4726  0.3436
  334TMC3    C1 5061   0.678   4.726  11.070  0.6972 -0.3433  0.6281
  334TMC3    C2 5062   0.805   4.672  11.061  0.4445 -0.4338 -0.1458
  334TMC3    C3 5063   0.896   4.735  10.987  0.1458  0.2116  0.3143
  334TMC3    C4 5064   0.647   0.115  11.017  0.4234  0.1402  0.2851
  334TMC3    C5 5065   0.744   0.178  10.941  0.3716  0.0380  0.2613
  334TMC3    C6 5066   0.869   0.114  10.926  0.3196 -0.1260 -0.0009
  334TMC3     C 5067   0.585   4.661  11.161  0.3315  0.0656  0.2050
  334TMC3     O 5068   0.611   4.546  11.192  0.0472  0.0490  0.6902
  334TMC3     H 5069   0.813   4.570  11.096 -1.5196 -0.0012  1.5498
  334TMC3    H1 5070   0.555   0.169  11.036  0.2177 -0.3072  0.5555
  334TMC3    H2 5071   0.945   0.170  10.873  0.7935 -1.0564 -0.2895
  334TMC3    C7 5072   0.730   0.309  10.889 -0.3972 -0.4236  0.0675
  334TMC3    C8 5073   1.004   4.656  10.956  0.1277  0.2849  0.4187
  334TMC3    O1 5074   0.828   0.380  10.899  0.2653  0.4970 -0.2288
  334TMC3    O2 5075   1.002   4.538  10.981 -0.0949  0.5658  0.1081
  335TMC3    C1 5076   0.256   1.656  17.510 -0.9505  0.0090 -0.9183
  335TMC3    C2 5077   0.183   1.595  17.413 -0.7520  0.4569 -0.2514
  335TMC3    C3 5078   0.218   1.609  17.282  0.0495  0.5480  0.4089
  335TMC3    C4 5079   0.363   1.738  17.475 -0.3719  0.0206 -0.0640
  335TMC3    C5 5080   0.380   1.764  17.338  0.7499 -0.1629  0.8914
  335TMC3    C6 5081   0.302   1.705  17.244  0.3924 -0.6400  0.3450
  335TMC3     C 5082   0.232   1.614  17.648  0.2239 -0.9488  0.2771
  335TMC3     O 5083   0.163   1.517  17.662 -0.5808 -0.6362  0.3995
  335TMC3     H 5084   0.117   1.518  17.452 -0.4173 -0.3401 -1.2775
  335TMC3    H1 5085   0.439   1.768  17.546 -0.0992  0.8729 -0.7152
  335TMC3    H2 5086   0.322   1.728  17.140  0.9061 -0.1966  0.5366
  335TMC3    C7 5087   0.482   1.863  17.301 -0.1181 -0.5787 -0.1533
  335TMC3    C8 5088   0.120   1.589  17.181  0.3683 -0.7282  0.1512
  335TMC3    O1 5089   0.513   1.877  17.184  0.0888  0.0130  0.1708
  335TMC3    O2 5090   0.161   1.614  17.067  0.2430  0.0318 -0.4385
  336MPD2     C 5091   4.557   4.051  16.031  0.1597 -0.6574  0.6131
  336MPD2    C1 5092   4.516   3.968  15.924 -0.4612 -0.5110 -0.5688
  336MPD2    C2 5093   4.545   3.831  15.916  0.7475  1.0064  0.5147
  336MPD2    C3 5094   4.607   3.779  16.028  0.3175  0.1266 -0.4003
  336MPD2    C4 5095   4.642   3.851  16.140  0.1779 -0.2414 -0.3799
  336MPD2    C5 5096   4.628   3.995  16.136 -0.5662  0.5621  0.2040
  336MPD2     H 5097   4.521   3.774  15.828  0.3780  0.6882  0.8233
  336MPD2    H1 5098   4.702   3.803  16.216 -0.5841  1.9833  1.6001
  336MPD2    H2 5099   4.524   4.153  16.046  0.5013 -0.7814  2.2466
  336MPD2    H3 5100   4.667   4.059  16.215  0.9602  0.2994 -0.3414
  336MPD2     N 5101   4.649   3.646  16.028 -0.7571 -0.3535 -0.3780
  336MPD2    H5 5102   4.679   3.599  16.113  0.6003 -0.2576 -0.8045
  336MPD2    N1 5103   4.428   4.013  15.818  0.3418  0.5170  0.1061
  336MPD2    H7 5104   4.419   3.941  15.747  1.4904 -0.1607  0.6509
  337TMC3    C1 5105   4.303   4.160  15.672  0.2123  0.3721 -0.1502
  337TMC3    C2 5106   4.206   4.076  15.639 -0.6984 -0.4279 -0.6691
  337TMC3    C3 5107   4.115   4.112  15.547 -0.5456  0.0213 -0.8532
  337TMC3    C4 5108   4.310   4.291  15.629  0.7800  0.6498  0.1450
  337TMC3    C5 5109   4.219   4.324  15.532  0.1352  0.5059 -0.2073
  337TMC3    C6 5110   4.120   4.237  15.488 -0.4396 -0.2808  0.3371
  337TMC3     C 5111   4.381   4.138  15.796  0.1637  0.5640 -0.5123
  337TMC3     O 5112   4.408   4.239  15.860 -0.0230  0.2255  0.1045
  337TMC3     H 5113   4.207   3.972  15.670 -1.1613 -0.4986 -0.8913
  337TMC3    H1 5114   4.390   4.356  15.663  2.5820 -1.5313  0.0297
  337TMC3    H2 5115   4.047   4.267  15.415 -1.0538  0.9068  1.4335
  337TMC3    C7 5116   4.233   4.453  15.464 -0.3372  0.3559  0.2324
  337TMC3    C8 5117   4.020   4.009  15.499  0.6051 -0.1209  0.5187
  337TMC3    O1 5118   4.138   4.486  15.390  0.5400  0.3750  0.0657
  337TMC3    O2 5119   3.997   3.907  15.561 -0.2870 -0.2310 -0.6823
  338MPD2     C 5120   0.254   3.869   1.165 -0.6957  0.1903 -0.3688
  338MPD2    C1 5121   0.169   3.835   1.063  0.4387 -0.3792  0.2628
  338MPD2    C2 5122   0.038   3.870   1.068 -0.2385  0.5854 -0.5867
  338MPD2    C3 5123   4.727   3.938   1.179 -0.4256  0.8534  0.0641
  338MPD2    C4 5124   0.071   3.965   1.281  0.2098 -0.1050 -0.2524
  338MPD2    C5 5125   0.204   3.936   1.270  0.1228  0.8131  0.6385
  338MPD2     H 5126   4.705   3.849   0.987  0.6258 -0.4451 -1.0639
  338MPD2    H1 5127   0.041   4.021   1.369  0.7819 -0.9388  0.4715
  338MPD2    H2 5128   0.360   3.847   1.163 -0.7331  0.0250 -0.5420
  338MPD2    H3 5129   0.269   3.963   1.352  1.7348 -1.2588  0.0290
  338MPD2     N 5130   4.589   3.972   1.179 -0.0736  0.2451 -0.3463
  338MPD2    H5 5131   4.548   3.941   1.092 -0.7732  0.2760 -0.0288
  338MPD2    N1 5132   0.198   3.766   0.952 -0.1727  0.3343 -0.8401
  338MPD2    H7 5133   0.124   3.760   0.882 -0.2589 -0.3533 -0.6813
  339TMC3    C1 5134   4.381   3.993   1.227 -0.3392  0.3153  0.1536
  339TMC3    C2 5135   4.302   3.906   1.293  0.9327  0.1374 -0.3103
  339TMC3    C3 5136   4.190   3.851   1.232  0.5965  0.3804  0.6250
  339TMC3    C4 5137   4.364   3.996   1.088 -0.8079 -0.1338  0.3672
  339TMC3    C5 5138   4.265   3.928   1.030  0.2660  0.3619  0.5554
  339TMC3    C6 5139   4.170   3.857   1.099  0.0207  0.2980 -0.3851
  339TMC3     C 5140   4.512   4.014   1.279  0.2452 -0.4959 -0.0529
  339TMC3     O 5141   4.536   4.039   1.395 -0.3169  0.2152 -0.3669
  339TMC3     H 5142   4.336   3.881   1.393  0.4689 -0.6173 -0.3445
  339TMC3    H1 5143   4.421   4.066   1.029 -2.3403  0.1297 -0.7920
  339TMC3    H2 5144   4.081   3.824   1.048 -1.1418  0.5009  1.5449
  339TMC3    C7 5145   4.231   3.975   0.897  0.3952 -0.0119  0.0134
  339TMC3    C8 5146   4.120   3.762   1.314 -0.1197 -0.2707 -0.0839
  339TMC3    O1 5147   4.294   4.073   0.862 -0.0259 -0.0777 -0.9099
  339TMC3    O2 5148   4.113   3.783   1.437 -0.2826  0.1681 -0.2401
  340MPD2     C 5149   0.910   1.975  10.284 -0.3066  0.3899 -0.6318
  340MPD2    C1 5150   0.915   1.841  10.335 -0.5913  0.0883 -0.1896
  340MPD2    C2 5151   0.996   1.818  10.445  0.3261 -0.3389  0.7376
  340MPD2    C3 5152   1.075   1.922  10.490 -0.2663  0.4882 -0.0194
  340MPD2    C4 5153   1.072   2.051  10.433  0.0834  0.1050  0.4918
  340MPD2    C5 5154   1.001   2.074  10.324  0.2531  0.6069 -0.0595
  340MPD2     H 5155   0.993   1.724  10.498 -1.1886 -0.8825 -0.3005
  340MPD2    H1 5156   1.145   2.126  10.462  0.1957  0.3957 -0.5365
  340MPD2    H2 5157   0.856   1.989  10.191 -1.1691 -0.7332 -0.2966
  340MPD2    H3 5158   1.013   2.167  10.270  0.8481  0.5019 -0.1153
  340MPD2     N 5159   1.174   1.916  10.587 -0.3527  0.2531  0.4184
  340MPD2    H5 5160   1.233   1.999  10.594 -0.2343  0.1762  0.3197
  340MPD2    N1 5161   0.853   1.745  10.258 -0.0245 -0.6692  0.5660
  340MPD2    H7 5162   0.791   1.772  10.182 -0.1668 -0.7097  0.6675
  341TMC3    C1 5163   0.817   1.519  10.178  0.3837  0.1310  0.3917
  341TMC3    C2 5164   0.799   1.383  10.208 -0.0464 -0.1847 -0.0874
  341TMC3    C3 5165   0.727   1.307  10.127 -0.4004  0.2854  0.5498
  341TMC3    C4 5166   0.741   1.571  10.075  0.1747  0.0467  0.1676
  341TMC3    C5 5167   0.665   1.491   9.996 -0.1024 -0.3489 -0.1837
  341TMC3    C6 5168   0.654   1.359  10.021  0.4784  0.2529 -0.5887
  341TMC3     C 5169   0.875   1.608  10.277  0.8653 -0.6065 -0.1251
  341TMC3     O 5170   0.938   1.548  10.363 -0.7768 -0.1445 -0.9380
  341TMC3     H 5171   0.861   1.345  10.288  0.5958 -0.0865 -0.5364
  341TMC3    H1 5172   0.743   1.677  10.049  0.3280 -0.2931 -1.2077
  341TMC3    H2 5173   0.611   1.295   9.945 -0.6049  2.0203 -1.4575
  341TMC3    C7 5174   0.624   1.546   9.869  0.0433  0.4617 -0.6115
  341TMC3    C8 5175   0.724   1.170  10.167  0.0663  0.2627 -0.3329
  341TMC3    O1 5176   0.643   1.471   9.772  0.3039  0.1947 -0.1864
  341TMC3    O2 5177   0.817   1.120  10.230 -0.2087  0.1164 -0.2239
  342MPD2     C 5178   2.951   4.445  17.603 -0.0990  0.2485 -0.1590
  342MPD2    C1 5179   3.017   4.472  17.483  0.2363 -0.7335 -0.3275
  342MPD2    C2 5180   3.034   4.604  17.445  0.1444  0.0376 -0.1302
  342MPD2    C3 5181   2.988   4.709  17.527 -0.7532 -0.0440  0.1557
  342MPD2    C4 5182   2.912   4.678  17.640 -0.7142 -0.6204  0.3532
  342MPD2    C5 5183   2.880   4.548  17.668 -0.0575  0.6115  0.1095
  342MPD2     H 5184   3.067   4.629  17.345 -1.8753 -2.6629 -1.4737
  342MPD2    H1 5185   2.861   0.027  17.685  0.4668  0.5321 -0.4854
  342MPD2    H2 5186   2.953   4.342  17.634 -1.8232  0.1734 -0.3066
  342MPD2    H3 5187   2.819   4.531   0.014  1.4109  1.7228  1.3662
  342MPD2     N 5188   3.004   0.108  17.493 -0.2769  1.1365 -0.1533
  342MPD2    H5 5189   2.967   0.172  17.562 -0.4929 -0.7645  1.4898
  342MPD2    N1 5190   3.081   4.368  17.407 -0.2360 -0.0313  0.3574
  342MPD2    H7 5191   3.113   4.395  17.315  0.5712 -0.2877  0.5615
  343TMC3    C1 5192   3.120   4.149  17.329 -0.4911  0.2339  0.8015
  343TMC3    C2 5193   3.176   4.192  17.209  0.8892 -0.3262  0.4867
  343TMC3    C3 5194   3.184   4.106  17.100 -0.4326  0.4346 -0.2966
  343TMC3    C4 5195   3.081   4.021  17.341 -0.8697  0.6095  0.0066
  343TMC3    C5 5196   3.106   3.933  17.231  0.2094 -0.2499 -0.6634
  343TMC3    C6 5197   3.156   3.975  17.115 -0.8552 -0.2655 -0.1402
  343TMC3     C 5198   3.065   4.233  17.430  0.3752  0.1730 -0.2588
  343TMC3     O 5199   3.005   4.175  17.518  0.0609  0.2691 -0.1778
  343TMC3     H 5200   3.198   4.297  17.200  0.4321 -0.1840  1.0224
  343TMC3    H1 5201   3.034   3.981  17.430  0.2411  2.0652  1.2502
  343TMC3    H2 5202   3.182   3.887  17.058  0.6168 -0.3849  0.7050
  343TMC3    C7 5203   3.081   3.794  17.246 -0.4631  0.5352  0.2410
  343TMC3    C8 5204   3.279   4.147  17.001  0.7845  0.2280  0.0258
  343TMC3    O1 5205   3.025   3.731  17.152  0.3708 -0.0433  0.0068
  343TMC3    O2 5206   3.280   4.266  16.972 -0.1143  0.2444  0.3588
  344MPD2     C 5207   4.336   3.594  10.593 -0.0275 -0.3153 -0.1978
  344MPD2    C1 5208   4.343   3.569  10.459 -0.0409 -0.6205  0.1551
  344MPD2    C2 5209   4.382   3.674  10.373  0.1621  0.8023 -0.0478
  344MPD2    C3 5210   4.416   3.800  10.423  0.0791  0.4806 -0.5721
  344MPD2    C4 5211   4.410   3.814  10.558 -0.6111 -0.1910  0.0018
  344MPD2    C5 5212   4.376   3.711  10.645 -0.3923 -0.1352  0.1763
  344MPD2     H 5213   4.382   3.652  10.267 -0.3965 -1.6752  0.4530
  344MPD2    H1 5214   4.443   3.906  10.606 -1.0364 -0.1839  0.2800
  344MPD2    H2 5215   4.325   3.516  10.668  2.2731 -0.7536 -0.3050
  344MPD2    H3 5216   4.385   3.716  10.753  2.8882 -1.1430 -0.0435
  344MPD2     N 5217   4.473   3.901  10.342  0.4297 -0.8423  0.3453
  344MPD2    H5 5218   4.506   3.981  10.395 -3.0619  0.7234  0.0964
  344MPD2    N1 5219   4.313   3.440  10.415  0.3718  0.6617 -0.0104
  344MPD2    H7 5220   4.292   3.375  10.490  0.2378 -0.0821 -0.6958
  345TMC3    C1 5221   4.485   4.046  10.160 -0.4442  0.4861 -1.1461
  345TMC3    C2 5222   4.577   4.127  10.231 -0.4041 -0.3319 -0.4470
  345TMC3    C3 5223   4.576   4.257  10.199  0.1092 -0.3676  0.6613
  345TMC3    C4 5224   4.415   4.094  10.049 -0.5525 -0.2516 -0.2248
  345TMC3    C5 5225   4.427   4.225  10.013  0.2059 -0.4787 -0.3742
  345TMC3    C6 5226   4.513   4.302  10.084  0.3448 -0.1313  0.1206
  345TMC3     C 5227   4.450   3.918  10.206 -0.1104  0.2313  0.0917
  345TMC3     O 5228   4.387   3.846  10.128 -0.4291  0.3948  0.0198
  345TMC3     H 5229   4.639   4.089  10.311  0.5616  1.2334 -0.4567
  345TMC3    H1 5230   4.359   4.024   9.988 -0.4104  0.4801 -1.1969
  345TMC3    H2 5231   4.519   4.408  10.061 -1.4181 -0.4755 -1.9664
  345TMC3    C7 5232   4.363   4.278   9.902  0.1959  0.9700  0.6499
  345TMC3    C8 5233   4.582   4.340  10.309  0.1741 -0.4702 -0.4300
  345TMC3    O1 5234   4.398   4.388   9.869  0.1363  0.1468  0.1058
  345TMC3    O2 5235   4.594   4.292  10.419  0.0734 -0.2505  0.7627
  346MPD2     C 5236   4.092   0.465  13.527 -0.1227  0.0856  0.3676
  346MPD2    C1 5237   4.217   0.506  13.534  0.3761 -0.0412 -0.4166
  346MPD2    C2 5238   4.262   0.553  13.655  0.7010  0.1715 -0.0599
  346MPD2    C3 5239   4.180   0.545  13.774  0.7339  0.1675  0.1865
  346MPD2    C4 5240   4.050   0.490  13.759 -0.0905 -0.0510  0.9424
  346MPD2    C5 5241   4.010   0.454  13.638  1.2465 -0.2074  0.0870
  346MPD2     H 5242   4.365   0.586  13.659  0.6770  0.3237 -0.6917
  346MPD2    H1 5243   3.988   0.463  13.844  0.7882 -2.2413  0.8932
  346MPD2    H2 5244   4.043   0.433  13.435 -0.5381  1.4444  0.1130
  346MPD2    H3 5245   3.913   0.408  13.637  1.8073 -1.3661 -0.3670
  346MPD2     N 5246   4.234   0.596  13.893 -0.3136 -0.2267 -0.3099
  346MPD2    H5 5247   4.323   0.644  13.887 -0.9774  0.9530 -0.7227
  346MPD2    N1 5248   4.290   0.532  13.413 -0.1710 -0.0233 -0.1644
  346MPD2    H7 5249   4.380   0.576  13.426  1.1274 -2.1807 -1.9173
  347TMC3    C1 5250   4.224   0.696  14.094 -0.1575 -0.2301  0.0105
  347TMC3    C2 5251   4.345   0.658  14.144  0.4435 -0.0080  0.7793
  347TMC3    C3 5252   4.391   0.720  14.253  1.1808 -0.7797  0.0126
  347TMC3    C4 5253   4.146   0.775  14.170 -0.4534 -0.2460  0.6914
  347TMC3    C5 5254   4.192   0.834  14.281  0.4707  0.9936 -0.2614
  347TMC3    C6 5255   4.319   0.817  14.323  0.4206 -0.3213 -0.3911
  347TMC3     C 5256   4.161   0.605  14.007 -0.0926  0.0991  0.6026
  347TMC3     O 5257   4.052   0.562  14.041  0.0493  0.5736  0.3464
  347TMC3     H 5258   4.399   0.576  14.098 -0.8079 -0.4341  0.0627
  347TMC3    H1 5259   4.046   0.798  14.134  0.2840  0.3160 -0.9822
  347TMC3    H2 5260   4.352   0.861  14.417 -2.4690 -1.7136  1.2636
  347TMC3    C7 5261   4.090   0.876  14.371  0.3721  0.8475 -0.0270
  347TMC3    C8 5262   4.527   0.686  14.284  0.3334 -0.1914 -0.2531
  347TMC3    O1 5263   3.975   0.853  14.343 -0.2394  0.6751 -0.2006
  347TMC3    O2 5264   4.583   0.596  14.224 -0.4729  0.2728  0.1169
  348MPD2     C 5265   3.195   0.670  12.027 -0.5462  0.5228 -0.1630
  348MPD2    C1 5266   3.164   0.592  11.922  0.2812 -0.2652  0.2112
  348MPD2    C2 5267   3.143   0.644  11.801 -0.1575  0.4268 -0.4432
  348MPD2    C3 5268   3.130   0.785  11.786 -0.0216 -0.4484  0.4784
  348MPD2    C4 5269   3.158   0.868  11.894 -0.4009  0.2530  0.0750
  348MPD2    C5 5270   3.190   0.806  12.015 -0.7379 -0.2741 -0.3644
  348MPD2     H 5271   3.115   0.577  11.721 -1.5779 -2.1086  2.1572
  348MPD2    H1 5272   3.157   0.976  11.893 -2.5260  0.2293 -0.8414
  348MPD2    H2 5273   3.213   0.627  12.126  2.2704  0.2224 -0.8012
  348MPD2    H3 5274   3.216   0.868  12.099  2.9854  0.1301 -1.8146
  348MPD2     N 5275   3.084   0.833  11.665 -0.2160 -0.1716 -0.7875
  348MPD2    H5 5276   3.049   0.766  11.597 -0.6604 -1.0300  0.2887
  348MPD2    N1 5277   3.181   0.451  11.920 -0.6199  0.1241 -0.0269
  348MPD2    H7 5278   3.186   0.408  11.828  1.7746 -1.1630  0.7002
  349TMC3    C1 5279   3.265   0.255  11.979  0.0106 -0.5115  0.4057
  349TMC3    C2 5280   3.203   0.135  11.978  0.2199 -0.4547  0.5043
  349TMC3    C3 5281   3.242   0.058  11.867  0.1411 -0.3006 -0.7740
  349TMC3    C4 5282   3.360   0.299  11.891  0.9190  0.5888  0.2027
  349TMC3    C5 5283   3.381   0.224  11.776  0.2111 -0.2354 -0.2577
  349TMC3    C6 5284   3.327   0.098  11.769 -0.4059  0.2728  0.9256
  349TMC3     C 5285   3.204   0.370  12.027  0.0215  0.2832 -0.3963
  349TMC3     O 5286   3.207   0.397  12.148  0.1357 -0.2217 -0.0270
  349TMC3     H 5287   3.125   0.104  12.046  0.9063 -0.2463  1.3874
  349TMC3    H1 5288   3.412   0.393  11.909  1.9726 -0.0420  0.4192
  349TMC3    H2 5289   3.352   0.037  11.683 -1.3731  0.0085  0.8286
  349TMC3    C7 5290   3.380   0.287  11.650  0.7545 -0.4709 -0.2078
  349TMC3    C8 5291   3.222   4.649  11.885  0.0046  0.5465 -0.1836
  349TMC3    O1 5292   3.378   0.219  11.545 -0.3460 -0.0434  0.0724
  349TMC3    O2 5293   3.171   4.616  11.990 -0.2493 -0.6098 -0.0783
  350MPD2     C 5294   2.297   3.434  10.158 -0.3377 -0.1369 -0.4746
  350MPD2    C1 5295   2.274   3.307  10.201  0.2797  1.0205 -0.4615
  350MPD2    C2 5296   2.311   3.266  10.325  0.3076  0.5475  0.3414
  350MPD2    C3 5297   2.366   3.357  10.417  0.5932  0.1806 -0.1351
  350MPD2    C4 5298   2.378   3.492  10.381 -0.2796  0.8000  0.3448
  350MPD2    C5 5299   2.343   3.526  10.258  0.4950  0.5135  0.3337
  350MPD2     H 5300   2.293   3.166  10.361  1.6366 -0.0196 -0.5348
  350MPD2    H1 5301   2.420   3.572  10.440  0.1578 -1.1408  2.6802
  350MPD2    H2 5302   2.258   3.477  10.066 -0.0793  0.0174 -0.5121
  350MPD2    H3 5303   2.347   3.631  10.230 -1.4880  0.2967 -0.8133
  350MPD2     N 5304   2.394   3.321  10.554 -1.1354 -0.1299 -0.0721
  350MPD2    H5 5305   2.393   3.222  10.573  0.2343 -0.5624 -2.2397
  350MPD2    N1 5306   2.209   3.210  10.127 -0.1086  0.2135  0.2690
  350MPD2    H7 5307   2.183   3.121  10.168  0.5275  0.6785  1.6646
  351TMC3    C1 5308   2.107   3.106   9.948  0.4810 -0.6266 -0.1315
  351TMC3    C2 5309   2.167   3.033   9.848  0.1347 -0.2711 -0.5867
  351TMC3    C3 5310   2.127   2.902   9.839 -0.8290 -0.5490 -0.0131
  351TMC3    C4 5311   2.020   3.052  10.035 -0.3662 -0.0206 -0.0393
  351TMC3    C5 5312   1.985   2.924  10.025  0.1347  0.1649  0.4372
  351TMC3    C6 5313   2.031   2.846   9.923  0.1233  0.1144 -0.2880
  351TMC3     C 5314   2.189   3.215   9.991  0.0849 -0.3363  0.0764
  351TMC3     O 5315   2.251   3.278   9.908  0.2367 -0.0838 -0.3232
  351TMC3     H 5316   2.238   3.083   9.783 -0.4035  2.3288  0.8206
  351TMC3    H1 5317   1.976   3.110  10.115  0.8815 -1.0855  1.4062
  351TMC3    H2 5318   1.981   2.752   9.905 -0.8231  0.5188  0.2147
  351TMC3    C7 5319   1.879   2.881  10.111  0.9429 -0.5776  0.5852
  351TMC3    C8 5320   2.186   2.830   9.731 -0.0312 -0.0691  0.6090
  351TMC3    O1 5321   1.854   2.950  10.211  0.4872  0.1881 -0.7019
  351TMC3    O2 5322   2.115   2.743   9.681 -0.0476  0.2023 -0.1374
  352MPD2     C 5323   0.578   0.976   1.213 -0.6091  0.2812  0.1177
  352MPD2    C1 5324   0.498   0.861   1.181  0.2139 -0.0022  0.5441
  352MPD2    C2 5325   0.571   0.743   1.162 -0.4988 -0.5820  0.0107
  352MPD2    C3 5326   0.708   0.738   1.155  0.1666 -0.4374 -0.4084
  352MPD2    C4 5327   0.784   0.850   1.184  0.3410 -0.6753 -0.0944
  352MPD2    C5 5328   0.714   0.970   1.204  0.2905  0.2852 -0.7217
  352MPD2     H 5329   0.513   0.654   1.138  0.2291 -0.1382 -3.2739
  352MPD2    H1 5330   0.892   0.848   1.178  0.2297 -0.3153 -2.0906
  352MPD2    H2 5331   0.535   1.076   1.219 -0.0607  0.4623  1.0596
  352MPD2    H3 5332   0.778   1.057   1.212  1.3865 -0.5112 -0.7852
  352MPD2     N 5333   0.786   0.625   1.114  0.2566 -0.5247  0.0658
  352MPD2    H5 5334   0.885   0.633   1.094  0.2459 -0.1656  0.1671
  352MPD2    N1 5335   0.357   0.871   1.179 -0.3788  0.2370 -0.2251
  352MPD2    H7 5336   0.314   0.951   1.223 -0.9371 -0.1382 -0.0837
  353TMC3    C1 5337   0.811   0.412   1.018  0.5557 -0.9913 -0.5653
  353TMC3    C2 5338   0.877   0.332   1.111  0.3351  0.5509  0.2583
  353TMC3    C3 5339   0.893   0.200   1.091 -0.0966 -0.7251  0.3361
  353TMC3    C4 5340   0.746   0.354   0.916  0.0643 -0.4810 -0.0355
  353TMC3    C5 5341   0.737   0.220   0.920  0.8060 -0.1207  0.1568
  353TMC3    C6 5342   0.812   0.137   1.002  0.4056  0.4022  0.6735
  353TMC3     C 5343   0.722   0.507   1.079 -0.0469  0.0086 -0.2514
  353TMC3     O 5344   0.603   0.473   1.082  0.1051  0.2057 -0.2265
  353TMC3     H 5345   0.948   0.381   1.178  4.0506  1.1100 -4.0969
  353TMC3    H1 5346   0.677   0.416   0.859  0.3805  0.6063  0.7715
  353TMC3    H2 5347   0.798   0.030   0.992 -0.6612  0.9040 -3.1075
  353TMC3    C7 5348   0.603   0.158   0.887  0.6519  0.0057 -0.5701
  353TMC3    C8 5349   0.981   0.118   1.177  0.1020 -0.0181 -0.3026
  353TMC3    O1 5350   0.596   0.043   0.831  0.2889  0.3136 -0.0545
  353TMC3    O2 5351   1.043   0.180   1.261  0.0267 -0.1287 -0.2300
  354TMC3    C1 5352   2.281   1.308  13.562 -0.1635  0.1037 -0.1766
  354TMC3    C2 5353   2.203   1.293  13.444 -0.6058 -0.2535  0.0621
  354TMC3    C3 5354   2.264   1.258  13.333 -0.6402 -0.0307 -0.6010
  354TMC3    C4 5355   2.417   1.298  13.554  0.7211  1.0888 -0.1293
  354TMC3    C5 5356   2.480   1.266  13.429  0.5292 -0.3249  0.1822
  354TMC3    C6 5357   2.397   1.243  13.319 -0.5138  0.0074  0.7156
  354TMC3     C 5358   2.206   1.346  13.683 -0.5448  0.0411 -1.0204
  354TMC3     O 5359   2.084   1.351  13.676 -0.9411 -0.7643 -0.2406
  354TMC3     H 5360   2.096   1.308  13.456 -0.5955  0.7422 -1.0984
  354TMC3    H1 5361   2.479   1.298  13.642 -0.5135 -3.1225  0.7833
  354TMC3    H2 5362   2.427   1.197  13.226  0.4618 -0.4552  1.2558
  354TMC3    C7 5363   2.581   1.362  13.402  0.1915  0.1408  0.3760
  354TMC3    C8 5364   2.192   1.297  13.208 -0.1362  0.1205 -0.4250
  354TMC3    O1 5365   2.592   1.451  13.484  0.3431  0.6826 -0.1019
  354TMC3    O2 5366   2.250   1.339  13.114 -0.0322  0.0265  0.2794
  355MPD2     C 5367   2.182   2.441  12.034 -0.4346 -0.1341  0.1138
  355MPD2    C1 5368   2.297   2.459  11.970  1.0061 -0.4172 -0.7086
  355MPD2    C2 5369   2.418   2.442  12.035  0.3549  0.2475  0.2211
  355MPD2    C3 5370   2.416   2.399  12.163  0.6832  0.3640 -0.6395
  355MPD2    C4 5371   2.299   2.374  12.227 -0.2115  1.1079  0.1807
  355MPD2    C5 5372   2.179   2.397  12.164  0.0732 -0.2935  0.1900
  355MPD2     H 5373   2.517   2.456  11.994  0.4921  0.1433  0.5187
  355MPD2    H1 5374   2.287   2.346  12.331 -1.0108  0.6430 -0.0363
  355MPD2    H2 5375   2.081   2.452  11.998 -0.7157  1.1189  1.2895
  355MPD2    H3 5376   2.079   2.386  12.204 -0.9248  0.5316 -2.0911
  355MPD2     N 5377   2.544   2.379  12.226 -0.3772  0.2328 -0.2079
  355MPD2    H5 5378   2.625   2.394  12.167  1.0695 -2.1558  1.1300
  355MPD2    N1 5379   2.289   2.506  11.836  0.1571 -0.2425  0.4488
  355MPD2    H7 5380   2.194   2.520  11.803  0.6482 -0.4240 -1.0082
  356TMC3    C1 5381   2.714   2.341  12.370  0.0271  0.3312  0.0101
  356TMC3    C2 5382   2.778   2.331  12.248 -0.1482  0.4422  0.4688
  356TMC3    C3 5383   2.884   2.421  12.218  0.2968 -0.1756 -0.0236
  356TMC3    C4 5384   2.760   2.439  12.462 -0.3421 -0.1805 -0.0376
  356TMC3    C5 5385   2.866   2.528  12.424  0.2205 -0.9818  0.5826
  356TMC3    C6 5386   2.920   2.522  12.296  0.0667  0.4207 -0.1223
  356TMC3     C 5387   2.570   2.346  12.358 -1.0798 -0.3053 -0.9010
  356TMC3     O 5388   2.497   2.352  12.455  0.1575  0.1595 -0.0184
  356TMC3     H 5389   2.751   2.254  12.176  0.5249 -1.0921  1.8624
  356TMC3    H1 5390   2.696   2.479  12.540  0.4447  0.3212  0.3483
  356TMC3    H2 5391   3.006   2.583  12.270  0.6170  0.5712  1.9888
  356TMC3    C7 5392   2.916   2.610  12.526  0.1063 -0.1027  0.5844
  356TMC3    C8 5393   2.899   2.451  12.073  0.0689  0.2406  0.4124
  356TMC3    O1 5394   2.863   2.598  12.632  0.4573 -0.3915 -0.3241
  356TMC3    O2 5395   2.833   2.376  12.000 -0.1443  0.0867  0.1545
  357MPD2     C 5396   2.123   2.602   1.012  0.6244 -0.1809  0.5229
  357MPD2    C1 5397   2.085   2.501   0.930 -0.8279 -0.4655  0.1846
  357MPD2    C2 5398   1.953   2.460   0.926  0.1388  0.6242  0.3343
  357MPD2    C3 5399   1.865   2.535   1.001  0.0003 -0.5100  0.2899
  357MPD2    C4 5400   1.899   2.658   1.060  0.0232 -0.5808 -0.1600
  357MPD2    C5 5401   2.034   2.682   1.082 -0.1316 -0.4317 -0.1760
  357MPD2     H 5402   1.929   2.360   0.892  2.2914 -0.6872  2.6362
  357MPD2    H1 5403   1.824   2.716   1.113  2.3110  2.0176  0.2503
  357MPD2    H2 5404   2.231   2.614   1.013  0.5360  0.6151  1.2734
  357MPD2    H3 5405   2.067   2.773   1.130  0.8789  0.1924 -2.0532
  357MPD2     N 5406   1.729   2.497   1.014  0.4247  0.1517  0.3558
  357MPD2    H5 5407   1.667   2.556   1.068 -1.1567  0.9588 -2.3291
  357MPD2    N1 5408   2.179   2.403   0.891  0.0275  0.0933 -0.8335
  357MPD2    H7 5409   2.263   2.403   0.948 -0.4089 -1.4239 -0.1895
  358TMC3    C1 5410   2.254   2.200   0.820 -0.0186 -0.3464 -0.9537
  358TMC3    C2 5411   2.261   2.119   0.708  0.2924  0.0562 -0.4444
  358TMC3    C3 5412   2.275   1.988   0.739 -0.6379 -0.4294  0.1998
  358TMC3    C4 5413   2.265   2.148   0.949 -0.1771  0.6387  0.4131
  358TMC3    C5 5414   2.291   2.013   0.967 -0.9291 -0.3960 -0.3504
  358TMC3    C6 5415   2.303   1.929   0.862  0.4641 -0.5908 -0.1328
  358TMC3     C 5416   2.152   2.297   0.798  0.9691 -0.0668 -0.7330
  358TMC3     O 5417   2.069   2.266   0.716  0.7648  0.4811  0.3100
  358TMC3     H 5418   2.230   2.153   0.610 -2.9154  1.1926  0.9578
  358TMC3    H1 5419   2.251   2.216   1.033  0.1766  1.9681 -0.5908
  358TMC3    H2 5420   2.316   1.825   0.887  1.3993 -1.3573 -3.9697
  358TMC3    C7 5421   2.293   1.944   1.100  0.9559  0.2446  0.4173
  358TMC3    C8 5422   2.221   1.906   0.630 -0.6294 -0.2374  0.0819
  358TMC3    O1 5423   2.333   1.828   1.095 -0.3047 -0.0903  0.2499
  358TMC3    O2 5424   2.240   1.953   0.521 -0.3584  0.3830 -0.1590
  359MPD2     C 5425   2.773   1.531  12.458 -0.1399  0.1180 -0.6269
  359MPD2    C1 5426   2.723   1.436  12.373 -0.0904 -0.0189 -0.3535
  359MPD2    C2 5427   2.620   1.355  12.415  0.0494  0.2082 -0.3141
  359MPD2    C3 5428   2.589   1.347  12.554 -0.5411 -0.0925 -0.3044
  359MPD2    C4 5429   2.649   1.438  12.637 -0.3010  0.9365 -0.4107
  359MPD2    C5 5430   2.734   1.529  12.587 -0.3119  0.2534 -0.4560
  359MPD2     H 5431   2.568   1.286  12.351 -0.5718  0.1121  0.2860
  359MPD2    H1 5432   2.623   1.447  12.742  0.8475  0.4735 -0.0919
  359MPD2    H2 5433   2.842   1.608  12.427  0.3751  0.0787  0.4221
  359MPD2    H3 5434   2.777   1.608  12.648 -1.7897  1.2331 -0.6767
  359MPD2     N 5435   2.495   1.258  12.616 -0.5381  0.4518  0.0387
  359MPD2    H5 5436   2.472   1.268  12.714 -1.0015 -0.4216  0.0193
  359MPD2    N1 5437   2.762   1.419  12.240  0.8079  0.5563  0.0300
  359MPD2    H7 5438   2.711   1.354  12.181 -0.9954  0.8476  1.2709
  360TMC3    C1 5439   2.883   1.464  12.049 -0.3679  0.1127 -0.3491
  360TMC3    C2 5440   2.983   1.530  11.983  0.3705  0.2986  0.0819
  360TMC3    C3 5441   3.030   1.478  11.869 -0.5267  0.5819 -0.0935
  360TMC3    C4 5442   2.841   1.339  11.998 -0.1546  0.0906  0.1780
  360TMC3    C5 5443   2.900   1.291  11.881  0.6492  0.3084  0.9822
  360TMC3    C6 5444   2.995   1.358  11.816  0.3125  0.6112 -0.2367
  360TMC3     C 5445   2.867   1.489  12.189  0.9215 -0.1649  0.4567
  360TMC3     O 5446   2.945   1.572  12.233  0.5204 -0.2746  0.2428
  360TMC3     H 5447   3.009   1.633  12.006  0.6084  0.3480 -0.4043
  360TMC3    H1 5448   2.773   1.271  12.047  1.2052 -1.1450  0.3729
  360TMC3    H2 5449   3.014   1.332  11.712 -0.7586 -1.3439  0.0452
  360TMC3    C7 5450   2.827   1.232  11.781 -0.4511 -0.0048 -0.7604
  360TMC3    C8 5451   3.106   1.569  11.777 -0.0398 -0.1745 -0.0020
  360TMC3    O1 5452   2.792   1.311  11.699  0.2237  0.7222 -0.2231
  360TMC3    O2 5453   3.051   1.676  11.755  0.1611  0.4529  0.1523
  361MPD2     C 5454   3.917   0.257  16.577  0.3922  0.5231  0.1459
  361MPD2    C1 5455   3.889   0.304  16.702 -0.0681  0.3139  0.2147
  361MPD2    C2 5456   3.917   0.234  16.813 -0.6560  0.3053 -0.0294
  361MPD2    C3 5457   3.973   0.103  16.803  0.2731  0.3758  0.4967
  361MPD2    C4 5458   4.012   0.062  16.680  0.2870 -0.4620 -0.4953
  361MPD2    C5 5459   3.974   0.130  16.569  0.1336 -0.4185 -0.6603
  361MPD2     H 5460   3.896   0.265  16.915  0.7383 -0.9759  0.6317
  361MPD2    H1 5461   4.062   4.703  16.662 -0.7435 -1.0456 -0.2782
  361MPD2    H2 5462   3.900   0.324  16.493 -0.1749 -0.9388 -0.8962
  361MPD2    H3 5463   4.008   0.093  16.473  0.8198 -0.5071 -0.3843
  361MPD2     N 5464   4.001   0.014  16.917  0.2538  0.3010 -0.1304
  361MPD2    H5 5465   4.042   4.661  16.890 -0.1675  0.4329 -1.1713
  361MPD2    N1 5466   3.828   0.425  16.726 -0.0002 -0.4376 -0.1439
  361MPD2    H7 5467   3.828   0.452  16.824 -1.1987  0.6630 -0.4486
  362TMC3    C1 5468   3.697   0.623  16.692  0.3618  0.1639 -0.0286
  362TMC3    C2 5469   3.652   0.643  16.823  0.9614 -0.4300 -0.5603
  362TMC3    C3 5470   3.578   0.755  16.847  0.2055 -0.0753  0.7480
  362TMC3    C4 5471   3.660   0.710  16.598 -0.2763 -0.4124 -0.3669
  362TMC3    C5 5472   3.586   0.816  16.629 -0.3168 -0.1055  0.2015
  362TMC3    C6 5473   3.541   0.851  16.753 -0.0992  0.4525 -0.4177
  362TMC3     C 5474   3.750   0.497  16.639  0.1461  0.3895  0.5533
  362TMC3     O 5475   3.708   0.471  16.524 -0.3541 -0.2566  0.3199
  362TMC3     H 5476   3.682   0.570  16.896  1.2266  1.8577  1.5978
  362TMC3    H1 5477   3.698   0.697  16.497  0.0833 -1.1466 -0.1374
  362TMC3    H2 5478   3.485   0.944  16.757 -1.3972 -0.3533  0.1930
  362TMC3    C7 5479   3.562   0.911  16.517  0.3236  0.7582 -0.8093
  362TMC3    C8 5480   3.551   0.799  16.981 -0.2582 -0.4788 -0.3339
  362TMC3    O1 5481   3.538   1.026  16.542  0.0522 -0.8995 -0.1463
  362TMC3    O2 5482   3.633   0.762  17.066 -0.5138  0.3110 -0.1891
  363TMC3    C1 5483   2.434   2.449   8.766  0.1513 -0.5920 -0.3529
  363TMC3    C2 5484   2.547   2.425   8.842  0.1423  0.0917  0.2710
  363TMC3    C3 5485   2.561   2.504   8.954 -0.6335  0.6155 -0.1190
  363TMC3    C4 5486   2.339   2.546   8.792 -0.0801  0.0870 -0.1958
  363TMC3    C5 5487   2.365   2.618   8.907  0.0616  0.4373  0.4630
  363TMC3    C6 5488   2.473   2.604   8.991 -0.3192 -0.9962  0.2761
  363TMC3     C 5489   2.419   2.399   8.632  0.0337  0.2451 -0.0436
  363TMC3     O 5490   2.355   2.469   8.556 -0.5927  0.2275  0.0756
  363TMC3     H 5491   2.623   2.353   8.811  1.0512  0.5454  1.4083
  363TMC3    H1 5492   2.252   2.552   8.727 -1.2755 -0.5188  1.3567
  363TMC3    H2 5493   2.482   2.664   9.081 -2.4748 -0.9354  0.4571
  363TMC3    C7 5494   2.255   2.697   8.958  0.3197 -0.3494  0.3754
  363TMC3    C8 5495   2.658   2.468   9.054  0.0405  0.4394 -0.3003
  363TMC3    O1 5496   2.282   2.785   9.040 -0.3465  0.3921 -0.3278
  363TMC3    O2 5497   2.655   2.536   9.152  0.2956  0.2221 -0.6564
  364MPD2     C 5498   1.754   1.993  10.899  0.3727 -0.3504  0.3641
  364MPD2    C1 5499   1.848   1.982  10.795  0.0359 -0.0147 -0.4528
  364MPD2    C2 5500   1.857   1.864  10.721  0.1208 -0.3804 -0.1835
  364MPD2    C3 5501   1.790   1.754  10.769  0.6633  0.1454 -0.1903
  364MPD2    C4 5502   1.712   1.759  10.883 -0.0773  0.0783 -0.1620
  364MPD2    C5 5503   1.679   1.883  10.939 -0.0524 -0.8505  0.4515
  364MPD2     H 5504   1.924   1.850  10.637  1.2845 -1.8979  1.0219
  364MPD2    H1 5505   1.667   1.669  10.923  0.3660 -0.4466 -0.8507
  364MPD2    H2 5506   1.745   2.088  10.951 -0.3668 -0.5578  0.6221
  364MPD2    H3 5507   1.607   1.886  11.020 -0.4941 -0.2959  0.0359
  364MPD2     N 5508   1.807   1.628  10.714  0.0495  0.3427  0.0815
  364MPD2    H5 5509   1.749   1.559  10.761  2.2767 -2.0264 -0.6672
  364MPD2    N1 5510   1.933   2.094  10.762 -0.1865 -0.0970 -0.0294
  364MPD2    H7 5511   1.928   2.177  10.819  0.6336 -1.5590  2.1408
  365TMC3    C1 5512   2.046   2.242  10.622  0.2364  0.0437 -0.3587
  365TMC3    C2 5513   2.113   2.267  10.504 -0.5494 -0.5009 -0.5729
  365TMC3    C3 5514   2.149   2.397  10.479  0.2696  0.0151  0.1628
  365TMC3    C4 5515   2.015   2.341  10.709  0.5729  0.0456  0.5465
  365TMC3    C5 5516   2.039   2.471  10.673  0.8555  0.0243  0.2435
  365TMC3    C6 5517   2.111   2.499  10.556 -0.3511 -0.8497 -0.8710
  365TMC3     C 5518   2.000   2.108  10.645  0.5802 -0.3381  0.1408
  365TMC3     O 5519   2.026   2.032  10.554  0.3071 -0.4821 -0.3038
  365TMC3     H 5520   2.159   2.187  10.447 -0.0494 -0.3816 -0.3431
  365TMC3    H1 5521   1.968   2.323  10.805 -1.6559  0.9091 -0.3845
  365TMC3    H2 5522   2.135   2.603  10.539 -0.7912 -0.9391 -2.0560
  365TMC3    C7 5523   2.000   2.593  10.752 -0.3533 -0.3045  0.4054
  365TMC3    C8 5524   2.257   2.415  10.393  0.1776  0.3487  0.0037
  365TMC3    O1 5525   2.084   2.685  10.756  0.4475 -0.0495  0.5563
  365TMC3    O2 5526   2.319   2.519  10.407 -0.3302 -0.4317  0.5808
  366MPD2     C 5527   4.003   3.231  15.301 -0.1824  0.7783 -0.3963
  366MPD2    C1 5528   4.132   3.282  15.309  0.0423  0.1230  0.5893
  366MPD2    C2 5529   4.237   3.194  15.288  0.0871  0.5018  0.4257
  366MPD2    C3 5530   4.215   3.062  15.244  0.3713  0.3718 -0.1893
  366MPD2    C4 5531   4.086   3.023  15.227  0.4736 -0.4213  0.0002
  366MPD2    C5 5532   3.980   3.101  15.264 -0.1616  0.9544 -0.1572
  366MPD2     H 5533   4.338   3.233  15.296 -0.1817  1.0212  1.3285
  366MPD2    H1 5534   4.060   2.930  15.177  1.2618 -1.3761  1.3655
  366MPD2    H2 5535   3.915   3.293  15.312  0.7578  1.6350  2.4158
  366MPD2    H3 5536   3.879   3.063  15.266 -0.1506  0.9367  0.1122
  366MPD2     N 5537   4.330   2.995  15.198 -0.2070  0.3254 -0.4692
  366MPD2    H5 5538   4.425   3.027  15.217 -0.4996  0.4255  0.8168
  366MPD2    N1 5539   4.154   3.413  15.341  0.0175 -0.7265  0.3148
  366MPD2    H7 5540   4.251   3.444  15.350 -0.4035  0.2305  1.5748
  367TMC3    C1 5541   4.105   3.650  15.327 -0.1249  0.1305  0.3146
  367TMC3    C2 5542   4.220   3.675  15.400 -0.5462 -0.1132  1.0986
  367TMC3    C3 5543   4.300   3.775  15.365  0.3805 -0.0426  0.5832
  367TMC3    C4 5544   4.068   3.729  15.220  0.2425  0.2470  0.6887
  367TMC3    C5 5545   4.158   3.822  15.189  0.1215 -0.7540 -0.2407
  367TMC3    C6 5546   4.274   3.854  15.254  0.5067  0.2361  0.2663
  367TMC3     C 5547   4.058   3.513  15.329 -0.2763  0.0255 -0.2180
  367TMC3     O 5548   3.940   3.515  15.296 -0.4274 -0.2070  0.3490
  367TMC3     H 5549   4.238   3.614  15.488 -3.6447 -1.4393  0.8181
  367TMC3    H1 5550   3.968   3.740  15.182  0.3582 -0.0977  0.2921
  367TMC3    H2 5551   4.346   3.918  15.205  0.9444  0.3452  1.0548
  367TMC3    C7 5552   4.140   3.886  15.058  0.0759  0.7061  0.6262
  367TMC3    C8 5553   4.378   3.833  15.472 -0.9027  0.1168 -0.7749
  367TMC3    O1 5554   4.143   4.009  15.055 -0.2516  0.4696 -0.0610
  367TMC3    O2 5555   4.363   3.789  15.585  1.1759  0.8508  0.1919
  368MPD2     C 5556   1.235   4.721  13.257 -0.2286 -0.7032 -0.1362
  368MPD2    C1 5557   1.238   0.086  13.161 -0.0392  0.5507 -0.1332
  368MPD2    C2 5558   1.352   0.110  13.090  0.7188 -1.0291  0.0688
  368MPD2    C3 5559   1.460   0.025  13.113 -1.3097 -0.2569  0.6976
  368MPD2    C4 5560   1.454   4.671  13.214 -0.7510  0.1780  0.1243
  368MPD2    C5 5561   1.342   4.642  13.280 -0.3870 -0.1221 -0.3075
  368MPD2     H 5562   1.366   0.189  13.017  1.4538  0.4031  1.7511
  368MPD2    H1 5563   1.534   4.605  13.248  1.5442  0.8231 -4.0973
  368MPD2    H2 5564   1.144   4.705  13.314 -1.1004  0.6788 -1.1539
  368MPD2    H3 5565   1.346   4.571  13.362 -1.3223  1.4968  1.1443
  368MPD2     N 5566   1.581   0.034  13.044  0.0969  0.5489  0.3292
  368MPD2    H5 5567   1.667   4.736  13.086 -0.4561 -0.2683  0.8114
  368MPD2    N1 5568   1.125   0.165  13.150  0.5754  0.3475  0.0016
  368MPD2    H7 5569   1.045   0.139  13.207 -0.5214 -2.3412 -2.7943
  369TMC3    C1 5570   0.980   0.330  13.073  0.4394  0.3969 -0.1577
  369TMC3    C2 5571   0.973   0.459  13.027 -1.3432 -0.6352  0.5887
  369TMC3    C3 5572   0.857   0.506  12.967  0.3037  0.6388  0.1324
  369TMC3    C4 5573   0.875   0.248  13.058 -0.4039  0.8029  0.1601
  369TMC3    C5 5574   0.763   0.297  13.006 -0.0125  0.2924  0.0055
  369TMC3    C6 5575   0.747   0.428  12.960 -0.4521  0.1451 -0.3026
  369TMC3     C 5576   1.112   0.279  13.072  0.9679 -0.4163 -0.4536
  369TMC3     O 5577   1.196   0.344  13.009  0.2301 -0.0476 -0.2932
  369TMC3     H 5578   1.063   0.517  13.045 -2.3567  1.6231 -1.4791
  369TMC3    H1 5579   0.870   0.145  13.093  2.3356  0.7413  0.3218
  369TMC3    H2 5580   0.651   0.461  12.921 -2.3578 -4.0133  0.8094
  369TMC3    C7 5581   0.643   0.222  13.025  0.4899 -0.4881 -0.4950
  369TMC3    C8 5582   0.847   0.639  12.910 -0.7303 -0.4427 -0.1829
  369TMC3    O1 5583   0.642   0.156  13.127  0.0314 -0.1632  0.3727
  369TMC3    O2 5584   0.738   0.668  12.859  0.0622 -0.0493 -0.4001
  370TMC3    C1 5585   0.300   1.161  16.147  0.4988  0.3349  0.0873
  370TMC3    C2 5586   0.172   1.139  16.203 -0.0127  0.3099  0.8539
  370TMC3    C3 5587   0.107   1.029  16.170  0.4419  0.2096  0.2889
  370TMC3    C4 5588   0.346   1.085  16.044 -0.4070  0.1882  0.0635
  370TMC3    C5 5589   0.279   0.972  16.023 -0.5345 -0.1622  0.3129
  370TMC3    C6 5590   0.160   0.942  16.084  0.1321 -0.1537 -0.1536
  370TMC3     C 5591   0.397   1.234  16.217  0.4055  0.3653 -0.3230
  370TMC3     O 5592   0.378   1.253  16.335  0.2520  0.1583  0.3028
  370TMC3     H 5593   0.156   1.201  16.290  0.4190 -1.9699  2.5580
  370TMC3    H1 5594   0.440   1.090  15.989 -0.5323 -1.4758 -0.3036
  370TMC3    H2 5595   0.105   0.864  16.033 -0.3813 -0.7420  1.3178
  370TMC3    C7 5596   0.325   0.904  15.902  0.2640 -0.2376  0.7301
  370TMC3    C8 5597   0.042   0.956  16.281  0.2067  0.1843  0.2038
  370TMC3    O1 5598   0.366   0.974  15.807 -0.0022  0.6099 -0.4570
  370TMC3    O2 5599   0.051   0.834  16.283 -0.1765  0.5495 -0.4664
  371TMC3    C1 5600   1.668   4.155  15.431  0.0697  0.0690  0.3272
  371TMC3    C2 5601   1.600   4.125  15.549  0.0074  0.6276  0.3450
  371TMC3    C3 5602   1.556   4.238  15.619 -0.0915  0.4459 -0.2190
  371TMC3    C4 5603   1.704   4.279  15.401 -0.0913  0.0008 -0.5800
  371TMC3    C5 5604   1.649   4.380  15.474  0.2142  0.5203 -0.1252
  371TMC3    C6 5605   1.587   4.369  15.587  0.2981 -0.0404 -0.1178
  371TMC3     C 5606   1.759   4.059  15.379  0.1186 -0.5133  0.1092
  371TMC3     O 5607   1.852   4.103  15.317 -0.2726 -0.2889 -0.3034
  371TMC3     H 5608   1.586   4.026  15.591 -0.6487  0.8695  0.6877
  371TMC3    H1 5609   1.723   4.286  15.294  0.7878  1.8801 -0.2997
  371TMC3    H2 5610   1.538   4.451  15.639  2.7234  1.2865  0.0675
  371TMC3    C7 5611   1.677   4.519  15.428 -0.0742  0.7667 -0.3707
  371TMC3    C8 5612   1.472   4.211  15.738 -0.3725 -0.2824 -0.2507
  371TMC3    O1 5613   1.598   4.606  15.468 -0.5771 -0.1358 -0.1995
  371TMC3    O2 5614   1.486   4.112  15.805  0.0160  0.2585  0.1726
  372MPD2     C 5615   0.958   0.166  13.658 -0.3897  0.2510  0.2941
  372MPD2    C1 5616   1.073   0.086  13.652  1.0228 -0.5844  0.0877
  372MPD2    C2 5617   1.057   4.692  13.704  0.6683 -0.3091  0.0012
  372MPD2    C3 5618   0.937   4.656  13.767  0.0889 -0.4414 -0.3219
  372MPD2    C4 5619   0.831   0.012  13.778  0.3924  0.8771 -0.0170
  372MPD2    C5 5620   0.845   0.137  13.720 -1.1192 -0.2505 -0.3058
  372MPD2     H 5621   1.140   4.622  13.701 -0.4673 -1.7057  1.5758
  372MPD2    H1 5622   0.735   4.714  13.816  1.7621 -1.0102  1.7546
  372MPD2    H2 5623   0.970   0.269  13.626 -1.4913  0.2410 -0.1648
  372MPD2    H3 5624   0.769   0.213  13.725 -0.5987  0.1233  2.0505
  372MPD2     N 5625   0.922   4.520  13.806  0.0176  0.5831 -0.2961
  372MPD2    H5 5626   1.002   4.457  13.796 -2.5850 -2.8662  0.6666
  372MPD2    N1 5627   1.195   0.125  13.595 -0.0366  0.0876  0.0175
  372MPD2    H7 5628   1.275   0.066  13.615  1.6424  1.8893 -1.3239
  373TMC3    C1 5629   0.829   4.331  13.909 -0.0675 -0.0820  0.1396
  373TMC3    C2 5630   0.808   4.294  14.040 -0.2909  0.6937  0.3275
  373TMC3    C3 5631   0.848   4.166  14.083  0.2686  0.2316  0.0739
  373TMC3    C4 5632   0.907   4.252  13.824  0.3938 -0.0237  0.3178
  373TMC3    C5 5633   0.937   4.127  13.868  0.9017  0.0380 -0.5861
  373TMC3    C6 5634   0.913   4.086  13.995  0.4674  0.5200  0.1152
  373TMC3     C 5635   0.816   4.473  13.877  0.1605  0.7617 -0.8180
  373TMC3     O 5636   0.728   4.532  13.940  0.0971 -0.7187  0.1466
  373TMC3     H 5637   0.750   4.354  14.108  1.2246  0.5936  1.7081
  373TMC3    H1 5638   0.906   4.268  13.717  0.4903 -0.8765  0.1919
  373TMC3    H2 5639   0.951   3.992  14.033  0.5808  0.9302  1.0166
  373TMC3    C7 5640   1.040   4.061  13.794  0.3284  0.2512  0.6260
  373TMC3    C8 5641   0.911   4.163  14.215  0.0324  0.9920 -0.1313
  373TMC3    O1 5642   1.097   4.129  13.711  0.4763 -0.0491  0.5934
  373TMC3    O2 5643   0.994   4.072  14.231 -0.0062  0.0967  0.4365
  374TMC3    C1 5644   1.775   0.709   9.871  0.1400 -0.7902 -1.0532
  374TMC3    C2 5645   1.909   0.691   9.844  0.0356  0.5818  0.1336
  374TMC3    C3 5646   1.969   0.788   9.773  0.4156  0.4293 -0.1162
  374TMC3    C4 5647   1.699   0.803   9.802  0.4682  0.6656 -0.0831
  374TMC3    C5 5648   1.763   0.893   9.713  0.1548  0.1764 -0.9047
  374TMC3    C6 5649   1.905   0.889   9.702 -0.3681  0.2935 -0.3979
  374TMC3     C 5650   1.718   0.601   9.954 -0.3505 -0.0813 -0.3845
  374TMC3     O 5651   1.798   0.535  10.016 -0.1236 -0.1444  0.0712
  374TMC3     H 5652   1.966   0.611   9.890  0.0213  0.5272  0.0563
  374TMC3    H1 5653   1.592   0.818   9.812  0.3988  0.7669 -0.9755
  374TMC3    H2 5654   1.949   0.958   9.632 -0.6549  0.8291 -0.0577
  374TMC3    C7 5655   1.667   0.973   9.635  0.3037 -0.0788  1.0122
  374TMC3    C8 5656   2.113   0.795   9.777 -0.0386 -0.2872 -0.9263
  374TMC3    O1 5657   1.552   0.931   9.621 -0.6887  0.3873 -0.4038
  374TMC3    O2 5658   2.160   0.859   9.685  0.4087  0.0536  0.1111
  375MPD2     C 5659   1.810   1.779  16.949 -0.4147  0.6338  0.1561
  375MPD2    C1 5660   1.714   1.687  16.913 -0.2144  0.4936 -0.2200
  375MPD2    C2 5661   1.753   1.566  16.864  0.3337 -0.0066  0.1427
  375MPD2    C3 5662   1.882   1.546  16.825 -0.3122  1.2096 -0.2367
  375MPD2    C4 5663   1.976   1.640  16.853  0.2416  0.7821 -1.0406
  375MPD2    C5 5664   1.941   1.756  16.915 -0.2481 -1.1918  0.6710
  375MPD2     H 5665   1.674   1.499  16.832  2.0744 -1.6671 -0.7085
  375MPD2    H1 5666   2.080   1.635  16.825  1.5298 -2.8554  4.3497
  375MPD2    H2 5667   1.791   1.870  17.005 -2.1078  0.5374 -0.2690
  375MPD2    H3 5668   2.022   1.822  16.942  1.5312 -1.9833 -2.6691
  375MPD2     N 5669   1.920   1.429  16.746 -0.2727  0.4338  0.3804
  375MPD2    H5 5670   2.016   1.420  16.714  0.2702  0.2716  2.0530
  375MPD2    N1 5671   1.577   1.709  16.943  0.0994 -0.1128  0.0341
  375MPD2    H7 5672   1.514   1.630  16.935  0.1398 -0.1958  0.4931
  376TMC3    C1 5673   1.893   1.247  16.594 -0.4950 -0.5806  0.5087
  376TMC3    C2 5674   2.023   1.210  16.621  0.3836 -0.3372  0.3425
  376TMC3    C3 5675   2.076   1.122  16.539  0.4382  0.9062  0.4239
  376TMC3    C4 5676   1.818   1.192  16.494  0.5745 -1.2257  0.5743
  376TMC3    C5 5677   1.876   1.105  16.405  0.3466  0.1112 -0.0557
  376TMC3    C6 5678   2.008   1.066  16.429 -0.9431 -0.7043 -0.1695
  376TMC3     C 5679   1.831   1.356  16.664 -0.2915  0.2495  0.1750
  376TMC3     O 5680   1.713   1.383  16.648 -0.2035 -0.5336 -0.3112
  376TMC3     H 5681   2.083   1.264  16.694  0.2736  2.4894 -1.6667
  376TMC3    H1 5682   1.723   1.234  16.463  1.1790 -0.5101 -0.2953
  376TMC3    H2 5683   2.062   1.007  16.355  1.1548 -0.9347  1.5406
  376TMC3    C7 5684   1.839   1.102  16.263 -0.1390 -0.3843 -0.2998
  376TMC3    C8 5685   2.220   1.117  16.534  0.3353  0.0869 -0.1912
  376TMC3    O1 5686   1.935   1.080  16.189 -0.9126  0.5185  0.0777
  376TMC3    O2 5687   2.285   1.220  16.540 -0.0457  0.1303 -0.2058
  377MPD2     C 5688   0.594   0.598  12.387 -0.4461  0.2824 -0.3340
  377MPD2    C1 5689   0.468   0.557  12.353  0.5569 -0.1708 -0.1520
  377MPD2    C2 5690   0.368   0.535  12.455 -0.1859  0.4146  0.3419
  377MPD2    C3 5691   0.406   0.544  12.586  0.0775 -0.3245 -0.3991
  377MPD2    C4 5692   0.534   0.577  12.619  0.0105  0.2388 -0.2272
  377MPD2    C5 5693   0.629   0.608  12.518  0.0105  0.0113 -0.3045
  377MPD2     H 5694   0.263   0.522  12.431 -0.2380 -1.2696  1.5053
  377MPD2    H1 5695   0.568   0.582  12.722  1.5655  0.1799 -0.7357
  377MPD2    H2 5696   0.666   0.626  12.311 -0.0838 -1.1717 -0.5164
  377MPD2    H3 5697   0.727   0.650  12.538  0.5269 -0.8625 -1.0242
  377MPD2     N 5698   0.314   0.527  12.692 -0.3158  0.2446  0.1732
  377MPD2    H5 5699   0.342   0.553  12.785 -1.7160  0.9155  0.4033
  377MPD2    N1 5700   0.437   0.570  12.212  0.3779  0.0907 -0.3371
  377MPD2    H7 5701   0.499   0.613  12.144 -0.1786  0.6916 -0.4651
  378TMC3    C1 5702   0.160   0.586  11.846 -0.0791  0.2872  0.5357
  378TMC3    C2 5703   0.183   0.556  11.976  0.0504  0.3116 -0.3294
  378TMC3    C3 5704   0.308   0.540  12.024 -0.6419 -0.7215 -0.2750
  378TMC3    C4 5705   0.266   0.617  11.761  0.1740  0.0714 -0.3290
  378TMC3    C5 5706   0.390   0.617  11.819 -0.4480  0.5671 -0.3294
  378TMC3    C6 5707   0.415   0.581  11.950  0.9574 -0.0305 -0.3490
  378TMC3     C 5708   0.021   0.605  11.799 -0.3603 -0.1573  0.3248
  378TMC3     O 5709   4.671   0.621  11.886  0.0478 -0.2005  0.0642
  378TMC3     H 5710   0.098   0.533  12.040  2.9778 -0.1507  3.3935
  378TMC3    H1 5711   0.250   0.645  11.658 -0.2848 -2.9735 -1.0839
  378TMC3    H2 5712   0.517   0.572  11.985  0.7369  2.0990  0.8227
  378TMC3    C7 5713   0.507   0.650  11.740  0.7050  0.1762  0.4057
  378TMC3    C8 5714   0.317   0.525  12.163 -0.6617  0.6232 -0.3668
  378TMC3    O1 5715   0.614   0.649  11.797  0.4134 -0.5713  0.3211
  378TMC3    O2 5716   0.224   0.473  12.220  0.3096 -0.2262  0.3068
  379MPD2     C 5717   0.814   3.762  16.159  0.1193 -0.0460 -0.6134
  379MPD2    C1 5718   0.697   3.768  16.236 -0.7427  0.1504 -0.5810
  379MPD2    C2 5719   0.701   3.773  16.373 -0.0934  0.4696 -0.1649
  379MPD2    C3 5720   0.822   3.770  16.441  0.4178  0.3175 -0.0590
  379MPD2    C4 5721   0.932   3.764  16.361 -0.6781 -0.1235 -0.5584
  379MPD2    C5 5722   0.930   3.759  16.226 -0.1871  0.3034 -0.0231
  379MPD2     H 5723   0.608   3.791  16.424  1.2711  0.2507  2.3662
  379MPD2    H1 5724   1.031   3.760  16.404 -0.0074  0.2845 -2.0724
  379MPD2    H2 5725   0.818   3.751  16.051  2.3353  0.7337 -0.6015
  379MPD2    H3 5726   1.027   3.750  16.179 -0.1392 -1.4303  0.4280
  379MPD2     N 5727   0.837   3.752  16.579 -0.2250  0.0677 -0.1211
  379MPD2    H5 5728   0.933   3.728  16.603 -0.1819 -1.2842 -1.6695
  379MPD2    N1 5729   0.580   3.762  16.166 -0.0210  0.3923  0.3114
  379MPD2    H7 5730   0.594   3.751  16.066 -0.2052  3.7289 -0.0681
  380TMC3    C1 5731   0.365   3.762  16.094  0.0774  0.5148 -0.2133
  380TMC3    C2 5732   0.392   3.650  16.026  0.3830 -0.1578 -0.1306
  380TMC3    C3 5733   0.328   3.632  15.906  0.5717 -0.6016  0.3720
  380TMC3    C4 5734   0.287   3.866  16.045 -0.3802  0.1338 -0.8001
  380TMC3    C5 5735   0.215   3.842  15.928  0.6622  0.0433 -0.0031
  380TMC3    C6 5736   0.239   3.725  15.855  0.3935  0.9964  0.4075
  380TMC3     C 5737   0.449   3.787  16.208 -0.0024  0.8586  0.3379
  380TMC3     O 5738   0.409   3.846  16.303  0.4359 -0.3464  0.6999
  380TMC3     H 5739   0.449   3.567  16.066 -0.0994  0.5518  2.0121
  380TMC3    H1 5740   0.277   3.957  16.103  0.4174 -0.5833  0.4692
  380TMC3    H2 5741   0.189   3.702  15.762  1.2790  3.0230 -0.5414
  380TMC3    C7 5742   0.156   3.953  15.857 -0.4806  0.0027  0.2172
  380TMC3    C8 5743   0.377   3.521  15.825 -0.2802  0.1901  0.3215
  380TMC3    O1 5744   0.166   4.063  15.910 -0.0166 -0.5267  0.4095
  380TMC3    O2 5745   0.419   3.422  15.889 -0.2229  0.0550  0.4557
  381TMC3    C1 5746   4.723   0.258  16.119 -0.5255 -0.2757  0.2728
  381TMC3    C2 5747   0.088   0.348  16.125  0.1746 -0.0806  0.2786
  381TMC3    C3 5748   0.093   0.437  16.231  0.0912 -0.4933 -0.6165
  381TMC3    C4 5749   4.637   0.246  16.224  0.4472  0.5307  0.0072
  381TMC3    C5 5750   4.646   0.336  16.325  0.0977 -0.2017  0.2214
  381TMC3    C6 5751   4.734   0.436  16.329 -0.6216 -0.3090  0.7282
  381TMC3     C 5752   0.010   0.138  16.038 -0.2970  0.3879 -0.3063
  381TMC3     O 5753   0.061   0.167  15.930  0.4467 -0.2120 -0.4405
  381TMC3     H 5754   0.157   0.349  16.041 -1.6204 -1.1968 -1.2162
  381TMC3    H1 5755   4.549   0.184  16.217  2.2994 -2.0564 -0.4562
  381TMC3    H2 5756   0.011   0.498  16.417  0.0113 -2.1774  1.9486
  381TMC3    C7 5757   4.578   0.299  16.446  0.2235  0.2134  0.5779
  381TMC3    C8 5758   0.210   0.526  16.224  0.2835 -0.1447  0.1015
  381TMC3    O1 5759   4.583   0.181  16.474 -0.7546  0.1752 -0.5319
  381TMC3    O2 5760   0.273   0.518  16.117 -0.5729  0.0222 -0.3697
  382MPD2     C 5761   4.609   2.583   0.231  0.4020  1.0297 -0.2516
  382MPD2    C1 5762   4.553   2.553   0.108  0.6266 -0.5888 -0.6220
  382MPD2    C2 5763   4.530   2.420   0.071  0.3939 -0.1300  0.0525
  382MPD2    C3 5764   4.562   2.315   0.153  0.2976 -0.4207 -0.4599
  382MPD2    C4 5765   4.624   2.351   0.274  0.4675 -0.3164 -0.8551
  382MPD2    C5 5766   4.651   2.481   0.310  0.2736 -0.3660 -0.1451
  382MPD2     H 5767   4.487   2.398  17.715 -0.3843 -2.3309  0.8789
  382MPD2    H1 5768   4.652   2.273   0.344  1.2791 -0.5496 -1.4457
  382MPD2    H2 5769   4.622   2.686   0.261 -1.3114  1.6311 -1.5849
  382MPD2    H3 5770   4.702   2.518   0.398 -1.1332  0.3958  0.3476
  382MPD2     N 5771   4.525   2.178   0.149 -0.3751 -0.2157 -0.2110
  382MPD2    H5 5772   4.556   2.121   0.227 -0.1965  1.6455  1.0871
  382MPD2    N1 5773   4.514   2.661   0.029 -0.1982 -0.2697  0.1043
  382MPD2    H7 5774   4.538   2.756   0.057 -1.8832 -0.7358  3.1289
  383TMC3    C1 5775   4.425   1.983   0.057 -0.1230 -0.4177 -0.8017
  383TMC3    C2 5776   4.341   1.948  17.694 -0.1605 -0.2309  1.2086
  383TMC3    C3 5777   4.253   1.851  17.723 -0.5342 -0.3705 -0.1565
  383TMC3    C4 5778   4.404   1.931   0.185 -0.2632  0.0736 -0.0778
  383TMC3    C5 5779   4.309   1.844   0.210 -0.9089  0.1697 -0.4005
  383TMC3    C6 5780   4.233   1.799   0.106 -0.4203  0.1085  0.0844
  383TMC3     C 5781   4.468   2.120   0.038 -0.0513  0.1921 -0.2874
  383TMC3     O 5782   4.429   2.172  17.674 -0.5787 -0.4706  0.3173
  383TMC3     H 5783   4.360   1.984  17.594 -0.4230 -0.6149  1.0202
  383TMC3    H1 5784   4.463   1.963   0.270 -0.9984  0.0243  0.4467
  383TMC3    H2 5785   4.148   1.735   0.123  0.3711 -1.0923 -0.4321
  383TMC3    C7 5786   4.283   1.794   0.340 -1.1666  0.4441  0.2680
  383TMC3    C8 5787   4.175   1.784  17.614 -0.7395 -0.0481 -0.0918
  383TMC3    O1 5788   4.212   1.698   0.343 -0.2247 -0.4159 -0.5203
  383TMC3    O2 5789   4.142   1.668  17.635 -0.4187 -0.4492 -0.1619
  384MPD2     C 5790   1.708   3.597  12.051  0.4555 -0.2323 -0.8003
  384MPD2    C1 5791   1.613   3.503  12.081  0.3240  0.1227  0.0760
  384MPD2    C2 5792   1.668   3.378  12.105  0.1737  0.0407  0.2448
  384MPD2    C3 5793   1.798   3.344  12.105  0.2309 -0.0736 -0.0263
  384MPD2    C4 5794   1.893   3.435  12.063 -0.0279 -0.7362 -0.7324
  384MPD2    C5 5795   1.843   3.565  12.036 -0.2122  0.2463  0.3594
  384MPD2     H 5796   1.604   3.297  12.138  0.4505 -0.4227 -0.3502
  384MPD2    H1 5797   1.997   3.403  12.061 -0.1139 -1.1201  1.1096
  384MPD2    H2 5798   1.689   3.703  12.035  1.2375  0.1436  0.8126
  384MPD2    H3 5799   1.918   3.641  12.021  0.0282  0.0354  0.4949
  384MPD2     N 5800   1.838   3.211  12.142 -0.6305 -0.3618 -0.1496
  384MPD2    H5 5801   1.930   3.204  12.185 -1.6737 -1.7645  1.8744
  384MPD2    N1 5802   1.477   3.538  12.107 -0.3638  0.0107  0.0294
  384MPD2    H7 5803   1.460   3.638  12.113 -2.9466 -0.6324  2.9454
  385TMC3    C1 5804   1.795   2.998  12.240  0.0556  0.5251 -0.0004
  385TMC3    C2 5805   1.730   2.876  12.218 -0.0186  0.6176  0.1812
  385TMC3    C3 5806   1.671   2.817  12.329 -0.3345 -0.0018 -0.3072
  385TMC3    C4 5807   1.805   3.057  12.362  0.3402 -0.6363  0.3820
  385TMC3    C5 5808   1.736   2.996  12.464 -0.2128 -0.6334 -0.8392
  385TMC3    C6 5809   1.685   2.870  12.457  0.6953  0.0418 -0.2631
  385TMC3     C 5810   1.754   3.100  12.147 -0.4645 -0.4318  0.1900
  385TMC3     O 5811   1.645   3.078  12.092  0.2053  0.0406  0.2310
  385TMC3     H 5812   1.716   2.834  12.119  0.4455  0.4693  0.1804
  385TMC3    H1 5813   1.836   3.161  12.364 -1.6423 -0.0227 -0.7101
  385TMC3    H2 5814   1.635   2.818  12.538  1.1165 -0.2771 -0.2068
  385TMC3    C7 5815   1.672   3.085  12.559 -0.0398  0.1909  0.3503
  385TMC3    C8 5816   1.598   2.695  12.312  0.8196 -0.6326  0.8177
  385TMC3    O1 5817   1.711   3.201  12.553  0.2816  0.6545 -0.5073
  385TMC3    O2 5818   1.580   2.635  12.414 -0.0853 -0.5698 -0.3476
  386TMC3    C1 5819   1.862   1.056  11.539 -0.3168  0.1893 -0.2415
  386TMC3    C2 5820   1.822   1.103  11.415  0.1991  0.2950  0.5311
  386TMC3    C3 5821   1.691   1.137  11.394  0.0666 -0.8055  0.1977
  386TMC3    C4 5822   1.770   1.044  11.641  0.3731 -0.2166  0.0501
  386TMC3    C5 5823   1.641   1.080  11.617  0.2247  0.2242 -0.3718
  386TMC3    C6 5824   1.593   1.128  11.494  0.2821  0.3931  0.1419
  386TMC3     C 5825   2.005   1.054  11.568  0.6895 -0.7136  0.2255
  386TMC3     O 5826   2.077   1.104  11.486  0.1487 -0.3738 -0.0402
  386TMC3     H 5827   1.889   1.115  11.331 -0.1273 -0.0018  0.2292
  386TMC3    H1 5828   1.803   1.016  11.740  0.9899  2.2452  0.5377
  386TMC3    H2 5829   1.492   1.163  11.480 -0.2807 -1.5836 -0.7611
  386TMC3    C7 5830   1.547   1.080  11.738 -0.0432  0.4253  0.5232
  386TMC3    C8 5831   1.646   1.123  11.254  0.0114 -0.4981 -1.2544
  386TMC3    O1 5832   1.429   1.057  11.712  0.1572  0.4106 -0.1969
  386TMC3    O2 5833   1.732   1.093  11.176 -0.3157  0.6051  0.4136
  387MPD2     C 5834   3.800   0.882   9.549 -0.2966  0.5865 -0.8076
  387MPD2    C1 5835   3.880   0.847   9.659  0.4614  0.6419  0.6087
  387MPD2    C2 5836   3.893   0.717   9.700  0.4113 -0.3306 -0.2417
  387MPD2    C3 5837   3.823   0.618   9.636 -0.1341  0.3878  0.0743
  387MPD2    C4 5838   3.748   0.644   9.525 -0.0897  0.5186  0.3512
  387MPD2    C5 5839   3.734   0.783   9.487  0.7204 -0.0902  0.5860
  387MPD2     H 5840   3.959   0.702   9.785  1.0454  1.4858 -0.4173
  387MPD2    H1 5841   3.699   0.572   9.460 -1.0236  0.2010  1.4050
  387MPD2    H2 5842   3.802   0.982   9.506 -0.7324  2.0228  2.4473
  387MPD2    H3 5843   3.667   0.812   9.406  2.0364  2.3668  0.3924
  387MPD2     N 5844   3.845   0.480   9.676 -0.3542  0.4167  0.5726
  387MPD2    H5 5845   3.903   0.466   9.758 -0.5815 -0.1054  0.6434
  387MPD2    N1 5846   3.972   0.937   9.717 -0.4896 -0.5561  0.8959
  387MPD2    H7 5847   4.040   0.893   9.778  2.6493  1.3410 -1.1926
  388TMC3    C1 5848   4.108   1.122   9.769  0.9860  0.4154 -0.5476
  388TMC3    C2 5849   4.116   1.246   9.831 -0.5484 -0.2722  0.5907
  388TMC3    C3 5850   4.226   1.270   9.909  0.0150  0.0901 -0.1712
  388TMC3    C4 5851   4.208   1.030   9.769  0.1074 -0.4993  0.7842
  388TMC3    C5 5852   4.323   1.057   9.840 -0.3474 -0.0458  0.1244
  388TMC3    C6 5853   4.330   1.177   9.910 -0.8129 -0.1121 -0.5055
  388TMC3     C 5854   3.977   1.075   9.711 -0.3107 -0.2643  0.4617
  388TMC3     O 5855   3.900   1.154   9.650 -0.8173  0.5727  0.2625
  388TMC3     H 5856   4.039   1.321   9.827 -0.0118  0.2515 -0.0609
  388TMC3    H1 5857   4.216   0.958   9.688  2.1887  0.1522  0.4108
  388TMC3    H2 5858   4.418   1.194   9.971  0.3121  0.4175 -2.2586
  388TMC3    C7 5859   4.430   0.956   9.843  0.4128  0.5533  0.3383
  388TMC3    C8 5860   4.239   1.394   9.989 -0.2683  0.0830 -0.1387
  388TMC3    O1 5861   4.549   0.980   9.825  0.0559 -0.1612 -0.3332
  388TMC3    O2 5862   4.287   1.370  10.095 -0.2225 -0.5673 -0.0897
  389MPD2     C 5863   3.569   3.759  10.826 -0.1273  0.2865 -0.3972
  389MPD2    C1 5864   3.442   3.716  10.818  0.4898  0.2661  0.1460
  389MPD2    C2 5865   3.384   3.642  10.921 -0.0938 -0.0557  1.2249
  389MPD2    C3 5866   3.456   3.603  11.032 -0.8641  0.0699 -0.8097
  389MPD2    C4 5867   3.591   3.646  11.029 -0.2379 -0.1661  0.3116
  389MPD2    C5 5868   3.645   3.721  10.928 -0.0776  0.0328  0.0158
  389MPD2     H 5869   3.288   3.593  10.907 -0.6288  1.6047 -0.9628
  389MPD2    H1 5870   3.668   3.615  11.099 -0.2201  2.2065  1.3381
  389MPD2    H2 5871   3.612   3.834  10.761  2.2412  0.0386  0.8831
  389MPD2    H3 5872   3.751   3.743  10.937 -0.2302  1.0354 -0.7359
  389MPD2     N 5873   3.419   3.522  11.140  0.1207 -0.6829 -0.4063
  389MPD2    H5 5874   3.484   3.506  11.216  1.5645  0.6969 -1.3409
  389MPD2    N1 5875   3.368   3.753  10.702 -0.1458 -0.8678  0.3028
  389MPD2    H7 5876   3.423   3.789  10.625 -0.3059  1.4012  1.2267
  390TMC3    C1 5877   3.263   3.405  11.283  0.0934  0.3763  0.2221
  390TMC3    C2 5878   3.150   3.327  11.292  0.4659 -0.1400 -0.2285
  390TMC3    C3 5879   3.080   3.319  11.409  0.0276 -0.1335  0.2582
  390TMC3    C4 5880   3.303   3.474  11.393 -0.1313 -0.2759 -0.9450
  390TMC3    C5 5881   3.244   3.447  11.516 -0.0117 -1.0442 -0.2306
  390TMC3    C6 5882   3.121   3.379  11.520 -0.4353 -0.6398  1.0894
  390TMC3     C 5883   3.293   3.465  11.152 -1.2103 -0.8284 -0.2059
  390TMC3     O 5884   3.209   3.451  11.061  0.1424 -0.1244 -0.6829
  390TMC3     H 5885   3.118   3.277  11.201 -1.5269  2.6449 -1.0186
  390TMC3    H1 5886   3.393   3.534  11.382 -0.2640  0.2817  1.1149
  390TMC3    H2 5887   3.085   3.334  11.612 -1.7369 -0.1128  0.8466
  390TMC3    C7 5888   3.294   3.515  11.643  0.4581 -0.5520 -0.7921
  390TMC3    C8 5889   2.952   3.253  11.418  0.5425 -0.2999 -0.0771
  390TMC3    O1 5890   3.404   3.566  11.635  0.2208 -0.4270  0.0778
  390TMC3    O2 5891   2.936   3.159  11.341  0.0927  0.1935  0.1790
  391MPD2     C 5892   2.653   0.537  11.240  0.4483  0.1150  0.0605
  391MPD2    C1 5893   2.735   0.628  11.187 -0.0974  0.0593  0.3882
  391MPD2    C2 5894   2.726   0.654  11.050 -0.1775  0.0395 -0.9368
  391MPD2    C3 5895   2.645   0.587  10.958 -0.1809  0.2970 -0.2320
  391MPD2    C4 5896   2.554   0.503  11.022 -0.3425 -0.6786  0.2884
  391MPD2    C5 5897   2.561   0.474  11.155  0.2511 -0.1192 -0.4776
  391MPD2     H 5898   2.800   0.719  11.006  0.6687 -0.7629 -0.7075
  391MPD2    H1 5899   2.482   0.449  10.962 -0.0387 -1.6255  0.7644
  391MPD2    H2 5900   2.648   0.498  11.341  1.4104  2.3044  0.9658
  391MPD2    H3 5901   2.511   0.388  11.197  0.1787 -0.4719 -1.2967
  391MPD2     N 5902   2.671   0.601  10.827 -0.5984  0.2014 -0.2631
  391MPD2    H5 5903   2.726   0.683  10.803  0.7445 -1.1789 -1.9049
  391MPD2    N1 5904   2.834   0.692  11.269 -0.3160  0.3356 -0.6372
  391MPD2    H7 5905   2.841   0.663  11.366  0.9868  0.9246 -0.5458
  392TMC3    C1 5906   2.656   0.573  10.588 -0.7735  0.3492  0.0318
  392TMC3    C2 5907   2.570   0.540  10.488 -0.1424 -0.0892  0.0671
  392TMC3    C3 5908   2.614   0.557  10.360 -0.5115  0.6594 -0.6096
  392TMC3    C4 5909   2.789   0.607  10.572  0.0199 -0.0714 -0.1340
  392TMC3    C5 5910   2.835   0.603  10.447 -0.5709 -0.0258  0.4816
  392TMC3    C6 5911   2.751   0.583  10.335 -0.3124 -0.2222 -0.1847
  392TMC3     C 5912   2.613   0.541  10.724  0.8259 -0.0720 -0.2374
  392TMC3     O 5913   2.535   0.444  10.727  0.3489 -0.1801 -0.2519
  392TMC3     H 5914   2.468   0.510  10.509 -0.2920  0.5688  0.2728
  392TMC3    H1 5915   2.846   0.617  10.663 -0.2778 -3.4389  0.4317
  392TMC3    H2 5916   2.787   0.592  10.234 -2.1441 -0.4898 -0.8707
  392TMC3    C7 5917   2.959   0.688  10.437 -0.5943 -1.0104  0.4744
  392TMC3    C8 5918   2.514   0.573  10.246  0.8000 -0.0669  0.2613
  392TMC3    O1 5919   2.995   0.756  10.528  0.2469 -0.1956  0.5825
  392TMC3    O2 5920   2.395   0.593  10.280  0.1694  0.3244  0.1642
  393TMC3    C1 5921   1.342   3.333  10.743 -0.4473  0.0849 -0.9648
  393TMC3    C2 5922   1.258   3.300  10.847  0.3156 -0.7978 -0.2812
  393TMC3    C3 5923   1.248   3.166  10.875 -0.7035 -0.8165  0.4702
  393TMC3    C4 5924   1.414   3.235  10.673 -0.0341  0.2355 -0.8171
  393TMC3    C5 5925   1.401   3.106  10.713 -0.6013  0.4064 -0.2458
  393TMC3    C6 5926   1.317   3.065  10.808 -0.3059 -0.4498  0.2141
  393TMC3     C 5927   1.325   3.465  10.690 -0.1416 -0.1167 -0.2939
  393TMC3     O 5928   1.233   3.533  10.733 -0.1356 -0.2570 -1.0997
  393TMC3     H 5929   1.194   3.369  10.902  1.5320 -0.8611  1.2212
  393TMC3    H1 5930   1.484   3.255  10.593 -1.4622  0.1108 -2.1138
  393TMC3    H2 5931   1.312   2.962  10.842  1.1916 -0.2130  1.1811
  393TMC3    C7 5932   1.503   3.016  10.670  0.3286  0.0795  0.1675
  393TMC3    C8 5933   1.175   3.124  10.997 -0.2987  0.0975 -0.4605
  393TMC3    O1 5934   1.475   2.902  10.634 -0.9207  0.3271 -0.6456
  393TMC3    O2 5935   1.167   3.002  11.021 -0.2083 -0.6809  0.2198
  394TMC3    C1 5936   3.180   3.793  10.557  0.3211  0.1344  0.3162
  394TMC3    C2 5937   3.041   3.784  10.538  0.3848 -0.0069  0.3754
  394TMC3    C3 5938   3.002   3.819  10.413  0.3493  0.1129 -0.6857
  394TMC3    C4 5939   3.269   3.857  10.474  0.1734  0.4713 -0.6123
  394TMC3    C5 5940   3.223   3.903  10.356  0.0767  0.4319 -1.0233
  394TMC3    C6 5941   3.086   3.882  10.323  0.0658  0.2814  0.2465
  394TMC3     C 5942   3.232   3.748  10.686  0.2214  0.4218 -0.2791
  394TMC3     O 5943   3.148   3.703  10.759  0.1908  0.2353  0.5680
  394TMC3     H 5944   2.988   3.715  10.603  1.5910 -0.2385  1.1093
  394TMC3    H1 5945   3.373   3.869  10.500 -0.3144  2.7933  0.2769
  394TMC3    H2 5946   3.054   3.920  10.226 -3.2817  1.3645  1.7847
  394TMC3    C7 5947   3.311   3.952  10.255  0.1350 -0.3985  0.5800
  394TMC3    C8 5948   2.899   3.724  10.356 -0.2088 -0.6171  0.1610
  394TMC3    O1 5949   3.260   4.021  10.166  0.1363 -0.0327  0.0539
  394TMC3    O2 5950   2.783   3.750  10.383  1.0301 -0.2165 -0.3971
  395TMC3    C1 5951   2.629   0.826  14.896 -0.6007  0.0098 -0.4359
  395TMC3    C2 5952   2.492   0.819  14.894  0.0696  0.4245  0.8932
  395TMC3    C3 5953   2.421   0.915  14.832 -0.4573 -0.2689  0.5406
  395TMC3    C4 5954   2.698   0.928  14.845  0.4849  0.6465 -0.8819
  395TMC3    C5 5955   2.629   1.027  14.782 -0.7107 -0.2947 -0.4167
  395TMC3    C6 5956   2.487   1.021  14.774  0.4145 -0.3076  0.6313
  395TMC3     C 5957   2.682   0.752  15.007 -0.4774 -0.7687 -0.3534
  395TMC3     O 5958   2.614   0.735  15.105 -0.6518 -0.2720 -0.2240
  395TMC3     H 5959   2.438   0.741  14.946 -0.0717 -0.0765  0.0095
  395TMC3    H1 5960   2.802   0.945  14.868  0.8525 -2.3345 -0.3560
  395TMC3    H2 5961   2.428   1.095  14.721  0.5250 -1.5593 -1.2137
  395TMC3    C7 5962   2.703   1.135  14.732  0.1230  0.3623 -0.2146
  395TMC3    C8 5963   2.290   0.931  14.888 -0.3678  0.4107 -0.7357
  395TMC3    O1 5964   2.650   1.244  14.725  0.4291  0.5534 -0.3466
  395TMC3    O2 5965   2.260   1.048  14.909 -0.3203 -0.0566 -0.4574
  396MPD2     C 5966   2.055   2.107  16.950  0.2311  0.5076  0.6970
  396MPD2    C1 5967   2.176   2.133  17.015 -0.8028 -0.6160 -0.2045
  396MPD2    C2 5968   2.266   2.213  16.951 -0.2437 -0.3368  0.6959
  396MPD2    C3 5969   2.238   2.256  16.819 -0.2274 -0.2019 -0.3953
  396MPD2    C4 5970   2.119   2.229  16.759  0.0063 -0.3928 -0.7720
  396MPD2    C5 5971   2.029   2.153  16.825  0.0493 -0.0123  0.0084
  396MPD2     H 5972   2.355   2.241  17.006  0.8206 -0.5253 -0.8950
  396MPD2    H1 5973   2.100   2.267  16.659 -1.1864  0.9719 -0.0115
  396MPD2    H2 5974   1.967   2.079  17.006  1.2866  0.0349  2.1139
  396MPD2    H3 5975   1.937   2.130  16.773 -0.4798  0.8089  0.5779
  396MPD2     N 5976   2.332   2.336  16.758 -0.1310 -0.6246 -0.0057
  396MPD2    H5 5977   2.424   2.330  16.798  0.2581  1.6791 -0.5198
  396MPD2    N1 5978   2.186   2.077  17.144  0.3378  0.2497 -0.1974
  396MPD2    H7 5979   2.104   2.020  17.162 -1.0033  1.7785 -1.5942
  397TMC3    C1 5980   2.296   2.046  17.354  0.4277 -0.3363  0.8253
  397TMC3    C2 5981   2.406   2.090  17.426 -0.1514 -0.5141 -0.5412
  397TMC3    C3 5982   2.470   2.002  17.512 -0.4032 -0.3365 -0.2727
  397TMC3    C4 5983   2.280   1.909  17.366  0.3513  0.0869  0.1870
  397TMC3    C5 5984   2.348   1.819  17.449  0.2480  0.8440  0.4297
  397TMC3    C6 5985   2.440   1.869  17.537  0.3867  0.1399 -0.3239
  397TMC3     C 5986   2.302   2.087  17.218 -0.4052 -0.0769  0.2692
  397TMC3     O 5987   2.412   2.137  17.186 -1.1763 -0.1528  0.3053
  397TMC3     H 5988   2.432   2.195  17.433 -1.6275 -0.1708 -0.3470
  397TMC3    H1 5989   2.204   1.870  17.298 -0.4005 -0.5999  1.4327
  397TMC3    H2 5990   2.503   1.807  17.599 -1.5268  0.5107  2.0052
  397TMC3    C7 5991   2.254   1.718  17.495 -0.3106 -0.3921 -0.7039
  397TMC3    C8 5992   2.612   2.022  17.505  0.3048  0.0837  0.5766
  397TMC3    O1 5993   2.162   1.691  17.419  0.1181 -0.1678 -0.4352
  397TMC3    O2 5994   2.683   2.018  17.600 -0.0521  0.7141  0.4279
  398MPD2     C 5995   0.625   3.967   0.206 -0.0690 -0.2076 -0.4612
  398MPD2    C1 5996   0.714   3.887   0.264  0.3544 -0.3622  0.1312
  398MPD2    C2 5997   0.830   3.936   0.315 -0.2473 -0.4393  0.4093
  398MPD2    C3 5998   0.856   4.072   0.299  0.6387 -0.4863 -0.4793
  398MPD2    C4 5999   0.769   4.158   0.238  0.2698  0.0511  0.1693
  398MPD2    C5 6000   0.646   4.103   0.203 -0.3044  0.6199 -0.3241
  398MPD2     H 6001   0.913   3.873   0.345 -0.2941 -0.4715  0.4711
  398MPD2    H1 6002   0.782   4.266   0.237 -2.2709  0.3510 -0.5370
  398MPD2    H2 6003   0.526   3.943   0.171  0.1598 -1.1113 -0.4879
  398MPD2    H3 6004   0.566   4.164   0.162 -1.4406 -1.4253 -1.1235
  398MPD2     N 6005   0.991   4.107   0.316 -0.2159 -0.5684  0.3322
  398MPD2    H5 6006   1.044   4.031   0.357  1.2906  0.2255 -0.1234
  398MPD2    N1 6007   0.714   3.747   0.263 -0.0891  0.2518 -0.3146
  398MPD2    H7 6008   0.795   3.695   0.297  1.5421  1.7678 -1.8275
  399TMC3    C1 6009   0.636   3.532   0.201  0.6385  0.3473  0.4231
  399TMC3    C2 6010   0.732   3.466   0.274 -0.3886  0.2260 -0.1439
  399TMC3    C3 6011   0.744   3.330   0.258 -0.4615 -0.5991 -0.4258
  399TMC3    C4 6012   0.549   3.462   0.122 -0.0676  0.1018  1.4396
  399TMC3    C5 6013   0.574   3.328   0.101  0.5477 -0.5044 -0.1603
  399TMC3    C6 6014   0.670   3.262   0.167  0.7052  0.7787 -0.0676
  399TMC3     C 6015   0.615   3.677   0.196 -0.1937 -0.3267  0.1313
  399TMC3     O 6016   0.507   3.712   0.145  0.1532 -0.2033  0.2900
  399TMC3     H 6017   0.795   3.516   0.347  0.7418  0.5303 -1.3306
  399TMC3    H1 6018   0.474   3.517   0.066  2.3206  1.1211 -0.7757
  399TMC3    H2 6019   0.708   3.166   0.138  1.5458  1.6891 -1.9632
  399TMC3    C7 6020   0.472   3.248   0.045  0.7136 -0.2576 -0.3209
  399TMC3    C8 6021   0.855   3.265   0.323  0.2185  0.2677 -0.2423
  399TMC3    O1 6022   0.493   3.129   0.067  0.1212 -0.1450  0.5166
  399TMC3    O2 6023   0.951   3.336   0.357  0.2610 -0.1368 -0.2231
  400TMC3    C1 6024   4.132   1.574  16.958 -0.1063  0.2305 -0.4170
  400TMC3    C2 6025   4.034   1.622  16.876 -0.5742  0.1154  0.2677
  400TMC3    C3 6026   4.040   1.755  16.836 -0.3771  0.0822 -0.2001
  400TMC3    C4 6027   4.234   1.643  17.008  0.3205 -0.2379 -0.1907
  400TMC3    C5 6028   4.231   1.771  16.984 -0.0175  0.0272  0.0971
  400TMC3    C6 6029   4.132   1.832  16.907 -0.0713 -0.3441 -0.6169
  400TMC3     C 6030   4.104   1.446  17.002  0.8030 -0.7243 -0.1522
  400TMC3     O 6031   4.041   1.366  16.938 -0.4207 -0.6271 -0.1189
  400TMC3     H 6032   3.949   1.557  16.855 -2.6341  2.6938  0.5837
  400TMC3    H1 6033   4.315   1.588  17.055 -0.4209 -2.2257 -1.2290
  400TMC3    H2 6034   4.126   1.940  16.901 -0.3203 -0.3468 -0.4296
  400TMC3    C7 6035   4.326   1.845  17.066  0.3393  0.0431  0.5035
  400TMC3    C8 6036   3.913   1.815  16.789 -0.1667  0.4688 -0.1102
  400TMC3    O1 6037   4.406   1.785  17.134 -0.0433  0.8138  0.2563
  400TMC3    O2 6038   3.881   1.926  16.831  0.1975 -0.5749 -0.2283
  401MPD2     C 6039   1.991   0.617   0.880  0.1629 -0.0013  0.2074
  401MPD2    C1 6040   2.058   0.515   0.950 -0.0988 -0.1125  0.2544
  401MPD2    C2 6041   2.026   0.384   0.925 -0.0366  0.0252  0.0174
  401MPD2    C3 6042   1.928   0.351   0.830  0.1941  0.3000  0.1040
  401MPD2    C4 6043   1.858   0.452   0.767 -0.2663  0.4507  0.0502
  401MPD2    C5 6044   1.891   0.585   0.793  0.7345  0.0051  0.1785
  401MPD2     H 6045   2.092   0.306   0.962  0.9162  0.2724 -1.1888
  401MPD2    H1 6046   1.774   0.439   0.700 -0.1478 -2.7741  0.5030
  401MPD2    H2 6047   2.022   0.721   0.885  2.2533 -0.6733  1.3456
  401MPD2    H3 6048   1.830   0.659   0.743  2.1636  3.0753  2.9371
  401MPD2     N 6049   1.912   0.214   0.806  0.5354  0.2960  0.5371
  401MPD2    H5 6050   1.937   0.148   0.878  1.4452 -0.8724 -0.8506
  401MPD2    N1 6051   2.166   0.537   1.036 -0.2052  0.5507  1.2715
  401MPD2    H7 6052   2.213   0.452   1.066  0.3756  1.4216  2.8710
  402TMC3    C1 6053   1.843   0.018   0.711  0.2930 -0.2667  0.1172
  402TMC3    C2 6054   1.869   4.679   0.821  0.3103 -0.4787 -0.0672
  402TMC3    C3 6055   1.914   4.551   0.812 -0.4367 -0.4718 -0.8400
  402TMC3    C4 6056   1.844   4.695   0.587 -0.7432  0.6106 -0.0467
  402TMC3    C5 6057   1.900   4.571   0.580 -0.4429  0.5398  0.1818
  402TMC3    C6 6058   1.942   4.505   0.692  0.5715 -0.2548  0.9773
  402TMC3     C 6059   1.849   0.163   0.702 -0.1032  1.1190  0.0746
  402TMC3     O 6060   1.817   0.221   0.601  0.2432 -0.2791  0.3085
  402TMC3     H 6061   1.852   4.727   0.916  0.5609  0.8351 -0.6798
  402TMC3    H1 6062   1.839   0.019   0.497 -3.5558 -0.3576 -0.5287
  402TMC3    H2 6063   1.978   4.402   0.690 -0.6541 -0.6785  0.6462
  402TMC3    C7 6064   1.973   4.542   0.459 -0.3557 -0.1294  0.3798
  402TMC3    C8 6065   2.000   4.496   0.907 -0.0667 -0.0817 -0.6832
  402TMC3    O1 6066   1.929   4.572   0.350  0.0836  0.4090 -0.5782
  402TMC3    O2 6067   2.102   4.444   0.860  0.5549  0.1013 -0.7372
  403MPD2     C 6068   1.076   3.162  13.134  0.5241 -0.1559  0.6812
  403MPD2    C1 6069   0.967   3.162  13.220 -0.5438  0.0158 -0.3000
  403MPD2    C2 6070   0.996   3.170  13.352 -0.2425  0.7049  0.8919
  403MPD2    C3 6071   1.121   3.151  13.392 -0.0142  0.3174  0.9068
  403MPD2    C4 6072   1.225   3.152  13.304  0.1397  0.3850 -0.2543
  403MPD2    C5 6073   1.207   3.166  13.171  0.7945 -0.0169 -0.1565
  403MPD2     H 6074   0.915   3.181  13.423 -1.3021 -2.5255  0.1688
  403MPD2    H1 6075   1.327   3.154  13.343 -0.1352  2.4678  0.3510
  403MPD2    H2 6076   1.055   3.174  13.028 -1.2242 -0.4474  0.9876
  403MPD2    H3 6077   1.289   3.184  13.103  1.0859  1.6106  0.6159
  403MPD2     N 6078   1.142   3.142  13.532  0.0591  0.4835  0.3445
  403MPD2    H5 6079   1.061   3.140  13.592  1.4412 -2.1161  2.1224
  403MPD2    N1 6080   0.836   3.154  13.164 -0.4133 -0.3512  0.2392
  403MPD2    H7 6081   0.838   3.164  13.063 -2.3080  3.3305  0.5650
  404TMC3    C1 6082   0.624   3.063  13.133 -0.0163  0.5079 -0.5560
  404TMC3    C2 6083   0.510   3.019  13.197  0.0931  0.0742 -0.6229
  404TMC3    C3 6084   0.439   2.914  13.142 -0.3418 -0.6982 -0.0929
  404TMC3    C4 6085   0.658   3.018  13.006 -0.0913  0.2140  0.6367
  404TMC3    C5 6086   0.589   2.911  12.954  0.5184 -0.7287  0.5742
  404TMC3    C6 6087   0.484   2.858  13.023  0.1631 -0.2891 -0.7001
  404TMC3     C 6088   0.724   3.113  13.224  0.1624  0.1004 -0.4113
  404TMC3     O 6089   0.714   3.090  13.344  0.6414  0.1074  0.0054
  404TMC3     H 6090   0.477   3.079  13.280  0.7412 -2.1589  1.2478
  404TMC3    H1 6091   0.735   3.055  12.939  0.1336  1.5686  1.6444
  404TMC3    H2 6092   0.423   2.776  12.987  1.2940 -1.2139 -0.4930
  404TMC3    C7 6093   0.640   2.862  12.831 -0.4900 -0.3900 -0.2070
  404TMC3    C8 6094   0.439   2.807  13.246 -0.4691  0.6447 -0.2851
  404TMC3    O1 6095   0.759   2.873  12.806  0.3499 -0.5874  0.5130
  404TMC3    O2 6096   0.525   2.722  13.234  0.5694  0.1581  0.4140
  405MPD2     C 6097   0.859   4.283  14.799 -0.2415 -0.2518 -0.2410
  405MPD2    C1 6098   0.903   4.164  14.742  0.0789  0.5086 -0.2265
  405MPD2    C2 6099   0.822   4.115  14.645 -0.5699  0.6374 -0.4313
  405MPD2    C3 6100   0.703   4.172  14.615  0.9482 -0.0045  0.3734
  405MPD2    C4 6101   0.656   4.276  14.693  0.0541  0.1861 -0.3207
  405MPD2    C5 6102   0.737   4.339  14.777 -0.0486 -0.2893  0.5227
  405MPD2     H 6103   0.850   4.025  14.590  1.3340  0.5575  0.6932
  405MPD2    H1 6104   0.560   4.321  14.674  0.7520  1.0958 -1.7482
  405MPD2    H2 6105   0.920   4.343  14.866  0.1473 -0.4921 -0.3813
  405MPD2    H3 6106   0.705   4.431  14.825  0.3854 -0.5731  1.3553
  405MPD2     N 6107   0.623   4.099  14.521  0.7698  0.3546  0.0589
  405MPD2    H5 6108   0.673   4.022  14.479 -1.3126 -0.4087 -0.9881
  405MPD2    N1 6109   1.035   4.110  14.775 -0.9291 -0.3743 -0.4948
  405MPD2    H7 6110   1.089   4.166  14.842  0.4056 -0.2617 -1.6507
  406TMC3    C1 6111   0.284   3.889  14.276 -0.0401 -0.0452 -0.4923
  406TMC3    C2 6112   0.340   3.766  14.300  0.6528 -0.5371 -0.5378
  406TMC3    C3 6113   0.449   3.766  14.386  0.3445  0.0831  0.0251
  406TMC3    C4 6114   0.328   4.005  14.337  0.6348 -0.1441 -0.8278
  406TMC3    C5 6115   0.442   3.999  14.415 -0.1542 -0.4405  0.5878
  406TMC3    C6 6116   0.498   3.883  14.442 -0.2831 -0.1195 -0.1644
  406TMC3     C 6117   0.182   3.907  14.180 -0.0815  0.2097 -0.0744
  406TMC3     O 6118   0.176   4.015  14.126  0.3935 -0.1373 -0.0740
  406TMC3     H 6119   0.301   3.673  14.261 -2.4550  0.2480  0.6641
  406TMC3    H1 6120   0.276   4.099  14.321  1.4201  0.5389  0.6972
  406TMC3    H2 6121   0.564   3.872  14.528  0.2297  0.8976 -0.4360
  406TMC3    C7 6122   0.493   4.116  14.484 -0.1413 -0.1303  0.6416
  406TMC3    C8 6123   0.519   3.638  14.411  0.6773  0.6720  0.3132
  406TMC3    O1 6124   0.402   4.184  14.527  0.6056 -0.1143  0.3930
  406TMC3    O2 6125   0.459   3.530  14.402  0.8896  0.1171 -0.6795
  407MPD2     C 6126   3.235   0.417   9.417  0.4666 -0.9023 -0.3472
  407MPD2    C1 6127   3.356   0.409   9.468 -0.0835 -0.3535 -0.3757
  407MPD2    C2 6128   3.406   0.504   9.556 -0.0491 -0.0861 -0.2444
  407MPD2    C3 6129   3.338   0.619   9.581  0.0223  0.5563 -0.4879
  407MPD2    C4 6130   3.217   0.638   9.517 -0.1020 -0.4601  0.0107
  407MPD2    C5 6131   3.167   0.536   9.436 -0.7907 -0.8767 -0.3873
  407MPD2     H 6132   3.499   0.486   9.610 -0.6529 -0.3809  0.7069
  407MPD2    H1 6133   3.161   0.727   9.545  1.0369  0.5713 -1.0259
  407MPD2    H2 6134   3.186   0.334   9.369 -1.0239  0.7745 -1.7454
  407MPD2    H3 6135   3.067   0.549   9.396 -0.5877  2.9636  0.3250
  407MPD2     N 6136   3.384   0.718   9.670  0.1890  1.2690 -0.2502
  407MPD2    H5 6137   3.336   0.807   9.664 -3.0617 -0.3990  1.0669
  407MPD2    N1 6138   3.441   0.299   9.446 -0.0649 -0.6324 -0.1087
  407MPD2    H7 6139   3.536   0.306   9.479 -0.2800 -0.1084  0.4099
  408TMC3    C1 6140   3.499   0.092   9.371  0.0563  0.6971 -0.0711
  408TMC3    C2 6141   3.608   0.142   9.316  0.9890  0.1424  0.4572
  408TMC3    C3 6142   3.708   0.050   9.292  0.0110 -0.0450  0.2054
  408TMC3    C4 6143   3.467   4.693   9.391  0.0973  0.4183  0.2335
  408TMC3    C5 6144   3.569   4.604   9.355 -0.4892  0.6815 -0.5953
  408TMC3    C6 6145   3.688   4.649   9.305  0.7124  0.4518 -0.4537
  408TMC3     C 6146   3.397   0.179   9.407 -0.4195  0.3207 -0.0357
  408TMC3     O 6147   3.286   0.132   9.376 -0.6923  0.4653  0.4871
  408TMC3     H 6148   3.631   0.242   9.283 -1.6858  0.2569 -0.9844
  408TMC3    H1 6149   3.379   4.660   9.445 -0.8051  0.0615 -1.4747
  408TMC3    H2 6150   3.764   4.581   9.269  0.6009  0.5021 -0.7894
  408TMC3    C7 6151   3.548   4.469   9.399 -0.0510  0.0405  0.1491
  408TMC3    C8 6152   3.838   0.090   9.252 -0.7677  0.2480  0.1350
  408TMC3    O1 6153   3.454   4.443   9.478  0.0734  0.3381  0.4636
  408TMC3    O2 6154   3.924   0.004   9.231 -0.4136  0.4792  0.2964
  409MPD2     C 6155   3.116   1.875  16.770 -0.2868 -0.5285 -0.2282
  409MPD2    C1 6156   3.151   1.894  16.898 -0.8667 -0.7079  0.1878
  409MPD2    C2 6157   3.244   1.989  16.927 -0.0616  0.7926 -0.2808
  409MPD2    C3 6158   3.309   2.063  16.828 -0.0796 -0.0084 -0.2758
  409MPD2    C4 6159   3.262   2.042  16.700 -0.8604 -0.2177 -1.2723
  409MPD2    C5 6160   3.166   1.945  16.666  0.0767  0.4090  0.3607
  409MPD2     H 6161   3.267   2.010  17.031 -0.9823  1.0834 -0.1338
  409MPD2    H1 6162   3.317   2.087  16.618 -2.0261 -0.3756 -2.1371
  409MPD2    H2 6163   3.050   1.794  16.740 -0.8131  0.1845 -1.0031
  409MPD2    H3 6164   3.119   1.935  16.569 -0.7610  0.3388  0.7696
  409MPD2     N 6165   3.417   2.143  16.846  0.0859  0.6092  0.3438
  409MPD2    H5 6166   3.449   2.196  16.766  0.3995 -1.0628 -0.6241
  409MPD2    N1 6167   3.106   1.809  17.005  0.3164  0.2494  0.5313
  409MPD2    H7 6168   3.136   1.829  17.100  1.7765 -1.2978  0.4106
  410TMC3    C1 6169   3.610   2.231  16.962 -0.4583  0.6196 -0.2888
  410TMC3    C2 6170   3.712   2.155  17.018 -0.2488 -0.0858 -0.5931
  410TMC3    C3 6171   3.837   2.213  17.021 -0.5286  0.0205 -0.3618
  410TMC3    C4 6172   3.623   2.351  16.908 -0.6225  0.3246  0.1986
  410TMC3    C5 6173   3.750   2.401  16.912  0.1342 -0.3874 -0.7376
  410TMC3    C6 6174   3.853   2.337  16.974  0.9146 -0.2987 -0.4303
  410TMC3     C 6175   3.484   2.156  16.969  0.1390  0.5762 -0.4877
  410TMC3     O 6176   3.464   2.096  17.074 -0.6112 -0.4208 -0.0106
  410TMC3     H 6177   3.686   2.065  17.072  0.4971  0.6095  0.9411
  410TMC3    H1 6178   3.551   2.397  16.841  0.0800  0.7601 -0.2579
  410TMC3    H2 6179   3.952   2.380  16.976  0.3306  0.8785  2.4165
  410TMC3    C7 6180   3.778   2.524  16.844  0.1588 -0.7543 -0.8304
  410TMC3    C8 6181   3.935   2.161  17.112  0.0535 -0.0152  0.0260
  410TMC3    O1 6182   3.676   2.587  16.808  0.0010 -0.5621 -0.1467
  410TMC3    O2 6183   3.972   2.230  17.207 -0.0366 -0.0752 -0.1364
  411MPD2     C 6184   3.305   1.918  14.312  0.2505 -0.2702 -0.7643
  411MPD2    C1 6185   3.236   1.945  14.430 -0.4610 -0.5582 -0.6274
  411MPD2    C2 6186   3.141   1.857  14.476 -0.0006 -0.4145 -0.1856
  411MPD2    C3 6187   3.119   1.747  14.391  0.5807 -0.5068 -0.3546
  411MPD2    C4 6188   3.190   1.721  14.276 -0.8002  0.3307  0.7042
  411MPD2    C5 6189   3.276   1.814  14.232  0.2595 -0.0776 -0.3741
  411MPD2     H 6190   3.089   1.869  14.570 -1.7325 -1.2105 -1.0362
  411MPD2    H1 6191   3.162   1.642  14.207  0.3491 -0.8443  1.5871
  411MPD2    H2 6192   3.370   1.996  14.275 -0.5112  1.4145  1.4706
  411MPD2    H3 6193   3.319   1.804  14.133  1.0634  2.1193 -0.2378
  411MPD2     N 6194   3.014   1.658  14.416  0.3675  0.2070 -0.6364
  411MPD2    H5 6195   2.985   1.596  14.341  0.4456 -2.0809  1.1968
  411MPD2    N1 6196   3.253   2.071  14.488 -0.4665  0.4060 -0.5516
  411MPD2    H7 6197   3.315   2.133  14.435  1.1758  1.8767  3.0637
  412TMC3    C1 6198   2.832   1.556  14.491  0.0175 -0.1549  0.7428
  412TMC3    C2 6199   2.707   1.575  14.538  0.3787 -1.0209  0.2540
  412TMC3    C3 6200   2.618   1.477  14.520 -0.1119  0.6343  0.0540
  412TMC3    C4 6201   2.867   1.449  14.404 -0.8400 -0.2702  0.0668
  412TMC3    C5 6202   2.766   1.358  14.379  0.1592 -0.4315  0.0193
  412TMC3    C6 6203   2.647   1.356  14.450  0.9344 -0.6149  0.1729
  412TMC3     C 6204   2.923   1.665  14.513 -0.2103  0.3264 -0.2370
  412TMC3     O 6205   2.905   1.745  14.606  0.3685 -0.2143  0.0679
  412TMC3     H 6206   2.683   1.658  14.604  0.0769 -1.0047  0.1197
  412TMC3    H1 6207   2.961   1.423  14.356 -1.2848 -0.0184 -0.9508
  412TMC3    H2 6208   2.563   1.296  14.418  2.0857 -1.5000 -1.1791
  412TMC3    C7 6209   2.733   1.332  14.244 -0.3040 -0.1428  0.1224
  412TMC3    C8 6210   2.484   1.534  14.511 -0.0183  0.1256  0.4203
  412TMC3    O1 6211   2.617   1.305  14.215 -0.5068  0.1803 -0.3559
  412TMC3    O2 6212   2.394   1.473  14.571  0.3161  0.4218  0.1119
  413MPD2     C 6213   4.688   0.408  15.432 -0.1971 -0.8538 -0.6470
  413MPD2    C1 6214   4.662   0.388  15.298 -0.3089  0.4800  0.4095
  413MPD2    C2 6215   0.013   0.326  15.215 -0.4130  0.2066  0.1680
  413MPD2    C3 6216   0.114   0.256  15.270 -0.2438 -0.2550  0.5818
  413MPD2    C4 6217   0.140   0.274  15.401 -0.4929 -0.3088  0.6384
  413MPD2    C5 6218   0.056   0.345  15.486 -0.1591 -0.5106  0.1641
  413MPD2     H 6219   4.716   0.321  15.112 -0.2733 -1.9628  0.2322
  413MPD2    H1 6220   0.237   0.256  15.445 -0.3339 -3.5642 -1.0915
  413MPD2    H2 6221   4.629   0.478  15.490  1.0562 -0.3390  0.0308
  413MPD2    H3 6222   0.102   0.366  15.582 -1.2060 -2.1105  1.0366
  413MPD2     N 6223   0.186   0.182  15.177  0.4398  0.6904  0.5867
  413MPD2    H5 6224   0.159   0.178  15.079  1.0707 -0.6174  0.4700
  413MPD2    N1 6225   4.552   0.453  15.244  0.3927 -0.1236  0.4299
  413MPD2    H7 6226   4.504   0.521  15.302  0.2725 -0.7012  1.0102
  414TMC3    C1 6227   0.343   0.025  15.105 -0.4375 -0.8925 -1.2160
  414TMC3    C2 6228   0.373   4.628  15.114 -0.1379  0.2303  0.3070
  414TMC3    C3 6229   0.440   4.570  15.004  0.3653 -0.3952  0.2112
  414TMC3    C4 6230   0.408   0.102  15.008 -0.3727  0.5114  0.2841
  414TMC3    C5 6231   0.464   0.031  14.900 -0.4962 -0.2899 -0.2668
  414TMC3    C6 6232   0.483   4.633  14.898  0.3847 -0.4287  0.3432
  414TMC3     C 6233   0.283   0.098  15.217  0.4517 -0.2625 -0.8042
  414TMC3     O 6234   0.316   0.066  15.328 -0.7470 -0.7068 -0.0583
  414TMC3     H 6235   0.337   4.570  15.198  0.0401 -0.7265 -0.2820
  414TMC3    H1 6236   0.390   0.207  14.988  0.8342  0.9781  1.6945
  414TMC3    H2 6237   0.543   4.583  14.823  0.4952  0.5273 -0.2099
  414TMC3    C7 6238   0.561   0.122  14.835 -0.5974 -0.5879  0.3646
  414TMC3    C8 6239   0.485   4.438  15.015 -0.1548 -0.4458 -0.1509
  414TMC3    O1 6240   0.598   0.215  14.907 -0.3145  0.1279 -0.5553
  414TMC3    O2 6241   0.467   4.359  14.927 -0.2458 -0.6162  0.0272
  415TMC3    C1 6242   1.256   3.040   9.984  0.2579 -0.1533 -0.2629
  415TMC3    C2 6243   1.384   2.990   9.965 -0.9907 -0.0993  0.9600
  415TMC3    C3 6244   1.483   3.073   9.911 -0.5859  0.0520 -0.5240
  415TMC3    C4 6245   1.225   3.166   9.948  0.3785 -0.0158  0.2555
  415TMC3    C5 6246   1.322   3.235   9.878 -0.0326 -0.2425  0.0159
  415TMC3    C6 6247   1.449   3.196   9.862 -0.5605 -0.0170  0.7340
  415TMC3     C 6248   1.154   2.974  10.069 -0.0718  0.1022 -0.7544
  415TMC3     O 6249   1.060   3.046  10.101  0.2250 -0.2990  0.3413
  415TMC3     H 6250   1.403   2.885   9.985 -0.7512 -0.5028 -1.4033
  415TMC3    H1 6251   1.119   3.189   9.947  0.7429  1.6344 -0.3104
  415TMC3    H2 6252   1.525   3.259   9.817 -1.5308  0.7397  0.1443
  415TMC3    C7 6253   1.293   3.377   9.839  0.3628 -0.1030  0.1871
  415TMC3    C8 6254   1.597   3.015   9.851  0.5329  0.2622 -0.7322
  415TMC3    O1 6255   1.386   3.438   9.791 -0.1213 -0.1750 -0.2282
  415TMC3    O2 6256   1.572   2.909   9.789  0.0788 -0.0551 -0.5569
  416MPD2     C 6257   2.919   1.826  11.150  0.0734 -0.4541 -0.5669
  416MPD2    C1 6258   2.898   1.736  11.248 -0.3445  0.0606 -0.2904
  416MPD2    C2 6259   2.893   1.604  11.220 -0.5224 -0.0878  0.6448
  416MPD2    C3 6260   2.911   1.557  11.091  0.0460 -0.5980  0.0506
  416MPD2    C4 6261   2.938   1.646  10.993 -0.3185 -0.1079 -0.3567
  416MPD2    C5 6262   2.943   1.774  11.024  1.0774  0.0580 -0.3454
  416MPD2     H 6263   2.852   1.526  11.284 -3.5370  0.5614 -0.4695
  416MPD2    H1 6264   2.942   1.615  10.889 -1.2868 -0.3320 -0.3267
  416MPD2    H2 6265   2.922   1.932  11.170 -0.0295 -0.2129 -1.8804
  416MPD2    H3 6266   2.960   1.846  10.945 -1.1979  1.8555  0.8142
  416MPD2     N 6267   2.908   1.419  11.068 -0.0555 -0.4106  0.0522
  416MPD2    H5 6268   2.881   1.362  11.147  0.8615  0.3635  0.9420
  416MPD2    N1 6269   2.870   1.771  11.386 -0.3747 -0.4281 -0.1901
  416MPD2    H7 6270   2.853   1.869  11.408  2.6319 -0.2439  1.2671
  417TMC3    C1 6271   2.778   1.743  11.605 -0.7335  0.3490 -0.0714
  417TMC3    C2 6272   2.712   1.668  11.698 -0.0291  0.0860 -0.8434
  417TMC3    C3 6273   2.636   1.741  11.792 -0.2218  0.2410 -0.1953
  417TMC3    C4 6274   2.755   1.881  11.602 -0.3095  0.1892  0.3360
  417TMC3    C5 6275   2.672   1.944  11.693 -0.3315  0.7342 -0.0467
  417TMC3    C6 6276   2.617   1.878  11.793  0.0174 -0.3592 -0.3968
  417TMC3     C 6277   2.831   1.681  11.487 -0.1541  0.8186  0.1207
  417TMC3     O 6278   2.851   1.559  11.496 -0.0782  0.0972 -0.9131
  417TMC3     H 6279   2.712   1.560  11.691  0.9118 -0.0027  0.5530
  417TMC3    H1 6280   2.790   1.943  11.520 -0.0912  0.7232  0.8333
  417TMC3    H2 6281   2.571   1.931  11.876 -1.0149 -1.3695 -0.3059
  417TMC3    C7 6282   2.592   2.052  11.643 -0.1133  0.2337  0.4544
  417TMC3    C8 6283   2.531   1.678  11.868 -0.1262  0.2776 -0.2931
  417TMC3    O1 6284   2.619   2.113  11.539 -0.1627  0.1585 -0.4233
  417TMC3    O2 6285   2.438   1.752  11.894 -0.3499  0.1647  0.1787
  418TMC3    C1 6286   1.364   4.137   0.174 -0.5409  0.4454  0.8439
  418TMC3    C2 6287   1.255   4.215   0.182 -0.0970 -0.0152 -0.1774
  418TMC3    C3 6288   1.185   4.223   0.298  0.0232  0.3520 -0.3533
  418TMC3    C4 6289   1.417   4.070   0.272  0.1784  0.3051  0.0011
  418TMC3    C5 6290   1.363   4.093   0.394  0.1119 -0.1038  0.0834
  418TMC3    C6 6291   1.243   4.163   0.404 -0.4334  0.3567  0.2743
  418TMC3     C 6292   1.404   4.112   0.037 -0.4744  0.4680  0.2391
  418TMC3     O 6293   1.367   4.192  17.694  0.3897 -0.3131  0.3485
  418TMC3     H 6294   1.208   4.258   0.094  1.7426  1.5821 -0.3921
  418TMC3    H1 6295   1.506   4.009   0.259  0.4016  1.1297 -2.3286
  418TMC3    H2 6296   1.197   4.179   0.501 -0.4840  0.3523  0.2514
  418TMC3    C7 6297   1.413   4.035   0.520  0.0226 -0.1495 -0.2046
  418TMC3    C8 6298   1.046   4.226   0.273  0.1449 -0.7666 -0.2948
  418TMC3    O1 6299   1.382   4.109   0.617 -0.0054 -0.1360 -0.1638
  418TMC3    O2 6300   1.008   4.297   0.182  0.5329  0.2478 -0.0284
  419MPD2     C 6301   4.437   1.472  12.866 -0.1602 -0.3068  0.0200
  419MPD2    C1 6302   4.323   1.510  12.802 -0.8489 -0.0487 -0.1192
  419MPD2    C2 6303   4.213   1.564  12.874  0.1262  0.0444 -0.0001
  419MPD2    C3 6304   4.224   1.583  13.008 -0.2950 -0.1306 -0.0018
  419MPD2    C4 6305   4.338   1.538  13.077  0.3246  0.2350  0.4928
  419MPD2    C5 6306   4.441   1.501  12.996  0.1329  0.1914 -0.3941
  419MPD2     H 6307   4.125   1.590  12.815  1.5521  1.5562 -1.4933
  419MPD2    H1 6308   4.363   1.557  13.181  1.4274  2.9421 -0.2802
  419MPD2    H2 6309   4.526   1.425  12.827 -1.5744 -2.6648 -0.3719
  419MPD2    H3 6310   4.534   1.480  13.050 -0.5673 -2.8017 -0.3294
  419MPD2     N 6311   4.113   1.646  13.071 -0.5658  0.3708 -0.4660
  419MPD2    H5 6312   4.042   1.681  13.006 -1.7547 -1.1274  0.0236
  419MPD2    N1 6313   4.312   1.501  12.662 -0.4104 -0.1167 -0.5310
  419MPD2    H7 6314   4.215   1.502  12.632 -0.7166 -1.7770  0.3969
  420TMC3    C1 6315   3.971   1.728  13.238  0.1509  0.0675 -0.3457
  420TMC3    C2 6316   3.861   1.725  13.155 -0.4258 -0.6022  0.5887
  420TMC3    C3 6317   3.741   1.725  13.214  0.0130  0.0957  0.0294
  420TMC3    C4 6318   3.955   1.747  13.375 -0.6901  0.1109  0.5505
  420TMC3    C5 6319   3.832   1.738  13.430 -0.2559 -0.5753  0.0061
  420TMC3    C6 6320   3.724   1.725  13.349  0.2008 -1.0481  0.3337
  420TMC3     C 6321   4.096   1.670  13.206  1.0189  0.8014 -0.1373
  420TMC3     O 6322   4.163   1.635  13.298  0.1970  0.1450  0.3421
  420TMC3     H 6323   3.868   1.709  13.048 -1.5531  3.0009 -0.0300
  420TMC3    H1 6324   4.042   1.763  13.438 -0.7959 -0.7883  0.9165
  420TMC3    H2 6325   3.621   1.710  13.379 -0.2699  2.2779  0.4427
  420TMC3    C7 6326   3.838   1.641  13.539 -0.5971 -0.4380 -0.2407
  420TMC3    C8 6327   3.619   1.762  13.130  0.1450 -0.6868  0.3010
  420TMC3    O1 6328   3.946   1.591  13.569 -0.3125  0.3454 -0.1449
  420TMC3    O2 6329   3.648   1.835  13.037  0.6475  0.2556  0.0335
  421TMC3    C1 6330   1.246   3.073  13.729  0.0124  0.4283  0.1152
  421TMC3    C2 6331   1.193   3.165  13.812 -0.0155  0.5345  0.2105
  421TMC3    C3 6332   1.202   3.147  13.946 -0.3648  0.2493  0.2419
  421TMC3    C4 6333   1.317   2.966  13.775  0.4520  0.4022  0.2945
  421TMC3    C5 6334   1.328   2.957  13.910 -0.3968 -0.4552  0.2302
  421TMC3    C6 6335   1.272   3.042  14.002  0.4144  0.2059 -0.1137
  421TMC3     C 6336   1.261   3.096  13.587  0.2272  0.5516 -0.5074
  421TMC3     O 6337   1.370   3.070  13.536 -0.0539  0.0733  0.3621
  421TMC3     H 6338   1.148   3.258  13.779 -0.7090 -0.3169 -1.2163
  421TMC3    H1 6339   1.353   2.890  13.705  0.8092 -0.2333  1.1684
  421TMC3    H2 6340   1.315   3.060  14.100 -0.7257 -0.1521  0.4522
  421TMC3    C7 6341   1.448   2.896  13.948  0.1118 -0.2458  0.2837
  421TMC3    C8 6342   1.234   3.265  14.023  0.0097  0.3987 -0.1291
  421TMC3    O1 6343   1.509   2.954  14.037 -0.0592 -0.1866 -0.0515
  421TMC3    O2 6344   1.292   3.358  13.967 -0.1524 -0.5140  0.4707
  422TMC3    C1 6345   3.543   4.733  12.203  0.7257 -0.2102 -0.2447
  422TMC3    C2 6346   3.539   0.117  12.274 -0.4014  0.3262  0.2592
  422TMC3    C3 6347   3.423   0.154  12.336 -0.3960 -0.4753 -0.0614
  422TMC3    C4 6348   3.432   4.651  12.203  0.1177  0.1019  0.5353
  422TMC3    C5 6349   3.320   4.689  12.270  0.2914  0.5422 -0.9110
  422TMC3    C6 6350   3.311   0.073  12.336  0.6749 -0.0183  0.0836
  422TMC3     C 6351   3.674   4.684  12.153 -0.3253  0.3064 -0.1929
  422TMC3     O 6352   3.768   0.010  12.207  0.0167  0.2167 -0.0380
  422TMC3     H 6353   3.631   0.174  12.269  0.3099 -0.8342 -0.0300
  422TMC3    H1 6354   3.446   4.551  12.164 -1.4485  0.1995 -0.2679
  422TMC3    H2 6355   3.216   0.105  12.376  1.2500  0.9635  0.6797
  422TMC3    C7 6356   3.229   4.585  12.305 -0.4792  1.3525  0.2265
  422TMC3    C8 6357   3.405   0.281  12.394  0.2421 -0.8295 -0.0057
  422TMC3    O1 6358   3.273   4.468  12.299  0.4254 -0.3077  0.3630
  422TMC3    O2 6359   3.333   0.296  12.494 -0.8108  0.4182 -0.0751
  423MPD2     C 6360   4.675   1.194   0.572  0.1232  0.4961 -0.0514
  423MPD2    C1 6361   4.672   1.056   0.602 -0.8816  0.9439  0.0213
  423MPD2    C2 6362   4.641   0.971   0.498 -0.1592 -0.1579  0.1680
  423MPD2    C3 6363   4.627   1.018   0.365 -0.7804  0.2747 -0.2900
  423MPD2    C4 6364   4.645   1.151   0.338 -0.0824  0.6594  0.5093
  423MPD2    C5 6365   4.668   1.237   0.440 -0.1816  0.5259  0.0418
  423MPD2     H 6366   4.622   0.866   0.517 -0.0000 -0.3333 -0.6363
  423MPD2    H1 6367   4.625   1.195   0.241  0.2805 -2.2678 -0.8997
  423MPD2    H2 6368   4.708   1.269   0.644  0.2575  1.7511 -1.4255
  423MPD2    H3 6369   4.683   1.342   0.416 -1.9850  1.4085  2.9017
  423MPD2     N 6370   4.594   0.932   0.259 -0.2950  0.2162 -0.5594
  423MPD2    H5 6371   4.604   0.972   0.166  0.6535  2.2997  0.4326
  423MPD2    N1 6372   4.693   1.016   0.737  0.2622 -0.0943 -0.6537
  423MPD2    H7 6373   4.703   1.091   0.804 -2.1939 -0.8176  0.5290
  424TMC3    C1 6374   4.729   0.878   0.929  0.3006 -0.2101 -0.6983
  424TMC3    C2 6375   0.081   0.791   0.979  0.1042 -0.8526  0.1272
  424TMC3    C3 6376   0.133   0.815   1.104 -0.4220 -1.1034 -0.8503
  424TMC3    C4 6377   4.683   0.982   1.001 -0.0302  0.2411  0.3726
  424TMC3    C5 6378   4.733   1.001   1.128  0.9890  0.5169  0.2178
  424TMC3    C6 6379   0.091   0.922   1.181 -0.6560 -0.8032 -0.6166
  424TMC3     C 6380   4.705   0.888   0.783 -0.1079 -0.9209  0.8956
  424TMC3     O 6381   4.707   0.790   0.714 -0.0961 -0.1776 -0.0019
  424TMC3     H 6382   0.092   0.694   0.931  3.6860  0.1758 -1.1214
  424TMC3    H1 6383   4.590   1.031   0.971  0.0519 -0.6807 -1.4196
  424TMC3    H2 6384   0.120   0.927   1.285 -0.4089 -3.0625 -0.5874
  424TMC3    C7 6385   4.658   1.071   1.228 -0.0562 -0.1846  0.5159
  424TMC3    C8 6386   0.275   0.777   1.110  0.0102  0.9659 -0.5845
  424TMC3    O1 6387   4.717   1.112   1.326 -0.8692 -0.0001 -0.6565
  424TMC3    O2 6388   0.314   0.694   1.033  0.0181 -0.0422 -0.1351
  425MPD2     C 6389   3.428   0.429  16.780 -0.5556  0.1835 -0.9218
  425MPD2    C1 6390   3.489   0.377  16.891 -0.4833 -0.4092  0.1170
  425MPD2    C2 6391   3.452   0.423  17.015 -0.3438 -0.3347  0.1635
  425MPD2    C3 6392   3.363   0.521  17.030 -0.3265  0.1923 -0.0864
  425MPD2    C4 6393   3.305   0.584  16.916  0.1238 -0.5504 -0.3510
  425MPD2    C5 6394   3.340   0.535  16.791 -0.3491 -0.2426  0.5923
  425MPD2     H 6395   3.484   0.360  17.097 -1.6810 -1.0992  0.0936
  425MPD2    H1 6396   3.237   0.668  16.918  0.4235 -0.2441 -2.4396
  425MPD2    H2 6397   3.444   0.387  16.682 -0.9360 -2.5165  0.1751
  425MPD2    H3 6398   3.302   0.582  16.701  0.3865 -1.5288 -0.3903
  425MPD2     N 6399   3.308   0.529  17.152 -0.6655 -0.0262  0.9481
  425MPD2    H5 6400   3.358   0.471  17.219 -0.5523 -1.8269 -0.6972
  425MPD2    N1 6401   3.564   0.257  16.874 -1.0340 -0.3758  0.1341
  425MPD2    H7 6402   3.558   0.215  16.782  0.9964 -2.1491  0.7928
  426TMC3    C1 6403   3.610   0.031  16.943 -0.0464 -0.4139 -0.9117
  426TMC3    C2 6404   3.651   4.728  16.820  0.2516  0.1146 -0.1809
  426TMC3    C3 6405   3.674   4.592  16.805 -0.0719 -0.1492  0.1917
  426TMC3    C4 6406   3.573   4.675  17.037  0.7777 -0.0429  0.1648
  426TMC3    C5 6407   3.591   4.544  17.014  0.0657 -0.3832  0.3014
  426TMC3    C6 6408   3.638   4.501  16.895  0.2413  0.1774 -0.4194
  426TMC3     C 6409   3.610   0.173  16.977  0.0908  0.6907 -0.0253
  426TMC3     O 6410   3.647   0.204  17.084 -0.5149 -0.4746  0.4685
  426TMC3     H 6411   3.699   0.064  16.754 -0.0786  1.4701  1.0544
  426TMC3    H1 6412   3.554   4.705  17.139  0.7425  3.0886 -0.7374
  426TMC3    H2 6413   3.647   4.398  16.863  2.5680 -0.8546  3.6131
  426TMC3    C7 6414   3.551   4.459  17.120  0.0234  0.0084  0.2945
  426TMC3    C8 6415   3.714   4.540  16.671  0.3926  0.1344 -0.1753
  426TMC3    O1 6416   3.482   4.511  17.210 -0.1084  0.1696 -0.0784
  426TMC3    O2 6417   3.763   4.428  16.679  0.4351 -0.3965 -0.0831
  427MPD2     C 6418   2.476   1.859  15.152 -0.5419  0.6552  0.1416
  427MPD2    C1 6419   2.485   1.963  15.237 -0.7672 -0.9097 -0.0678
  427MPD2    C2 6420   2.414   2.076  15.214  0.2938 -1.2698  0.4356
  427MPD2    C3 6421   2.347   2.091  15.100  0.1692  0.9907 -0.2467
  427MPD2    C4 6422   2.352   1.987  15.009 -0.9488 -0.4222 -0.6894
  427MPD2    C5 6423   2.407   1.865  15.031 -0.5981 -0.4089 -0.5838
  427MPD2     H 6424   2.421   2.157  15.285  1.2686 -0.2793 -0.7855
  427MPD2    H1 6425   2.294   2.000  14.918 -1.4271  1.4737 -0.1299
  427MPD2    H2 6426   2.540   1.773  15.169 -1.0799  0.1656 -0.2843
  427MPD2    H3 6427   2.410   1.779  14.965 -2.7277 -0.5636 -0.4903
  427MPD2     N 6428   2.265   2.206  15.083  0.2783 -0.0153  1.0603
  427MPD2    H5 6429   2.251   2.264  15.165 -0.4702  1.5145 -0.1616
  427MPD2    N1 6430   2.565   1.954  15.352  0.1424  0.1755 -0.2299
  427MPD2    H7 6431   2.590   2.036  15.406 -1.6217  2.1213 -2.3577
  428TMC3    C1 6432   2.681   1.841  15.523  0.4255 -0.0433 -0.0486
  428TMC3    C2 6433   2.666   1.749  15.618  0.5371 -0.8447 -0.2895
  428TMC3    C3 6434   2.779   1.720  15.693  1.1811 -0.2669  0.1669
  428TMC3    C4 6435   2.806   1.895  15.496 -0.1397  0.6525 -0.0618
  428TMC3    C5 6436   2.917   1.860  15.571 -1.2511 -0.4725 -0.2391
  428TMC3    C6 6437   2.906   1.773  15.673  0.7267 -0.1206  0.2999
  428TMC3     C 6438   2.589   1.832  15.412  0.5107 -0.1658 -0.0039
  428TMC3     O 6439   2.532   1.724  15.389  0.3723 -0.4504 -0.3996
  428TMC3     H 6440   2.579   1.684  15.617 -0.6926  0.8436 -2.4752
  428TMC3    H1 6441   2.817   1.957  15.408  1.1001 -0.1361 -0.4556
  428TMC3    H2 6442   2.983   1.745  15.744  3.2404  3.3347 -1.0354
  428TMC3    C7 6443   3.045   1.909  15.540 -0.2341 -0.0702  0.5269
  428TMC3    C8 6444   2.776   1.596  15.765 -0.2702  0.1769  0.8158
  428TMC3    O1 6445   3.131   1.905  15.626  0.9429 -0.3826  0.8329
  428TMC3    O2 6446   2.878   1.536  15.797 -0.0278 -0.0198 -0.1208
  429MPD2     C 6447   3.706   2.388   0.280  0.2326 -1.4851  0.1663
  429MPD2    C1 6448   3.620   2.374   0.169 -0.4100 -0.2111  0.4382
  429MPD2    C2 6449   3.660   2.413   0.039  0.4366  0.6893 -0.2222
  429MPD2    C3 6450   3.797   2.458   0.022  0.3693 -0.0526 -0.4960
  429MPD2    C4 6451   3.877   2.463   0.130 -0.2600 -0.4184  0.2367
  429MPD2    C5 6452   3.837   2.433   0.257  0.2704  0.0688 -0.0201
  429MPD2     H 6453   3.600   2.394  17.693 -1.4591 -0.6200  1.3629
  429MPD2    H1 6454   3.977   2.504   0.124 -1.7693  3.3631  0.3523
  429MPD2    H2 6455   3.675   2.367   0.381 -1.2569 -1.9070 -0.3920
  429MPD2    H3 6456   3.913   2.438   0.334  1.1382 -0.2376 -0.8644
  429MPD2     N 6457   3.830   2.502  17.631 -0.4045 -0.3359  0.8321
  429MPD2    H5 6458   3.764   2.477  17.559  0.9384 -1.1265 -0.1251
  429MPD2    N1 6459   3.491   2.320   0.178 -0.2022  0.7164 -0.2523
  429MPD2    H7 6460   3.454   2.282   0.091 -2.8455 -1.0616  1.6593
  430TMC3    C1 6461   3.972   2.567  17.456 -0.0985  0.2890 -0.0597
  430TMC3    C2 6462   3.861   2.601  17.385 -0.0504  0.6322  0.1921
  430TMC3    C3 6463   3.877   2.623  17.256  0.5178 -0.4679  0.7301
  430TMC3    C4 6464   4.096   2.542  17.400  0.8780 -0.1917 -0.4626
  430TMC3    C5 6465   4.105   2.548  17.261 -0.0087 -0.4156  0.4410
  430TMC3    C6 6466   4.001   2.596  17.191 -0.7029  0.0948  0.1244
  430TMC3     C 6467   3.958   2.548  17.597 -0.3478 -1.0491 -0.8306
  430TMC3     O 6468   4.044   2.593  17.672 -0.3206  0.2122 -0.3796
  430TMC3     H 6469   3.766   2.627  17.430 -0.1536  0.3926  0.1141
  430TMC3    H1 6470   4.166   2.487  17.462 -1.3821 -1.9023  0.5627
  430TMC3    H2 6471   4.014   2.611  17.084  0.1054  2.4043  0.5495
  430TMC3    C7 6472   4.192   2.470  17.185  0.1022  0.3744  0.7944
  430TMC3    C8 6473   3.775   2.706  17.182 -0.4182 -0.6828  0.0205
  430TMC3    O1 6474   4.182   2.462  17.063  0.5808 -0.6356 -0.5999
  430TMC3    O2 6475   3.817   2.768  17.083  0.3232 -0.4920 -0.0019
  431MPD2     C 6476   4.243   2.281  12.406  0.6164  0.2285 -0.5496
  431MPD2    C1 6477   4.355   2.219  12.366 -0.0945  0.2092 -0.3077
  431MPD2    C2 6478   4.358   2.083  12.331  0.6541 -0.4438 -0.2276
  431MPD2    C3 6479   4.247   2.004  12.344 -0.4717 -0.2078 -0.3583
  431MPD2    C4 6480   4.134   2.064  12.390 -0.5122 -0.7896 -0.0630
  431MPD2    C5 6481   4.130   2.199  12.422  0.0442  0.5834 -0.1467
  431MPD2     H 6482   4.450   2.034  12.301  1.9237  1.0007  1.3499
  431MPD2    H1 6483   4.042   2.010  12.407 -0.7614  0.1073  1.4253
  431MPD2    H2 6484   4.234   2.384  12.440  0.7223  0.5691 -1.5520
  431MPD2    H3 6485   4.040   2.245  12.461 -0.3554  0.8674 -1.4059
  431MPD2     N 6486   4.234   1.865  12.324  0.0568  0.3684  0.4890
  431MPD2    H5 6487   4.149   1.812  12.342 -0.1049  0.3039 -0.4927
  431MPD2    N1 6488   4.478   2.288  12.340  0.3694  0.3960  0.2752
  431MPD2    H7 6489   4.549   2.241  12.285 -1.3953 -1.4410 -0.4671
  432TMC3    C1 6490   4.326   1.651  12.275  0.5793  0.1444 -0.0698
  432TMC3    C2 6491   4.419   1.593  12.193 -0.3212 -0.1278  0.8051
  432TMC3    C3 6492   4.470   1.470  12.232 -0.7676 -1.1956  0.5061
  432TMC3    C4 6493   4.293   1.593  12.391  0.1868 -0.1601  0.4643
  432TMC3    C5 6494   4.366   1.485  12.437  0.3702  0.0256 -0.4162
  432TMC3    C6 6495   4.466   1.434  12.359 -0.3074  0.3585  0.1918
  432TMC3     C 6496   4.341   1.793  12.279  0.0488  0.2563  0.1675
  432TMC3     O 6497   4.442   1.840  12.224 -0.2113 -0.1339  0.4310
  432TMC3     H 6498   4.449   1.638  12.099  1.4939  1.8746  2.3450
  432TMC3    H1 6499   4.233   1.645  12.465  3.4720  4.0965  0.1375
  432TMC3    H2 6500   4.526   1.347  12.383 -1.6273 -0.2191  1.3676
  432TMC3    C7 6501   4.412   1.486  12.573  0.2267 -0.1989  0.0790
  432TMC3    C8 6502   4.569   1.403  12.148  0.7129  0.2159 -0.3892
  432TMC3    O1 6503   4.529   1.473  12.594 -0.6020  1.0458  0.0814
  432TMC3    O2 6504   4.589   1.285  12.165  0.0742 -0.1297  0.1521
  433MPD2     C 6505   3.541   1.019  10.424 -0.2261 -0.3731 -0.3195
  433MPD2    C1 6506   3.498   0.925  10.506  0.4499 -0.3599 -1.4367
  433MPD2    C2 6507   3.488   0.941  10.642  0.2454  0.3696 -0.0220
  433MPD2    C3 6508   3.532   1.062  10.692  0.7641 -0.1670 -0.8574
  433MPD2    C4 6509   3.586   1.163  10.611 -0.1621 -0.3341  0.2862
  433MPD2    C5 6510   3.595   1.132  10.485  0.5313 -0.3585  0.1632
  433MPD2     H 6511   3.454   0.858  10.702  0.1061 -0.1576 -0.8500
  433MPD2    H1 6512   3.623   1.257  10.648  0.6081 -0.9064  0.9772
  433MPD2    H2 6513   3.550   1.018  10.316 -1.4162 -3.4029 -0.3943
  433MPD2    H3 6514   3.636   1.206  10.416  1.3635 -0.6782  0.3192
  433MPD2     N 6515   3.533   1.073  10.828 -0.1577  0.0061 -0.5599
  433MPD2    H5 6516   3.499   0.988  10.873 -1.9243 -0.0402 -1.9997
  433MPD2    N1 6517   3.459   0.799  10.462 -0.7926  0.0773 -0.0921
  433MPD2    H7 6518   3.425   0.741  10.539  1.0781 -0.7038  0.1513
  434TMC3    C1 6519   3.464   0.602  10.348 -0.8288 -0.2083  0.5953
  434TMC3    C2 6520   3.485   0.542  10.464  0.3771  0.4786  0.0801
  434TMC3    C3 6521   3.487   0.408  10.461  0.2318 -1.0980  0.5946
  434TMC3    C4 6522   3.454   0.539  10.231  0.9196  0.1425 -0.1022
  434TMC3    C5 6523   3.474   0.405  10.230 -0.0101  0.1060 -0.1327
  434TMC3    C6 6524   3.494   0.334  10.347 -0.0919 -0.1774  0.3793
  434TMC3     C 6525   3.473   0.746  10.342  0.4117  0.0113 -0.0701
  434TMC3     O 6526   3.526   0.790  10.241  0.0035  0.1316  0.1211
  434TMC3     H 6527   3.496   0.586  10.562 -2.0727  0.3257  0.4190
  434TMC3    H1 6528   3.434   0.597  10.142  1.0224  0.4250  0.0585
  434TMC3    H2 6529   3.470   0.231  10.371 -1.2252 -0.6089 -2.5865
  434TMC3    C7 6530   3.401   0.337  10.122 -0.3128  0.4505  0.2259
  434TMC3    C8 6531   3.540   0.339  10.576  0.1422  0.0815 -0.3968
  434TMC3    O1 6532   3.314   0.402  10.062 -0.1548  0.1426  0.4720
  434TMC3    O2 6533   3.499   0.370  10.688  0.2756 -0.4000 -0.1191
  435MPD2     C 6534   0.635   1.071  15.425 -0.0040 -0.8943  0.1860
  435MPD2    C1 6535   0.570   1.062  15.550  0.8493  0.7155 -0.3743
  435MPD2    C2 6536   0.644   1.015  15.657 -0.1395 -0.0609 -0.0773
  435MPD2    C3 6537   0.769   0.957  15.637 -0.5138  0.1475  0.3435
  435MPD2    C4 6538   0.826   0.957  15.507 -0.3689 -0.0084  0.4250
  435MPD2    C5 6539   0.763   1.023  15.404  0.7926 -0.2332 -0.0443
  435MPD2     H 6540   0.600   0.998  15.755  2.1650  3.3024  1.5253
  435MPD2    H1 6541   0.925   0.916  15.491 -0.3644  0.5745 -1.0821
  435MPD2    H2 6542   0.582   1.116  15.342 -1.4298  0.3384  1.7703
  435MPD2    H3 6543   0.809   1.036  15.307 -0.6564 -0.4860 -0.7730
  435MPD2     N 6544   0.816   0.882  15.747 -0.3582 -0.3049  0.0164
  435MPD2    H5 6545   0.756   0.899  15.827 -0.1304 -2.1008  0.5757
  435MPD2    N1 6546   0.437   1.106  15.568 -0.0335 -0.3376  0.0557
  435MPD2    H7 6547   0.403   1.097  15.664 -0.9969 -0.8732 -0.3301
  436TMC3    C1 6548   0.049   1.185  15.685  0.8390  0.0214 -0.3385
  436TMC3    C2 6549   0.162   1.143  15.622 -0.5077 -0.0530 -0.1757
  436TMC3    C3 6550   0.233   1.227  15.536 -0.1718 -0.9033  0.2368
  436TMC3    C4 6551   0.000   1.306  15.660 -0.3927 -0.1151  0.6947
  436TMC3    C5 6552   0.065   1.385  15.564 -0.0319  0.5722 -0.2300
  436TMC3    C6 6553   0.190   1.358  15.508  0.1379  0.2873 -0.1178
  436TMC3     C 6554   4.712   1.089  15.767  0.1208 -0.5439  0.2179
  436TMC3     O 6555   0.032   0.982  15.783  0.1463  0.3341  0.1111
  436TMC3     H 6556   0.187   1.038  15.626  0.6946  0.2144 -0.8852
  436TMC3    H1 6557   4.635   1.332  15.689 -1.6370 -1.9006 -2.0706
  436TMC3    H2 6558   0.221   1.409  15.417 -1.3596 -0.9943 -1.3602
  436TMC3    C7 6559   4.698   1.456  15.480  0.1730 -0.2435  0.1218
  436TMC3    C8 6560   0.360   1.189  15.483 -0.0710 -0.1885 -0.0835
  436TMC3    O1 6561   4.587   1.404  15.476 -0.2636  0.5406  0.4771
  436TMC3    O2 6562   0.403   1.251  15.391  0.0663 -0.8271 -0.2288
  437TMC3    C1 6563   4.169   2.864  11.747  0.4293  0.4070 -0.0771
  437TMC3    C2 6564   4.201   2.828  11.619  0.6276 -0.1187 -0.2072
  437TMC3    C3 6565   4.262   2.917  11.533 -0.5566 -0.0340 -0.0879
  437TMC3    C4 6566   4.207   2.984  11.796 -0.1862  0.5645  0.0655
  437TMC3    C5 6567   4.260   3.074  11.708 -1.0699  0.7763 -0.2223
  437TMC3    C6 6568   4.276   3.045  11.568  0.6205 -0.2726  0.3696
  437TMC3     C 6569   4.127   2.762  11.837 -0.1098 -0.1277 -0.1678
  437TMC3     O 6570   4.111   2.650  11.788 -0.2721  0.5939  0.0801
  437TMC3     H 6571   4.178   2.728  11.585 -1.2772  1.0434 -2.3144
  437TMC3    H1 6572   4.181   3.018  11.895  1.4070  0.5071  0.5139
  437TMC3    H2 6573   4.319   3.125  11.510  0.0851  1.1462  1.9242
  437TMC3    C7 6574   4.349   3.181  11.744 -0.3396 -0.2014 -0.2167
  437TMC3    C8 6575   4.273   2.877  11.395 -0.4907 -0.1607 -0.0163
  437TMC3    O1 6576   4.329   3.293  11.696 -0.4612 -0.2765 -0.0734
  437TMC3    O2 6577   4.248   2.956  11.302 -0.2126  0.1696 -0.0791
  438MPD2     C 6578   1.737   3.949  16.564  0.2003 -0.1824  0.0271
  438MPD2    C1 6579   1.777   3.830  16.634  0.7569  0.6707 -0.8298
  438MPD2    C2 6580   1.738   3.806  16.760  0.2929 -0.0200  0.3196
  438MPD2    C3 6581   1.653   3.903  16.825  0.1140  0.1751 -0.0773
  438MPD2    C4 6582   1.626   4.021  16.764  0.4828  0.2528  0.2620
  438MPD2    C5 6583   1.663   4.042  16.633  0.1473  0.1529  0.0639
  438MPD2     H 6584   1.761   3.713  16.811 -1.3217  0.1899  1.4134
  438MPD2    H1 6585   1.561   4.095  16.808 -0.2503 -0.2099 -0.0402
  438MPD2    H2 6586   1.770   3.966  16.462  2.1045 -2.6457  0.2262
  438MPD2    H3 6587   1.633   4.140  16.596 -0.1677 -0.2141 -0.6480
  438MPD2     N 6588   1.594   3.879  16.951  0.6870 -0.2613 -0.1886
  438MPD2    H5 6589   1.514   3.936  16.978  0.3439 -0.0237 -1.6935
  438MPD2    N1 6590   1.832   3.718  16.569  0.4308  0.6168 -0.5254
  438MPD2    H7 6591   1.859   3.633  16.618 -0.5038  1.3538  1.2468
  439TMC3    C1 6592   1.935   3.594  16.391  0.2774 -0.5488  0.8560
  439TMC3    C2 6593   1.920   3.550  16.263  0.0912  0.3645  0.3670
  439TMC3    C3 6594   1.983   3.433  16.235  0.0530 -0.2271  0.2168
  439TMC3    C4 6595   2.017   3.530  16.488  0.4052  0.0702 -0.3525
  439TMC3    C5 6596   2.064   3.410  16.450 -0.6752  0.2211  0.4359
  439TMC3    C6 6597   2.048   3.357  16.326 -0.1068 -0.3168 -0.6200
  439TMC3     C 6598   1.843   3.701  16.433 -0.6938 -0.5890  0.4207
  439TMC3     O 6599   1.769   3.752  16.352 -0.1814 -0.0968 -0.3321
  439TMC3     H 6600   1.851   3.599  16.197 -0.5734  0.1247  0.8843
  439TMC3    H1 6601   2.047   3.578  16.580 -1.0620 -1.3550  0.8584
  439TMC3    H2 6602   2.124   3.286  16.295  0.7048 -0.6577  2.1031
  439TMC3    C7 6603   2.125   3.328  16.553  0.2516  0.4121  0.4168
  439TMC3    C8 6604   2.003   3.388  16.099 -0.2349 -0.4321 -0.0338
  439TMC3    O1 6605   2.151   3.395  16.652  0.4861  0.5931 -0.2439
  439TMC3    O2 6606   2.016   3.269  16.087 -0.1549  0.2388 -0.1890
  440MPD2     C 6607   0.056   3.760  14.575  0.1621  0.0633 -0.4792
  440MPD2    C1 6608   0.130   3.862  14.630  1.0243 -0.2799  0.7974
  440MPD2    C2 6609   0.259   3.834  14.674  0.6914  0.2248 -0.0991
  440MPD2    C3 6610   0.307   3.705  14.674  0.1163 -0.6857 -0.0172
  440MPD2    C4 6611   0.236   3.603  14.614  0.4917  0.1108 -0.2563
  440MPD2    C5 6612   0.106   3.628  14.573  0.2565 -0.0515 -0.2912
  440MPD2     H 6613   0.313   3.913  14.726  0.8399  0.8382 -1.1747
  440MPD2    H1 6614   0.279   3.505  14.597 -3.0596 -1.8555  2.0677
  440MPD2    H2 6615   4.695   3.769  14.527  0.1545 -0.5766 -0.5774
  440MPD2    H3 6616   0.058   3.546  14.520  0.1757 -0.5120  0.5074
  440MPD2     N 6617   0.434   3.671  14.732 -0.2280 -0.2058  0.0387
  440MPD2    H5 6618   0.469   3.577  14.745 -0.0273 -0.2212 -0.6094
  440MPD2    N1 6619   0.094   3.999  14.632 -0.0719 -0.5270  0.0711
  440MPD2    H7 6620   0.151   4.062  14.686  1.1145  0.3266 -2.1639
  441TMC3    C1 6621   0.625   3.708  14.851  0.2254 -0.5859 -0.7795
  441TMC3    C2 6622   0.720   3.798  14.892  0.3664  0.6429 -0.7033
  441TMC3    C3 6623   0.798   3.772  15.002  0.3046 -0.2421  0.0887
  441TMC3    C4 6624   0.603   3.587  14.909  0.1774 -0.1473  0.9471
  441TMC3    C5 6625   0.667   3.577  15.035 -0.1248  0.0485 -0.2008
  441TMC3    C6 6626   0.765   3.662  15.079 -0.3815 -0.5479 -0.3703
  441TMC3     C 6627   0.522   3.763  14.773  0.2322 -0.1794 -0.0689
  441TMC3     O 6628   0.525   3.886  14.754  0.7078 -0.4659 -0.3867
  441TMC3     H 6629   0.736   3.874  14.816 -0.0149 -0.4330 -1.8633
  441TMC3    H1 6630   0.513   3.530  14.888 -1.4041  1.8452  2.1884
  441TMC3    H2 6631   0.803   3.650  15.180  1.8751 -0.9823 -1.2919
  441TMC3    C7 6632   0.622   3.471  15.124  0.1823 -0.4535  0.2707
  441TMC3    C8 6633   0.840   3.884  15.071  0.2998 -0.1455 -0.0896
  441TMC3    O1 6634   0.606   3.357  15.081  0.0120  0.0252  0.3585
  441TMC3    O2 6635   0.934   3.871  15.149  0.1783  0.0654 -0.1583
  442MPD2     C 6636   3.293   4.663  16.532 -0.1373  0.2352  0.1985
  442MPD2    C1 6637   3.278   4.569  16.632  0.3638 -0.1402  0.3852
  442MPD2    C2 6638   3.269   4.431  16.591  0.2182 -0.0516  0.1710
  442MPD2    C3 6639   3.274   4.384  16.460 -0.1310 -0.2493 -0.5490
  442MPD2    C4 6640   3.293   4.482  16.363  1.0858 -0.6200 -0.1519
  442MPD2    C5 6641   3.308   4.612  16.404  0.3828  0.5595 -0.1423
  442MPD2     H 6642   3.243   4.360  16.668  0.3573 -0.0732  0.1975
  442MPD2    H1 6643   3.304   4.450  16.260 -1.9172 -1.0272 -0.3650
  442MPD2    H2 6644   3.294   0.036  16.533  0.0113  0.2398 -0.3609
  442MPD2    H3 6645   3.329   4.689  16.330 -0.9674 -1.4168 -2.5627
  442MPD2     N 6646   3.289   4.246  16.433 -0.0939  0.5028 -0.3777
  442MPD2    H5 6647   3.328   4.226  16.341 -0.9865 -1.9015 -0.2338
  442MPD2    N1 6648   3.261   4.610  16.766  0.2205 -0.1520  0.4270
  442MPD2    H7 6649   3.232   4.541  16.834 -1.2823 -0.1987 -0.2646
  443TMC3    C1 6650   3.211   0.033  16.941 -0.2103 -0.3624 -0.6111
  443TMC3    C2 6651   3.142   0.155  16.933  0.5165 -0.4665  0.0703
  443TMC3    C3 6652   3.007   0.158  16.938  0.0848  0.2683  0.2690
  443TMC3    C4 6653   3.144   4.662  16.989  0.0001 -0.0401  0.0620
  443TMC3    C5 6654   3.009   4.671  17.016 -0.6258 -0.4627  0.5139
  443TMC3    C6 6655   2.942   0.047  16.984 -0.1609 -0.0210 -0.2718
  443TMC3     C 6656   3.278   0.004  16.815 -0.0044 -0.3402  0.7946
  443TMC3     O 6657   3.308   0.105  16.755 -0.1183  0.0726 -0.7025
  443TMC3     H 6658   3.181   0.228  16.862  0.9907 -0.9260 -0.1431
  443TMC3    H1 6659   3.196   4.568  17.003  0.3347  0.1692  0.2237
  443TMC3    H2 6660   2.838   0.034  16.958  0.3201  1.2150 -2.7733
  443TMC3    C7 6661   2.957   4.563  17.087 -0.2467  0.6170  0.5816
  443TMC3    C8 6662   2.953   0.226  16.823  0.1562  0.5292 -0.0955
  443TMC3    O1 6663   3.016   4.455  17.086 -0.0760 -0.1495  0.6170
  443TMC3    O2 6664   2.965   0.347  16.819 -0.1261 -0.5660 -0.5912
  444MPD2     C 6665   3.486   4.159  16.795  0.0998 -0.2321  0.2045
  444MPD2    C1 6666   3.439   4.040  16.841 -0.0836 -0.4134 -0.3706
  444MPD2    C2 6667   3.484   3.913  16.797  0.3189 -0.5770 -0.5654
  444MPD2    C3 6668   3.597   3.909  16.711  0.2594 -0.1334 -0.2485
  444MPD2    C4 6669   3.642   4.028  16.664  0.3285 -0.5996  0.3749
  444MPD2    C5 6670   3.583   4.147  16.695 -0.4465  0.2300  0.2630
  444MPD2     H 6671   3.449   3.821  16.841  0.1698 -1.5494 -2.7202
  444MPD2    H1 6672   3.713   4.024  16.582 -0.1781  0.0606 -0.0977
  444MPD2    H2 6673   3.453   4.257  16.825 -0.8155 -0.5895  0.3727
  444MPD2    H3 6674   3.614   4.236  16.641  0.8743 -0.1965  0.3042
  444MPD2     N 6675   3.660   3.783  16.679  0.7675  0.0599 -0.5237
  444MPD2    H5 6676   3.608   3.700  16.706  1.4796 -0.1905  0.0747
  444MPD2    N1 6677   3.339   4.038  16.934  0.8464 -0.0494  0.6124
  444MPD2    H7 6678   3.321   3.951  16.984 -0.9951 -0.8794 -1.4754
  445TMC3    C1 6679   3.818   3.640  16.586  0.0907 -0.0070  0.1185
  445TMC3    C2 6680   3.712   3.565  16.543  0.7186 -0.0381 -0.2630
  445TMC3    C3 6681   3.749   3.442  16.494  0.1909 -1.1246 -0.7463
  445TMC3    C4 6682   3.950   3.604  16.585  0.6423 -0.7084  0.7780
  445TMC3    C5 6683   3.976   3.468  16.549  0.0277  0.4191 -1.0148
  445TMC3    C6 6684   3.874   3.389  16.497 -0.2105 -0.8295 -0.1809
  445TMC3     C 6685   3.790   3.770  16.644 -0.4814 -0.6620  0.1521
  445TMC3     O 6686   3.876   3.854  16.662 -0.2445 -0.1080  0.1719
  445TMC3     H 6687   3.612   3.604  16.554  0.5244 -0.2748 -1.2012
  445TMC3    H1 6688   4.030   3.667  16.622 -0.4203  0.0781  1.7382
  445TMC3    H2 6689   3.903   3.297  16.448  0.2534 -0.0682 -1.3284
  445TMC3    C7 6690   4.115   3.431  16.516  0.2093  0.3399 -0.1570
  445TMC3    C8 6691   3.663   3.378  16.399 -0.2896  0.5531 -0.1128
  445TMC3    O1 6692   4.180   3.525  16.474  0.1169  0.4412 -0.0542
  445TMC3    O2 6693   3.689   3.260  16.376  0.1111  0.3059 -0.0163
  446MPD2     C 6694   3.247   0.128  11.134  0.9342 -0.2291  0.0825
  446MPD2    C1 6695   3.254   0.144  10.995 -0.2231  0.0239  0.3235
  446MPD2    C2 6696   3.349   0.229  10.941 -0.1228  0.0015 -0.4224
  446MPD2    C3 6697   3.438   0.298  11.020  0.3100 -0.2847  0.7368
  446MPD2    C4 6698   3.426   0.287  11.160 -0.5694  0.4826  0.3235
  446MPD2    C5 6699   3.335   0.204  11.210 -0.1672  0.1743 -0.4814
  446MPD2     H 6700   3.359   0.239  10.834  1.1112  2.3703 -0.0763
  446MPD2    H1 6701   3.482   0.345  11.231  0.8318  1.1104 -1.2898
  446MPD2    H2 6702   3.171   0.079  11.194 -1.0133  3.2178  0.4797
  446MPD2    H3 6703   3.323   0.195  11.318 -2.5694  0.6321 -0.7151
  446MPD2     N 6704   3.532   0.377  10.952 -0.5074  0.2412  0.0449
  446MPD2    H5 6705   3.516   0.397  10.854 -0.6805  0.6411  0.1529
  446MPD2    N1 6706   3.176   0.067  10.907  0.0461 -0.2846 -0.3849
  446MPD2    H7 6707   3.170   0.089  10.808 -2.1345 -0.6882 -0.3539
  447TMC3    C1 6708   3.766   0.442  10.925  0.2903 -0.1265 -0.8510
  447TMC3    C2 6709   3.736   0.506  10.812 -0.2751 -0.3572  0.1054
  447TMC3    C3 6710   3.843   0.525  10.728 -0.0046 -0.0530  0.1005
  447TMC3    C4 6711   3.884   0.383  10.960  0.4268  0.4004 -0.0322
  447TMC3    C5 6712   3.979   0.390  10.864  0.1272  1.2305 -0.4452
  447TMC3    C6 6713   3.963   0.461  10.746 -0.6888  0.0911  0.3197
  447TMC3     C 6714   3.654   0.407  11.013 -0.0086  0.5842  0.0495
  447TMC3     O 6715   3.680   0.361  11.122 -0.0627 -0.2506 -0.1243
  447TMC3     H 6716   3.638   0.552  10.799 -0.8739 -1.7083 -0.2056
  447TMC3    H1 6717   3.892   0.345  11.061 -4.9344  0.5505  0.4327
  447TMC3    H2 6718   4.042   0.471  10.671 -0.7106  0.6956  0.3737
  447TMC3    C7 6719   4.103   0.313  10.878 -0.4273 -0.3488  0.0699
  447TMC3    C8 6720   3.826   0.618  10.616 -0.5207 -0.3172  0.9387
  447TMC3    O1 6721   4.205   0.341  10.813  0.3357 -0.1424  0.4489
  447TMC3    O2 6722   3.719   0.667  10.598  0.2029  0.1910 -0.0325
  448TMC3    C1 6723   1.523   0.290  16.606 -0.0740 -0.1897 -0.0941
  448TMC3    C2 6724   1.540   0.163  16.543  0.1342  0.2142  0.3872
  448TMC3    C3 6725   1.603   0.069  16.617 -0.3866 -0.2875 -0.2872
  448TMC3    C4 6726   1.585   0.334  16.723 -0.1263  0.3734 -0.0151
  448TMC3    C5 6727   1.650   0.228  16.787 -0.4666 -0.2283  0.7814
  448TMC3    C6 6728   1.657   0.101  16.739  0.3706 -0.2330 -0.4546
  448TMC3     C 6729   1.433   0.383  16.539 -0.9548  0.2262  0.2462
  448TMC3     O 6730   1.403   0.354  16.422 -0.4999  0.5499 -0.1330
  448TMC3     H 6731   1.516   0.148  16.438  1.6620  0.4929 -0.0084
  448TMC3    H1 6732   1.590   0.434  16.763 -1.8798  0.6175 -0.3774
  448TMC3    H2 6733   1.735   0.040  16.783 -0.4479  0.5699  2.1101
  448TMC3    C7 6734   1.698   0.252  16.918 -0.1103  0.3660 -0.1596
  448TMC3    C8 6735   1.643   4.673  16.561 -0.9846  0.4024 -0.2986
  448TMC3    O1 6736   1.756   0.358  16.945 -0.4757  0.7344 -0.7964
  448TMC3    O2 6737   1.704   4.610  16.645  0.5702  0.4209  0.1715
  449MPD2     C 6738   3.144   3.103  13.466 -0.7698  0.1723  0.3299
  449MPD2    C1 6739   3.045   3.182  13.411 -0.0940  0.1798 -0.2906
  449MPD2    C2 6740   2.938   3.200  13.502  0.1979 -0.3083 -0.1981
  449MPD2    C3 6741   2.925   3.137  13.627  0.1512  0.0412 -0.3337
  449MPD2    C4 6742   3.022   3.046  13.666  0.1357  0.0106 -0.4861
  449MPD2    C5 6743   3.130   3.034  13.582  1.2131 -0.2997  0.3093
  449MPD2     H 6744   2.857   3.262  13.466 -0.2097  0.0528  1.3527
  449MPD2    H1 6745   3.006   2.986  13.755  3.5026  2.1485  1.5564
  449MPD2    H2 6746   3.240   3.101  13.417 -0.6162 -1.4695  0.7036
  449MPD2    H3 6747   3.207   2.964  13.612  1.6883  0.0759 -0.0375
  449MPD2     N 6748   2.802   3.162  13.701  0.0472 -0.3510  0.2837
  449MPD2    H5 6749   2.741   3.234  13.664  0.7631 -0.0055 -0.2205
  449MPD2    N1 6750   3.051   3.248  13.288 -0.0261 -1.0734 -0.1930
  449MPD2    H7 6751   2.979   3.316  13.266 -0.2691 -1.0480  0.6806
  450TMC3    C1 6752   3.128   3.400  13.137 -0.2815 -0.9111  0.5096
  450TMC3    C2 6753   3.201   3.511  13.147 -0.1083  0.0803  0.2645
  450TMC3    C3 6754   3.147   3.631  13.115  0.3152 -0.7923  0.7884
  450TMC3    C4 6755   3.001   3.415  13.087  0.6966 -0.0035  0.2616
  450TMC3    C5 6756   2.934   3.534  13.073 -0.3284 -0.4684 -0.3404
  450TMC3    C6 6757   3.012   3.646  13.088  0.2829  0.5178  0.5232
  450TMC3     C 6758   3.163   3.280  13.212  0.9901 -0.0349  0.0271
  450TMC3     O 6759   3.281   3.246  13.236 -0.3388  0.0209 -0.0507
  450TMC3     H 6760   3.305   3.500  13.175  0.0699  1.4175  0.1228
  450TMC3    H1 6761   2.946   3.326  13.060  1.2566  0.2619 -1.7644
  450TMC3    H2 6762   2.976   3.749  13.084  0.2273  0.4028 -1.6437
  450TMC3    C7 6763   2.830   3.523  13.173  0.0359  0.2847 -0.7275
  450TMC3    C8 6764   3.231   3.740  13.068 -0.6380 -0.4996 -0.2367
  450TMC3    O1 6765   2.821   3.422  13.237 -0.6293 -0.0445  0.4109
  450TMC3    O2 6766   3.184   3.851  13.049  0.1048 -0.1076  0.1428
  451MPD2     C 6767   4.323   1.658   1.234 -0.2891  0.2567 -0.6204
  451MPD2    C1 6768   4.319   1.777   1.167 -0.3405  0.1786 -0.1231
  451MPD2    C2 6769   4.403   1.792   1.060 -0.4530  0.6851 -0.9634
  451MPD2    C3 6770   4.478   1.682   1.014 -0.7358 -0.0383  0.9510
  451MPD2    C4 6771   4.489   1.565   1.088  0.3694  0.1945  0.2498
  451MPD2    C5 6772   4.403   1.552   1.194  0.4637  0.1698 -0.2857
  451MPD2     H 6773   4.391   1.878   0.995  2.7145  2.2664  0.5663
  451MPD2    H1 6774   4.557   1.483   1.068 -1.2743 -0.8241 -1.1117
  451MPD2    H2 6775   4.272   1.634   1.326 -1.8487  0.9091 -1.3273
  451MPD2    H3 6776   4.403   1.457   1.248 -0.5216 -0.0967 -0.7514
  451MPD2     N 6777   4.544   1.688   0.887  0.0263  0.2750 -0.3113
  451MPD2    H5 6778   4.585   1.601   0.854  0.9483  1.3399 -1.9537
  451MPD2    N1 6779   4.225   1.878   1.196 -0.1415 -0.1391  0.2345
  451MPD2    H7 6780   4.235   1.968   1.150  1.0874 -0.8860 -0.9372
  452TMC3    C1 6781   4.626   1.800   0.699  0.4062  0.5982  0.4435
  452TMC3    C2 6782   4.576   1.698   0.625  0.3567  0.5986  1.2023
  452TMC3    C3 6783   4.597   1.698   0.486 -0.1880  0.6509 -0.8992
  452TMC3    C4 6784   4.688   1.906   0.642 -0.0620  0.0295  0.1133
  452TMC3    C5 6785   4.710   1.902   0.505 -0.7462  0.2483 -0.6123
  452TMC3    C6 6786   4.655   1.803   0.422 -0.0586  0.0104  0.9926
  452TMC3     C 6787   4.584   1.810   0.833  0.4548 -0.5004 -1.0967
  452TMC3     O 6788   4.571   1.925   0.866 -0.3742 -0.1535 -0.1158
  452TMC3     H 6789   4.514   1.623   0.675  1.6183 -0.1342  1.6603
  452TMC3    H1 6790   4.725   1.988   0.701 -0.9915  0.8540 -0.4373
  452TMC3    H2 6791   4.679   1.807   0.316 -0.3320 -0.0368  0.9299
  452TMC3    C7 6792   0.038   2.010   0.434  0.0197 -0.1615  0.0235
  452TMC3    C8 6793   4.537   1.594   0.397 -0.3776  0.5624 -0.2828
  452TMC3    O1 6794   4.731   2.030   0.322  0.2436 -0.0081 -0.7760
  452TMC3    O2 6795   4.450   1.520   0.443  0.1218  0.5786  0.1072
  453TMC3    C1 6796   1.051   4.086  12.087  0.3609  0.1764  0.0479
  453TMC3    C2 6797   1.009   3.957  12.058 -0.1350 -0.7899 -0.6766
  453TMC3    C3 6798   0.884   3.928  12.025  0.2962 -0.6509 -0.3332
  453TMC3    C4 6799   0.967   4.188  12.074  0.4112  0.0813 -0.4095
  453TMC3    C5 6800   0.838   4.160  12.035 -0.2987  0.0132  0.0703
  453TMC3    C6 6801   0.792   4.031  12.018  0.4982  0.3914 -0.1880
  453TMC3     C 6802   1.185   4.108  12.132  1.1479  0.1050  0.3923
  453TMC3     O 6803   1.229   4.223  12.111  0.6610  0.3384 -0.1975
  453TMC3     H 6804   1.084   3.879  12.061  1.0075  0.3269 -0.2862
  453TMC3    H1 6805   0.996   4.290  12.097  0.1470  0.0197  0.2160
  453TMC3    H2 6806   0.686   4.020  12.000  0.4380  0.1484  0.3157
  453TMC3    C7 6807   0.762   4.276  11.987 -0.7213 -0.3661  0.5638
  453TMC3    C8 6808   0.825   3.794  11.999  1.0171  0.5207 -0.4745
  453TMC3    O1 6809   0.830   4.382  11.983 -0.6098 -0.1847  0.3011
  453TMC3    O2 6810   0.705   3.796  12.025 -0.6773  0.3822  0.4452
  454MPD2     C 6811   4.360   3.608  16.172  0.2140 -0.0583 -0.5516
  454MPD2    C1 6812   4.285   3.712  16.115  1.0835 -0.4295  0.0131
  454MPD2    C2 6813   4.268   3.832  16.186 -0.2562  0.1826 -0.3915
  454MPD2    C3 6814   4.324   3.847  16.315 -0.4723  0.4416 -0.5552
  454MPD2    C4 6815   4.400   3.740  16.361  0.1453 -1.3266 -0.0896
  454MPD2    C5 6816   4.427   3.627  16.289 -0.4582 -0.4677 -0.0520
  454MPD2     H 6817   4.211   3.912  16.141 -0.6845 -0.5469 -1.1514
  454MPD2    H1 6818   4.425   3.738  16.467  2.8445  0.8734 -0.6733
  454MPD2    H2 6819   4.375   3.508  16.134 -0.3089 -0.1766 -0.4456
  454MPD2    H3 6820   4.480   3.547  16.341 -1.8618 -0.8787  0.7596
  454MPD2     N 6821   4.299   3.963  16.386  0.5787  0.2833 -0.1023
  454MPD2    H5 6822   4.372   3.986  16.453 -0.3114  0.1236  0.9269
  454MPD2    N1 6823   4.213   3.701  15.990 -0.2019  0.5381 -0.1969
  454MPD2    H7 6824   4.175   3.788  15.954 -1.5562 -0.5657 -1.4248
  455TMC3    C1 6825   4.062   4.017  16.318 -0.2196 -0.0858  0.2449
  455TMC3    C2 6826   3.986   4.112  16.278 -0.1045 -0.1294  0.0732
  455TMC3    C3 6827   3.855   4.082  16.246  0.1335  0.1908  0.0514
  455TMC3    C4 6828   4.018   3.888  16.336 -0.1516 -0.0626  0.3924
  455TMC3    C5 6829   3.883   3.863  16.303  0.4332  0.1743 -0.3852
  455TMC3    C6 6830   3.799   3.961  16.256 -0.0513  0.5661  0.0753
  455TMC3     C 6831   4.193   4.057  16.382 -0.0893 -0.7706  0.1984
  455TMC3     O 6832   4.195   4.174  16.419 -0.0175 -0.9458  0.0988
  455TMC3     H 6833   4.013   4.216  16.290  0.3455 -0.4379  1.6905
  455TMC3    H1 6834   4.075   3.816  16.394  0.5255 -0.4527 -0.7543
  455TMC3    H2 6835   3.695   3.940  16.234  0.1886 -0.5610  0.0313
  455TMC3    C7 6836   3.844   3.733  16.260 -0.4857 -0.1975 -0.3332
  455TMC3    C8 6837   3.767   4.187  16.265 -0.9979  0.3006  0.1967
  455TMC3    O1 6838   3.726   3.712  16.238  0.2263  0.1242 -0.1270
  455TMC3    O2 6839   3.660   4.163  16.318 -0.1754  0.3693 -0.3350
  456MPD2     C 6840   2.385   3.538  15.941 -0.1663  0.1376 -0.2291
  456MPD2    C1 6841   2.372   3.477  16.064 -0.4118 -0.0694 -0.2432
  456MPD2    C2 6842   2.343   3.553  16.175 -0.6891  1.0283 -0.1125
  456MPD2    C3 6843   2.298   3.687  16.163  0.2816 -0.3289  0.0156
  456MPD2    C4 6844   2.296   3.741  16.033 -0.0139  0.3313 -0.2243
  456MPD2    C5 6845   2.346   3.669  15.927 -0.0266  0.3767 -0.0553
  456MPD2     H 6846   2.331   3.502  16.270  1.9884 -1.1297 -0.9467
  456MPD2    H1 6847   2.287   3.848  16.021  0.7219  0.6184  1.8443
  456MPD2    H2 6848   2.437   3.484  15.862 -3.0475 -1.9389 -0.7213
  456MPD2    H3 6849   2.358   3.726  15.836  0.9627 -0.5872 -0.5237
  456MPD2     N 6850   2.249   3.753  16.281  0.1107  0.7464 -0.2947
  456MPD2    H5 6851   2.262   3.708  16.371 -1.8062  0.6985 -0.0341
  456MPD2    N1 6852   2.405   3.336  16.067  0.1247  0.2652  0.0482
  456MPD2    H7 6853   2.437   3.302  15.977 -1.4947 -2.0304  0.3416
  457TMC3    C1 6854   2.136   3.932  16.404  0.7537 -0.5410  0.1611
  457TMC3    C2 6855   2.068   4.050  16.391  0.0211 -0.3391 -0.1192
  457TMC3    C3 6856   2.036   4.127  16.496 -0.4236  0.5762 -0.3213
  457TMC3    C4 6857   2.158   3.881  16.531 -0.6344 -0.6128 -0.1891
  457TMC3    C5 6858   2.112   3.954  16.630 -0.1846  0.6671  0.2101
  457TMC3    C6 6859   2.061   4.079  16.621 -0.2144 -0.2057 -0.3475
  457TMC3     C 6860   2.179   3.871  16.279  0.1889 -0.3367 -0.0572
  457TMC3     O 6861   2.144   3.922  16.174  0.2463 -0.2512 -0.3811
  457TMC3     H 6862   2.039   4.095  16.297  1.6570 -1.2618 -1.0509
  457TMC3    H1 6863   2.214   3.790  16.546  0.2160 -0.1128 -0.3355
  457TMC3    H2 6864   2.031   4.148  16.700 -0.2336  0.2767 -0.7749
  457TMC3    C7 6865   2.166   3.921  16.757 -0.0672  0.5272 -0.6229
  457TMC3    C8 6866   1.930   4.230  16.480  0.1123 -0.1962  0.2272
  457TMC3    O1 6867   2.161   3.808  16.801  0.4272  0.3953 -0.3869
  457TMC3    O2 6868   1.933   4.316  16.568 -0.1440  0.8910 -0.2812
  458MPD2     C 6869   4.733   3.331  12.033 -0.3273  0.7620 -0.3501
  458MPD2    C1 6870   4.702   3.205  12.081  0.3478 -0.1366  0.2918
  458MPD2    C2 6871   4.591   3.146  12.022 -0.9915 -0.2356 -0.1871
  458MPD2    C3 6872   4.531   3.215  11.917 -0.0537 -0.0624 -0.2334
  458MPD2    C4 6873   4.578   3.332  11.866  0.5485 -0.3293  0.3774
  458MPD2    C5 6874   4.676   3.391  11.933  0.5583 -0.0723  0.0762
  458MPD2     H 6875   4.580   3.038  12.030 -0.8631 -0.1687  0.8721
  458MPD2    H1 6876   4.533   3.378  11.779  2.8720  0.6963 -0.2998
  458MPD2    H2 6877   0.078   3.385  12.081 -0.3201  0.7822 -0.3853
  458MPD2    H3 6878   4.694   3.496  11.912 -0.5087  0.0100 -0.3979
  458MPD2     N 6879   4.421   3.141  11.857 -0.0628  0.3358  0.0967
  458MPD2    H5 6880   4.398   3.052  11.900  0.6135  0.4560  0.7025
  458MPD2    N1 6881   0.041   3.158  12.192  0.7155  0.8217  0.2222
  458MPD2    H7 6882   0.125   3.205  12.223  0.6243 -0.4179  2.3191
  459TMC3    C1 6883   0.121   3.025  12.370  0.0022  0.2283 -0.3719
  459TMC3    C2 6884   0.248   3.065  12.330  0.3473 -0.2526  0.1620
  459TMC3    C3 6885   0.343   3.083  12.426  0.3192 -0.2502 -0.1314
  459TMC3    C4 6886   0.085   3.004  12.504  0.7539 -0.1745 -0.5666
  459TMC3    C5 6887   0.187   3.017  12.595  0.0882 -0.2104  0.1499
  459TMC3    C6 6888   0.313   3.052  12.556  0.8040 -0.2433 -0.6796
  459TMC3     C 6889   0.012   3.048  12.274 -0.3528 -0.0542  0.5051
  459TMC3     O 6890   4.641   2.988  12.277  0.0774 -0.2106  0.0405
  459TMC3     H 6891   0.261   3.094  12.226 -1.8969 -1.2091 -0.3946
  459TMC3    H1 6892   4.723   2.966  12.535  1.6654 -0.0014  2.5374
  459TMC3    H2 6893   0.387   3.076  12.632  3.4039 -0.4971 -3.0954
  459TMC3    C7 6894   0.169   2.974  12.732 -0.2977 -0.6954  0.6607
  459TMC3    C8 6895   0.478   3.085  12.387  0.3498  0.8453  0.7200
  459TMC3    O1 6896   0.264   2.908  12.775 -0.1754 -0.0007  0.0428
  459TMC3    O2 6897   0.554   3.114  12.481  0.7977 -0.1251 -0.1715
  460MPD2     C 6898   4.068   0.822  10.453  0.1716  0.0311  0.3538
  460MPD2    C1 6899   3.950   0.758  10.461  0.7451  0.1670 -0.6332
  460MPD2    C2 6900   3.844   0.786  10.370  0.0115 -0.4561  0.1582
  460MPD2    C3 6901   3.865   0.876  10.269  0.1606  0.2832  0.1216
  460MPD2    C4 6902   3.977   0.952  10.269  0.0643  0.3528  0.1652
  460MPD2    C5 6903   4.075   0.933  10.366 -0.6410 -0.0085 -0.1331
  460MPD2     H 6904   3.753   0.726  10.374 -0.6858  0.4020 -3.7391
  460MPD2    H1 6905   4.002   1.029  10.197 -0.8371 -0.7123 -1.2866
  460MPD2    H2 6906   4.149   0.808  10.523  0.5202  0.5874  0.0588
  460MPD2    H3 6907   4.168   0.988  10.361 -0.2257 -0.8109 -1.2990
  460MPD2     N 6908   3.765   0.893  10.173 -0.8100  0.1379 -0.3308
  460MPD2    H5 6909   3.673   0.862  10.203 -0.4293  0.4484  1.1332
  460MPD2    N1 6910   3.940   0.662  10.567  0.2353 -0.7879  0.2253
  460MPD2    H7 6911   4.031   0.653  10.610  0.9399  2.5474 -0.6511
  461TMC3    C1 6912   3.665   0.959   9.965 -0.1294 -0.0149  0.3281
  461TMC3    C2 6913   3.589   0.845   9.940  0.0437  0.4365  0.2355
  461TMC3    C3 6914   3.500   0.835   9.828  0.4458 -0.1662  0.0469
  461TMC3    C4 6915   3.659   1.062   9.876  0.2106 -0.3152 -0.7007
  461TMC3    C5 6916   3.569   1.054   9.776  0.0269 -0.5049  1.5351
  461TMC3    C6 6917   3.493   0.940   9.748 -0.5020  0.2258 -0.8791
  461TMC3     C 6918   3.778   0.969  10.057  0.2915  0.3710  0.3265
  461TMC3     O 6919   3.873   1.029  10.015 -0.1463 -0.1620 -0.1177
  461TMC3     H 6920   3.611   0.757   9.999 -0.0907  0.6741  0.6441
  461TMC3    H1 6921   3.719   1.151   9.894  0.0273 -0.0729 -1.2824
  461TMC3    H2 6922   3.420   0.939   9.668 -1.0872  0.6091 -0.3548
  461TMC3    C7 6923   3.536   1.171   9.692  0.3000  0.2256  1.0132
  461TMC3    C8 6924   3.468   0.701   9.771 -0.8022  0.6677 -0.4515
  461TMC3    O1 6925   3.421   1.169   9.650 -0.0309  0.6641  0.0947
  461TMC3    O2 6926   3.528   0.607   9.820  0.1319 -0.4071  0.0746
  462TMC3    C1 6927   3.764   1.864   0.042 -0.7144  0.3824  0.3529
  462TMC3    C2 6928   3.732   1.882  17.650  0.2240 -0.4984  0.0230
  462TMC3    C3 6929   3.636   1.793  17.602 -0.5675 -0.3311  0.5140
  462TMC3    C4 6930   3.726   1.757   0.119 -0.2293  0.5457 -0.1813
  462TMC3    C5 6931   3.635   1.668   0.063 -0.4326 -0.0098 -0.0912
  462TMC3    C6 6932   3.590   1.683  17.670  0.6861  1.2129 -0.5077
  462TMC3     C 6933   3.869   1.959   0.091  0.1824 -0.5606  0.1489
  462TMC3     O 6934   3.921   2.033   0.008  0.5090  0.3893 -0.4092
  462TMC3     H 6935   3.768   1.965  17.592 -2.1320  0.8773  0.5393
  462TMC3    H1 6936   3.775   1.740   0.214 -0.7872 -2.6738 -0.4628
  462TMC3    H2 6937   3.495   1.640  17.639  1.7467 -0.0970 -1.9624
  462TMC3    C7 6938   3.577   1.556   0.134 -0.5805  0.5444 -0.2164
  462TMC3    C8 6939   3.615   1.800  17.460 -0.9089  0.0610 -0.4221
  462TMC3    O1 6940   3.499   1.487   0.070 -0.2810 -0.0275  0.5316
  462TMC3    O2 6941   3.607   1.912  17.414  0.2680  0.0214 -0.0130
  463MPD2     C 6942   0.605   4.697   1.285 -0.1111 -0.3151 -0.6119
  463MPD2    C1 6943   0.541   0.081   1.279 -0.1339 -0.5436  0.5436
  463MPD2    C2 6944   0.596   0.191   1.345 -0.4491 -0.2568 -0.1669
  463MPD2    C3 6945   0.710   0.182   1.418 -0.0271  0.4977  0.5412
  463MPD2    C4 6946   0.776   0.050   1.418  0.2163 -0.1188  0.1777
  463MPD2    C5 6947   0.721   4.676   1.361  0.7900 -0.1328 -0.5408
  463MPD2     H 6948   0.540   0.283   1.334  1.8515  1.2025  0.2270
  463MPD2    H1 6949   0.873   0.032   1.463 -1.2019 -1.5651  2.6456
  463MPD2    H2 6950   0.564   4.609   1.237 -2.0159 -0.8685  2.0927
  463MPD2    H3 6951   0.771   4.581   1.348  0.5068 -0.3395 -0.0937
  463MPD2     N 6952   0.773   0.297   1.465  0.2388 -0.5863 -0.4718
  463MPD2    H5 6953   0.864   0.281   1.508 -1.1703 -1.2834  2.2469
  463MPD2    N1 6954   0.415   0.107   1.215 -0.1339 -0.3128  0.1635
  463MPD2    H7 6955   0.379   0.202   1.216  0.8872  0.0512  2.7943
  464TMC3    C1 6956   0.187   0.056   1.169 -0.6383 -0.6742 -0.7051
  464TMC3    C2 6957   0.151   0.183   1.201  0.3161  0.1653 -0.5610
  464TMC3    C3 6958   0.021   0.203   1.230  0.0121 -0.1545 -0.2456
  464TMC3    C4 6959   0.092   4.690   1.161 -0.0735 -0.0947 -0.0490
  464TMC3    C5 6960   4.703   4.714   1.202  0.5337 -0.1404 -0.0654
  464TMC3    C6 6961   4.668   0.099   1.241  0.1845  1.0365  0.0826
  464TMC3     C 6962   0.327   0.012   1.172 -0.3118  0.5709 -0.1011
  464TMC3     O 6963   0.360   4.630   1.150  0.1059  0.0975  0.0080
  464TMC3     H 6964   0.217   0.268   1.213 -0.0201 -0.0932  3.2214
  464TMC3    H1 6965   0.119   4.591   1.125 -1.8335  0.0913 -1.9051
  464TMC3    H2 6966   4.568   0.104   1.282 -0.3263 -0.7253 -0.9546
  464TMC3    C7 6967   4.610   4.601   1.207 -0.3225 -0.8505 -0.1862
  464TMC3    C8 6968   4.693   0.332   1.220  0.5901 -0.6387 -0.0069
  464TMC3    O1 6969   4.651   4.488   1.221  0.2297 -0.1844  0.6719
  464TMC3    O2 6970   4.580   0.341   1.173 -0.0756 -0.3532  0.1632
  465MPD2     C 6971   0.990   4.065  16.671  0.3080  0.6002  0.2267
  465MPD2    C1 6972   0.875   4.086  16.736 -0.0881 -0.0701  0.1476
  465MPD2    C2 6973   0.758   4.093  16.659  0.3835  0.4482  0.1586
  465MPD2    C3 6974   0.770   4.125  16.523 -0.3213 -0.1162 -0.5654
  465MPD2    C4 6975   0.892   4.100  16.455 -0.0991  0.0270 -0.3293
  465MPD2    C5 6976   1.004   4.069  16.530  0.0464 -0.3836  1.0091
  465MPD2     H 6977   0.664   4.094  16.713  0.9458  0.7134  1.1257
  465MPD2    H1 6978   0.904   4.103  16.348 -0.6145 -2.4464 -0.4649
  465MPD2    H2 6979   1.079   4.051  16.731  0.2869  0.3994  0.2107
  465MPD2    H3 6980   1.105   4.072  16.489  0.2104  2.1409  1.5998
  465MPD2     N 6981   0.647   4.158  16.460 -0.3251 -0.3947  0.4528
  465MPD2    H5 6982   0.566   4.157  16.522 -0.4541 -2.4480  0.2631
  465MPD2    N1 6983   0.864   4.094  16.879 -0.6438  0.3037 -0.7367
  465MPD2    H7 6984   0.772   4.120  16.912  1.2496  2.9283  2.3219
  466TMC3    C1 6985   0.274   4.213  16.336 -0.2784 -0.2714 -0.1251
  466TMC3    C2 6986   0.254   4.336  16.277 -0.2078  0.1978 -0.1615
  466TMC3    C3 6987   0.361   4.379  16.205 -0.3356  0.3985 -0.1369
  466TMC3    C4 6988   0.398   4.156  16.351 -0.7433  0.1567 -0.3388
  466TMC3    C5 6989   0.503   4.215  16.285  0.0137  0.1839  0.1990
  466TMC3    C6 6990   0.484   4.319  16.198 -0.2626  0.5485 -0.3070
  466TMC3     C 6991   0.148   4.150  16.387  0.9356  0.8316  0.3743
  466TMC3     O 6992   0.044   4.215  16.387  0.0479 -0.2635  0.4277
  466TMC3     H 6993   0.152   4.369  16.264 -1.0697 -1.9331  1.2076
  466TMC3    H1 6994   0.418   4.080  16.425  0.7258  0.9268  0.0554
  466TMC3    H2 6995   0.567   4.370  16.150 -0.5647 -0.4713 -1.9062
  466TMC3    C7 6996   0.634   4.180  16.325 -0.4673 -0.9081 -0.5678
  466TMC3    C8 6997   0.377   4.524  16.185 -0.3564 -0.1293 -0.5826
  466TMC3    O1 6998   0.718   4.198  16.236 -0.5710 -0.2336 -0.7570
  466TMC3    O2 6999   0.465   4.557  16.107 -0.0085 -0.0557 -0.2606
  467TMC3    C1 7000   2.048   2.276  13.109  0.1109 -0.9724 -0.8598
  467TMC3    C2 7001   2.093   2.335  12.996  0.2593  0.4346  0.0160
  467TMC3    C3 7002   2.004   2.407  12.927 -0.2842 -0.6238 -0.3196
  467TMC3    C4 7003   1.924   2.292  13.161 -0.5109  0.2781 -0.3453
  467TMC3    C5 7004   1.833   2.369  13.089  0.3543  0.5060 -0.4771
  467TMC3    C6 7005   1.874   2.413  12.961  0.5124  0.0550  0.5897
  467TMC3     C 7006   2.152   2.276  13.207 -0.2406  0.4748 -0.1992
  467TMC3     O 7007   2.209   2.382  13.224  0.5079  0.1654  0.3932
  467TMC3     H 7008   2.196   2.327  12.964  0.1962  1.0108 -0.3330
  467TMC3    H1 7009   1.888   2.223  13.236 -0.1485  0.4961  0.0286
  467TMC3    H2 7010   1.801   2.483  12.921  2.5943  1.9816  0.1357
  467TMC3    C7 7011   1.691   2.347  13.110  0.2657  0.4399 -1.4723
  467TMC3    C8 7012   2.049   2.522  12.855  0.6330  0.0278  0.1297
  467TMC3    O1 7013   1.630   2.343  13.004 -0.2440 -0.1920  0.1991
  467TMC3    O2 7014   1.988   2.624  12.852 -0.2999 -0.0272 -0.1796
  468MPD2     C 7015   0.493   0.668  10.638  0.0985  1.2620 -0.1788
  468MPD2    C1 7016   0.604   0.678  10.718  0.3815 -0.5268  0.4975
  468MPD2    C2 7017   0.648   0.569  10.782 -0.9248 -0.3360 -0.6335
  468MPD2    C3 7018   0.571   0.452  10.763 -0.0834 -0.3589  0.0602
  468MPD2    C4 7019   0.454   0.447  10.696  0.2668  0.0957  0.4768
  468MPD2    C5 7020   0.410   0.556  10.630 -0.2775  0.3232  0.1760
  468MPD2     H 7021   0.743   0.573  10.834 -1.9796 -0.6215  1.3046
  468MPD2    H1 7022   0.402   0.352  10.701  1.2307 -0.5017 -0.7406
  468MPD2    H2 7023   0.446   0.757  10.598  0.7295  0.3969 -2.8411
  468MPD2    H3 7024   0.315   0.545  10.580  0.2855  1.9348 -1.2171
  468MPD2     N 7025   0.606   0.331  10.826  0.3117 -0.5976  0.1167
  468MPD2    H5 7026   0.537   0.257  10.834 -0.9408  0.4566 -0.8650
  468MPD2    N1 7027   0.664   0.799  10.743 -0.2602 -0.1522  0.0144
  468MPD2    H7 7028   0.745   0.793  10.804 -1.3795 -2.3707  1.2984
  469TMC3    C1 7029   0.699   1.012  10.785  0.2922 -0.5641  0.6877
  469TMC3    C2 7030   0.835   0.994  10.782 -0.8395  0.4009 -0.1619
  469TMC3    C3 7031   0.912   1.064  10.866  0.5361  1.1302 -0.4305
  469TMC3    C4 7032   0.639   1.092  10.875 -0.2479 -1.1650  1.4135
  469TMC3    C5 7033   0.716   1.134  10.980  0.2319 -0.2630 -0.1518
  469TMC3    C6 7034   0.849   1.134  10.973  0.4661 -0.1131  0.4615
  469TMC3     C 7035   0.611   0.922  10.728 -0.0799 -0.0950  0.7361
  469TMC3     O 7036   0.490   0.947  10.726 -0.5149 -0.0296  1.0145
  469TMC3     H 7037   0.882   0.928  10.710 -0.2064  0.2173  0.4239
  469TMC3    H1 7038   0.531   1.100  10.876 -0.0684  1.3364  0.9500
  469TMC3    H2 7039   0.905   1.188  11.048  0.8444  0.0992  0.0265
  469TMC3    C7 7040   0.631   1.159  11.099 -0.3534  0.0739 -0.1808
  469TMC3    C8 7041   1.055   1.072  10.848  0.3951  0.4553 -0.4055
  469TMC3    O1 7042   0.514   1.163  11.084 -0.0734  0.4965 -0.2793
  469TMC3    O2 7043   1.091   1.045  10.734 -0.1186  0.0459  0.1826
  470TMC3    C1 7044   2.834   1.593   0.325 -0.5043 -0.9027 -0.8058
  470TMC3    C2 7045   2.857   1.729   0.351 -0.3403 -0.1519  0.0028
  470TMC3    C3 7046   2.900   1.755   0.476  0.1324 -0.6230  0.4307
  470TMC3    C4 7047   2.860   1.487   0.408  0.1577 -0.2309 -0.6408
  470TMC3    C5 7048   2.906   1.530   0.534  0.7456  0.3317 -0.5199
  470TMC3    C6 7049   2.929   1.659   0.567 -0.7466 -0.0610 -0.0483
  470TMC3     C 7050   2.764   1.553   0.202  0.3171 -0.0137 -0.2362
  470TMC3     O 7051   2.703   1.448   0.213 -0.8891 -0.2472  0.2860
  470TMC3     H 7052   2.825   1.805   0.280  1.0850 -0.3398 -0.8632
  470TMC3    H1 7053   2.865   1.385   0.372  0.7452 -0.2410 -0.5298
  470TMC3    H2 7054   2.982   1.685   0.658 -0.1265  0.3164 -0.5160
  470TMC3    C7 7055   2.987   1.431   0.601  0.6491 -0.4296 -0.7511
  470TMC3    C8 7056   2.918   1.890   0.522 -1.0965 -0.0461  0.2751
  470TMC3    O1 7057   3.054   1.359   0.525  0.0697  0.7645 -0.1828
  470TMC3    O2 7058   2.981   1.911   0.626  0.2195  0.1833 -0.4097
  471MPD2     C 7059   3.298   2.813  17.018 -0.3524 -0.3425 -0.1994
  471MPD2    C1 7060   3.417   2.853  16.960 -0.6434 -0.5226  0.2875
  471MPD2    C2 7061   3.534   2.820  17.031 -0.0632 -0.8575 -0.1093
  471MPD2    C3 7062   3.536   2.738  17.148 -0.3081  0.0382 -0.1685
  471MPD2    C4 7063   3.412   2.709  17.202 -0.0276  0.6744 -0.1752
  471MPD2    C5 7064   3.300   2.742  17.134 -0.4578  0.3458 -0.0010
  471MPD2     H 7065   3.632   2.854  16.999  0.6004 -1.1994  1.5160
  471MPD2    H1 7066   3.399   2.662  17.299  1.5649  1.0784  0.2265
  471MPD2    H2 7067   3.206   2.856  16.980  0.3987  0.6920 -0.8572
  471MPD2    H3 7068   3.205   2.709  17.175 -0.4542  0.4361  0.0790
  471MPD2     N 7069   3.647   2.682  17.222  0.5662 -0.2151 -0.2767
  471MPD2    H5 7070   3.629   2.614  17.295  2.7388 -1.8920 -1.2872
  471MPD2    N1 7071   3.433   2.932  16.842  0.2655 -0.2561  0.1996
  471MPD2    H7 7072   3.529   2.955  16.818 -0.8247  0.7305 -3.1503
  472TMC3    C1 7073   3.391   3.047  16.640  0.1919 -0.1032  0.7082
  472TMC3    C2 7074   3.355   2.980  16.528  0.1868  0.4705 -0.0231
  472TMC3    C3 7075   3.451   2.942  16.439  0.1529 -0.1940  0.1780
  472TMC3    C4 7076   3.523   3.089  16.649  0.8189  0.6524  1.1815
  472TMC3    C5 7077   3.616   3.043  16.557 -0.7029  0.6059 -0.9236
  472TMC3    C6 7078   3.583   2.960  16.456  0.2096 -0.1453  0.0284
  472TMC3     C 7079   3.333   2.991  16.765  0.4845 -0.1957  0.0915
  472TMC3     O 7080   3.211   2.974  16.774  0.4152  0.1415  0.5216
  472TMC3     H 7081   3.255   2.991  16.489 -0.3711 -0.1645  1.2369
  472TMC3    H1 7082   3.551   3.148  16.736  3.0040  2.0439 -0.4811
  472TMC3    H2 7083   3.653   2.917  16.385 -0.4261  1.4614 -1.5582
  472TMC3    C7 7084   3.732   2.995  16.629 -0.4475 -0.5475  0.1939
  472TMC3    C8 7085   3.405   2.839  16.348 -0.7081 -0.5126 -0.2441
  472TMC3    O1 7086   3.715   2.991  16.752  0.1778  0.6605  0.0924
  472TMC3    O2 7087   3.468   2.830  16.244  0.1153  0.1882  0.2638
  473MPD2     C 7088   3.141   0.389  13.818  0.4227  0.0037 -0.1430
  473MPD2    C1 7089   3.266   0.328  13.801  0.6591 -0.1106  0.6759
  473MPD2    C2 7090   3.360   0.360  13.895  0.4664 -0.4689 -0.2247
  473MPD2    C3 7091   3.334   0.457  13.994 -0.2061  0.7356  0.6208
  473MPD2    C4 7092   3.209   0.515  14.009  0.1424 -0.4601  0.0198
  473MPD2    C5 7093   3.124   0.485  13.910 -0.1208  0.2820  0.0826
  473MPD2     H 7094   3.461   0.320  13.889 -0.2699 -2.4999  0.9918
  473MPD2    H1 7095   3.169   0.582  14.084 -0.3399  0.2351 -0.8638
  473MPD2    H2 7096   3.057   0.375  13.750  0.6588 -0.1995 -0.3965
  473MPD2    H3 7097   3.022   0.522  13.912 -0.5397 -0.8203 -1.3791
  473MPD2     N 7098   3.430   0.493  14.093  0.3386 -0.6043  0.0189
  473MPD2    H5 7099   3.389   0.572  14.142  0.9043 -1.3918  1.7525
  473MPD2    N1 7100   3.297   0.243  13.693  0.1784 -0.1171  0.7429
  473MPD2    H7 7101   3.380   0.186  13.702 -0.8703 -1.3440  2.6929
  474TMC3    C1 7102   3.636   0.517  14.214 -0.0658 -0.1566  0.4944
  474TMC3    C2 7103   3.582   0.623  14.282  0.2174 -0.2576 -1.1103
  474TMC3    C3 7104   3.641   0.646  14.402 -0.3579  0.5426 -0.7610
  474TMC3    C4 7105   3.752   0.456  14.245  0.4643 -0.5271 -0.4417
  474TMC3    C5 7106   3.813   0.498  14.366  0.7726 -0.5450 -0.1315
  474TMC3    C6 7107   3.756   0.586  14.449 -0.1033  0.3591  0.6869
  474TMC3     C 7108   3.561   0.453  14.104 -0.3839  0.0688  0.1008
  474TMC3     O 7109   3.628   0.371  14.044  0.1496  0.6483 -0.1693
  474TMC3     H 7110   3.487   0.672  14.264 -0.9458 -2.3240 -0.5966
  474TMC3    H1 7111   3.800   0.394  14.170 -1.6048  1.8137 -3.7033
  474TMC3    H2 7112   3.783   0.625  14.547  1.3412 -1.1031  0.8670
  474TMC3    C7 7113   3.955   0.474  14.377  0.3984 -0.3377 -0.3558
  474TMC3    C8 7114   3.612   0.774  14.465 -0.1211 -0.4566 -0.2796
  474TMC3    O1 7115   4.006   0.395  14.297  0.1811  0.6664  0.6396
  474TMC3    O2 7116   3.589   0.774  14.586 -0.0555  0.2176  0.3575
  475MPD2     C 7117   1.996   2.905  10.612  0.3356 -0.7727  0.4943
  475MPD2    C1 7118   1.991   3.010  10.703  0.0744 -0.4976  0.4865
  475MPD2    C2 7119   1.873   3.073  10.731  0.0547 -0.1144  0.0374
  475MPD2    C3 7120   1.759   3.034  10.663  0.0058  0.0540  0.4994
  475MPD2    C4 7121   1.774   2.935  10.562 -0.4749  0.0207  0.1791
  475MPD2    C5 7122   1.891   2.878  10.528  0.4308 -0.5088 -0.1905
  475MPD2     H 7123   1.864   3.151  10.805  1.8400  1.8045 -1.7676
  475MPD2    H1 7124   1.685   2.905  10.509 -0.8536  1.6727 -0.1305
  475MPD2    H2 7125   2.091   2.855  10.599  1.6898  1.7726  0.6194
  475MPD2    H3 7126   1.901   2.806  10.447  0.0203  1.2176 -1.7933
  475MPD2     N 7127   1.628   3.078  10.690  0.2304  0.0918  0.8540
  475MPD2    H5 7128   1.616   3.168  10.735 -1.1520 -0.0915  0.8507
  475MPD2    N1 7129   2.102   3.052  10.778  0.1015  0.2101  0.0741
  475MPD2    H7 7130   2.092   3.119  10.853 -0.0096 -0.6028  0.7844
  476TMC3    C1 7131   2.322   3.085  10.823 -0.1033  0.4255  0.9504
  476TMC3    C2 7132   2.407   3.171  10.753 -0.3034  0.0766  0.1662
  476TMC3    C3 7133   2.425   3.302  10.787  0.6412  0.9373 -0.0720
  476TMC3    C4 7134   2.269   3.133  10.935 -0.0641 -0.9138  0.2810
  476TMC3    C5 7135   2.293   3.259  10.976 -0.1810  0.2939  0.1298
  476TMC3    C6 7136   2.375   3.350  10.907  0.3381  0.1235 -0.4194
  476TMC3     C 7137   2.229   3.022  10.740  0.0736  0.4552 -0.0095
  476TMC3     O 7138   2.267   3.013  10.622  0.5014  0.2524 -0.7638
  476TMC3     H 7139   2.474   3.130  10.679  1.0534 -0.0725  1.4709
  476TMC3    H1 7140   2.208   3.064  10.991  0.8302 -1.4845  0.5566
  476TMC3    H2 7141   2.372   3.454  10.939 -0.4068 -0.4052  1.2345
  476TMC3    C7 7142   2.177   3.295  11.059 -0.1865  0.2774 -0.1839
  476TMC3    C8 7143   2.422   3.394  10.667 -0.5169 -0.0282 -0.1939
  476TMC3    O1 7144   2.071   3.240  11.033  0.2204  0.3114 -0.2793
  476TMC3    O2 7145   2.430   3.516  10.687 -0.4362 -0.2764  0.2320
  477MPD2     C 7146   3.711   4.114  11.396  0.0995  0.1838  0.4852
  477MPD2    C1 7147   3.674   4.227  11.466 -0.7588 -0.7687  0.2098
  477MPD2    C2 7148   3.687   4.219  11.603  0.5392 -0.6259  0.2864
  477MPD2    C3 7149   3.732   4.107  11.673 -0.3236 -0.1255 -0.0005
  477MPD2    C4 7150   3.757   3.992  11.604 -0.1831  0.4251  0.1176
  477MPD2    C5 7151   3.749   4.003  11.466  0.8310  0.3651  1.2149
  477MPD2     H 7152   3.684   4.304  11.669  1.0391 -1.4315  1.3551
  477MPD2    H1 7153   3.791   3.902  11.654 -1.3633 -0.4898 -0.7393
  477MPD2    H2 7154   3.698   4.116  11.289 -1.6910  1.7668  0.7407
  477MPD2    H3 7155   3.774   3.916  11.407 -0.9051  0.5846  0.1741
  477MPD2     N 7156   3.763   4.126  11.809 -0.4423 -0.0057 -0.4782
  477MPD2    H5 7157   3.748   4.220  11.843  1.5546 -0.2590  1.1254
  477MPD2    N1 7158   3.655   4.351  11.398  0.3189  0.1565 -0.3314
  477MPD2    H7 7159   3.673   4.363  11.299 -0.5981 -1.1045 -0.6456
  478TMC3    C1 7160   3.618   4.588  11.376  0.6231 -0.1403  0.0055
  478TMC3    C2 7161   3.618   4.705  11.443  0.1677  0.0334  0.7329
  478TMC3    C3 7162   3.660   0.084  11.375 -0.2051  0.0301 -0.5216
  478TMC3    C4 7163   3.676   4.578  11.254  0.0186  0.5116 -0.7320
  478TMC3    C5 7164   3.725   4.690  11.196 -0.6038  0.3255  0.0446
  478TMC3    C6 7165   3.723   0.071  11.255  0.3815 -0.1660  0.2509
  478TMC3     C 7166   3.618   4.465  11.462  0.3702  0.7992 -0.3265
  478TMC3     O 7167   3.586   4.480  11.577  0.2642 -0.2885 -0.5549
  478TMC3     H 7168   3.585   4.711  11.546 -1.3641  0.0872  0.2472
  478TMC3    H1 7169   3.684   4.488  11.194 -1.5976  0.0559 -0.2771
  478TMC3    H2 7170   3.768   0.158  11.209  0.6315  0.1194  1.0353
  478TMC3    C7 7171   3.782   4.682  11.062 -0.1415 -0.5211  0.0555
  478TMC3    C8 7172   3.706   0.191  11.464  0.3200 -0.6489 -1.0121
  478TMC3    O1 7173   3.855   4.592  11.024  0.1319  0.4711 -0.1538
  478TMC3    O2 7174   3.719   0.175  11.585 -0.0254 -0.0795  0.0396
  479MPD2     C 7175   3.152   2.146  15.295 -0.5500  0.3337 -0.0185
  479MPD2    C1 7176   3.134   2.089  15.414 -0.4178  1.4309 -0.1766
  479MPD2    C2 7177   3.193   2.152  15.522  0.2465 -0.7148  0.3978
  479MPD2    C3 7178   3.255   2.278  15.501 -0.2576 -0.9592 -0.1826
  479MPD2    C4 7179   3.283   2.324  15.376  0.0988 -0.0501  0.7444
  479MPD2    C5 7180   3.223   2.263  15.277  0.7249 -0.4311 -0.3522
  479MPD2     H 7181   3.171   2.127  15.625  0.0140 -0.2936  0.4495
  479MPD2    H1 7182   3.345   2.409  15.349  1.8941 -0.8392  2.4116
  479MPD2    H2 7183   3.109   2.100  15.206  1.3072 -2.6552  0.6391
  479MPD2    H3 7184   3.231   2.308  15.179  0.8984  1.4047  0.5005
  479MPD2     N 7185   3.255   2.376  15.602 -0.0172 -0.2153  0.3413
  479MPD2    H5 7186   3.332   2.441  15.593 -0.8272  0.5765 -0.9252
  479MPD2    N1 7187   3.055   1.974  15.422 -0.4681  0.4167 -0.4480
  479MPD2    H7 7188   3.001   1.943  15.342 -0.3624 -1.5302  0.2410
  480TMC3    C1 7189   2.884   2.168  15.797  0.1859  0.5490  0.2223
  480TMC3    C2 7190   2.803   2.168  15.687  0.5927 -0.5584 -0.8169
  480TMC3    C3 7191   2.838   2.258  15.593  0.9447  0.3335  0.0957
  480TMC3    C4 7192   3.002   2.246  15.805  0.0433 -0.0210 -0.0467
  480TMC3    C5 7193   3.038   2.325  15.698 -0.1805 -0.2157  0.5429
  480TMC3    C6 7194   2.962   2.328  15.585  0.8462  0.7858 -0.1107
  480TMC3     C 7195   2.875   2.063  15.895 -0.0127 -0.1501  0.0247
  480TMC3     O 7196   2.979   2.016  15.939 -0.2079 -0.2698  0.3139
  480TMC3     H 7197   2.713   2.109  15.670  0.8873 -1.3820  0.4276
  480TMC3    H1 7198   3.074   2.235  15.886 -0.7347  0.7155  0.7525
  480TMC3    H2 7199   2.991   2.390  15.501 -0.9030 -1.1614 -2.1330
  480TMC3    C7 7200   3.169   2.390  15.715  0.8193  0.0805 -0.8072
  480TMC3    C8 7201   2.756   2.254  15.471 -0.2895  0.5000  0.5568
  480TMC3    O1 7202   3.185   2.454  15.817  0.4718 -0.6410 -0.0012
  480TMC3    O2 7203   2.652   2.193  15.465  0.1898  0.2866  0.2583
  481MPD2     C 7204   4.584   1.078  13.710  0.0995  0.5493 -0.2374
  481MPD2    C1 7205   4.488   1.070  13.806 -0.4576 -0.0492 -0.0045
  481MPD2    C2 7206   4.513   1.145  13.916  0.2357 -0.6444  0.2251
  481MPD2    C3 7207   4.632   1.220  13.935 -0.2937 -0.8714 -0.8163
  481MPD2    C4 7208   4.731   1.215  13.840 -0.2982  0.0542  0.0184
  481MPD2    C5 7209   4.705   1.143  13.733 -0.3088 -0.8593  0.2831
  481MPD2     H 7210   4.441   1.143  13.997  0.4344  0.8451  0.4389
  481MPD2    H1 7211   0.088   1.271  13.845  0.7858 -1.4692 -2.8153
  481MPD2    H2 7212   4.581   1.013  13.624  0.5709  2.6030 -1.8087
  481MPD2    H3 7213   0.031   1.125  13.646 -1.5378 -1.0610 -0.5309
  481MPD2     N 7214   4.658   1.310  14.039 -0.0580 -0.6011 -0.2027
  481MPD2    H5 7215   0.008   1.364  14.031 -0.1870 -0.7821 -3.0154
  481MPD2    N1 7216   4.370   1.009  13.775 -0.1791 -0.0094 -0.5076
  481MPD2    H7 7217   4.356   0.983  13.677 -2.7395  1.7287 -0.6092
  482TMC3    C1 7218   4.151   0.925  13.806  0.0192  0.3202  0.6950
  482TMC3    C2 7219   4.156   0.883  13.678 -0.1447 -0.3669  0.1286
  482TMC3    C3 7220   4.036   0.873  13.604  0.6120  0.0448  0.8066
  482TMC3    C4 7221   4.038   0.979  13.859  0.1549  1.0246 -0.2718
  482TMC3    C5 7222   3.926   0.964  13.783  0.4146  0.2195  0.2164
  482TMC3    C6 7223   3.920   0.917  13.656 -0.1674  0.0221 -0.2056
  482TMC3     C 7224   4.270   0.984  13.862  0.6343  0.1580  0.2859
  482TMC3     O 7225   4.255   1.006  13.983 -0.7001  0.2016  0.2833
  482TMC3     H 7226   4.246   0.831  13.644  1.2207  0.5103  2.4089
  482TMC3    H1 7227   4.031   1.004  13.965  1.4187  1.1863 -0.2213
  482TMC3    H2 7228   3.826   0.928  13.603 -0.7384  1.1477  1.0466
  482TMC3    C7 7229   3.821   1.051  13.820 -0.0325  0.3325  0.6896
  482TMC3    C8 7230   4.045   0.809  13.472  0.1764 -0.1913  0.4373
  482TMC3    O1 7231   3.775   1.031  13.933  0.3963 -0.2937  0.0495
  482TMC3    O2 7232   4.154   0.809  13.415  0.3855  0.8758 -0.3805
  483TMC3    C1 7233   2.366   0.653   1.135 -0.2123 -0.0567 -0.3498
  483TMC3    C2 7234   2.411   0.772   1.183 -0.1755  0.0528 -0.4398
  483TMC3    C3 7235   2.540   0.776   1.232  0.4439 -0.1428  0.0659
  483TMC3    C4 7236   2.435   0.536   1.142 -0.3150 -0.0688  0.6479
  483TMC3    C5 7237   2.555   0.542   1.207 -0.2104  0.1319 -0.1537
  483TMC3    C6 7238   2.610   0.661   1.249  0.2771  0.6329 -0.2114
  483TMC3     C 7239   2.236   0.656   1.061  0.0641 -0.4701 -0.5174
  483TMC3     O 7240   2.215   0.765   1.011 -0.3051  0.1146  0.3200
  483TMC3     H 7241   2.348   0.860   1.180  0.9598  0.9261  1.1050
  483TMC3    H1 7242   2.379   0.451   1.106 -0.9623  1.5552 -2.1270
  483TMC3    H2 7243   2.714   0.660   1.279  0.3768  0.1785 -0.5590
  483TMC3    C7 7244   2.637   0.425   1.233  0.1486  0.0857 -0.3061
  483TMC3    C8 7245   2.619   0.881   1.168  0.5074  0.1270  0.0933
  483TMC3    O1 7246   2.756   0.434   1.265  0.0502  0.6104  0.0704
  483TMC3    O2 7247   2.742   0.867   1.155  0.4000  0.5197 -0.2207
  484MPD2     C 7248   0.666   2.977  12.101 -0.1243  0.1223 -0.2951
  484MPD2    C1 7249   0.636   3.047  12.215 -0.1394  0.6345  0.0810
  484MPD2    C2 7250   0.729   3.142  12.259  0.5017 -0.5369  0.0922
  484MPD2    C3 7251   0.859   3.142  12.207  0.1634  0.5904 -1.0513
  484MPD2    C4 7252   0.891   3.045  12.115 -0.5299  0.9047  0.3036
  484MPD2    C5 7253   0.796   2.970  12.057 -0.4203  0.5651 -0.3019
  484MPD2     H 7254   0.700   3.224  12.325  0.3976 -2.2357  2.1675
  484MPD2    H1 7255   0.994   3.033  12.086 -0.9195 -0.2891 -0.5965
  484MPD2    H2 7256   0.604   2.909  12.045 -0.6067 -0.1465  0.5657
  484MPD2    H3 7257   0.820   2.900  11.978 -1.6180  0.1647 -0.3091
  484MPD2     N 7258   0.961   3.239  12.230  0.3300  0.6981  0.0152
  484MPD2    H5 7259   1.047   3.223  12.179  0.5089 -0.5966  0.7111
  484MPD2    N1 7260   0.505   3.039  12.258 -0.3561  0.0282  0.3759
  484MPD2    H7 7261   0.443   2.971  12.214  0.8773 -0.5563 -0.4627
  485TMC3    C1 7262   1.071   3.421  12.317  0.3687  0.1789 -0.1996
  485TMC3    C2 7263   1.107   3.481  12.436  0.5110 -0.4638  0.2898
  485TMC3    C3 7264   1.235   3.535  12.441  0.6138  0.2920  0.4938
  485TMC3    C4 7265   1.159   3.420  12.213 -0.1308  0.7743 -0.6438
  485TMC3    C5 7266   1.277   3.488  12.219  0.2843 -0.0813 -0.0618
  485TMC3    C6 7267   1.318   3.553  12.331 -0.8590  0.4055 -0.4019
  485TMC3     C 7268   0.946   3.346  12.309  0.3260  0.3225 -0.6291
  485TMC3     O 7269   0.851   3.387  12.376  0.1330  0.5323 -0.0255
  485TMC3     H 7270   1.032   3.484  12.514  1.0604 -0.2944  0.8133
  485TMC3    H1 7271   1.135   3.363  12.123 -1.9070  0.1611  0.2130
  485TMC3    H2 7272   1.418   3.595  12.339 -0.1613 -1.2081 -0.8014
  485TMC3    C7 7273   1.382   3.438  12.129 -0.6152  0.5940 -0.6481
  485TMC3    C8 7274   1.318   3.493  12.549  0.0291  1.4980 -0.7422
  485TMC3    O1 7275   1.378   3.322  12.086 -0.3361  0.1920  0.3219
  485TMC3    O2 7276   1.439   3.505  12.541 -0.6048 -0.1566 -0.2397
  486MPD2     C 7277   1.840   2.217  12.604  0.3577 -0.4342  1.3208
  486MPD2    C1 7278   1.974   2.229  12.608 -0.4098  0.0578 -0.8849
  486MPD2    C2 7279   2.044   2.335  12.562 -0.3154  0.3201 -0.2150
  486MPD2    C3 7280   1.976   2.437  12.500 -0.3008  0.6837  0.2766
  486MPD2    C4 7281   1.836   2.424  12.493  0.1711  0.1112  0.4526
  486MPD2    C5 7282   1.769   2.318  12.540 -0.0592 -0.2432  0.3676
  486MPD2     H 7283   2.152   2.322  12.558  0.0028  3.2473 -1.2137
  486MPD2    H1 7284   1.785   2.504  12.440 -1.2533 -1.2607 -0.2482
  486MPD2    H2 7285   1.786   2.132  12.643  1.6065 -2.0413 -0.4481
  486MPD2    H3 7286   1.661   2.309  12.542 -0.2917  2.2697 -0.4942
  486MPD2     N 7287   2.050   2.537  12.446 -0.8643 -0.7137 -0.3442
  486MPD2    H5 7288   2.149   2.542  12.470 -0.9897 -0.0547  0.0342
  486MPD2    N1 7289   2.036   2.115  12.667 -0.4622  0.7127  0.7815
  486MPD2    H7 7290   1.980   2.034  12.693 -2.5704  1.6125 -1.0227
  487TMC3    C1 7291   2.208   1.977  12.757  0.3033  0.4388  0.5148
  487TMC3    C2 7292   2.338   1.929  12.762  0.1176 -0.3603 -0.1220
  487TMC3    C3 7293   2.370   1.806  12.820  0.5262  0.2579 -0.4638
  487TMC3    C4 7294   2.111   1.896  12.824 -0.4095 -0.3766 -1.0264
  487TMC3    C5 7295   2.148   1.776  12.870  0.7058  0.2853 -0.0973
  487TMC3    C6 7296   2.271   1.729  12.882 -0.3375  0.4022  0.6062
  487TMC3     C 7297   2.175   2.094  12.679 -0.0873 -0.3636  0.4354
  487TMC3     O 7298   2.263   2.178  12.667 -0.4363 -0.2724 -0.5235
  487TMC3     H 7299   2.417   1.998  12.732 -0.2235  0.1976  0.2503
  487TMC3    H1 7300   2.015   1.944  12.839 -0.5414 -0.3458 -1.9303
  487TMC3    H2 7301   2.287   1.642  12.944  2.5050 -1.7216 -3.1002
  487TMC3    C7 7302   2.051   1.716  12.962 -0.0973  0.8589  0.0878
  487TMC3    C8 7303   2.509   1.785  12.861 -0.1518 -0.4569 -0.8883
  487TMC3    O1 7304   1.932   1.710  12.938 -0.2078 -0.5626 -0.5882
  487TMC3    O2 7305   2.585   1.880  12.865 -0.0695 -0.0846  0.4421
  488MPD2     C 7306   2.901   3.807  16.370 -0.2977 -0.0848  0.0642
  488MPD2    C1 7307   2.902   3.928  16.433  0.1509  0.2942 -0.2845
  488MPD2    C2 7308   2.864   3.923  16.563 -0.0775 -0.7246 -0.0786
  488MPD2    C3 7309   2.822   3.806  16.631 -0.5883 -0.3821  0.3358
  488MPD2    C4 7310   2.817   3.686  16.563 -0.5260  0.3748  0.1462
  488MPD2    C5 7311   2.862   3.690  16.430 -0.2847 -0.4027 -0.2615
  488MPD2     H 7312   2.857   4.020  16.611  2.5405 -0.2167 -0.7584
  488MPD2    H1 7313   2.776   3.594  16.601 -2.3503  0.2241 -2.1788
  488MPD2    H2 7314   2.937   3.799  16.268  1.7123 -1.4788  0.8737
  488MPD2    H3 7315   2.852   3.602  16.367 -2.0426  0.8156 -1.6640
  488MPD2     N 7316   2.794   3.826  16.774 -0.3577 -0.3529  0.5766
  488MPD2    H5 7317   2.815   3.917  16.813  1.6070 -0.2223 -0.7521
  488MPD2    N1 7318   2.949   4.050  16.375  0.8089 -0.0795  0.6048
  488MPD2    H7 7319   2.950   4.131  16.436 -1.1161 -0.1393  0.6998
  489TMC3    C1 7320   2.734   3.766  16.997 -0.3172  0.2936  0.4496
  489TMC3    C2 7321   2.751   3.901  17.023 -0.1275 -0.2137 -0.0958
  489TMC3    C3 7322   2.728   3.939  17.150 -0.0303 -0.5065 -0.6528
  489TMC3    C4 7323   2.704   3.673  17.099  0.4713  0.1584  0.3762
  489TMC3    C5 7324   2.708   3.721  17.223 -0.0415  0.5890 -0.6403
  489TMC3    C6 7325   2.709   3.852  17.251 -0.1711 -0.1678 -0.4705
  489TMC3     C 7326   2.755   3.724  16.858 -0.1139  0.2936 -0.5446
  489TMC3     O 7327   2.746   3.603  16.842  0.2583  0.5800  0.5621
  489TMC3     H 7328   2.757   3.977  16.946 -0.4345 -0.3049 -0.2103
  489TMC3    H1 7329   2.690   3.569  17.074 -2.5043  0.8014 -0.6142
  489TMC3    H2 7330   2.697   3.886  17.353  2.3955 -1.5133  0.2745
  489TMC3    C7 7331   2.659   3.646  17.328  0.4362  0.7954 -1.0222
  489TMC3    C8 7332   2.761   4.078  17.173  0.3816  0.0993  0.1054
  489TMC3    O1 7333   2.686   3.685  17.442  0.4214  0.5977 -0.3802
  489TMC3    O2 7334   2.850   4.119  17.097  0.4131  0.7784 -0.5997
  490MPD2     C 7335   3.670   3.413  16.940 -0.5497  0.0396  0.7807
  490MPD2    C1 7336   3.604   3.442  17.056 -0.3123  0.1200 -0.2398
  490MPD2    C2 7337   3.649   3.532  17.146  0.1619 -0.1872  0.0885
  490MPD2    C3 7338   3.768   3.592  17.123  0.1596 -0.2224 -0.0467
  490MPD2    C4 7339   3.835   3.571  17.004  0.1621  0.2502  0.2312
  490MPD2    C5 7340   3.787   3.487  16.907 -0.2951  0.4080  0.0274
  490MPD2     H 7341   3.605   3.545  17.244  0.8989  2.1102  0.1157
  490MPD2    H1 7342   3.936   3.608  16.996  0.0369  0.9053  1.7293
  490MPD2    H2 7343   3.631   3.335  16.876  1.7931 -0.7247  0.2769
  490MPD2    H3 7344   3.843   3.459  16.819  0.1480 -0.8778  0.7292
  490MPD2     N 7345   3.828   3.687  17.218 -0.3011  0.1474 -0.3145
  490MPD2    H5 7346   3.918   3.730  17.202 -0.6659  0.7608 -0.7312
  490MPD2    N1 7347   3.494   3.367  17.101 -0.7305  0.1657 -0.0535
  490MPD2    H7 7348   3.469   3.368  17.199  0.8499 -0.9826  0.3534
  491TMC3    C1 7349   3.325   3.195  17.099  0.4548 -0.7907 -0.0650
  491TMC3    C2 7350   3.360   3.166  17.226 -1.2555 -0.4193  0.3759
  491TMC3    C3 7351   3.266   3.088  17.290 -0.3895 -0.2568  0.4576
  491TMC3    C4 7352   3.207   3.161  17.035  0.5301  0.5509  0.1591
  491TMC3    C5 7353   3.121   3.084  17.104 -0.4212 -0.6681 -0.0092
  491TMC3    C6 7354   3.148   3.044  17.232  0.2766 -0.2785  0.6391
  491TMC3     C 7355   3.413   3.289  17.021 -0.0167  0.2683  0.1206
  491TMC3     O 7356   3.409   3.293  16.898 -0.1699 -0.2591  0.5412
  491TMC3     H 7357   3.464   3.168  17.256 -0.6109 -0.8617 -1.8336
  491TMC3    H1 7358   3.204   3.187  16.930 -0.7891 -0.5385 -0.0731
  491TMC3    H2 7359   3.081   2.983  17.290  1.8339 -0.1290  2.5689
  491TMC3    C7 7360   3.001   3.035  17.027 -0.5580 -0.0507  0.4903
  491TMC3    C8 7361   3.267   3.070  17.428  0.6703  0.4721 -0.8137
  491TMC3    O1 7362   2.952   2.930  17.063 -0.0312  0.1061 -0.5356
  491TMC3    O2 7363   3.210   2.970  17.469  0.5845  0.1380 -0.5896
  492MPD2     C 7364   4.510   3.042  10.824 -0.4471 -0.2189 -0.5941
  492MPD2    C1 7365   4.393   3.006  10.751 -0.2469 -0.9696 -0.3113
  492MPD2    C2 7366   4.270   3.003  10.816  0.4202  0.1555 -0.3865
  492MPD2    C3 7367   4.268   3.014  10.955  0.4167  0.2910 -0.3419
  492MPD2    C4 7368   4.379   3.047  11.026  0.1813  0.0688  0.0245
  492MPD2    C5 7369   4.490   3.072  10.960 -0.2607  0.5496 -0.2177
  492MPD2     H 7370   4.178   2.981  10.763  1.1389 -0.0118 -1.5642
  492MPD2    H1 7371   4.378   3.068  11.132  0.8900  2.3233 -0.4086
  492MPD2    H2 7372   4.607   3.052  10.776 -0.3131  0.0849 -0.2666
  492MPD2    H3 7373   4.577   3.111  11.013  0.3706 -0.0520 -0.8205
  492MPD2     N 7374   4.155   3.005  11.037 -0.1536  0.2684 -0.0653
  492MPD2    H5 7375   4.164   3.016  11.137  2.0907 -1.1255 -0.1093
  492MPD2    N1 7376   4.406   3.012  10.612 -0.0297 -0.4134 -0.2304
  492MPD2    H7 7377   4.496   3.037  10.572  0.2103  0.4478  0.8794
  493TMC3    C1 7378   4.327   3.049  10.387 -0.4970  0.2051  0.1579
  493TMC3    C2 7379   4.365   3.182  10.384  0.1338 -0.1660  0.1104
  493TMC3    C3 7380   4.309   3.253  10.285 -0.4181  0.0227 -0.4405
  493TMC3    C4 7381   4.238   2.994  10.294 -0.2167 -0.1069  0.2857
  493TMC3    C5 7382   4.199   3.069  10.186 -0.1915  0.1911 -0.3415
  493TMC3    C6 7383   4.232   3.205  10.181 -0.2431 -0.4218 -0.1892
  493TMC3     C 7384   4.303   2.993  10.519 -0.3343  0.0747 -0.0685
  493TMC3     O 7385   4.185   2.964  10.528  0.4852  0.0172  0.2129
  493TMC3     H 7386   4.428   3.225  10.461 -1.2149  0.6587  0.7442
  493TMC3    H1 7387   4.198   2.895  10.315  1.0821 -0.7484 -0.2921
  493TMC3    H2 7388   4.172   3.268  10.116 -0.5766  0.5582  1.0885
  493TMC3    C7 7389   4.071   3.036  10.129  0.1143  0.1305 -0.0323
  493TMC3    C8 7390   4.320   3.392  10.286  0.1359  0.4783 -0.2754
  493TMC3    O1 7391   3.981   3.116  10.126  0.1053  0.9816  0.2310
  493TMC3    O2 7392   4.329   3.452  10.181  0.4109  0.0140 -0.2466
  494TMC3    C1 7393   3.873   0.495   0.469 -0.0775 -0.1879 -0.0783
  494TMC3    C2 7394   3.905   0.369   0.450  0.2688  0.4500  0.0386
  494TMC3    C3 7395   4.014   0.344   0.377  0.2816 -0.3632 -0.1481
  494TMC3    C4 7396   3.948   0.599   0.416  0.5530 -0.0836 -0.7462
  494TMC3    C5 7397   4.050   0.569   0.324  0.0169  0.5806  0.8455
  494TMC3    C6 7398   4.087   0.436   0.304  0.4387  0.5473  0.3566
  494TMC3     C 7399   3.772   0.520   0.569  0.3001 -0.0541  0.1286
  494TMC3     O 7400   3.671   0.450   0.571 -0.6292 -0.1819 -0.4322
  494TMC3     H 7401   3.846   0.296   0.505 -1.5905  1.2885 -0.8413
  494TMC3    H1 7402   3.924   0.703   0.432  0.4818 -0.0026 -1.3605
  494TMC3    H2 7403   4.168   0.406   0.238 -0.5740 -0.3441 -0.4707
  494TMC3    C7 7404   4.064   0.648   0.206 -0.3652  0.5119 -0.0993
  494TMC3    C8 7405   4.076   0.216   0.389 -0.8621 -0.1175  0.1562
  494TMC3    O1 7406   4.061   0.590   0.098 -0.3779  0.3469  0.0082
  494TMC3    O2 7407   4.195   0.200   0.374 -0.2232  0.6375 -0.5651
  495TMC3    C1 7408   3.212   2.254  14.637  0.1848  0.4785 -0.0820
  495TMC3    C2 7409   3.160   2.318  14.532  0.3429 -0.1661  0.1365
  495TMC3    C3 7410   3.050   2.393  14.543 -1.0350  0.2487  0.3454
  495TMC3    C4 7411   3.163   2.280  14.760  0.6690 -0.1775 -0.3500
  495TMC3    C5 7412   3.062   2.371  14.770  0.1463  0.5038 -0.3553
  495TMC3    C6 7413   2.997   2.425  14.661 -0.7672 -0.1778  0.2117
  495TMC3     C 7414   3.188   2.116  14.604 -0.9379 -0.0008 -0.0074
  495TMC3     O 7415   3.098   2.076  14.675  0.2513 -0.0167  0.3598
  495TMC3     H 7416   3.214   2.320  14.437 -1.1836 -0.7279 -0.7399
  495TMC3    H1 7417   3.205   2.243  14.852  0.1477  0.0220 -0.0269
  495TMC3    H2 7418   2.908   2.488  14.661  0.8439  2.0885  0.9655
  495TMC3    C7 7419   3.014   2.399  14.897  0.3663 -0.3535  0.4689
  495TMC3    C8 7420   2.958   2.383  14.435 -0.0113  0.2119  0.5851
  495TMC3    O1 7421   3.093   2.378  14.988 -0.3891  0.3532 -0.3850
  495TMC3    O2 7422   2.858   2.453  14.433 -0.2219 -0.3234 -0.2003
  496MPD2     C 7423   0.795   2.563  15.252 -0.3490  0.1105 -0.4588
  496MPD2    C1 7424   0.710   2.477  15.180  0.5372 -0.3810 -0.0846
  496MPD2    C2 7425   0.574   2.476  15.209  0.2107  0.5779 -0.0116
  496MPD2    C3 7426   0.529   2.566  15.313  0.1206 -0.0128  0.1560
  496MPD2    C4 7427   0.615   2.644  15.393 -0.1363  0.1695  0.2324
  496MPD2    C5 7428   0.748   2.640  15.356 -0.7805  0.6491  0.0172
  496MPD2     H 7429   0.496   2.410  15.172  1.8258 -0.2096 -1.9925
  496MPD2    H1 7430   0.577   2.715  15.465  1.8875 -1.0093  2.4630
  496MPD2    H2 7431   0.901   2.549  15.238 -0.2520  0.0176  0.3531
  496MPD2    H3 7432   0.819   2.700  15.412 -1.5541 -0.0968  1.8248
  496MPD2     N 7433   0.391   2.553  15.352  0.5311  0.1235 -0.4318
  496MPD2    H5 7434   0.336   2.505  15.281  0.7052 -0.4537 -0.1777
  496MPD2    N1 7435   0.768   2.388  15.084  0.2249  0.2078  0.1071
  496MPD2    H7 7436   0.867   2.404  15.066  0.3218  0.1773  0.6148
  497TMC3    C1 7437   0.199   2.557  15.482  0.2791  0.0781 -0.4307
  497TMC3    C2 7438   0.129   2.571  15.365  0.4294 -0.2206 -0.3796
  497TMC3    C3 7439   4.735   2.534  15.376  0.1901 -0.3241 -0.2192
  497TMC3    C4 7440   0.154   2.523  15.605 -0.4841  0.5880 -0.0430
  497TMC3    C5 7441   0.025   2.485  15.604  0.3908  0.1503 -0.8640
  497TMC3    C6 7442   4.684   2.483  15.486  0.2579  1.4012  0.0992
  497TMC3     C 7443   0.339   2.583  15.474 -1.2180  0.5310  0.6620
  497TMC3     O 7444   0.402   2.629  15.570 -0.3924  0.1594  0.0188
  497TMC3     H 7445   0.163   2.613  15.272  1.0608 -2.1951 -1.0477
  497TMC3    H1 7446   0.219   2.535  15.691 -0.3241 -0.2494 -0.0465
  497TMC3    H2 7447   4.581   2.450  15.495  0.9956 -1.0555 -0.3283
  497TMC3    C7 7448   4.696   2.426  15.725 -0.7720 -0.3369  0.0744
  497TMC3    C8 7449   4.654   2.543  15.257  0.4752 -0.9384 -0.2158
  497TMC3    O1 7450   4.576   2.408  15.726  0.0522 -0.1986 -0.0541
  497TMC3    O2 7451   4.534   2.536  15.286  0.1794  0.1572  0.1165
  498MPD2     C 7452   1.987   3.102   9.537 -0.2685  0.2712 -0.1394
  498MPD2    C1 7453   1.977   3.218   9.615  0.3756 -0.5989 -0.2486
  498MPD2    C2 7454   1.880   3.217   9.711  0.0474 -0.4636 -0.1815
  498MPD2    C3 7455   1.800   3.108   9.739 -0.1944  0.4681  0.1257
  498MPD2    C4 7456   1.827   2.996   9.664 -0.6480  0.5441  0.4575
  498MPD2    C5 7457   1.909   2.994   9.555  0.2876 -0.6539  0.2285
  498MPD2     H 7458   1.860   3.312   9.760 -1.5708 -1.4599  1.0878
  498MPD2    H1 7459   1.775   2.906   9.695 -0.6144 -0.6405 -2.9593
  498MPD2    H2 7460   2.057   3.102   9.454  1.5310 -0.2626  1.3851
  498MPD2    H3 7461   1.919   2.908   9.490  0.9419 -0.3580 -0.0594
  498MPD2     N 7462   1.699   3.107   9.838  0.7469 -0.6200  0.0958
  498MPD2    H5 7463   1.686   3.201   9.874  0.8744 -0.7009  0.3531
  498MPD2    N1 7464   2.050   3.335   9.581  0.5358  0.5309  0.4963
  498MPD2    H7 7465   2.041   3.415   9.642 -0.6801  1.4992 -0.9480
  499TMC3    C1 7466   2.161   3.498   9.449 -0.0514  0.3607 -0.1924
  499TMC3    C2 7467   2.266   3.529   9.369 -0.4746 -0.6946 -0.7279
  499TMC3    C3 7468   2.285   3.669   9.354 -0.2653 -0.1409  0.7979
  499TMC3    C4 7469   2.083   3.590   9.513  0.2566 -0.3738  0.7443
  499TMC3    C5 7470   2.110   3.720   9.503  0.3449  0.0638 -0.4579
  499TMC3    C6 7471   2.211   3.764   9.423  0.2846  0.3498 -0.2503
  499TMC3     C 7472   2.148   3.353   9.482  0.5850  0.9477 -0.6848
  499TMC3     O 7473   2.212   3.274   9.419  0.1274 -0.6338 -0.1350
  499TMC3     H 7474   2.329   3.456   9.320 -0.5535 -1.1675 -0.1259
  499TMC3    H1 7475   1.992   3.569   9.568 -0.3544  0.2486 -0.0110
  499TMC3    H2 7476   2.235   3.870   9.419  0.3394  0.2792 -2.0827
  499TMC3    C7 7477   2.050   3.808   9.602 -0.3732  0.2629 -0.6864
  499TMC3    C8 7478   2.383   3.724   9.266  0.5569  0.4851 -0.4358
  499TMC3    O1 7479   2.034   3.925   9.564 -0.2920 -0.4093  0.6499
  499TMC3    O2 7480   2.421   3.838   9.280 -0.6022 -0.6852 -0.2824
  500MPD2     C 7481   2.855   4.121  10.609  0.3314  0.0245  0.0215
  500MPD2    C1 7482   2.900   4.238  10.553 -0.4611 -0.6865  0.2887
  500MPD2    C2 7483   2.810   4.316  10.477 -0.6428  0.1380 -0.3811
  500MPD2    C3 7484   2.672   4.283  10.476 -0.3480 -0.1358 -0.1189
  500MPD2    C4 7485   2.633   4.160  10.528 -0.2501 -0.9557  1.0408
  500MPD2    C5 7486   2.723   4.080  10.594  0.2016  0.5112  0.1969
  500MPD2     H 7487   2.836   4.417  10.447 -1.4953  0.5229  0.1603
  500MPD2    H1 7488   2.531   4.122  10.525 -0.8710  0.8905 -1.0461
  500MPD2    H2 7489   2.921   4.059  10.669 -0.3000 -0.2123  0.4725
  500MPD2    H3 7490   2.685   3.996  10.652  2.0973 -0.7821 -0.4490
  500MPD2     N 7491   2.571   4.355  10.413  0.5403  0.5423 -0.1459
  500MPD2    H5 7492   2.475   4.322  10.415  0.4679  0.6676 -2.0332
  500MPD2    N1 7493   3.035   4.279  10.541  0.0289  0.2276 -0.3978
  500MPD2    H7 7494   3.047   4.353  10.473  1.1232  2.0001  1.7263
  501TMC3    C1 7495   3.274   4.256  10.532 -0.2497 -0.7584  0.1791
  501TMC3    C2 7496   3.284   4.339  10.417 -0.2166 -0.3212  0.3850
  501TMC3    C3 7497   3.413   4.354  10.361  0.1692 -0.0116  0.1075
  501TMC3    C4 7498   3.377   4.179  10.574 -0.2883 -0.0916  0.3318
  501TMC3    C5 7499   3.505   4.197  10.516 -0.5153 -0.3864 -0.0313
  501TMC3    C6 7500   3.518   4.268  10.397 -0.0810  0.4884  0.2435
  501TMC3     C 7501   3.142   4.209  10.580 -0.2458 -0.0738 -0.4183
  501TMC3     O 7502   3.148   4.113  10.651 -0.5500  0.1848  0.0712
  501TMC3     H 7503   3.198   4.400  10.393  0.0145 -0.1853 -0.1080
  501TMC3    H1 7504   3.373   4.104  10.652  0.9708  0.0391  0.5294
  501TMC3    H2 7505   3.621   4.275  10.362  0.3215 -2.8079  0.7966
  501TMC3    C7 7506   3.601   4.095  10.548  0.6901  0.3561  0.5377
  501TMC3    C8 7507   3.443   4.456  10.264 -0.1992  0.5056 -0.5679
  501TMC3    O1 7508   3.556   3.996  10.593  0.0797 -0.0184  0.1125
  501TMC3    O2 7509   3.561   4.489  10.239  0.1434 -0.2059  0.1528
  502TMC3    C1 7510   2.730   3.235  14.700 -0.7457 -0.1061  0.7255
  502TMC3    C2 7511   2.758   3.367  14.687  0.4022  0.3230 -0.0563
  502TMC3    C3 7512   2.659   3.462  14.701 -0.3214  0.2039 -0.1973
  502TMC3    C4 7513   2.603   3.190  14.715 -0.4254  0.1739 -0.2722
  502TMC3    C5 7514   2.502   3.285  14.722  0.3372 -0.2912  0.9590
  502TMC3    C6 7515   2.530   3.423  14.715 -0.2087 -0.7261 -0.0424
  502TMC3     C 7516   2.836   3.174  14.781 -0.8069  0.0956  0.3833
  502TMC3     O 7517   2.954   3.199  14.761 -0.0516  0.3007  0.1705
  502TMC3     H 7518   2.862   3.398  14.687  0.7268 -0.7909  0.6835
  502TMC3    H1 7519   2.583   3.083  14.714 -2.1157  0.4880 -1.2395
  502TMC3    H2 7520   2.451   3.489  14.749 -2.2159 -2.1589 -1.9234
  502TMC3    C7 7521   2.437   3.241  14.843 -0.0901 -0.0583  0.3002
  502TMC3    C8 7522   2.679   3.605  14.681 -0.3720  0.9494  0.6188
  502TMC3    O1 7523   2.494   3.157  14.913  0.1948  0.3340 -0.2344
  502TMC3    O2 7524   2.587   3.682  14.696 -0.5359 -0.1533 -0.2495
  503MPD2     C 7525   4.005   4.010  17.043 -0.6204  0.4048  0.1862
  503MPD2    C1 7526   4.076   4.092  17.125  0.0538  0.0126  0.0334
  503MPD2    C2 7527   4.166   4.026  17.200  0.2803  0.2133  0.0202
  503MPD2    C3 7528   4.193   3.895  17.184 -0.3031 -0.3370 -0.2015
  503MPD2    C4 7529   4.129   3.819  17.089 -0.6800 -0.2694  1.2572
  503MPD2    C5 7530   4.024   3.876  17.021 -0.9922 -0.4944  0.0756
  503MPD2     H 7531   4.228   4.089  17.263 -0.9025  0.4472  0.9542
  503MPD2    H1 7532   4.151   3.713  17.074  0.1193 -0.1345  1.4329
  503MPD2    H2 7533   3.919   4.054  16.994  0.8808  0.4629 -2.3955
  503MPD2    H3 7534   3.957   3.830  16.949 -0.3833 -1.6632  0.2714
  503MPD2     N 7535   4.296   3.855  17.263  1.3581 -0.5921 -0.4556
  503MPD2    H5 7536   4.308   3.921  17.339  0.0615 -2.5534  1.4698
  503MPD2    N1 7537   4.047   4.224  17.160 -0.8359  0.4672 -0.0683
  503MPD2    H7 7538   4.107   4.271  17.227 -1.4621 -0.0713  0.8622
  504TMC3    C1 7539   4.476   3.727  17.355 -0.2091 -0.6318  0.9543
  504TMC3    C2 7540   4.454   3.793  17.466  1.0352 -0.1223  0.4180
  504TMC3    C3 7541   4.566   3.827  17.548  0.2788 -0.3122  0.7861
  504TMC3    C4 7542   4.603   3.677  17.320  0.0704 -0.7385 -0.4273
  504TMC3    C5 7543   4.703   3.711  17.405  0.5064 -0.1376 -0.3468
  504TMC3    C6 7544   4.687   3.785  17.521 -0.3117 -0.6702 -0.0757
  504TMC3     C 7545   4.376   3.743  17.251 -0.0028  0.8555  0.7282
  504TMC3     O 7546   4.362   3.656  17.168  0.3533  0.1556 -0.5708
  504TMC3     H 7547   4.355   3.820  17.503  0.1124 -0.2992 -1.8799
  504TMC3    H1 7548   4.624   3.614  17.234 -1.6091 -0.4189 -1.0569
  504TMC3    H2 7549   0.039   3.805  17.581 -0.8943 -2.2525  1.2976
  504TMC3    C7 7550   0.102   3.672  17.357 -0.2354 -0.0296 -0.3706
  504TMC3    C8 7551   4.548   3.887  17.682 -0.1753  0.0695  0.3304
  504TMC3    O1 7552   0.125   3.633  17.245  0.0293  0.3695  0.2187
  504TMC3    O2 7553   4.468   3.981  17.688  0.3246 -0.3475  0.5390
  505MPD2     C 7554   0.769   3.707  10.484  0.3186 -0.5411 -1.0648
  505MPD2    C1 7555   0.657   3.671  10.418 -0.2351 -0.0294 -0.6911
  505MPD2    C2 7556   0.608   3.542  10.453 -0.3106 -0.5441  0.1556
  505MPD2    C3 7557   0.673   3.463  10.550  0.5299  0.2601 -0.1530
  505MPD2    C4 7558   0.776   3.522  10.625 -0.0505  0.1365 -0.1394
  505MPD2    C5 7559   0.825   3.643  10.589 -0.1169  0.1812 -0.4262
  505MPD2     H 7560   0.528   3.502  10.391 -0.8609  0.7239  0.0398
  505MPD2    H1 7561   0.824   3.469  10.706  1.6018 -0.6352 -1.6234
  505MPD2    H2 7562   0.811   3.802  10.455  0.4939 -0.3447 -0.1589
  505MPD2    H3 7563   0.908   3.692  10.639 -2.7272  2.4796  1.5797
  505MPD2     N 7564   0.635   3.339  10.593  0.7390  0.1798 -0.5384
  505MPD2    H5 7565   0.689   3.288  10.662 -0.1203  1.5738  1.1574
  505MPD2    N1 7566   0.599   3.759  10.320  0.1842  0.2298  0.0557
  505MPD2    H7 7567   0.653   3.831  10.273  0.7107 -0.9892 -1.1866
  506TMC3    C1 7568   0.468   3.801  10.129  0.0525  0.6107  0.0063
  506TMC3    C2 7569   0.584   3.800  10.058 -0.0602  0.4437 -0.4573
  506TMC3    C3 7570   0.569   3.788   9.923 -0.4472 -0.1728  0.2690
  506TMC3    C4 7571   0.350   3.768  10.072 -0.2157 -0.2902 -0.1747
  506TMC3    C5 7572   0.344   3.739   9.937 -1.1564  0.1653  0.1566
  506TMC3    C6 7573   0.448   3.765   9.863 -0.2700 -0.0928 -0.6811
  506TMC3     C 7574   0.480   3.731  10.254  0.7641 -0.7821  0.2906
  506TMC3     O 7575   0.398   3.648  10.281  0.5336 -0.0865 -0.6189
  506TMC3     H 7576   0.680   3.834  10.095 -0.0520 -0.6961  0.5768
  506TMC3    H1 7577   0.254   3.747  10.118 -0.3034  1.8933  0.6319
  506TMC3    H2 7578   0.444   3.759   9.755  0.7606  0.3768 -0.7417
  506TMC3    C7 7579   0.304   3.599   9.917  0.1198 -0.0643 -0.4147
  506TMC3    C8 7580   0.685   3.798   9.839  0.1516  0.3711 -0.2296
  506TMC3    O1 7581   0.297   3.559   9.800  0.1162  0.1070 -0.0791
  506TMC3    O2 7582   0.689   3.864   9.737  0.4927  0.0334 -0.9986
  507TMC3    C1 7583   1.232   3.917  15.001  0.4107  0.5532 -0.0973
  507TMC3    C2 7584   1.224   3.781  14.981  0.4266 -0.2959 -0.2853
  507TMC3    C3 7585   1.224   3.742  14.847  0.1979 -0.2929 -0.6680
  507TMC3    C4 7586   1.236   4.010  14.902 -0.5598  0.2269 -0.0611
  507TMC3    C5 7587   1.218   3.965  14.775  0.7278 -0.5126 -0.2523
  507TMC3    C6 7588   1.234   3.835  14.751  0.0200  0.0246 -0.0876
  507TMC3     C 7589   1.239   3.974  15.135  0.4020 -0.3590 -0.4525
  507TMC3     O 7590   1.205   4.093  15.150 -0.0519 -0.7479  0.6123
  507TMC3     H 7591   1.223   3.707  15.061 -1.3357 -0.7821 -0.7635
  507TMC3    H1 7592   1.240   4.115  14.927  0.2632 -0.1407  1.3302
  507TMC3    H2 7593   1.242   3.802  14.647 -1.6120 -1.2219  0.1695
  507TMC3    C7 7594   1.095   4.005  14.708  0.8993 -0.7364  0.4835
  507TMC3    C8 7595   1.139   3.629  14.811 -0.7395 -0.3216  0.2322
  507TMC3    O1 7596   1.054   3.941  14.613 -0.3899  0.3505  0.3843
  507TMC3    O2 7597   1.157   3.519  14.868 -0.2863  0.3232 -0.5272
  508MPD2     C 7598   1.511   1.181  16.098  0.6047  0.2801  0.4211
  508MPD2    C1 7599   1.646   1.159  16.105  0.5162  0.3036 -0.2630
  508MPD2    C2 7600   1.717   1.141  15.983 -0.3716 -0.9646  0.2104
  508MPD2    C3 7601   1.662   1.164  15.863 -0.7901 -0.2557  0.1605
  508MPD2    C4 7602   1.520   1.193  15.863  0.3075 -0.1658 -0.0380
  508MPD2    C5 7603   1.452   1.208  15.979  0.8212  0.5173  0.1261
  508MPD2     H 7604   1.824   1.124  15.977 -0.3309 -0.4614 -0.4481
  508MPD2    H1 7605   1.474   1.203  15.766  0.1700  0.6373  0.1155
  508MPD2    H2 7606   1.452   1.191  16.188 -0.4125  2.0625 -0.4393
  508MPD2    H3 7607   1.346   1.232  15.975  0.6336 -0.2301  0.5473
  508MPD2     N 7608   1.741   1.162  15.740  0.1010  0.1798 -0.3997
  508MPD2    H5 7609   1.841   1.144  15.752 -0.3602 -2.5468 -0.4649
  508MPD2    N1 7610   1.710   1.142  16.235 -0.3590  0.4723 -0.3214
  508MPD2    H7 7611   1.646   1.160  16.311 -0.5044  0.0124 -0.3290
  509TMC3    C1 7612   1.757   1.417  15.385  0.6476 -0.4345  0.6319
  509TMC3    C2 7613   1.865   1.480  15.438 -1.0476  0.3523  0.4399
  509TMC3    C3 7614   1.934   1.412  15.532 -0.2451 -0.7463  0.0712
  509TMC3    C4 7615   1.717   1.294  15.417 -0.1864 -0.0618  0.2610
  509TMC3    C5 7616   1.782   1.232  15.522 -0.4684 -0.3691  0.0286
  509TMC3    C6 7617   1.889   1.290  15.580 -0.4812 -0.3366  1.0876
  509TMC3     C 7618   1.663   1.494  15.305 -0.1003 -0.4562 -0.0835
  509TMC3     O 7619   1.548   1.463  15.307 -0.5926 -0.1680 -0.6140
  509TMC3     H 7620   1.883   1.583  15.413 -1.4343  0.4499  0.5651
  509TMC3    H1 7621   1.620   1.263  15.379 -1.1046  0.6697  2.0160
  509TMC3    H2 7622   1.951   1.228  15.644 -0.8253 -0.5524  1.2136
  509TMC3    C7 7623   1.697   1.155  15.610  0.4101  0.8489 -0.5077
  509TMC3    C8 7624   2.011   1.481  15.637 -0.1803  0.6401 -0.3461
  509TMC3    O1 7625   1.588   1.132  15.567 -0.1944  0.2312  0.3862
  509TMC3    O2 7626   1.994   1.440  15.752  0.9129  0.2147 -0.4697
  510MPD2     C 7627   4.149   2.795  14.240  0.1200 -0.2874 -0.4299
  510MPD2    C1 7628   4.216   2.845  14.343  0.0212 -0.3855 -0.2900
  510MPD2    C2 7629   4.334   2.901  14.321 -0.4289  0.3757  0.4450
  510MPD2    C3 7630   4.396   2.896  14.197  0.2845  0.6269  0.1371
  510MPD2    C4 7631   4.324   2.845  14.090  0.1284  0.8074 -0.4033
  510MPD2    C5 7632   4.196   2.796  14.111 -0.1985  0.2035 -0.1615
  510MPD2     H 7633   4.399   2.930  14.402 -0.3538 -0.8118  0.8002
  510MPD2    H1 7634   4.362   2.834  13.989  0.1138 -1.7335 -0.1322
  510MPD2    H2 7635   4.055   2.741  14.244  0.1516 -0.3911 -1.2713
  510MPD2    H3 7636   4.148   2.743  14.030  1.8308 -3.0044  0.7459
  510MPD2     N 7637   4.530   2.934  14.189  0.3977  0.7176  0.0863
  510MPD2    H5 7638   4.560   2.966  14.281 -0.4076  0.9469  0.2626
  510MPD2    N1 7639   4.156   2.818  14.469  0.2516 -0.5442  0.1567
  510MPD2    H7 7640   4.078   2.753  14.472  1.8492 -2.5145 -1.0109
  511TMC3    C1 7641   4.148   2.770  14.693 -0.3705  0.0051  1.0472
  511TMC3    C2 7642   4.063   2.830  14.779 -0.1041 -0.2771 -0.4681
  511TMC3    C3 7643   3.956   2.749  14.820 -0.3320 -0.2496  0.6402
  511TMC3    C4 7644   4.134   2.643  14.644  0.1698 -0.4328  0.1124
  511TMC3    C5 7645   4.032   2.566  14.695  0.0045 -0.2012 -0.8728
  511TMC3    C6 7646   3.941   2.620  14.776  0.5352  0.0667  0.0039
  511TMC3     C 7647   4.208   2.856  14.590  0.0170  0.3175 -0.0645
  511TMC3     O 7648   4.295   2.942  14.616  0.0171 -0.0090  0.7132
  511TMC3     H 7649   4.077   2.933  14.809 -1.2240  0.1902 -1.5415
  511TMC3    H1 7650   4.210   2.602  14.579 -0.4555  0.6891 -1.3337
  511TMC3    H2 7651   3.859   2.560  14.814  0.0133  0.7948  0.0237
  511TMC3    C7 7652   4.023   2.432  14.645  0.2243  0.0485 -0.0283
  511TMC3    C8 7653   3.861   2.806  14.919 -0.3240  0.8319 -0.1414
  511TMC3    O1 7654   4.069   2.409  14.533 -0.4344  0.0118 -0.5713
  511TMC3    O2 7655   3.862   2.926  14.944 -0.2943 -0.1463 -0.1934
  512TMC3    C1 7656   3.119   1.954  13.379 -1.2141  0.1634  0.6416
  512TMC3    C2 7657   3.251   1.978  13.415  0.2038 -0.9079 -0.4064
  512TMC3    C3 7658   3.325   1.869  13.457 -0.6205 -0.5042 -0.2065
  512TMC3    C4 7659   3.050   1.840  13.420 -0.8194  0.1447 -0.4342
  512TMC3    C5 7660   3.130   1.738  13.474  0.1713 -0.9614  0.0507
  512TMC3    C6 7661   3.263   1.748  13.487  0.8141 -0.0560 -0.0710
  512TMC3     C 7662   3.041   2.028  13.278 -0.0634  0.1345  0.0948
  512TMC3     O 7663   2.936   1.984  13.240  0.9273  0.3242 -0.3396
  512TMC3     H 7664   3.299   2.075  13.403  1.2218 -1.4151 -0.4599
  512TMC3    H1 7665   2.942   1.829  13.417 -0.5157 -2.9287  0.2386
  512TMC3    H2 7666   3.324   1.664  13.517  2.4830  1.4071  0.5805
  512TMC3    C7 7667   3.063   1.611  13.491 -0.8397 -0.2180  0.3130
  512TMC3    C8 7668   3.456   1.891  13.514  0.5713 -0.2361 -0.6805
  512TMC3    O1 7669   2.943   1.621  13.509  0.0386 -0.0694 -0.1495
  512TMC3    O2 7670   3.508   1.790  13.565  0.0736  0.3881  0.0256
  513MPD2     C 7671   4.553   2.339  13.137 -0.7746  0.6783  0.3348
  513MPD2    C1 7672   4.626   2.237  13.084  0.3054  0.4166 -0.0143
  513MPD2    C2 7673   4.701   2.158  13.173 -0.3293  0.1512  0.8060
  513MPD2    C3 7674   4.714   2.188  13.304 -0.3056 -0.0114 -0.1278
  513MPD2    C4 7675   4.643   2.291  13.355 -0.1676  0.0385  0.3748
  513MPD2    C5 7676   4.560   2.359  13.272 -0.1499  0.7742 -0.2228
  513MPD2     H 7677   0.021   2.075  13.130  1.2030  0.9314  1.2932
  513MPD2    H1 7678   4.643   2.333  13.455  1.0870 -0.4761  0.5863
  513MPD2    H2 7679   4.478   2.394  13.082 -1.5102 -0.1197  0.5474
  513MPD2    H3 7680   4.489   2.436  13.304  1.5556  0.9111  3.2652
  513MPD2     N 7681   0.067   2.113  13.381  0.5692 -0.1997  0.3087
  513MPD2    H5 7682   0.094   2.027  13.334  0.2329 -1.1856  1.8867
  513MPD2    N1 7683   4.638   2.205  12.943  0.3988 -0.3033  0.4774
  513MPD2    H7 7684   4.671   2.112  12.920 -0.9500 -0.0313 -2.5707
  514TMC3    C1 7685   4.622   2.213  12.711 -0.8719 -0.1525 -0.0979
  514TMC3    C2 7686   4.714   2.283  12.637 -0.2952  0.3962  0.5408
  514TMC3    C3 7687   0.082   2.221  12.578 -0.8229 -1.0696  0.7776
  514TMC3    C4 7688   4.641   2.080  12.736 -0.1753 -0.2751 -0.1046
  514TMC3    C5 7689   0.012   2.025  12.674  0.0846 -0.1367 -0.3856
  514TMC3    C6 7690   0.106   2.094  12.602 -0.3113  0.4816  0.0248
  514TMC3     C 7691   4.600   2.283  12.836 -0.8258 -0.7959  0.0534
  514TMC3     O 7692   4.549   2.395  12.840 -0.5437 -0.3533  0.3640
  514TMC3     H 7693   4.696   2.388  12.620  3.7059  0.7632 -1.3555
  514TMC3    H1 7694   4.560   2.022  12.780 -1.1185 -0.6728 -2.3486
  514TMC3    H2 7695   0.200   2.048  12.573 -0.6390 -0.7051  0.8481
  514TMC3    C7 7696   0.077   1.948  12.774 -1.1199 -0.7595 -0.2206
  514TMC3    C8 7697   0.178   2.307  12.514 -1.1514  0.2027 -0.0482
  514TMC3    O1 7698   0.029   1.961  12.887  0.4326 -0.1632  0.3352
  514TMC3    O2 7699   0.221   2.398  12.586  0.7160 -0.4294 -0.1338
  515MPD2     C 7700   3.541   3.861  13.963 -0.2385  0.3486  0.1113
  515MPD2    C1 7701   3.474   3.805  14.070 -0.1604  0.1362 -0.2798
  515MPD2    C2 7702   3.481   3.860  14.198  0.1792  0.1246 -0.0158
  515MPD2    C3 7703   3.568   3.964  14.220 -0.0998  0.1996  0.1241
  515MPD2    C4 7704   3.642   4.008  14.114 -0.1745  0.6125  0.3509
  515MPD2    C5 7705   3.621   3.971  13.986 -0.0437  0.0658 -0.2555
  515MPD2     H 7706   3.417   3.823  14.278  1.2657  1.0128  1.2591
  515MPD2    H1 7707   3.712   4.090  14.127  0.5675  0.1367 -0.6389
  515MPD2    H2 7708   3.526   3.826  13.861  1.0949  0.3438 -0.0778
  515MPD2    H3 7709   3.669   4.019  13.901 -0.8047  1.3051  0.0178
  515MPD2     N 7710   3.577   4.040  14.341  0.5915 -0.6281 -0.4179
  515MPD2    H5 7711   3.631   4.126  14.343  1.0701 -0.9068 -1.4513
  515MPD2    N1 7712   3.399   3.696  14.036 -0.4085 -0.7634 -0.3156
  515MPD2    H7 7713   3.390   3.672  13.938 -0.1848  0.2922 -0.5914
  516TMC3    C1 7714   3.251   3.502  14.074  0.5792 -0.2389 -0.5269
  516TMC3    C2 7715   3.180   3.522  13.957 -0.1117 -0.8861  0.6987
  516TMC3    C3 7716   3.083   3.431  13.926 -0.4888 -0.3703  1.4669
  516TMC3    C4 7717   3.240   3.385  14.147 -0.7087 -0.2161 -0.6740
  516TMC3    C5 7718   3.139   3.301  14.116 -0.4039 -0.5707  0.3671
  516TMC3    C6 7719   3.059   3.320  14.003 -0.3042  0.6212  0.0718
  516TMC3     C 7720   3.340   3.613  14.130 -0.9017  0.0995 -0.1931
  516TMC3     O 7721   3.352   3.621  14.250 -0.5358  0.5522 -0.2125
  516TMC3     H 7722   3.203   3.610  13.898  0.3753 -1.2277  0.3847
  516TMC3    H1 7723   3.303   3.369  14.234 -1.6284  0.5574  0.1263
  516TMC3    H2 7724   2.983   3.250  13.970 -0.2620 -0.0158  1.3353
  516TMC3    C7 7725   3.117   3.191  14.213 -0.0816 -0.0409 -0.2199
  516TMC3    C8 7726   2.993   3.470  13.805 -0.6533 -0.6995  0.0865
  516TMC3    O1 7727   3.200   3.173  14.299 -0.5957  0.0303 -0.6979
  516TMC3    O2 7728   2.872   3.458  13.815  0.1491  0.2167 -0.2008
  517MPD2     C 7729   2.631   0.754  17.614  0.5450  0.7922 -0.0470
  517MPD2    C1 7730   2.764   0.766  17.614 -0.5107 -0.2273  0.5934
  517MPD2    C2 7731   2.825   0.844  17.709  0.0706  0.3674  0.4444
  517MPD2    C3 7732   2.759   0.904   0.067  0.2563  0.5789  0.2521
  517MPD2    C4 7733   2.628   0.886   0.070 -0.2050  0.4287 -0.5036
  517MPD2    C5 7734   2.562   0.823  17.712  0.2655 -0.3129  0.2878
  517MPD2     H 7735   2.933   0.853  17.701  0.0401 -0.8228 -1.2972
  517MPD2    H1 7736   2.564   0.929   0.147  0.9132  1.5176 -0.1795
  517MPD2    H2 7737   2.576   0.691  17.546 -1.8916  1.2104  1.5428
  517MPD2    H3 7738   2.454   0.814  17.714  0.4265 -2.2844  0.7052
  517MPD2     N 7739   2.815   0.979   0.178 -0.0628  0.3238 -0.0933
  517MPD2    H5 7740   2.749   1.011   0.248 -1.0664 -0.5423 -0.6376
  517MPD2    N1 7741   2.850   0.690  17.529 -0.1509  0.2461  0.1563
  517MPD2    H7 7742   2.949   0.712  17.522 -0.2290  0.3850 -0.4900
  518TMC3    C1 7743   2.934   0.504  17.425 -0.3849  0.4727 -0.2537
  518TMC3    C2 7744   2.937   0.366  17.434 -0.2620  0.0544 -0.1784
  518TMC3    C3 7745   3.048   0.306  17.373  0.8832  0.0823 -0.0984
  518TMC3    C4 7746   3.025   0.579  17.356 -0.4902 -0.0410  0.2802
  518TMC3    C5 7747   3.139   0.521  17.302  0.0720 -0.2382  0.0968
  518TMC3    C6 7748   3.153   0.384  17.318  0.3057 -0.2283 -0.1694
  518TMC3     C 7749   2.816   0.572  17.476  0.4099 -0.0531 -0.3039
  518TMC3     O 7750   2.719   0.502  17.485  0.1100 -0.4713 -0.8088
  518TMC3     H 7751   2.854   0.307  17.471 -1.1673  1.4176 -0.0362
  518TMC3    H1 7752   3.010   0.685  17.340  1.5790  0.1875 -0.1301
  518TMC3    H2 7753   3.230   0.327  17.268 -0.7627 -1.9131  0.1089
  518TMC3    C7 7754   3.194   0.592  17.192  0.4741 -0.4365  0.5196
  518TMC3    C8 7755   3.052   0.159  17.374  0.2300  0.4508 -1.0052
  518TMC3    O1 7756   3.120   0.660  17.130 -0.0616  0.3356  0.0967
  518TMC3    O2 7757   3.118   0.104  17.289 -0.2083 -0.3583  0.4413
  519MPD2     C 7758   0.047   3.398  14.239  0.0032 -0.3674 -0.4624
  519MPD2    C1 7759   0.006   3.367  14.110 -0.5306  0.3383 -0.6287
  519MPD2    C2 7760   0.098   3.378  14.011 -0.1095 -0.8129  0.3520
  519MPD2    C3 7761   0.231   3.406  14.029 -0.2187 -0.2448  0.1209
  519MPD2    C4 7762   0.264   3.434  14.159 -0.4880 -0.3249  0.2350
  519MPD2    C5 7763   0.174   3.435  14.266  0.2559 -0.1224  0.1664
  519MPD2     H 7764   0.058   3.340  13.917  3.0226 -2.1800 -0.4221
  519MPD2    H1 7765   0.370   3.443  14.179 -0.4044  0.6850 -0.6783
  519MPD2    H2 7766   4.722   3.389  14.329  0.9604  1.7195  0.3999
  519MPD2    H3 7767   0.204   3.464  14.365  0.5320 -1.0269  0.3484
  519MPD2     N 7768   0.332   3.370  13.936  0.7409  0.4023  0.5701
  519MPD2    H5 7769   0.430   3.368  13.963  0.5850 -1.1513  1.0619
  519MPD2    N1 7770   4.608   3.334  14.101 -0.2689 -0.5682 -0.0395
  519MPD2    H7 7771   4.554   3.332  14.186 -0.1687 -1.4936  0.0030
  520TMC3    C1 7772   0.416   3.337  13.711  0.3703 -0.6039 -0.3062
  520TMC3    C2 7773   0.406   3.377  13.579  0.6921  0.6406  0.6221
  520TMC3    C3 7774   0.509   3.339  13.500 -0.5496  0.0937 -0.1538
  520TMC3    C4 7775   0.520   3.266  13.766 -0.6878  0.5131 -1.1132
  520TMC3    C5 7776   0.629   3.236  13.681  0.7511  0.7432 -0.6483
  520TMC3    C6 7777   0.627   3.282  13.547  0.7916  0.1531 -0.0799
  520TMC3     C 7778   0.305   3.360  13.804  0.0369  0.4958 -0.0955
  520TMC3     O 7779   0.200   3.390  13.748  0.6062  0.2277 -0.2676
  520TMC3     H 7780   0.317   3.428  13.543 -0.3243 -1.4555  0.1986
  520TMC3    H1 7781   0.527   3.242  13.872  0.8084 -0.0143 -1.3283
  520TMC3    H2 7782   0.716   3.272  13.485  2.1289 -0.0697  1.8899
  520TMC3    C7 7783   0.723   3.135  13.732  0.7994 -0.1435  0.6610
  520TMC3    C8 7784   0.494   3.364  13.360  0.3283  0.1708  0.1019
  520TMC3    O1 7785   0.753   3.126  13.852 -0.6899  0.7665  0.0289
  520TMC3    O2 7786   0.596   3.387  13.296  0.2470 -0.0284  0.2663
  521MPD2     C 7787   0.720   2.066  17.511 -0.4337  0.5536 -0.0186
  521MPD2    C1 7788   0.678   1.990  17.402  0.0365 -0.3483  0.9012
  521MPD2    C2 7789   0.760   1.976  17.297  0.1933  0.1137 -0.6775
  521MPD2    C3 7790   0.892   2.009  17.303  0.2144  0.2831 -0.0871
  521MPD2    C4 7791   0.936   2.076  17.413  0.1033  0.1650 -0.0207
  521MPD2    C5 7792   0.849   2.109  17.518  0.4432 -0.5511 -0.4066
  521MPD2     H 7793   0.728   1.920  17.209 -1.2833 -0.2155  0.0639
  521MPD2    H1 7794   1.038   2.111  17.419 -0.5043  2.5299 -3.3156
  521MPD2    H2 7795   0.664   2.081  17.603 -0.6110 -0.7469  0.0816
  521MPD2    H3 7796   0.888   2.158  17.606  2.2975  2.4328 -2.8681
  521MPD2     N 7797   0.979   1.966  17.200  0.5581  0.0010 -0.2758
  521MPD2    H5 7798   0.927   1.938  17.117  1.7490 -0.7776 -0.7706
  521MPD2    N1 7799   0.550   1.921  17.411 -0.0323  0.3432 -0.1015
  521MPD2    H7 7800   0.494   1.918  17.495 -0.7479 -1.4098 -0.6280
  522TMC3    C1 7801   1.174   1.882  17.096  0.2570 -1.2810 -0.2694
  522TMC3    C2 7802   1.311   1.895  17.085  0.8835  0.3269  0.1909
  522TMC3    C3 7803   1.379   1.812  17.000 -0.3380  0.4560  0.8254
  522TMC3    C4 7804   1.107   1.783  17.034  0.3567  0.0184 -0.7363
  522TMC3    C5 7805   1.177   1.704  16.948  0.3059  0.1774  0.0555
  522TMC3    C6 7806   1.308   1.718  16.928 -0.0172  0.1292  0.3645
  522TMC3     C 7807   1.118   1.960  17.203 -0.4193 -0.0452 -0.3939
  522TMC3     O 7808   1.186   2.003  17.290  0.2924  0.2089  0.8105
  522TMC3     H 7809   1.369   1.969  17.139  0.9512 -0.3853  1.0935
  522TMC3    H1 7810   1.000   1.772  17.052  0.8338 -2.1997  0.7660
  522TMC3    H2 7811   1.352   1.648  16.858  1.3878  2.5927 -1.2033
  522TMC3    C7 7812   1.107   1.600  16.880  0.4822 -0.6186  0.6039
  522TMC3    C8 7813   1.528   1.820  17.006 -0.5266  0.4181 -0.0466
  522TMC3    O1 7814   1.174   1.497  16.865 -0.3878 -0.6549  0.4224
  522TMC3    O2 7815   1.582   1.917  17.061 -0.3742 -0.4021 -0.2799
  523MPD2     C 7816   3.771   1.413   9.533  0.2825 -0.9175 -1.1456
  523MPD2    C1 7817   3.648   1.340   9.548  0.0400 -0.0352  0.3910
  523MPD2    C2 7818   3.542   1.379   9.466 -0.3187  0.4180  0.5446
  523MPD2    C3 7819   3.553   1.478   9.377 -0.2192  0.3128 -0.0303
  523MPD2    C4 7820   3.675   1.543   9.368 -0.3510  0.6895 -0.2297
  523MPD2    C5 7821   3.780   1.504   9.440  0.1705 -0.3673  0.3265
  523MPD2     H 7822   3.447   1.328   9.478 -0.6158  0.7375 -0.4805
  523MPD2    H1 7823   3.685   1.635   9.311  1.7962  0.4642 -0.2347
  523MPD2    H2 7824   3.862   1.394   9.589  0.3543 -0.3183 -1.0664
  523MPD2    H3 7825   3.871   1.561   9.430 -0.4835  0.9068  1.5976
  523MPD2     N 7826   3.449   1.537   9.295 -0.3575 -0.3337 -0.0602
  523MPD2    H5 7827   3.486   1.621   9.250 -0.9169  0.1384  0.3598
  523MPD2    N1 7828   3.640   1.249   9.655 -0.3224  0.5257 -0.0789
  523MPD2    H7 7829   3.731   1.223   9.692 -2.0185 -2.5217  2.0018
  524TMC3    C1 7830   3.237   1.568   9.194  0.2971 -0.3712  0.4512
  524TMC3    C2 7831   3.131   1.504   9.131 -0.0805 -0.3606 -0.7620
  524TMC3    C3 7832   3.026   1.579   9.083  0.3736 -0.6714  0.1193
  524TMC3    C4 7833   3.240   1.706   9.215 -0.0538  0.2646 -0.2021
  524TMC3    C5 7834   3.129   1.774   9.161  0.5616 -0.5105  0.3619
  524TMC3    C6 7835   3.019   1.713   9.100 -0.0151 -0.6072  1.2099
  524TMC3     C 7836   3.327   1.478   9.267  0.0353  0.1982  1.3878
  524TMC3     O 7837   3.295   1.358   9.286 -0.1029  0.6108  0.2395
  524TMC3     H 7838   3.132   1.395   9.129  0.1274 -0.3744  0.2998
  524TMC3    H1 7839   3.314   1.755   9.277 -1.7745 -0.2200  2.2139
  524TMC3    H2 7840   2.936   1.769   9.060 -0.8903 -2.0924  0.9310
  524TMC3    C7 7841   3.122   1.918   9.193  0.7530 -0.2613  0.9387
  524TMC3    C8 7842   2.922   1.517   9.001  0.4376 -0.7409 -0.0087
  524TMC3    O1 7843   3.208   1.962   9.265  0.1508  0.8589  0.3170
  524TMC3    O2 7844   2.817   1.580   8.992 -0.1376  0.3590 -0.2293
  525MPD2     C 7845   1.576   3.116  14.292 -0.1368 -0.0443  0.4687
  525MPD2    C1 7846   1.671   3.116  14.389  0.5222  0.5045 -0.1088
  525MPD2    C2 7847   1.756   3.226  14.404  0.8593  0.5221 -0.4772
  525MPD2    C3 7848   1.731   3.344  14.334 -0.1578  0.2154 -0.1867
  525MPD2    C4 7849   1.632   3.333  14.238  0.3717 -0.1819  0.0294
  525MPD2    C5 7850   1.560   3.225  14.216 -0.3158  0.4628  0.1572
  525MPD2     H 7851   1.822   3.229  14.490 -1.5799  0.9042  1.3718
  525MPD2    H1 7852   1.594   3.418  14.183  1.4977 -1.0611 -2.0986
  525MPD2    H2 7853   1.514   3.030  14.272 -1.0644  0.7245  0.0487
  525MPD2    H3 7854   1.478   3.224  14.145  0.0034  1.0716 -0.2187
  525MPD2     N 7855   1.810   3.453  14.356  0.4005 -0.0757  0.2671
  525MPD2    H5 7856   1.886   3.434  14.421  0.5638  0.3054  0.1869
  525MPD2    N1 7857   1.694   3.007  14.480  0.3933  0.5655 -0.0142
  525MPD2    H7 7858   1.766   3.024  14.549  1.1043 -1.2102 -0.3362
  526TMC3    C1 7859   1.654   2.837  14.629 -0.1632 -0.6537  0.4336
  526TMC3    C2 7860   1.559   2.822  14.726  0.4562  0.0395  0.9740
  526TMC3    C3 7861   1.610   2.787  14.848 -0.0870 -0.0495  0.6093
  526TMC3    C4 7862   1.781   2.801  14.637 -0.2674  0.3882  0.7370
  526TMC3    C5 7863   1.821   2.754  14.754  0.3780  0.0100  0.6355
  526TMC3    C6 7864   1.739   2.746  14.862 -0.5944 -1.2029  0.0224
  526TMC3     C 7865   1.610   2.899  14.508  0.6888 -0.0887  0.5139
  526TMC3     O 7866   1.499   2.862  14.466 -0.5494  0.6246  0.0009
  526TMC3     H 7867   1.466   2.874  14.707  1.8699  1.5092 -1.8626
  526TMC3    H1 7868   1.837   2.824  14.546  0.2835  1.1785  1.2753
  526TMC3    H2 7869   1.775   2.717  14.960 -0.4030  0.8507  0.5558
  526TMC3    C7 7870   1.959   2.730  14.773 -0.0770  0.0660  0.7057
  526TMC3    C8 7871   1.524   2.799  14.964 -0.3781 -0.1092 -0.4325
  526TMC3    O1 7872   1.999   2.724  14.890  0.0184 -0.0853 -0.4770
  526TMC3    O2 7873   1.581   2.773  15.069 -0.3941 -0.7020 -0.2392
  527MPD2     C 7874   4.201   1.230   1.395  0.1307 -0.0190  0.3103
  527MPD2    C1 7875   4.187   1.182   1.268 -0.4529  0.5038  0.0692
  527MPD2    C2 7876   4.300   1.138   1.204  0.4542  0.3958 -0.1195
  527MPD2    C3 7877   4.420   1.130   1.270 -0.1116 -0.0216  0.0108
  527MPD2    C4 7878   4.432   1.177   1.403  0.5869  0.7124 -0.2811
  527MPD2    C5 7879   4.324   1.227   1.463  0.4545  0.1446  0.5493
  527MPD2     H 7880   4.292   1.100   1.103 -1.8198  1.4170 -0.3295
  527MPD2    H1 7881   4.525   1.162   1.457 -0.1653 -3.0541 -0.0238
  527MPD2    H2 7882   4.119   1.288   1.435 -1.5288 -2.4538  0.4522
  527MPD2    H3 7883   4.333   1.263   1.565 -0.0242  2.7368 -0.3309
  527MPD2     N 7884   4.528   1.072   1.195 -0.2529  0.1088 -0.3460
  527MPD2    H5 7885   4.504   1.025   1.109  3.3793 -0.7615 -0.8456
  527MPD2    N1 7886   4.066   1.169   1.200 -0.3976  0.2558  0.5124
  527MPD2    H7 7887   4.050   1.117   1.114  1.2302 -4.2357  2.9250
  528TMC3    C1 7888   3.830   1.165   1.193 -0.2743  0.4605  0.5190
  528TMC3    C2 7889   3.839   1.124   1.064  0.0783 -0.5735 -0.2703
  528TMC3    C3 7890   3.733   1.116   0.988  0.4176 -0.0060 -0.2000
  528TMC3    C4 7891   3.701   1.179   1.249  0.1859 -0.2111 -0.0717
  528TMC3    C5 7892   3.591   1.160   1.177 -1.1474 -0.7204 -0.0608
  528TMC3    C6 7893   3.603   1.129   1.044 -0.1876  0.6651  0.5147
  528TMC3     C 7894   3.942   1.195   1.267  0.5677 -0.0494  0.0104
  528TMC3     O 7895   3.910   1.255   1.372 -0.5783  0.0872 -0.2132
  528TMC3     H 7896   3.933   1.083   1.027 -0.8767  0.3015 -3.6395
  528TMC3    H1 7897   3.681   1.206   1.353 -0.0457 -1.7685  0.2858
  528TMC3    H2 7898   3.522   1.144   0.973 -1.5345 -0.2893  1.8518
  528TMC3    C7 7899   3.463   1.173   1.240 -0.0173 -0.9178  0.0496
  528TMC3    C8 7900   3.760   1.062   0.857 -0.4182 -0.4102  0.2224
  528TMC3    O1 7901   3.452   1.232   1.346  0.1445 -0.3131  0.4799
  528TMC3    O2 7902   3.872   1.073   0.813 -0.5565  0.4705  0.4261
  529MPD2     C 7903   1.510   4.479   0.703  0.0265  0.3011  0.4318
  529MPD2    C1 7904   1.587   4.410   0.610 -0.3071  0.5117  0.1808
  529MPD2    C2 7905   1.567   4.429   0.476  0.1109 -0.5280  0.6977
  529MPD2    C3 7906   1.472   4.521   0.428  0.0874 -0.4253  0.5185
  529MPD2    C4 7907   1.418   4.610   0.524  0.3961 -0.2997  0.3123
  529MPD2    C5 7908   1.440   4.585   0.656 -0.4855  0.3341  0.6527
  529MPD2     H 7909   1.615   4.362   0.406  0.1086 -0.9539  1.1005
  529MPD2    H1 7910   1.363   4.700   0.497  0.5352 -0.0034  1.0297
  529MPD2    H2 7911   1.511   4.466   0.810 -0.5192  0.1557  0.4223
  529MPD2    H3 7912   1.379   4.647   0.721 -0.9538 -0.1850  0.7064
  529MPD2     N 7913   1.447   4.526   0.292  0.0284 -0.7828 -0.7688
  529MPD2    H5 7914   1.502   4.469   0.228 -0.8031 -2.4116 -0.0121
  529MPD2    N1 7915   1.658   4.300   0.650 -0.1463 -0.2315  0.8411
  529MPD2    H7 7916   1.716   4.248   0.585 -1.5213  0.1429 -0.6563
  530TMC3    C1 7917   1.777   4.150   0.790  0.5247  0.3536 -0.4017
  530TMC3    C2 7918   1.841   4.152   0.911 -0.3624 -0.3575  0.6087
  530TMC3    C3 7919   1.926   4.046   0.937  1.1415  0.4122 -0.8218
  530TMC3    C4 7920   1.784   4.046   0.702  0.0353 -0.0669  0.2664
  530TMC3    C5 7921   1.872   3.947   0.734 -0.6435  0.2348 -0.0458
  530TMC3    C6 7922   1.943   3.940   0.854  0.2773  0.0674  0.3320
  530TMC3     C 7923   1.676   4.251   0.778  0.0984  0.9171 -0.4843
  530TMC3     O 7924   1.635   4.290   0.886  0.1241 -0.5385  0.4880
  530TMC3     H 7925   1.836   4.237   0.978 -1.3982 -0.7859  1.0766
  530TMC3    H1 7926   1.709   4.042   0.623 -0.0667 -0.2877  0.3763
  530TMC3    H2 7927   2.012   3.861   0.884  0.0094 -0.5434 -0.6339
  530TMC3    C7 7928   1.845   3.819   0.663 -0.9682 -0.2021 -0.1883
  530TMC3    C8 7929   1.992   4.065   1.061 -0.0220  0.0180  0.1193
  530TMC3    O1 7930   1.808   3.834   0.547  0.1663  0.4687 -0.7649
  530TMC3    O2 7931   1.924   4.112   1.151  0.2049 -0.7157  0.1637
  531MPD2     C 7932   0.489   1.710  12.968  0.7317  0.6493 -0.7952
  531MPD2    C1 7933   0.382   1.774  13.032 -0.6816  0.2165  0.3031
  531MPD2    C2 7934   0.283   1.829  12.956 -0.0650 -0.1108 -0.4659
  531MPD2    C3 7935   0.280   1.812  12.820 -0.1721  0.6885 -0.4178
  531MPD2    C4 7936   0.380   1.732  12.755 -0.2612  0.7185 -0.4555
  531MPD2    C5 7937   0.482   1.677  12.831  0.5720  0.4934  0.9850
  531MPD2     H 7938   0.201   1.880  13.004 -0.2826 -0.7056 -0.2052
  531MPD2    H1 7939   0.389   1.708  12.650 -0.5460 -0.9242 -0.1107
  531MPD2    H2 7940   0.578   1.678  13.021  0.3766 -1.8065 -1.6440
  531MPD2    H3 7941   0.557   1.621  12.777  1.9914  0.9739  2.4682
  531MPD2     N 7942   0.181   1.865  12.738 -0.3244  0.3690  0.1816
  531MPD2    H5 7943   0.193   1.859  12.637 -2.4906 -1.0311  0.0230
  531MPD2    N1 7944   0.394   1.793  13.173 -0.5288  0.3646 -0.3943
  531MPD2    H7 7945   0.472   1.751  13.223 -1.2140  0.1471  0.4806
  532TMC3    C1 7946   0.323   1.879  13.396  0.4994 -0.1625  0.3508
  532TMC3    C2 7947   0.205   1.926  13.455  0.6044  0.5267  0.4938
  532TMC3    C3 7948   0.204   2.032  13.542  0.3113 -0.0427 -0.4234
  532TMC3    C4 7949   0.437   1.937  13.430  0.2398 -0.0938 -0.1624
  532TMC3    C5 7950   0.436   2.042  13.513 -0.7271  0.2288  0.0845
  532TMC3    C6 7951   0.319   2.098  13.571 -1.4370 -0.4493 -0.5416
  532TMC3     C 7952   0.296   1.850  13.252  0.1100 -0.1775  0.2061
  532TMC3     O 7953   0.182   1.876  13.219  0.2613  0.0425  0.1239
  532TMC3     H 7954   0.111   1.875  13.437 -0.7298  2.4004  2.0053
  532TMC3    H1 7955   0.527   1.915  13.374  0.6099  0.0401  0.3808
  532TMC3    H2 7956   0.311   2.182  13.639  0.4886  0.6541 -1.6457
  532TMC3    C7 7957   0.555   2.080  13.590 -0.4590  0.1244 -0.3503
  532TMC3    C8 7958   0.101   2.131  13.512 -0.1743  0.5650  0.6687
  532TMC3    O1 7959   0.547   2.170  13.670 -1.0733 -0.1563 -0.3854
  532TMC3    O2 7960   0.097   2.229  13.585 -0.0487 -0.0955 -0.6715
  533TMC3    C1 7961   1.906   3.656  14.341 -0.0971 -0.9616 -0.1280
  533TMC3    C2 7962   1.972   3.748  14.263 -0.1189 -0.8209  0.2083
  533TMC3    C3 7963   2.042   3.848  14.326  0.6240 -0.1042 -0.2431
  533TMC3    C4 7964   1.906   3.667  14.475  0.0821  0.2416  0.0786
  533TMC3    C5 7965   1.969   3.774  14.533  0.5117 -0.4507 -0.0402
  533TMC3    C6 7966   2.038   3.865  14.462 -0.4897  0.0137  0.5391
  533TMC3     C 7967   1.810   3.568  14.286  0.0880 -0.5541 -0.1163
  533TMC3     O 7968   1.751   3.597  14.184 -0.6924 -0.3681 -0.0272
  533TMC3     H 7969   1.961   3.755  14.155 -1.0080 -1.1675  0.2762
  533TMC3    H1 7970   1.862   3.600  14.547 -1.6421  0.6103 -0.6432
  533TMC3    H2 7971   2.083   3.944  14.520 -1.1774  0.9722 -0.2357
  533TMC3    C7 7972   1.960   3.768  14.676 -0.0309 -0.4972 -0.4682
  533TMC3    C8 7973   2.112   3.934  14.246  0.7579 -1.1303  0.6453
  533TMC3    O1 7974   2.005   3.662  14.717 -0.0143 -0.0184 -0.1895
  533TMC3    O2 7975   2.069   3.953  14.134  0.0228  0.1288  0.4300
  534MPD2     C 7976   4.379   4.427   1.266  0.4864 -0.3484  0.1985
  534MPD2    C1 7977   4.375   4.535   1.174  0.0490 -0.2097 -0.5065
  534MPD2    C2 7978   4.268   4.551   1.098  0.0554  0.8175  0.2004
  534MPD2    C3 7979   4.162   4.461   1.105  0.5559 -0.4285 -0.3075
  534MPD2    C4 7980   4.168   4.357   1.198  0.4010 -0.4092 -0.0294
  534MPD2    C5 7981   4.282   4.335   1.276  0.1343  0.1875 -0.5313
  534MPD2     H 7982   4.262   4.632   1.025 -2.2921 -0.3901 -0.9703
  534MPD2    H1 7983   4.086   4.289   1.220  0.6449 -0.2561  1.3217
  534MPD2    H2 7984   4.456   4.416   1.341  0.2184 -0.1145  0.5092
  534MPD2    H3 7985   4.299   4.250   1.341 -0.2837 -0.9227 -1.8670
  534MPD2     N 7986   4.042   4.469   1.039 -0.2540  0.1261  0.2118
  534MPD2    H5 7987   3.964   4.414   1.074  1.1067 -1.9653 -0.0537
  534MPD2    N1 7988   4.483   4.628   1.175  0.1212  1.0015  0.5256
  534MPD2    H7 7989   4.459   4.721   1.142 -0.1254  1.3615  1.7515
  535TMC3    C1 7990   3.863   4.552   0.915 -0.1376 -0.3410  0.6932
  535TMC3    C2 7991   3.784   4.489   1.006  0.0517 -0.2907  0.3018
  535TMC3    C3 7992   3.687   4.411   0.952  0.8965 -0.0442 -1.2363
  535TMC3    C4 7993   3.830   4.554   0.783  0.3730 -0.4983  0.7370
  535TMC3    C5 7994   3.721   4.484   0.735  1.4192  0.0162  0.1477
  535TMC3    C6 7995   3.655   4.397   0.818 -0.4135 -0.2878 -0.2064
  535TMC3     C 7996   4.008   4.557   0.938 -0.3875 -0.3369 -0.3944
  535TMC3     O 7997   4.073   4.623   0.854 -0.0784 -1.1999  0.4438
  535TMC3     H 7998   3.803   4.496   1.112  0.6342  1.5133  0.0812
  535TMC3    H1 7999   3.889   4.611   0.712 -1.1378  1.3801  0.9892
  535TMC3    H2 8000   3.554   4.364   0.796 -0.6893 -0.7333  1.7350
  535TMC3    C7 8001   3.626   4.527   0.630 -0.2480 -0.5106  0.1502
  535TMC3    C8 8002   3.571   4.393   1.039 -0.2856 -0.6713  0.3212
  535TMC3    O1 8003   3.559   4.439   0.577 -0.0224  0.7925 -0.0019
  535TMC3    O2 8004   3.493   4.301   1.013  0.0543 -0.0884  0.4973
  536MPD2     C 8005   2.895   2.675  16.138  0.3263 -0.1001 -0.7315
  536MPD2    C1 8006   2.755   2.681  16.143 -0.0991 -0.2601 -0.2830
  536MPD2    C2 8007   2.684   2.731  16.035 -0.1634 -0.5855 -0.0754
  536MPD2    C3 8008   2.754   2.773  15.920 -0.3324 -0.1033  0.0148
  536MPD2    C4 8009   2.897   2.774  15.921 -0.2714  0.3434 -0.4121
  536MPD2    C5 8010   2.965   2.727  16.028 -1.0727  0.2029 -0.0426
  536MPD2     H 8011   2.576   2.739  16.046 -0.1795  0.1542 -0.7923
  536MPD2    H1 8012   2.954   2.807  15.835  1.0324  1.0270  0.7260
  536MPD2    H2 8013   2.947   2.642  16.227  1.4383  0.1698 -1.2771
  536MPD2    H3 8014   3.072   2.739  16.044 -0.9488 -0.7765 -0.1805
  536MPD2     N 8015   2.688   2.834  15.808 -0.1476 -0.0251  0.4032
  536MPD2    H5 8016   2.740   2.902  15.754 -0.8497 -0.2201 -0.5205
  536MPD2    N1 8017   2.697   2.652  16.270 -0.1771  0.9772 -0.0754
  536MPD2    H7 8018   2.750   2.646  16.356 -2.5321  1.8422  1.4184
  537TMC3    C1 8019   2.534   2.596  16.419  0.1602  0.4092  0.4110
  537TMC3    C2 8020   2.599   2.669  16.508  0.1569 -0.3694 -0.3183
  537TMC3    C3 8021   2.592   2.640  16.636  0.2204  0.3172 -1.1725
  537TMC3    C4 8022   2.449   2.499  16.461  0.4334 -0.1338  0.4401
  537TMC3    C5 8023   2.452   2.457  16.592  0.4778  0.4463  0.2252
  537TMC3    C6 8024   2.528   2.520  16.680 -0.3480 -0.8603 -0.5764
  537TMC3     C 8025   2.570   2.605  16.284  0.4370 -0.2584  0.0777
  537TMC3     O 8026   2.495   2.563  16.196  0.0498  0.3262  0.4918
  537TMC3     H 8027   2.655   2.754  16.471 -0.6779  0.8234  1.1558
  537TMC3    H1 8028   2.408   2.432  16.386 -0.2102  0.3299  0.3815
  537TMC3    H2 8029   2.520   2.495  16.785  2.7945 -0.6993 -0.3104
  537TMC3    C7 8030   2.321   2.414  16.642 -0.1536 -0.7157  0.6772
  537TMC3    C8 8031   2.643   2.737  16.734 -0.3149  0.2755  0.6697
  537TMC3    O1 8032   2.217   2.450  16.582 -0.3143  0.5969 -0.1881
  537TMC3    O2 8033   2.677   2.709  16.846  0.3747 -0.4482 -0.5909
  538TMC3    C1 8034   3.967   1.328  10.917 -0.1020 -0.0883  0.6244
  538TMC3    C2 8035   4.037   1.209  10.914  0.6219  0.0715 -0.4745
  538TMC3    C3 8036   4.072   1.171  10.789 -0.6322  0.0989  0.2443
  538TMC3    C4 8037   3.917   1.394  10.808 -0.1523  0.2312 -0.2239
  538TMC3    C5 8038   3.957   1.342  10.689 -0.6396  0.1563 -0.7049
  538TMC3    C6 8039   4.027   1.226  10.677  0.1507  0.1676  0.5340
  538TMC3     C 8040   3.933   1.390  11.048  0.3893  0.3439 -0.0875
  538TMC3     O 8041   3.878   1.499  11.037  0.5858  0.0076 -0.2948
  538TMC3     H 8042   4.072   1.163  11.005 -0.0278 -0.7336 -0.6369
  538TMC3    H1 8043   3.851   1.479  10.824 -0.2148 -0.3471  2.6435
  538TMC3    H2 8044   4.043   1.187  10.576 -2.2993  2.5597 -0.7822
  538TMC3    C7 8045   3.894   1.406  10.582 -0.1845 -0.1271  0.1877
  538TMC3    C8 8046   4.188   1.089  10.786 -0.2169  0.1159  0.2938
  538TMC3    O1 8047   3.800   1.471  10.621  0.1428  0.1872  0.4412
  538TMC3    O2 8048   4.210   1.027  10.885  0.4122  0.1333 -0.0587
  539MPD2     C 8049   3.762   0.466  11.578  0.8474  0.3848 -0.2455
  539MPD2    C1 8050   3.733   0.448  11.444  0.0791 -0.2493  0.3214
  539MPD2    C2 8051   3.714   0.564  11.367  0.2240 -1.0461  0.2527
  539MPD2    C3 8052   3.731   0.685  11.427 -0.9493 -0.0357  0.3538
  539MPD2    C4 8053   3.763   0.701  11.557 -0.2595 -0.7486 -0.4484
  539MPD2    C5 8054   3.780   0.590  11.639 -0.0288 -0.0916 -0.2710
  539MPD2     H 8055   3.686   0.548  11.263 -2.3915  1.3612  0.5882
  539MPD2    H1 8056   3.758   0.796  11.609  0.5743 -0.6152 -0.6155
  539MPD2    H2 8057   3.766   0.384  11.649 -1.0296  2.1342  1.8917
  539MPD2    H3 8058   3.807   0.596  11.744 -0.0322  0.1226 -0.2837
  539MPD2     N 8059   3.706   0.809  11.361  0.5017 -0.0886  0.5947
  539MPD2    H5 8060   3.726   0.889  11.420 -0.1455 -1.6148  2.8785
  539MPD2    N1 8061   3.715   0.312  11.399  0.3464 -0.8903  0.5967
  539MPD2    H7 8062   3.697   0.312  11.299  1.8735 -1.0679  0.3285
  540TMC3    C1 8063   3.645   0.978  11.212  0.1637  0.1121 -0.0236
  540TMC3    C2 8064   3.629   1.014  11.084 -0.2149  0.3263  0.1445
  540TMC3    C3 8065   3.596   1.146  11.054 -0.2077 -0.8612  0.0405
  540TMC3    C4 8066   3.614   1.061  11.310 -0.5272  0.1054  0.2097
  540TMC3    C5 8067   3.575   1.191  11.283 -0.2080  0.2289  0.4002
  540TMC3    C6 8068   3.583   1.239  11.155  0.5297  0.0745  0.0184
  540TMC3     C 8069   3.666   0.836  11.236  0.8533  0.3062 -0.4075
  540TMC3     O 8070   3.663   0.755  11.142  1.1083  0.4935  0.1301
  540TMC3     H 8071   3.659   0.944  11.007 -0.6272 -1.7456  1.8402
  540TMC3    H1 8072   3.614   1.034  11.415  0.1641  0.8154  0.3907
  540TMC3    H2 8073   3.536   1.333  11.127 -1.8417 -1.0921  0.0751
  540TMC3    C7 8074   3.525   1.276  11.395 -0.2646 -0.2014  0.3016
  540TMC3    C8 8075   3.575   1.179  10.912  0.1281 -0.4469  0.1388
  540TMC3    O1 8076   3.517   1.211  11.502 -0.1218 -0.2747  1.1976
  540TMC3    O2 8077   3.580   1.302  10.885 -0.2189  0.2071  0.3723
  541MPD2     C 8078   1.847   1.208  13.127  0.4858  0.4790 -0.5850
  541MPD2    C1 8079   1.969   1.273  13.109 -0.3843  0.0228 -0.5467
  541MPD2    C2 8080   1.989   1.346  12.994 -0.8578 -0.9957 -0.0566
  541MPD2    C3 8081   1.892   1.353  12.888 -0.3955 -0.1626 -0.0065
  541MPD2    C4 8082   1.771   1.297  12.914  0.5768  0.1424 -0.2783
  541MPD2    C5 8083   1.751   1.231  13.038 -0.3349 -0.4280  0.7597
  541MPD2     H 8084   2.072   1.415  12.984 -0.7187 -0.8072  2.4242
  541MPD2    H1 8085   1.679   1.297  12.858  0.7819 -1.4318 -0.6320
  541MPD2    H2 8086   1.819   1.148  13.213  0.4880  0.7508 -0.3910
  541MPD2    H3 8087   1.653   1.192  13.060 -1.2720  0.6496 -1.5699
  541MPD2     N 8088   1.909   1.434  12.770  0.1107 -0.7242  0.4002
  541MPD2    H5 8089   1.828   1.458  12.714 -0.7528 -2.1740  1.0330
  541MPD2    N1 8090   2.064   1.253  13.210  0.3209 -0.2767 -0.4004
  541MPD2    H7 8091   2.029   1.208  13.294 -0.5317  1.6367  0.2786
  542TMC3    C1 8092   2.043   1.522  12.602 -0.5232  0.4776  0.3842
  542TMC3    C2 8093   2.142   1.502  12.514  0.6620 -0.1358  0.2386
  542TMC3    C3 8094   2.159   1.602  12.423 -0.3999  0.1108  0.0291
  542TMC3    C4 8095   1.970   1.639  12.601  0.4750  0.2675 -1.0001
  542TMC3    C5 8096   2.000   1.732  12.504 -0.8845 -0.1289 -0.2933
  542TMC3    C6 8097   2.093   1.717  12.410 -0.1517 -0.1011  0.2481
  542TMC3     C 8098   2.044   1.445  12.722  0.1784 -0.3246 -0.4031
  542TMC3     O 8099   2.150   1.394  12.752  0.1314 -0.0397 -0.0291
  542TMC3     H 8100   2.211   1.418  12.520  0.9004 -0.0016 -0.6864
  542TMC3    H1 8101   1.889   1.661  12.669 -0.3033 -1.2612 -1.4392
  542TMC3    H2 8102   2.112   1.793  12.335 -3.4223  0.2386 -0.2427
  542TMC3    C7 8103   1.904   1.829  12.478  0.0720  0.3350 -0.2376
  542TMC3    C8 8104   2.271   1.590  12.335  0.4526 -0.0563 -0.7717
  542TMC3    O1 8105   1.870   1.887  12.581 -0.3647  0.5784 -0.1170
  542TMC3    O2 8106   2.341   1.684  12.313  1.2691 -0.2261 -0.1158
  543TMC3    C1 8107   1.522   3.777  17.157  0.0105 -0.5894 -0.7492
  543TMC3    C2 8108   1.478   3.653  17.196 -0.4900 -0.1791  0.1874
  543TMC3    C3 8109   1.392   3.652  17.300 -0.0835  0.2004 -0.8047
  543TMC3    C4 8110   1.459   3.895  17.200 -1.1874  0.3271 -0.0624
  543TMC3    C5 8111   1.380   3.885  17.312  0.2482  0.0956 -0.4025
  543TMC3    C6 8112   1.350   3.763  17.364  0.1952 -0.6889 -0.5262
  543TMC3     C 8113   1.609   3.772  17.034  0.9704 -0.0567  0.0020
  543TMC3     O 8114   1.675   3.668  17.017 -0.3592  0.5567 -0.3277
  543TMC3     H 8115   1.498   3.565  17.137  1.4420 -0.1757  0.8154
  543TMC3    H1 8116   1.504   3.989  17.170 -0.0952 -0.2093 -0.1058
  543TMC3    H2 8117   1.272   3.755  17.438  1.8325 -1.0766  1.1540
  543TMC3    C7 8118   1.302   4.002  17.340 -0.3859 -0.2422  0.0353
  543TMC3    C8 8119   1.368   3.520  17.354  0.0560 -0.2591  0.0306
  543TMC3    O1 8120   1.234   4.006  17.442  0.6882 -0.5939  0.1076
  543TMC3    O2 8121   1.368   3.437  17.268 -0.1780  0.2301 -0.3892
  544MPD2     C 8122   1.373   3.149  17.711  0.1054 -0.7350 -0.0088
  544MPD2    C1 8123   1.367   3.140  17.573  0.2872 -0.0235  0.2836
  544MPD2    C2 8124   1.362   3.257  17.506  0.1093  0.0756  0.0244
  544MPD2    C3 8125   1.351   3.387  17.569  0.0262 -0.5930 -0.8957
  544MPD2    C4 8126   1.361   3.386  17.706 -0.0295 -0.1500  0.4398
  544MPD2    C5 8127   1.373   3.269   0.030 -0.1307  0.5384  0.2581
  544MPD2     H 8128   1.363   3.246  17.398  0.2934 -1.4835  0.1932
  544MPD2    H1 8129   1.342   3.478   0.019  0.6814  0.1022  0.2581
  544MPD2    H2 8130   1.385   3.057   0.025  0.6707 -0.7635 -0.1894
  544MPD2    H3 8131   1.376   3.273   0.138  0.5418 -2.0992  0.3478
  544MPD2     N 8132   1.356   3.509  17.494 -0.3495 -0.6197 -0.4763
  544MPD2    H5 8133   1.346   3.596  17.546  0.4324  1.2745 -3.4753
  544MPD2    N1 8134   1.376   3.017  17.513 -0.1431  0.1161  0.6734
  544MPD2    H7 8135   1.379   2.933  17.571 -0.0226  0.2452  0.8530
  545TMC3    C1 8136   1.452   2.848  17.374 -0.4864  0.2818 -0.6747
  545TMC3    C2 8137   1.546   2.821  17.268 -0.2001  0.2683  0.0165
  545TMC3    C3 8138   1.526   2.699  17.207 -0.2582 -0.7191  0.6835
  545TMC3    C4 8139   1.360   2.760  17.419 -0.3468  0.1048  0.4481
  545TMC3    C5 8140   1.368   2.639  17.368  0.4199  0.0890 -0.1766
  545TMC3    C6 8141   1.445   2.600  17.265 -0.1722 -0.3473  0.5097
  545TMC3     C 8142   1.414   2.990  17.386 -0.3007  0.0510 -0.0618
  545TMC3     O 8143   1.449   3.063  17.297 -0.0637  0.0819  0.2309
  545TMC3     H 8144   1.617   2.893  17.229 -1.4388  1.4955  0.0161
  545TMC3    H1 8145   1.278   2.771  17.489 -0.0786 -0.0805  0.7903
  545TMC3    H2 8146   1.430   2.508  17.210 -0.1810 -0.1414  0.1605
  545TMC3    C7 8147   1.312   2.532  17.442 -0.3709 -0.6264  0.0481
  545TMC3    C8 8148   1.634   2.663  17.119  0.2114  0.3094  0.1385
  545TMC3    O1 8149   1.205   2.533  17.501  1.0858 -0.2174 -0.1912
  545TMC3    O2 8150   1.743   2.718  17.134  0.1164 -0.8085 -0.2149
  546MPD2     C 8151   3.054   3.370  17.535 -0.4098 -0.0652 -0.0221
  546MPD2    C1 8152   2.987   3.399  17.418 -0.8601  0.1681 -0.1644
  546MPD2    C2 8153   3.013   3.520  17.358 -0.1728  0.0362  0.2900
  546MPD2    C3 8154   3.100   3.618  17.415  0.2540  0.1474 -0.2762
  546MPD2    C4 8155   3.152   3.591  17.539  0.0537  0.6621  0.5452
  546MPD2    C5 8156   3.134   3.465  17.593 -0.2230  0.6406  0.0018
  546MPD2     H 8157   2.943   3.541  17.278 -0.1676 -2.7441 -0.4506
  546MPD2    H1 8158   3.210   3.669  17.588 -1.0578  1.4802  0.5503
  546MPD2    H2 8159   3.061   3.273  17.582 -0.0982  0.6436  1.3951
  546MPD2    H3 8160   3.174   3.443  17.691 -1.2272  2.5197  0.8339
  546MPD2     N 8161   3.112   3.756  17.371  0.0664  0.6259 -0.3838
  546MPD2    H5 8162   3.178   3.815  17.421 -0.6257  0.5549  0.6028
  546MPD2    N1 8163   2.898   3.308  17.360 -0.1581 -0.7185 -0.0347
  546MPD2    H7 8164   2.870   3.228  17.417  1.3559  1.0105  3.1798
  547TMC3    C1 8165   2.749   3.210  17.198 -0.1429 -0.5842  0.1286
  547TMC3    C2 8166   2.671   3.239  17.089 -0.1317  0.0888  0.2481
  547TMC3    C3 8167   2.577   3.143  17.053  0.0055  0.7743 -0.3539
  547TMC3    C4 8168   2.712   3.108  17.285 -0.0531  0.1110  0.5533
  547TMC3    C5 8169   2.610   3.023  17.249 -0.3422  0.2401  0.7581
  547TMC3    C6 8170   2.536   3.043  17.140 -0.7966 -0.2754  0.4973
  547TMC3     C 8171   2.856   3.305  17.231  0.6934  0.4919 -0.0066
  547TMC3     O 8172   2.881   3.382  17.137  0.2914  0.2229 -0.4743
  547TMC3     H 8173   2.694   3.325  17.029 -1.1116  0.4050  0.3187
  547TMC3    H1 8174   2.755   3.101  17.385  1.3188  1.7410  0.0773
  547TMC3    H2 8175   2.444   2.987  17.131 -0.6942 -0.6080  1.4923
  547TMC3    C7 8176   2.569   2.927  17.347  0.3853  0.3690  0.0010
  547TMC3    C8 8177   2.491   3.170  16.937  0.2695  0.5486 -0.2303
  547TMC3    O1 8178   2.591   2.945  17.468  0.2954  0.1090 -0.1370
  547TMC3    O2 8179   2.498   3.281  16.879  0.3468  0.2124 -0.1986
  548MPD2     C 8180   3.198   3.802  12.648 -0.4827 -0.1336 -0.1506
  548MPD2    C1 8181   3.123   3.718  12.579  0.1857  0.1610  1.0263
  548MPD2    C2 8182   3.180   3.628  12.486  0.1655  0.0524  0.3139
  548MPD2    C3 8183   3.319   3.612  12.478 -0.1366  0.2451 -0.5857
  548MPD2    C4 8184   3.395   3.700  12.553 -0.7143  0.1990 -0.6899
  548MPD2    C5 8185   3.334   3.785  12.644 -0.3571 -0.2121 -0.2301
  548MPD2     H 8186   3.114   3.565  12.428 -1.7858  1.5201  0.9508
  548MPD2    H1 8187   3.503   3.694  12.551 -0.7574 -0.5486 -0.7049
  548MPD2    H2 8188   3.154   3.870  12.720 -1.3578 -0.3144 -0.5110
  548MPD2    H3 8189   3.402   3.837  12.711 -0.6356  0.7200 -0.6777
  548MPD2     N 8190   3.375   3.514  12.399 -0.0796 -0.1981  0.5497
  548MPD2    H5 8191   3.309   3.454  12.351 -0.9285  1.8007 -0.8049
  548MPD2    N1 8192   2.982   3.724  12.599  0.1265  0.4646 -0.6533
  548MPD2    H7 8193   2.956   3.805  12.655  0.1609 -0.4549  0.6706
  549TMC3    C1 8194   2.750   3.671  12.563  0.1752 -0.2171 -0.0608
  549TMC3    C2 8195   2.716   3.804  12.573  0.2005 -0.0564 -0.0521
  549TMC3    C3 8196   2.584   3.844  12.571 -0.1917  0.8107 -0.0672
  549TMC3    C4 8197   2.648   3.583  12.546  0.8785 -0.5848  0.0649
  549TMC3    C5 8198   2.516   3.623  12.527  0.1042  0.6373 -0.0044
  549TMC3    C6 8199   2.482   3.755  12.549  0.0518  0.4125  0.0649
  549TMC3     C 8200   2.894   3.629  12.553 -0.0669 -0.4921  0.1679
  549TMC3     O 8201   2.908   3.518  12.502 -0.2296  0.3185 -0.4525
  549TMC3     H 8202   2.792   3.871  12.611  1.1423 -0.5258 -1.0982
  549TMC3    H1 8203   2.675   3.480  12.530  0.1522 -1.0192  1.6604
  549TMC3    H2 8204   2.381   3.787  12.527  0.3440  0.3403 -1.3579
  549TMC3    C7 8205   2.402   3.536  12.533  0.1735  0.1427 -1.0917
  549TMC3    C8 8206   2.544   3.978  12.547 -0.9397  0.4637  0.5883
  549TMC3    O1 8207   2.288   3.588  12.528  0.5553 -0.2795  0.3573
  549TMC3    O2 8208   2.426   4.001  12.583  0.0743  0.4518  0.5291
  550TMC3    C1 8209   1.663   1.467  12.242 -0.8344 -0.2679 -0.3308
  550TMC3    C2 8210   1.678   1.482  12.376 -0.5744 -0.2772  0.3675
  550TMC3    C3 8211   1.587   1.567  12.434  0.6670  0.3793 -0.6924
  550TMC3    C4 8212   1.572   1.528  12.163 -0.3727  0.4726 -0.2141
  550TMC3    C5 8213   1.484   1.616  12.221  0.1946 -0.2980 -0.3855
  550TMC3    C6 8214   1.485   1.630  12.359  0.2268 -0.3189 -0.5455
  550TMC3     C 8215   1.784   1.395  12.183  0.0061 -0.3470  0.0495
  550TMC3     O 8216   1.883   1.374  12.246  0.3181  0.0667 -0.0655
  550TMC3     H 8217   1.762   1.448  12.436  1.5492  1.9315 -1.3840
  550TMC3    H1 8218   1.562   1.492  12.061  0.5566  0.9596 -0.4782
  550TMC3    H2 8219   1.400   1.676  12.409  0.6675 -1.4828  1.2441
  550TMC3    C7 8220   1.367   1.651  12.143 -0.0689 -0.3070  0.3744
  550TMC3    C8 8221   1.599   1.603  12.572 -0.3812 -0.5872 -0.3076
  550TMC3    O1 8222   1.268   1.686  12.206  0.4154  0.0001 -0.1526
  550TMC3    O2 8223   1.664   1.532  12.645  0.3618 -0.0636  0.9161
  551TMC3    C1 8224   3.789   4.493  13.090  0.2771 -0.4257 -0.6262
  551TMC3    C2 8225   3.886   4.519  13.001  0.3621  0.6192  0.1832
  551TMC3    C3 8226   3.996   4.593  13.037  0.9574  0.0927  0.5069
  551TMC3    C4 8227   3.801   4.528  13.220 -0.4585  0.5488 -0.2049
  551TMC3    C5 8228   3.917   4.583  13.257 -0.1330  0.1108 -0.2165
  551TMC3    C6 8229   4.020   4.622  13.164 -0.0388 -0.5928 -0.0813
  551TMC3     C 8230   3.689   4.386  13.046  0.0127  0.0921  0.7839
  551TMC3     O 8231   3.746   4.289  12.998  0.3542  0.4527 -0.1890
  551TMC3     H 8232   3.882   4.479  12.900 -1.0705 -1.3849  1.0387
  551TMC3    H1 8233   3.723   4.500  13.290 -0.2090  0.7440  0.1518
  551TMC3    H2 8234   4.120   4.643  13.199  0.0779 -2.3868  0.6492
  551TMC3    C7 8235   3.940   4.609  13.393  0.5748 -0.4309 -0.1726
  551TMC3    C8 8236   4.111   4.581  12.947  0.7827  0.2863 -0.6143
  551TMC3    O1 8237   3.849   4.580  13.465  0.2021 -0.1760  0.0714
  551TMC3    O2 8238   4.115   4.495  12.861  0.3730 -0.0152  0.0978
  552MPD2     C 8239   0.754   1.915  14.093  0.4202  0.0216  0.2396
  552MPD2    C1 8240   0.854   1.838  14.047 -0.4404 -0.2301  0.4091
  552MPD2    C2 8241   0.984   1.836  14.099 -0.1020  0.4403  0.8568
  552MPD2    C3 8242   1.012   1.934  14.196 -0.6526 -1.0138  0.2220
  552MPD2    C4 8243   0.913   2.022  14.241 -0.1387  0.3187  0.3928
  552MPD2    C5 8244   0.785   2.009  14.185 -0.7175 -0.0296 -0.1762
  552MPD2     H 8245   1.055   1.763  14.063  0.3771  0.0914  2.5005
  552MPD2    H1 8246   0.940   2.101  14.310 -3.2905  0.6432  1.2531
  552MPD2    H2 8247   0.652   1.912  14.056  0.1931 -0.8528  0.9694
  552MPD2    H3 8248   0.712   2.085  14.211  0.4264  0.7257  0.8823
  552MPD2     N 8249   1.137   1.941  14.256  0.1629  1.1273  0.2761
  552MPD2    H5 8250   1.146   1.985  14.347 -0.4677 -0.4854  1.1158
  552MPD2    N1 8251   0.828   1.747  13.940  0.3485 -0.8549 -0.3521
  552MPD2    H7 8252   0.909   1.688  13.924  0.8052 -0.2132 -0.4285
  553TMC3    C1 8253   0.731   1.640  13.759 -0.3563  0.0009  0.3973
  553TMC3    C2 8254   0.671   1.664  13.637  0.6103  0.0531 -0.3017
  553TMC3    C3 8255   0.709   1.582  13.540  0.7913 -0.7933  0.1764
  553TMC3    C4 8256   0.803   1.530  13.781 -0.4148  0.2439  0.6501
  553TMC3    C5 8257   0.835   1.448  13.677  0.6530 -0.4231  0.0404
  553TMC3    C6 8258   0.787   1.469  13.552 -0.6504 -0.3948  0.1136
  553TMC3     C 8259   0.714   1.735  13.866 -0.5349 -0.2713  0.4695
  553TMC3     O 8260   0.615   1.807  13.855 -0.4531 -0.7914  0.0964
  553TMC3     H 8261   0.608   1.752  13.628 -0.9981 -1.0182  0.4580
  553TMC3    H1 8262   0.838   1.503  13.880 -0.1457  1.9543  1.0263
  553TMC3    H2 8263   0.813   1.401  13.472 -0.5326  0.3912 -0.5172
  553TMC3    C7 8264   0.915   1.331  13.706 -0.1546 -0.1411 -0.1618
  553TMC3    C8 8265   0.704   1.641  13.407 -0.6190  0.4230  0.1816
  553TMC3    O1 8266   0.868   1.222  13.672 -0.3417  0.1755  0.5783
  553TMC3    O2 8267   0.709   1.761  13.407 -0.6037  0.0936  0.1199
  554TMC3    C1 8268   3.049   0.973  11.489  0.9324 -0.1669  0.1221
  554TMC3    C2 8269   2.997   0.860  11.432 -0.4574  0.4605 -0.4740
  554TMC3    C3 8270   3.034   0.830  11.308 -0.4946  0.7655  0.3232
  554TMC3    C4 8271   3.140   1.056  11.425  0.2916 -0.0038  0.0240
  554TMC3    C5 8272   3.169   1.022  11.307 -0.7516 -0.1288  0.0995
  554TMC3    C6 8273   3.127   0.902  11.249 -0.5444 -0.4115  0.3395
  554TMC3     C 8274   3.070   0.965  11.629 -0.0437  0.0119 -0.4755
  554TMC3     O 8275   3.129   1.056  11.685  0.5750 -0.1488  0.4817
  554TMC3     H 8276   2.914   0.811  11.481 -0.8752  2.3048  0.6593
  554TMC3    H1 8277   3.174   1.146  11.476 -0.6947 -0.0681  0.8076
  554TMC3    H2 8278   3.164   0.874  11.151 -0.8787 -1.7239  0.5847
  554TMC3    C7 8279   3.232   1.111  11.205 -0.0701  0.4394 -0.4111
  554TMC3    C8 8280   2.929   0.784  11.224 -0.8348 -0.4612 -0.0829
  554TMC3    O1 8281   3.274   1.058  11.100  0.1469  0.3008  0.0208
  554TMC3    O2 8282   2.936   0.838  11.116  0.1100 -0.1396 -0.2264
  555TMC3    C1 8283   1.504   0.632  15.330  0.1838  0.9564 -0.1530
  555TMC3    C2 8284   1.572   0.697  15.422  0.0047  0.1912  0.0815
  555TMC3    C3 8285   1.685   0.635  15.474  0.1335 -0.5147  0.2845
  555TMC3    C4 8286   1.535   0.507  15.285  0.3353  0.1073  0.6153
  555TMC3    C5 8287   1.655   0.450  15.334  0.1530 -0.6348 -0.3172
  555TMC3    C6 8288   1.729   0.510  15.434  0.4384  0.1617 -0.3334
  555TMC3     C 8289   1.401   0.715  15.262  0.2668  0.0979  0.3012
  555TMC3     O 8290   1.340   0.797  15.323 -0.0443 -0.0307 -0.4154
  555TMC3     H 8291   1.541   0.798  15.442  0.7678  0.2224  1.1026
  555TMC3    H1 8292   1.477   0.452  15.212 -1.8927  2.6388  0.4881
  555TMC3    H2 8293   1.808   0.454  15.482 -2.0068 -1.5415  1.6837
  555TMC3    C7 8294   1.677   0.312  15.296  0.2974 -0.0631 -0.3395
  555TMC3    C8 8295   1.730   0.698  15.594  0.4845  0.5126  0.4292
  555TMC3    O1 8296   1.583   0.245  15.265 -0.3186 -0.1864  0.1344
  555TMC3    O2 8297   1.675   0.800  15.629  1.1576  0.1861  0.3442
  556MPD2     C 8298   0.583   1.394  10.677  0.3467  0.1952  0.9904
  556MPD2    C1 8299   0.455   1.378  10.724 -0.1807  0.1356  0.9469
  556MPD2    C2 8300   0.361   1.324  10.627  0.4355  1.8229 -0.4707
  556MPD2    C3 8301   0.390   1.291  10.494 -0.3743 -0.9843  0.3968
  556MPD2    C4 8302   0.522   1.295  10.458  0.0633 -0.1091 -0.1571
  556MPD2    C5 8303   0.612   1.347  10.548  0.7240 -0.0903  0.0899
  556MPD2     H 8304   0.258   1.307  10.656  0.3386 -2.7085 -3.3699
  556MPD2    H1 8305   0.565   1.272  10.361 -1.1847  1.6916 -1.1382
  556MPD2    H2 8306   0.675   1.423  10.728  0.6672  0.6333  0.1713
  556MPD2    H3 8307   0.712   1.357  10.508  0.0084  0.5082 -1.5757
  556MPD2     N 8308   0.293   1.258  10.408  1.1905  0.0285  0.5473
  556MPD2    H5 8309   0.212   1.212  10.448 -0.2513 -1.0432 -3.5579
  556MPD2    N1 8310   0.410   1.410  10.853 -0.2145 -0.0761 -0.2571
  556MPD2    H7 8311   0.312   1.388  10.872 -0.2138 -0.9498 -1.3024
  557TMC3    C1 8312   0.173   1.232  10.211 -0.0091 -0.3542 -0.4618
  557TMC3    C2 8313   0.129   1.314  10.109 -0.2743  0.0304  0.8003
  557TMC3    C3 8314   0.014   1.275  10.043  0.1460  0.1438  0.1646
  557TMC3    C4 8315   0.101   1.124  10.256 -0.4007 -1.2935  0.8146
  557TMC3    C5 8316   4.723   1.099  10.183 -0.3884 -0.7412  0.6850
  557TMC3    C6 8317   4.684   1.163  10.073 -0.1349  0.6091  0.0619
  557TMC3     C 8318   0.304   1.251  10.273  0.1746  1.0528  0.3151
  557TMC3     O 8319   0.392   1.302  10.202  0.0549 -0.5587  0.6651
  557TMC3     H 8320   0.184   1.404  10.082  1.8745 -1.0866  1.4017
  557TMC3    H1 8321   0.129   1.070  10.345  1.7258 -0.2884  0.7577
  557TMC3    H2 8322   4.587   1.142  10.029 -1.4581  1.5125  2.5436
  557TMC3    C7 8323   4.603   1.054  10.254  0.4840  0.2290  0.5727
  557TMC3    C8 8324   4.696   1.379   9.949  0.0699 -0.5697 -0.7334
  557TMC3    O1 8325   4.508   1.129  10.242  0.0231 -0.3270 -0.3467
  557TMC3    O2 8326   4.727   1.494   9.964  0.4149  0.1627 -0.0410
  558TMC3    C1 8327   2.465   4.536  10.304  0.2095  0.4796  0.3311
  558TMC3    C2 8328   2.353   4.535  10.381  0.6652 -0.7421 -0.2730
  558TMC3    C3 8329   2.272   4.644  10.363 -0.2273  0.0971 -0.1904
  558TMC3    C4 8330   2.470   4.619  10.197 -0.2521 -0.3431  0.8963
  558TMC3    C5 8331   2.387   4.722  10.171  0.4381  0.2179 -0.4791
  558TMC3    C6 8332   2.285   0.000  10.262  0.1197 -0.1896  0.1348
  558TMC3     C 8333   2.588   4.470  10.342  0.1392  0.1554  0.1036
  558TMC3     O 8334   2.693   4.519  10.298  0.0825 -0.0443  0.2170
  558TMC3     H 8335   2.335   4.456  10.453 -0.3073 -0.9003 -0.6986
  558TMC3    H1 8336   2.548   4.589  10.128 -1.6170 -3.1887  0.6045
  558TMC3    H2 8337   2.211   0.078  10.246 -0.3589 -0.9540 -1.3608
  558TMC3    C7 8338   2.348   4.726  10.039  0.0547  0.3292  0.0422
  558TMC3    C8 8339   2.134   4.615  10.388 -0.3295 -0.8367 -0.3865
  558TMC3    O1 8340   2.428   4.716   9.948  0.3235 -0.8025  0.2760
  558TMC3    O2 8341   2.060   4.632  10.294 -0.3129  0.0482 -0.2771
  559MPD2     C 8342   2.394   0.277  10.360 -0.4028 -0.6301  0.9725
  559MPD2    C1 8343   2.347   0.221  10.471  0.5090  0.0485 -0.0447
  559MPD2    C2 8344   2.434   0.156  10.556 -0.3072  0.2099 -0.3384
  559MPD2    C3 8345   2.571   0.142  10.535  0.5278  0.1071 -0.2058
  559MPD2    C4 8346   2.617   0.198  10.413  0.2050 -0.9935  0.2168
  559MPD2    C5 8347   2.526   0.255  10.325  0.1562  0.3285  0.5810
  559MPD2     H 8348   2.409   0.114  10.653 -3.4245  2.1654 -0.2720
  559MPD2    H1 8349   2.720   0.191  10.378  0.1223 -0.4886 -0.1203
  559MPD2    H2 8350   2.340   0.333  10.284 -1.9361 -0.5478  2.1292
  559MPD2    H3 8351   2.553   0.292  10.228 -2.4775  0.1864 -0.2218
  559MPD2     N 8352   2.652   0.065  10.619  0.4237 -0.5741 -0.1112
  559MPD2    H5 8353   2.602   0.025  10.698 -2.2653  3.6820  0.3969
  559MPD2    N1 8354   2.206   0.231  10.486  0.3566 -0.2771 -0.2539
  559MPD2    H7 8355   2.149   0.291  10.428 -0.2440 -0.1902  0.4261
  560TMC3    C1 8356   2.840   4.698  10.706  0.0160 -0.3338 -0.1277
  560TMC3    C2 8357   2.766   4.590  10.735  0.9417 -0.0200 -0.6654
  560TMC3    C3 8358   2.824   4.508  10.825 -0.4033  0.1491 -0.0856
  560TMC3    C4 8359   2.967   4.724  10.763  0.0323  0.1159 -0.3115
  560TMC3    C5 8360   3.012   4.631  10.852  1.0129  0.2518 -0.4910
  560TMC3    C6 8361   2.942   4.526  10.890 -0.4488 -0.2857  0.3625
  560TMC3     C 8362   2.788   0.051  10.610  0.5227  0.0785 -0.2127
  560TMC3     O 8363   2.867   0.120  10.546 -0.9953 -0.6060 -0.2739
  560TMC3     H 8364   2.677   4.552  10.686 -0.6124  1.3853  1.0661
  560TMC3    H1 8365   3.035   0.059  10.717 -0.8248  0.3613 -1.2093
  560TMC3    H2 8366   2.974   4.467  10.976 -0.8536 -2.0138 -0.6758
  560TMC3    C7 8367   3.116   4.682  10.946  0.6577  0.1887 -0.1833
  560TMC3    C8 8368   2.726   4.406  10.871 -0.1778  1.1102  0.2223
  560TMC3    O1 8369   3.129   4.624  11.050  0.1587 -0.1403 -0.2931
  560TMC3    O2 8370   2.607   4.436  10.864 -0.2568 -0.8402 -0.3274
  561TMC3    C1 8371   0.343   4.075  11.659  0.5122  0.9897 -0.0128
  561TMC3    C2 8372   0.275   4.034  11.770  0.1070 -0.4841 -0.5785
  561TMC3    C3 8373   0.162   4.102  11.797 -0.0881  0.0164 -0.5055
  561TMC3    C4 8374   0.314   4.187  11.593 -0.5221 -0.2319 -0.2970
  561TMC3    C5 8375   0.201   4.261  11.634  0.5292  0.6296 -0.0258
  561TMC3    C6 8376   0.122   4.215  11.731  0.9887 -0.1010 -0.1929
  561TMC3     C 8377   0.471   4.010  11.628 -0.1060 -0.0836 -0.5266
  561TMC3     O 8378   0.470   3.892  11.658 -0.3733  0.3132  0.4757
  561TMC3     H 8379   0.307   3.943  11.820  0.4442  0.5865  1.1370
  561TMC3    H1 8380   0.377   4.217  11.510 -0.0876  2.1287  0.8982
  561TMC3    H2 8381   0.035   4.272  11.762  0.5740  0.4228 -2.3549
  561TMC3    C7 8382   0.144   4.357  11.543  0.1044 -0.3460  0.2242
  561TMC3    C8 8383   0.098   4.052  11.921  0.4511 -0.1710 -0.2679
  561TMC3    O1 8384   0.023   4.382  11.536 -0.0240  0.5121  0.3642
  561TMC3    O2 8385   0.156   3.965  11.993 -0.1561 -0.9443  0.4102
  562TMC3    C1 8386   1.490   0.774  16.155  0.0498 -0.7442  0.0059
  562TMC3    C2 8387   1.403   0.878  16.131  0.1458 -0.5681 -0.7386
  562TMC3    C3 8388   1.344   0.884  16.004 -0.4968  0.0096  0.2431
  562TMC3    C4 8389   1.528   0.683  16.058  0.3179  0.0672 -0.3692
  562TMC3    C5 8390   1.449   0.683  15.943  0.3346 -0.1701 -0.5299
  562TMC3    C6 8391   1.350   0.777  15.919 -0.0334  0.4366  0.1782
  562TMC3     C 8392   1.558   0.766  16.285 -0.2001  0.0271 -0.0601
  562TMC3     O 8393   1.576   0.871  16.352  0.2547 -0.3594  0.1352
  562TMC3     H 8394   1.384   0.955  16.205 -3.5060 -0.5723 -1.6615
  562TMC3    H1 8395   1.617   0.625  16.078  0.7250  1.1528  0.9741
  562TMC3    H2 8396   1.293   0.771  15.827 -1.3432 -0.0046  1.0136
  562TMC3    C7 8397   1.467   0.582  15.847 -0.7168  0.1611 -0.4028
  562TMC3    C8 8398   1.219   0.960  16.003 -0.0088 -0.4226 -0.5275
  562TMC3    O1 8399   1.399   0.579  15.744 -0.4729 -0.0480 -0.1304
  562TMC3    O2 8400   1.145   0.960  16.103 -0.1560 -0.6779 -0.0901
  563MPD2     C 8401   3.830   2.380  15.545 -0.2462 -0.5103  0.2017
  563MPD2    C1 8402   3.865   2.371  15.676  0.0656  0.4906 -0.1627
  563MPD2    C2 8403   3.962   2.279  15.715  0.1542 -0.1219 -0.6528
  563MPD2    C3 8404   4.007   2.184  15.626  0.0483 -0.4720 -0.0884
  563MPD2    C4 8405   3.961   2.194  15.493  0.1221 -0.5341 -0.1626
  563MPD2    C5 8406   3.873   2.293  15.456  0.1380 -1.1384  0.4724
  563MPD2     H 8407   3.991   2.269  15.819 -1.1872  1.6949 -0.0942
  563MPD2    H1 8408   3.972   2.118  15.416  2.2857 -2.5983  2.2023
  563MPD2    H2 8409   3.758   2.453  15.511 -1.0514 -1.2411  0.3578
  563MPD2    H3 8410   3.838   2.306  15.354 -2.1150 -0.6898  1.3080
  563MPD2     N 8411   4.087   2.079  15.675 -0.3201  0.4773 -0.2544
  563MPD2    H5 8412   4.123   2.093  15.769 -2.0957  0.1074  0.4671
  563MPD2    N1 8413   3.811   2.470  15.765  0.0700  0.1075  0.1424
  563MPD2    H7 8414   3.729   2.524  15.738 -1.0375 -0.7408  1.8353
  564TMC3    C1 8415   3.788   2.492  16.002 -0.6363  0.0101 -0.5522
  564TMC3    C2 8416   3.648   2.480  15.980  0.7227 -0.2606 -0.4810
  564TMC3    C3 8417   3.572   2.415  16.066  0.5602 -0.4011  0.4723
  564TMC3    C4 8418   3.842   2.428  16.106 -0.4578 -0.3957  0.0009
  564TMC3    C5 8419   3.761   2.356  16.195  0.1398  0.3332 -0.0537
  564TMC3    C6 8420   3.624   2.360  16.181 -0.2507 -0.1609 -0.3052
  564TMC3     C 8421   3.873   2.498  15.885  0.0235  0.4338  0.6827
  564TMC3     O 8422   3.995   2.492  15.908  0.6075  0.3703  0.6364
  564TMC3     H 8423   3.605   2.529  15.894 -0.2762  0.9416  0.7180
  564TMC3    H1 8424   3.949   2.432  16.123  0.2588 -2.8947 -3.8943
  564TMC3    H2 8425   3.569   2.304  16.256  1.8701  0.8060  1.9785
  564TMC3    C7 8426   3.809   2.214  16.179  0.1189  0.1983  0.4330
  564TMC3    C8 8427   3.486   2.314  16.007  0.3056 -0.2370  1.0378
  564TMC3    O1 8428   3.777   2.137  16.269 -0.3065  0.2366  0.1395
  564TMC3    O2 8429   3.431   2.239  16.085 -0.1044  0.5187 -0.2901
  565TMC3    C1 8430   4.668   3.626  10.139  0.3984  0.2529  0.5858
  565TMC3    C2 8431   4.692   3.501  10.200  0.1447 -0.2430 -0.0938
  565TMC3    C3 8432   4.646   3.386  10.135  0.2811  0.4768 -0.1106
  565TMC3    C4 8433   4.606   3.635  10.019  0.2265  0.2514 -0.5636
  565TMC3    C5 8434   4.565   3.518   9.959  0.8193 -0.1659 -0.6822
  565TMC3    C6 8435   4.588   3.395  10.014  0.1527  0.0372  1.1394
  565TMC3     C 8436   0.002   3.750  10.172 -0.4234  0.5359 -1.0026
  565TMC3     O 8437   0.011   3.834  10.084  0.2784  0.0907 -0.4807
  565TMC3     H 8438   4.731   3.502  10.301  2.4947 -1.3809 -0.9961
  565TMC3    H1 8439   4.598   3.731   9.968 -1.6786  0.1728 -0.4161
  565TMC3    H2 8440   4.537   3.307   9.978 -1.6134  2.4387 -2.2284
  565TMC3    C7 8441   4.506   3.538   9.828  0.2471 -0.1449  0.7519
  565TMC3    C8 8442   4.649   3.257  10.198 -0.3250 -0.3689 -0.1040
  565TMC3    O1 8443   4.516   3.651   9.782  0.1583  0.1213 -0.5989
  565TMC3    O2 8444   4.592   3.169  10.137  0.3345  0.2033 -0.4294
  566MPD2     C 8445   1.153   4.434  14.586  0.1652 -0.3236  0.6176
  566MPD2    C1 8446   1.201   4.341  14.494  0.7092  0.3592  0.4618
  566MPD2    C2 8447   1.112   4.275  14.405  0.6150 -0.1896 -0.5148
  566MPD2    C3 8448   0.976   4.309  14.402 -0.3420  0.4897  0.6451
  566MPD2    C4 8449   0.934   4.408  14.492  0.7094 -0.0322  0.1621
  566MPD2    C5 8450   1.016   4.464  14.585  0.3037 -0.1038  0.5591
  566MPD2     H 8451   1.145   4.210  14.325 -0.2143  0.2518 -1.2188
  566MPD2    H1 8452   0.828   4.434  14.491  1.1196  1.6553  2.1334
  566MPD2    H2 8453   1.212   4.490  14.658  0.2227  1.6946 -0.9891
  566MPD2    H3 8454   0.975   4.534  14.656  0.2011 -1.2469  1.6208
  566MPD2     N 8455   0.885   4.270  14.301  0.4061  0.0821 -0.5924
  566MPD2    H5 8456   0.803   4.327  14.285  0.0114  0.3077  2.2497
  566MPD2    N1 8457   1.342   4.331  14.474  0.3500 -0.5971 -0.2134
  566MPD2    H7 8458   1.398   4.389  14.536  0.8276 -0.4278 -0.8130
  567TMC3    C1 8459   1.540   4.317  14.349  0.5090  0.4475 -0.0708
  567TMC3    C2 8460   1.554   4.345  14.218 -0.0804 -0.2382 -0.0031
  567TMC3    C3 8461   1.666   4.417  14.188  0.1525 -0.2245  0.8296
  567TMC3    C4 8462   1.621   4.364  14.449  0.3821  0.1356 -0.6002
  567TMC3    C5 8463   1.721   4.447  14.410 -0.4831 -0.7047  0.9443
  567TMC3    C6 8464   1.747   4.478  14.279 -0.8562  0.3520  0.4207
  567TMC3     C 8465   1.408   4.264  14.376  0.2555 -0.6344  0.4977
  567TMC3     O 8466   1.363   4.200  14.280 -0.3560 -0.2636  0.2560
  567TMC3     H 8467   1.488   4.320  14.136 -0.8798 -2.6542  1.3850
  567TMC3    H1 8468   1.613   4.323  14.549 -0.6598 -1.2704 -1.2576
  567TMC3    H2 8469   1.824   4.547  14.248  0.8579 -1.0307  1.6112
  567TMC3    C7 8470   1.805   4.523  14.510 -0.0446  0.2522  0.2132
  567TMC3    C8 8471   1.654   4.491  14.064 -0.1537  0.9305  0.1152
  567TMC3    O1 8472   1.873   4.614  14.468 -0.7297 -0.6273  0.0756
  567TMC3    O2 8473   1.545   4.529  14.031 -0.2874  0.3693 -0.2509
  568MPD2     C 8474   3.560   0.784  16.170 -0.0252 -0.3636  0.2497
  568MPD2    C1 8475   3.570   0.879  16.269  0.5741  0.2833 -0.2283
  568MPD2    C2 8476   3.601   1.012  16.253  0.7883  0.2769  0.1403
  568MPD2    C3 8477   3.596   1.057  16.122  0.3283 -0.3340 -0.9782
  568MPD2    C4 8478   3.583   0.976  16.015  0.2275  0.0761  0.1055
  568MPD2    C5 8479   3.565   0.844  16.041  1.1418  0.7820  1.1283
  568MPD2     H 8480   3.640   1.078  16.330  1.5968  1.4431 -1.2600
  568MPD2    H1 8481   3.585   1.011  15.912  0.7163 -0.0506  0.0746
  568MPD2    H2 8482   3.544   0.678  16.183 -1.4509 -0.3779 -1.6061
  568MPD2    H3 8483   3.545   0.780  15.957 -1.4103  0.4126  2.0359
  568MPD2     N 8484   3.599   1.197  16.109  0.3760  0.4249  0.3459
  568MPD2    H5 8485   3.597   1.247  16.198 -0.4244 -1.4829  1.3915
  568MPD2    N1 8486   3.549   0.837  16.402 -0.2183 -0.0880 -0.0267
  568MPD2    H7 8487   3.525   0.739  16.413  0.6402 -0.3291 -0.2771
  569TMC3    C1 8488   3.536   1.398  16.029  0.2982  0.4847 -0.3816
  569TMC3    C2 8489   3.488   1.432  16.149 -0.1051  0.4392  0.6332
  569TMC3    C3 8490   3.429   1.557  16.155  0.3668 -0.1967  0.0139
  569TMC3    C4 8491   3.541   1.483  15.922  0.3088 -0.2598 -0.0374
  569TMC3    C5 8492   3.496   1.611  15.943 -0.1926 -0.0371  0.1521
  569TMC3    C6 8493   3.431   1.645  16.054  0.3831  0.4913 -0.3084
  569TMC3     C 8494   3.587   1.265  15.991  0.2570 -0.1821  0.3956
  569TMC3     O 8495   3.606   1.228  15.876  0.1483  0.0586  0.1883
  569TMC3     H 8496   3.465   1.354  16.222  1.5940  0.0495  0.7525
  569TMC3    H1 8497   3.608   1.467  15.838 -3.0486  0.3914 -2.8065
  569TMC3    H2 8498   3.392   1.745  16.062 -2.2725 -0.6880  1.6180
  569TMC3    C7 8499   3.510   1.705  15.835  0.1086  0.6622 -0.6172
  569TMC3    C8 8500   3.409   1.624  16.284  0.6320  0.1413  0.3953
  569TMC3    O1 8501   3.574   1.667  15.735  0.2091  0.1569  0.0681
  569TMC3    O2 8502   3.310   1.694  16.289 -0.3112  0.0288  0.1431
  570TMC3    C1 8503   3.027   4.212  16.220 -0.2852 -0.0337 -0.1319
  570TMC3    C2 8504   3.097   4.231  16.106  0.0516 -0.1186  0.3316
  570TMC3    C3 8505   3.092   4.357  16.051  0.2780  0.0702 -0.4186
  570TMC3    C4 8506   2.968   4.311  16.294 -0.7129  0.4329 -0.2937
  570TMC3    C5 8507   2.979   4.435  16.239 -0.0921 -0.2209 -0.4356
  570TMC3    C6 8508   3.042   4.461  16.123 -0.1467  0.5163  0.3063
  570TMC3     C 8509   2.999   4.074  16.249 -0.5769  0.6848  0.8886
  570TMC3     O 8510   3.030   3.992  16.163 -0.3357  0.3834  0.3258
  570TMC3     H 8511   3.154   4.157  16.052  1.2586  0.7325  0.4311
  570TMC3    H1 8512   2.913   4.281  16.382  1.6366 -0.3760  0.9101
  570TMC3    H2 8513   3.029   4.558  16.076  0.0589  0.4836  0.1838
  570TMC3    C7 8514   2.947   4.544  16.328 -0.1538  0.1379  1.0960
  570TMC3    C8 8515   3.158   4.400  15.928  0.2845  0.2698 -0.5904
  570TMC3    O1 8516   2.861   4.508  16.406  0.0890 -0.1528  0.2487
  570TMC3    O2 8517   3.203   4.513  15.934  0.3594 -0.1127 -0.1167
  571MPD2     C 8518   1.195   1.367  17.737  0.0556  0.5646 -0.8415
  571MPD2    C1 8519   1.240   1.346   0.123  0.1418  0.1402  0.7166
  571MPD2    C2 8520   1.325   1.440   0.177 -0.5249 -0.4004 -0.1652
  571MPD2    C3 8521   1.356   1.562   0.115  0.2319 -0.1066  0.6837
  571MPD2    C4 8522   1.301   1.575  17.736  0.5958 -0.4809 -0.0781
  571MPD2    C5 8523   1.221   1.487  17.675  0.1271  0.2292 -0.1851
  571MPD2     H 8524   1.349   1.417   0.280  0.6489  0.1844 -0.3069
  571MPD2    H1 8525   1.325   1.667  17.684  0.3722  0.4132  1.4011
  571MPD2    H2 8526   1.128   1.304  17.678  0.7988  0.6773 -1.8128
  571MPD2    H3 8527   1.181   1.517  17.579  0.2308  0.3783 -0.1831
  571MPD2     N 8528   1.437   1.667   0.157  0.0472  0.0765 -0.1570
  571MPD2    H5 8529   1.474   1.744   0.101  0.1929 -1.1908 -1.7824
  571MPD2    N1 8530   1.199   1.237   0.202 -0.4072  0.4465 -0.4066
  571MPD2    H7 8531   1.227   1.239   0.300 -1.8713  0.1205  0.0246
  572TMC3    C1 8532   1.558   1.798   0.299 -0.0422 -0.3679 -0.1101
  572TMC3    C2 8533   1.662   1.801   0.393  0.2872  0.0944  0.1516
  572TMC3    C3 8534   1.727   1.926   0.405 -0.4819 -0.3563  0.4018
  572TMC3    C4 8535   1.502   1.909   0.247  0.5585  0.4941 -0.5862
  572TMC3    C5 8536   1.578   2.030   0.266  0.5214 -0.9946  0.1222
  572TMC3    C6 8537   1.685   2.042   0.343 -0.4357 -0.0491  0.1354
  572TMC3     C 8538   1.486   1.673   0.283  0.1994  0.5881  0.6987
  572TMC3     O 8539   1.489   1.591   0.377  0.2270  0.0724 -0.2492
  572TMC3     H 8540   1.703   1.706   0.425 -0.4317 -0.0320  0.6959
  572TMC3    H1 8541   1.413   1.910   0.184 -0.9795  2.5011  1.5922
  572TMC3    H2 8542   1.743   2.132   0.356 -3.4528  1.7095  1.3607
  572TMC3    C7 8543   1.525   2.145   0.190  0.5193  0.3707 -0.4716
  572TMC3    C8 8544   1.795   1.950   0.526 -1.0203  0.5181 -0.1353
  572TMC3    O1 8545   1.404   2.142   0.186 -0.0867  0.2990 -0.2203
  572TMC3    O2 8546   1.861   2.052   0.527  0.0508 -0.1095 -0.6828
  573MPD2     C 8547   2.034   1.590   0.618  0.6633  0.1558 -0.7993
  573MPD2    C1 8548   2.098   1.698   0.569 -0.0562  0.2642  0.1797
  573MPD2    C2 8549   2.082   1.731   0.439 -0.3381 -0.1899  0.2503
  573MPD2    C3 8550   2.000   1.653   0.354  0.3219 -0.0993  0.6520
  573MPD2    C4 8551   1.946   1.537   0.402 -0.1271  0.1411  0.4422
  573MPD2    C5 8552   1.962   1.508   0.539  0.1504 -0.4861  0.4464
  573MPD2     H 8553   2.130   1.818   0.397  1.0852 -0.1671  1.9532
  573MPD2    H1 8554   1.878   1.479   0.340  0.5397 -1.1630  0.9298
  573MPD2    H2 8555   2.028   1.574   0.725 -0.3212  4.2658 -0.2294
  573MPD2    H3 8556   1.919   1.420   0.586 -1.4824  0.2726  0.3839
  573MPD2     N 8557   1.964   1.694   0.215 -0.2692 -0.2503  0.0038
  573MPD2    H5 8558   1.899   1.632   0.168  0.8657 -0.6438 -1.0338
  573MPD2    N1 8559   2.161   1.785   0.663 -0.0583  0.4037  0.7920
  573MPD2    H7 8560   2.163   1.748   0.758  3.4509  1.4942  1.1452
  574TMC3    C1 8561   1.947   1.835   0.020  0.4346 -0.2174 -0.1324
  574TMC3    C2 8562   1.824   1.794  17.724 -0.0856 -0.0039 -0.2092
  574TMC3    C3 8563   1.774   1.861  17.618  0.1636  0.4543 -0.2059
  574TMC3    C4 8564   2.019   1.927  17.700  0.2616 -0.3444 -0.0365
  574TMC3    C5 8565   1.965   1.979  17.583  0.7729  0.1923 -0.2831
  574TMC3    C6 8566   1.841   1.948  17.538 -1.0750 -0.3819  0.6256
  574TMC3     C 8567   2.007   1.808   0.148 -0.3778 -0.1818  0.3981
  574TMC3     O 8568   2.097   1.881   0.184  0.1805 -0.1733 -0.5170
  574TMC3     H 8569   1.757   1.737   0.045 -1.6274  1.0993 -0.8558
  574TMC3    H1 8570   2.119   1.961  17.727  0.5484 -1.2257  0.0258
  574TMC3    H2 8571   1.796   1.979  17.445 -0.3436  0.0631  0.4186
  574TMC3    C7 8572   2.010   2.115  17.553  0.6041  0.4407  0.0066
  574TMC3    C8 8573   1.636   1.906  17.634 -0.5091 -0.3872  0.1902
  574TMC3    O1 8574   2.048   2.182  17.650 -0.1871 -0.6550  0.0011
  574TMC3    O2 8575   1.557   1.837  17.698  0.2485  0.0782 -0.5631
  575TMC3    C1 8576   4.646   2.349  10.351 -0.1125 -0.9424 -0.3782
  575TMC3    C2 8577   4.522   2.312  10.308  0.4458  1.1115  0.2946
  575TMC3    C3 8578   4.443   2.417  10.249 -0.3173  0.2005 -0.0658
  575TMC3    C4 8579   4.691   2.479  10.337 -0.9537 -0.1304 -0.1288
  575TMC3    C5 8580   4.610   2.576  10.283 -0.4625 -0.1172  0.4934
  575TMC3    C6 8581   4.485   2.546  10.240  0.1632  0.1149  0.0097
  575TMC3     C 8582   0.006   2.239  10.364  0.1977 -0.2491  0.3045
  575TMC3     O 8583   4.704   2.134  10.417  0.4514 -0.4015 -0.6740
  575TMC3     H 8584   4.486   2.210  10.315  0.9676  0.9220  0.2149
  575TMC3    H1 8585   0.043   2.526  10.380 -2.0899  2.8170 -1.0320
  575TMC3    H2 8586   4.421   2.621  10.194 -1.4781 -1.4890 -0.2831
  575TMC3    C7 8587   4.627   2.723  10.300  0.2693 -0.1982 -0.6592
  575TMC3    C8 8588   4.338   2.366  10.165  0.2242 -0.3808 -0.2290
  575TMC3    O1 8589   4.557   2.790  10.228  0.2086 -0.2563 -0.4938
  575TMC3    O2 8590   4.284   2.264  10.200  0.3026 -0.2448  0.1809
  576MPD2     C 8591   3.535   4.446  12.468 -0.0115  0.2864  0.4902
  576MPD2    C1 8592   3.672   4.461  12.460 -0.3561 -0.3989  0.0572
  576MPD2    C2 8593   3.732   4.531  12.569 -0.2205  0.4307 -0.4708
  576MPD2    C3 8594   3.661   4.588  12.668  0.3871  0.0553 -0.2145
  576MPD2    C4 8595   3.526   4.560  12.679 -0.9449  0.2812 -0.3096
  576MPD2    C5 8596   3.467   4.480  12.583  0.9406 -0.0802  0.3182
  576MPD2     H 8597   3.837   4.558  12.565  0.3628 -1.7757  0.2465
  576MPD2    H1 8598   3.467   4.580  12.768  1.4243 -2.2318  1.8431
  576MPD2    H2 8599   3.476   4.411  12.385  0.1217 -1.5671  1.1819
  576MPD2    H3 8600   3.361   4.457  12.593  0.7640  0.9340  0.7940
  576MPD2     N 8601   3.730   4.675  12.759 -0.1697 -0.1815  0.3785
  576MPD2    H5 8602   3.829   4.684  12.740  0.1309 -0.7552  1.6865
  576MPD2    N1 8603   3.757   4.402  12.365 -0.6389 -0.1785 -0.4043
  576MPD2    H7 8604   3.857   4.416  12.372 -0.5539  0.0506 -2.0936
  577TMC3    C1 8605   3.819   4.245  12.202 -0.3780 -0.0603 -0.0539
  577TMC3    C2 8606   3.948   4.245  12.250 -0.4122  0.1004 -0.8195
  577TMC3    C3 8607   4.039   4.178  12.170  0.6892  0.8590  0.2313
  577TMC3    C4 8608   3.785   4.183  12.084  0.8022  0.1627 -0.4771
  577TMC3    C5 8609   3.875   4.106  12.015 -0.0072 -0.3636  0.0473
  577TMC3    C6 8610   4.003   4.101  12.064 -0.4666  0.2015 -0.5856
  577TMC3     C 8611   3.709   4.312  12.274  0.1052  1.0519  0.2951
  577TMC3     O 8612   3.601   4.298  12.230  0.2244  0.4164 -0.0992
  577TMC3     H 8613   3.979   4.282  12.347 -2.5236  1.7310 -0.7593
  577TMC3    H1 8614   3.683   4.191  12.049  0.4031  3.7219  1.4903
  577TMC3    H2 8615   4.081   4.058  12.002 -0.7658 -1.7280  0.3763
  577TMC3    C7 8616   3.845   4.043  11.886 -0.2076 -0.2604  0.4429
  577TMC3    C8 8617   4.176   4.164  12.227 -0.9575  0.6153  0.4475
  577TMC3    O1 8618   3.907   3.938  11.864 -0.5052 -0.1020 -0.1074
  577TMC3    O2 8619   4.180   4.177  12.348 -0.1578 -0.2141 -0.5054
  578MPD2     C 8620   2.003   4.526   1.263 -0.1244 -0.2060 -0.2418
  578MPD2    C1 8621   2.055   4.497   1.146  0.9586 -0.0943 -0.0016
  578MPD2    C2 8622   2.186   4.450   1.136  0.3687  0.1571  0.4795
  578MPD2    C3 8623   2.259   4.435   1.253 -0.1908 -0.0064  0.1857
  578MPD2    C4 8624   2.194   4.451   1.368 -0.3304  0.6173  0.3582
  578MPD2    C5 8625   2.072   4.501   1.375 -0.6393  0.2237 -0.4450
  578MPD2     H 8626   2.234   4.421   1.043  3.3774  1.9750  1.4778
  578MPD2    H1 8627   2.241   4.416   1.459  1.2898 -0.4841 -0.9078
  578MPD2    H2 8628   1.904   4.570   1.267  0.5906  1.2277  1.4389
  578MPD2    H3 8629   2.016   4.512   1.467  1.5264 -2.5435  1.1943
  578MPD2     N 8630   2.392   4.407   1.236 -0.5389  0.0795 -0.1911
  578MPD2    H5 8631   2.420   4.398   1.139  0.5103  1.6311 -0.0343
  578MPD2    N1 8632   1.961   4.516   1.038 -0.3680  0.1641 -0.0205
  578MPD2    H7 8633   1.874   4.563   1.060 -1.2245 -1.9778  1.1450
  579TMC3    C1 8634   2.613   4.362   1.296  0.6423  0.0128 -0.2903
  579TMC3    C2 8635   2.726   4.426   1.345  0.8857 -0.1273  0.1944
  579TMC3    C3 8636   2.845   4.391   1.292  0.4824 -0.8784  1.0173
  579TMC3    C4 8637   2.617   4.269   1.193  0.2541  0.4668 -0.3183
  579TMC3    C5 8638   2.741   4.253   1.138  0.5468 -0.3010 -0.9935
  579TMC3    C6 8639   2.854   4.300   1.191  0.0041  0.3046 -0.1737
  579TMC3     C 8640   2.483   4.409   1.339 -0.1514  0.0468  0.5024
  579TMC3     O 8641   2.491   4.477   1.440  0.3818  0.1755  0.6006
  579TMC3     H 8642   2.714   4.500   1.424  1.4072  0.8496 -0.6474
  579TMC3    H1 8643   2.531   4.211   1.162  0.7606 -0.1551 -0.5599
  579TMC3    H2 8644   2.948   4.278   1.142 -0.0103 -1.2582  0.4937
  579TMC3    C7 8645   2.758   4.145   1.038  0.0277  0.3410  0.5474
  579TMC3    C8 8646   2.970   4.459   1.333  0.0425  0.1844 -0.1178
  579TMC3    O1 8647   2.852   4.066   1.054 -0.2585 -0.1928 -0.0829
  579TMC3    O2 8648   2.947   4.539   1.420  0.5524  0.1050  0.1800
  580TMC3    C1 8649   2.564   3.832  12.184  0.1716 -0.4188 -0.7283
  580TMC3    C2 8650   2.696   3.831  12.222 -0.5451  0.6343  0.4536
  580TMC3    C3 8651   2.763   3.714  12.222 -0.2150  0.6635  0.3039
  580TMC3    C4 8652   2.503   3.716  12.151  0.1899  0.2447  0.0043
  580TMC3    C5 8653   2.562   3.593  12.171 -0.2621 -0.6574  0.0686
  580TMC3    C6 8654   2.700   3.588  12.207  0.0086 -0.5355 -0.3930
  580TMC3     C 8655   2.532   3.940  12.097 -0.5707 -0.4821 -0.4081
  580TMC3     O 8656   2.632   3.986  12.034 -0.0022  0.0100 -0.0790
  580TMC3     H 8657   2.753   3.923  12.235  1.0999 -0.5007  1.3635
  580TMC3    H1 8658   2.405   3.719  12.103  1.0462  1.5237 -1.6542
  580TMC3    H2 8659   2.757   3.497  12.192  0.3614 -0.4193  0.2392
  580TMC3    C7 8660   2.501   3.464  12.128  0.0382  0.2252 -0.3168
  580TMC3    C8 8661   2.904   3.722  12.204 -0.1377 -0.7043  0.0240
  580TMC3    O1 8662   2.540   3.364  12.190  0.1094 -0.3729 -0.4127
  580TMC3    O2 8663   2.961   3.801  12.275 -0.3208  0.6657  0.0218
  581MPD2     C 8664   4.091   3.247  14.916  0.2456  0.1149 -0.4764
  581MPD2    C1 8665   4.187   3.223  14.822  1.1565 -0.2369 -0.1056
  581MPD2    C2 8666   4.171   3.253  14.690 -0.7752  0.5051 -0.0060
  581MPD2    C3 8667   4.054   3.311  14.647  0.1444 -1.0414 -0.9238
  581MPD2    C4 8668   3.965   3.349  14.744  0.3922 -0.7194  0.8813
  581MPD2    C5 8669   3.984   3.316  14.876 -0.5264 -0.6673 -0.6208
  581MPD2     H 8670   4.249   3.231  14.617 -1.7881 -0.1437 -0.9028
  581MPD2    H1 8671   3.888   3.421  14.716  0.6078 -0.3591  1.2058
  581MPD2    H2 8672   4.109   3.221  15.020 -0.2434  1.0124 -0.1639
  581MPD2    H3 8673   3.910   3.342  14.950 -1.4953 -0.7035 -1.5796
  581MPD2     N 8674   4.034   3.332  14.505  0.0183  0.0642 -0.2944
  581MPD2    H5 8675   4.108   3.305  14.442 -0.8767  0.7957 -1.6490
  581MPD2    N1 8676   4.299   3.150  14.877 -0.2919  0.5393 -0.9809
  581MPD2    H7 8677   4.286   3.103  14.967  1.6832  0.9531 -0.4697
  582TMC3    C1 8678   4.491   3.047  14.907  0.1565  0.3212 -0.3298
  582TMC3    C2 8679   4.576   3.110  15.001 -0.2511  0.0092 -0.1693
  582TMC3    C3 8680   4.611   3.039  15.116 -0.3498  0.0660 -0.2596
  582TMC3    C4 8681   4.429   2.935  14.945 -0.3315 -0.2127  0.6004
  582TMC3    C5 8682   4.457   2.871  15.066 -0.2268  0.7175 -0.0762
  582TMC3    C6 8683   4.553   2.919  15.146  0.4501 -0.2994  0.5655
  582TMC3     C 8684   4.421   3.135  14.821 -0.9078 -0.1844 -0.5769
  582TMC3     O 8685   4.467   3.177  14.716  0.2812  0.1467 -0.3243
  582TMC3     H 8686   4.640   3.188  14.961  0.7593  0.2600  1.9198
  582TMC3    H1 8687   4.349   2.890  14.886  2.6202 -2.4258 -1.6886
  582TMC3    H2 8688   4.581   2.867  15.237 -1.1865  0.6750  1.6143
  582TMC3    C7 8689   4.332   2.873  15.136 -0.7641  0.3581  0.0818
  582TMC3    C8 8690   4.700   3.096  15.212 -0.4261 -0.2617 -1.0242
  582TMC3    O1 8691   4.240   2.800  15.097  0.3222 -0.0415  0.3565
  582TMC3    O2 8692   4.693   3.219  15.221  0.2212 -0.0233 -0.2210
  583MPD2     C 8693   4.380   0.285  16.660 -0.2147 -0.0784  0.3032
  583MPD2    C1 8694   4.436   0.401  16.613 -0.4211  0.1685 -1.2762
  583MPD2    C2 8695   4.419   0.514  16.694  0.6869 -0.0887 -0.1910
  583MPD2    C3 8696   4.342   0.512  16.811 -0.4223  0.2701  0.2051
  583MPD2    C4 8697   4.288   0.391  16.848  0.7670 -0.4599 -0.3623
  583MPD2    C5 8698   4.307   0.280  16.772 -0.3513  0.0186  0.7486
  583MPD2     H 8699   4.477   0.604  16.677  1.7950 -0.5576  1.0855
  583MPD2    H1 8700   4.230   0.370  16.938 -1.1919  0.5260 -1.3985
  583MPD2    H2 8701   4.376   0.203  16.589  0.5287  0.1943 -0.0577
  583MPD2    H3 8702   4.253   0.191  16.801 -1.1663  0.8941  1.9026
  583MPD2     N 8703   4.324   0.633  16.892  0.0906  0.0412 -0.2639
  583MPD2    H5 8704   4.353   0.721  16.852 -1.1615 -0.6861 -2.7968
  583MPD2    N1 8705   4.523   0.410  16.508 -0.4324 -0.5095 -0.7012
  583MPD2    H7 8706   4.532   0.501  16.465  0.1611 -0.2983 -0.1301
  584TMC3    C1 8707   4.275   0.753  17.095  0.2204  0.1932 -0.4882
  584TMC3    C2 8708   4.282   0.873  17.030 -0.1072  0.1341  0.2071
  584TMC3    C3 8709   4.297   0.983  17.113 -0.2186 -0.3420 -0.4958
  584TMC3    C4 8710   4.252   0.743  17.228  0.2715 -0.4303  0.7386
  584TMC3    C5 8711   4.251   0.853  17.306  0.3170  0.1110 -0.1121
  584TMC3    C6 8712   4.279   0.977  17.248 -0.2558 -0.4316  0.2639
  584TMC3     C 8713   4.265   0.634  17.019 -0.3747 -0.1179  0.0177
  584TMC3     O 8714   4.222   0.539  17.080 -0.0520  0.6610 -0.7676
  584TMC3     H 8715   4.306   0.899  16.928  1.4546 -0.4357  0.4174
  584TMC3    H1 8716   4.236   0.651  17.283 -2.5982  0.0761  0.7578
  584TMC3    H2 8717   4.261   1.069  17.303 -0.5197 -1.2370  1.5299
  584TMC3    C7 8718   4.202   0.838  17.440 -0.1541 -0.0463 -1.0401
  584TMC3    C8 8719   4.318   1.110  17.054  0.1103  0.1013 -0.1121
  584TMC3    O1 8720   4.139   0.734  17.462  0.1062 -0.3206 -0.0336
  584TMC3    O2 8721   4.273   1.116  16.941  0.1036 -0.2550  0.1765
  585MPD2     C 8722   3.636   4.326   0.247 -0.0551 -0.6520  0.1630
  585MPD2    C1 8723   3.582   4.320   0.120  0.2423 -0.3206 -0.0172
  585MPD2    C2 8724   3.613   4.213   0.038  0.6251 -0.4458 -0.1182
  585MPD2    C3 8725   3.702   4.116   0.087  0.3469  0.5508 -0.9916
  585MPD2    C4 8726   3.740   4.120   0.218  0.2239  0.5697  0.6439
  585MPD2    C5 8727   3.719   4.232   0.291  0.1975  0.3571 -0.2705
  585MPD2     H 8728   3.588   4.197  17.675  1.2738  0.3586 -0.3960
  585MPD2    H1 8729   3.812   4.052   0.262  0.2961 -0.0417 -0.4111
  585MPD2    H2 8730   3.613   4.403   0.320 -1.0256  0.3146 -1.1471
  585MPD2    H3 8731   3.730   4.236   0.399 -2.8250  1.2800  0.0163
  585MPD2     N 8732   3.740   4.007   0.002  0.9019  0.1557  0.2332
  585MPD2    H5 8733   3.737   4.024  17.643  1.7703  2.1516  0.5453
  585MPD2    N1 8734   3.499   4.429   0.084  0.5934 -0.6857 -0.8333
  585MPD2    H7 8735   3.491   4.494   0.162 -0.4382 -2.0934  0.2278
  586TMC3    C1 8736   3.867   3.819  17.663  0.0621 -0.1273 -0.8317
  586TMC3    C2 8737   3.977   3.748  17.676  0.2971 -0.1143 -0.5839
  586TMC3    C3 8738   4.034   3.709  17.556  0.1912  0.2301 -1.0041
  586TMC3    C4 8739   3.806   3.845  17.544  0.3027 -0.5022 -0.4015
  586TMC3    C5 8740   3.861   3.785  17.428 -0.1806 -0.1985 -0.5027
  586TMC3    C6 8741   3.983   3.728  17.432 -0.4194 -0.0964 -0.2774
  586TMC3     C 8742   3.806   3.886   0.040  0.4198  0.5404 -0.2642
  586TMC3     O 8743   3.841   3.848   0.151 -0.0083  1.2834 -0.2384
  586TMC3     H 8744   4.012   3.719   0.033 -3.0390  0.6322  0.8316
  586TMC3    H1 8745   3.705   3.884  17.543  0.0628 -1.0704  1.0479
  586TMC3    H2 8746   4.033   3.686  17.345  0.8109  0.1326  0.3232
  586TMC3    C7 8747   3.769   3.736  17.332 -0.5268 -0.1651 -0.0114
  586TMC3    C8 8748   4.149   3.619  17.556  0.3532 -0.1063  0.1762
  586TMC3    O1 8749   3.652   3.723  17.365 -0.3308 -0.2623  0.0373
  586TMC3    O2 8750   4.149   3.533  17.468 -0.3572 -0.4264  0.1923
  587TMC3    C1 8751   1.230   2.827  16.970 -0.2200 -0.3129  0.1246
  587TMC3    C2 8752   1.304   2.934  17.016 -0.0489  0.2737  0.6964
  587TMC3    C3 8753   1.422   2.951  16.942  0.1048  0.3898  0.5307
  587TMC3    C4 8754   1.277   2.740  16.877 -0.1369 -0.0074  0.8712
  587TMC3    C5 8755   1.403   2.755  16.823 -0.8222  0.2780  0.0673
  587TMC3    C6 8756   1.484   2.866  16.849 -0.3204 -0.3407 -0.1674
  587TMC3     C 8757   1.093   2.810  17.023 -0.1170  0.4639 -0.0707
  587TMC3     O 8758   1.072   2.874  17.124 -0.5015 -0.4138 -0.2215
  587TMC3     H 8759   1.271   3.010  17.085  1.3154  0.4014  1.2204
  587TMC3    H1 8760   1.230   2.649  16.842 -1.7581  2.1410 -2.6075
  587TMC3    H2 8761   1.572   2.893  16.792 -0.1401 -0.3931  0.0862
  587TMC3    C7 8762   1.438   2.696  16.690 -0.0104  0.5155  0.3592
  587TMC3    C8 8763   1.470   3.087  16.925 -0.8029 -0.6879 -0.2517
  587TMC3    O1 8764   1.506   2.766  16.618 -0.0532  0.2247 -0.0471
  587TMC3    O2 8765   1.583   3.098  16.888  0.6413  0.4710 -0.4209
  588TMC3    C1 8766   3.917   0.271   9.633  0.5143 -0.5230  0.0242
  588TMC3    C2 8767   3.899   0.140   9.595 -0.0887 -0.0692 -0.6144
  588TMC3    C3 8768   4.002   0.055   9.590  0.6763  0.0729  0.6995
  588TMC3    C4 8769   4.044   0.321   9.655  0.1691  0.7397  0.6976
  588TMC3    C5 8770   4.142   0.223   9.669  0.9013 -0.7900 -0.4527
  588TMC3    C6 8771   4.123   0.092   9.638  0.0989  0.8014  0.2093
  588TMC3     C 8772   3.815   0.368   9.610  0.2171 -0.5208 -0.7218
  588TMC3     O 8773   3.740   0.353   9.514  0.7035  0.0368  0.5892
  588TMC3     H 8774   3.799   0.109   9.567 -0.3113  0.9017 -0.8932
  588TMC3    H1 8775   4.068   0.425   9.637  1.0598  0.5640  0.8889
  588TMC3    H2 8776   4.209   0.026   9.643 -0.5293  0.0112  0.8486
  588TMC3    C7 8777   4.271   0.261   9.712 -0.3706  0.2891  0.2661
  588TMC3    C8 8778   3.964   4.653   9.564 -0.6444  0.2270 -0.2002
  588TMC3    O1 8779   4.361   0.203   9.653  0.1370  0.4585  0.2467
  588TMC3    O2 8780   3.849   4.629   9.547 -0.1843 -0.1239  0.4667
  589TMC3    C1 8781   2.821   2.564   1.084  0.2794 -0.5144  0.0430
  589TMC3    C2 8782   2.867   2.518   1.200  0.3440  0.0914 -0.4125
  589TMC3    C3 8783   2.932   2.395   1.192  0.0277 -0.2791  0.1442
  589TMC3    C4 8784   2.833   2.502   0.960  0.1320  0.8460 -0.0223
  589TMC3    C5 8785   2.889   2.383   0.964 -0.3260 -0.3247 -0.8299
  589TMC3    C6 8786   2.950   2.334   1.076  0.0086  0.3823 -0.1111
  589TMC3     C 8787   2.752   2.689   1.091  0.4557  0.3059 -0.3065
  589TMC3     O 8788   2.680   2.711   0.993  0.3001 -0.1965  0.3546
  589TMC3     H 8789   2.857   2.554   1.302 -0.6339  4.4695 -2.0519
  589TMC3    H1 8790   2.805   2.560   0.873 -0.0417  0.7339 -0.0418
  589TMC3    H2 8791   2.994   2.235   1.064 -1.2732 -0.1447 -0.4612
  589TMC3    C7 8792   2.896   2.303   0.842 -0.0941 -0.0675  0.8310
  589TMC3    C8 8793   3.006   2.347   1.309  0.0983 -0.0346  0.1474
  589TMC3    O1 8794   2.933   2.187   0.862  0.7181 -0.4452 -0.6572
  589TMC3    O2 8795   2.963   2.389   1.418 -0.6231 -0.0989  0.2333
  590MPD2     C 8796   2.415   0.825  16.432  0.1991 -0.0368 -0.2584
  590MPD2    C1 8797   2.392   0.955  16.460  0.2754  0.8898 -0.2732
  590MPD2    C2 8798   2.489   1.050  16.428  0.1777  0.0064 -0.1847
  590MPD2    C3 8799   2.613   1.010  16.375  0.5890  0.2152  0.0181
  590MPD2    C4 8800   2.631   0.879  16.351  0.3386 -0.1292 -0.4286
  590MPD2    C5 8801   2.532   0.789  16.375  0.4042  0.6600 -0.0287
  590MPD2     H 8802   2.471   1.156  16.433 -1.5542 -0.3187  0.3448
  590MPD2    H1 8803   2.718   0.842  16.298  0.3557 -1.4972  0.5620
  590MPD2    H2 8804   2.340   0.749  16.452 -0.2465  0.9329  1.7469
  590MPD2    H3 8805   2.548   0.687  16.342  1.6654  0.6474  0.6470
  590MPD2     N 8806   2.720   1.108  16.349 -0.3507 -0.2073 -0.7440
  590MPD2    H5 8807   2.702   1.208  16.353 -0.8548 -0.3468  0.6357
  590MPD2    N1 8808   2.263   0.992  16.506 -0.1345 -0.0873  0.4633
  590MPD2    H7 8809   2.194   0.919  16.516  0.3135 -0.4684  0.7632
  591TMC3    C1 8810   2.918   1.199  16.277  0.1789  0.0550  0.0244
  591TMC3    C2 8811   2.989   1.177  16.165 -0.8281 -0.6971  0.1770
  591TMC3    C3 8812   3.004   1.289  16.085 -0.1787 -0.3335  0.0889
  591TMC3    C4 8813   2.854   1.314  16.317  0.3973 -0.8439  0.2075
  591TMC3    C5 8814   2.868   1.421  16.231 -0.3458 -1.1070  0.1825
  591TMC3    C6 8815   2.926   1.398  16.111 -0.5593 -0.1062 -0.5045
  591TMC3     C 8816   2.845   1.074  16.299 -0.1199  0.1813 -0.0659
  591TMC3     O 8817   2.900   0.966  16.285  0.3856 -0.0574  0.2399
  591TMC3     H 8818   3.033   1.079  16.146  2.6664  0.9388 -0.0023
  591TMC3    H1 8819   2.815   1.330  16.416  0.4341  1.7126 -0.1864
  591TMC3    H2 8820   2.924   1.476  16.036  0.6699 -1.3196 -1.8090
  591TMC3    C7 8821   2.770   1.528  16.246  0.2578 -0.2197  0.1678
  591TMC3    C8 8822   3.106   1.293  15.980  0.4886  0.3007 -0.5194
  591TMC3    O1 8823   2.684   1.514  16.334 -0.3015  0.5568 -0.0316
  591TMC3    O2 8824   3.184   1.201  15.985 -0.4393  0.4807  0.5187
  592MPD2     C 8825   3.095   2.639  11.646  0.1673 -0.3941 -0.3580
  592MPD2    C1 8826   3.130   2.720  11.756 -0.9077 -0.2742 -0.4314
  592MPD2    C2 8827   3.103   2.680  11.885  0.4019 -0.5137  0.2446
  592MPD2    C3 8828   3.028   2.564  11.899  0.0682 -0.6673  0.4925
  592MPD2    C4 8829   3.014   2.476  11.794  0.2656 -0.5809  0.0762
  592MPD2    C5 8830   3.032   2.520  11.668 -0.5512 -0.1304 -0.3942
  592MPD2     H 8831   3.129   2.744  11.969  0.4739  0.3404 -0.4257
  592MPD2    H1 8832   2.971   2.377  11.793 -0.3841 -0.3405  2.3272
  592MPD2    H2 8833   3.107   2.676  11.545 -3.8844 -0.4721 -0.8600
  592MPD2    H3 8834   3.014   2.452  11.586 -1.2802 -1.8229  1.1728
  592MPD2     N 8835   2.989   2.543  12.031 -0.7890 -0.2629  0.1658
  592MPD2    H5 8836   3.024   2.603  12.104 -0.1056 -1.7716  1.0925
  592MPD2    N1 8837   3.196   2.842  11.734 -0.8577 -1.1735  0.9028
  592MPD2    H7 8838   3.209   2.871  11.637  0.9241  0.1070  1.5253
  593TMC3    C1 8839   3.335   3.028  11.765 -0.3309  0.7277  0.4796
  593TMC3    C2 8840   3.371   3.129  11.850 -0.0324  0.0786  0.7571
  593TMC3    C3 8841   3.442   3.236  11.801  0.3011 -0.4139  0.4155
  593TMC3    C4 8842   3.381   3.024  11.636 -0.4136  0.1123  0.3642
  593TMC3    C5 8843   3.451   3.139  11.596  0.4211 -0.0333  0.0707
  593TMC3    C6 8844   3.480   3.248  11.673 -0.1516 -0.2336 -0.5378
  593TMC3     C 8845   3.246   2.930  11.826 -0.3002 -0.2915 -0.2853
  593TMC3     O 8846   3.231   2.939  11.945 -0.1949 -0.2218  0.0852
  593TMC3     H 8847   3.329   3.137  11.950  0.8092 -3.1955  1.3773
  593TMC3    H1 8848   3.368   2.936  11.574 -1.8371  0.3719  0.2921
  593TMC3    H2 8849   3.535   3.333  11.633  0.1825 -0.2307 -0.0742
  593TMC3    C7 8850   3.478   3.141  11.456  0.0375  0.1663  0.3824
  593TMC3    C8 8851   3.508   3.316  11.899  0.7115 -0.0237  0.3710
  593TMC3    O1 8852   3.556   3.231  11.426 -0.0098  0.6395  0.1580
  593TMC3    O2 8853   3.473   3.312  12.016  0.0076  0.2370 -0.2827
  594MPD2     C 8854   1.792   1.937  13.911  0.4656  0.6554  0.9990
  594MPD2    C1 8855   1.818   1.981  14.040  0.2297  0.3467  0.9750
  594MPD2    C2 8856   1.913   2.076  14.071 -0.4915 -0.1276 -0.1239
  594MPD2    C3 8857   2.000   2.118  13.969 -0.1402  0.1935 -0.2722
  594MPD2    C4 8858   1.982   2.071  13.837  0.3821 -0.1677  0.6078
  594MPD2    C5 8859   1.877   1.985  13.809 -0.6000 -0.3642  0.2057
  594MPD2     H 8860   1.943   2.115  14.168 -1.8849 -0.0948  0.2841
  594MPD2    H1 8861   2.038   2.110  13.752 -2.2662  3.7179  0.6276
  594MPD2    H2 8862   1.708   1.875  13.882 -3.3725  5.6299  1.3291
  594MPD2    H3 8863   1.865   1.933  13.714  1.9194 -0.5317 -0.0465
  594MPD2     N 8864   2.101   2.210  13.999 -0.0218 -0.0842  0.8990
  594MPD2    H5 8865   2.109   2.239  14.096 -0.2716  0.4047  0.7715
  594MPD2    N1 8866   1.728   1.921  14.133 -0.2158  0.3029 -0.0734
  594MPD2    H7 8867   1.658   1.865  14.085  1.3671 -0.8742 -1.0293
  595TMC3    C1 8868   2.500   2.434  13.984 -0.3696  0.0269  0.9906
  595TMC3    C2 8869   2.419   2.332  13.938 -0.9412 -0.0447 -0.6119
  595TMC3    C3 8870   2.289   2.337  13.985  0.4244  0.5222 -0.3831
  595TMC3    C4 8871   2.457   2.537  14.060  0.2408  0.1784  0.8948
  595TMC3    C5 8872   2.328   2.528  14.104  0.0132  0.0613 -0.2431
  595TMC3    C6 8873   2.239   2.437  14.058 -0.1940 -0.6321  0.2507
  595TMC3     C 8874   2.641   2.410  14.007 -0.1979  0.0975 -0.0907
  595TMC3     O 8875   2.705   2.502  14.052 -0.4713 -0.5112  0.1705
  595TMC3     H 8876   2.454   2.254  13.872  0.1663  0.5335 -0.7128
  595TMC3    H1 8877   2.518   2.614  14.106 -0.3436  0.6032  0.9540
  595TMC3    H2 8878   2.138   2.433  14.096 -0.5341 -0.3081 -0.6263
  595TMC3    C7 8879   2.283   2.619  14.209 -0.2282  0.0171 -0.2909
  595TMC3    C8 8880   2.200   2.255  13.914 -0.3982  0.1083  0.8829
  595TMC3    O1 8881   2.168   2.670  14.205 -0.0004 -0.3568 -0.4267
  595TMC3    O2 8882   2.233   2.203  13.805 -0.8265 -0.4322  0.0915
  596MPD2     C 8883   0.509   4.628  16.679  0.1183 -0.5132  0.1336
  596MPD2    C1 8884   0.553   0.018  16.653  0.2682  0.1374 -0.2892
  596MPD2    C2 8885   0.627   0.043  16.541  0.6887  0.5752 -0.4574
  596MPD2    C3 8886   0.663   4.679  16.448  0.7124 -0.3872 -0.7427
  596MPD2    C4 8887   0.628   4.551  16.476 -0.4096 -0.0269  0.2541
  596MPD2    C5 8888   0.553   4.535  16.588 -0.2477 -0.0483  0.0437
  596MPD2     H 8889   0.666   0.144  16.535 -0.3490  1.0279  0.3757
  596MPD2    H1 8890   0.650   4.469  16.409 -0.4571  0.3965 -0.2811
  596MPD2    H2 8891   0.442   4.601  16.759 -1.1424  0.4378 -0.6080
  596MPD2    H3 8892   0.514   4.436  16.607 -0.8930  0.4898  1.5509
  596MPD2     N 8893   0.721   4.706  16.323  0.4197  0.1466  1.3193
  596MPD2    H5 8894   0.726   4.631  16.255  1.8056  1.2697  0.1879
  596MPD2    N1 8895   0.536   0.129  16.742  0.7062  0.5729 -0.4730
  596MPD2    H7 8896   0.585   0.214  16.715  2.1552 -0.3294 -0.6364
  597TMC3    C1 8897   0.448   0.250  16.924 -0.4918 -0.3149  0.1528
  597TMC3    C2 8898   0.569   0.318  16.941 -0.6362 -0.3737 -0.8525
  597TMC3    C3 8899   0.564   0.430  17.024 -0.4390  0.7518  0.0707
  597TMC3    C4 8900   0.335   0.285  17.001  0.2558  0.0095 -0.1297
  597TMC3    C5 8901   0.346   0.399  17.075  0.4172 -0.1974 -0.3042
  597TMC3    C6 8902   0.452   0.480  17.081  0.4382  0.3217  0.3096
  597TMC3     C 8903   0.446   0.128  16.846 -0.4037  0.5435  0.3488
  597TMC3     O 8904   0.358   0.046  16.869 -0.1198  0.3160 -0.1943
  597TMC3     H 8905   0.662   0.279  16.901  0.7675  3.1326 -1.0045
  597TMC3    H1 8906   0.244   0.226  16.995  1.8174 -2.3571 -0.1907
  597TMC3    H2 8907   0.460   0.570  17.140 -1.7933  1.5906 -1.3235
  597TMC3    C7 8908   0.221   0.447  17.121  0.3210  0.5113 -0.2391
  597TMC3    C8 8909   0.681   0.514  17.032 -0.7782  0.0640  0.0100
  597TMC3    O1 8910   0.144   0.369  17.174 -1.0788 -0.0651  0.0374
  597TMC3    O2 8911   0.676   0.599  17.124  0.3010  0.0897 -0.5791
  598TMC3    C1 8912   3.772   1.642  15.206 -0.0625 -0.0130 -0.0492
  598TMC3    C2 8913   3.668   1.553  15.205  0.5636  0.5675  0.3764
  598TMC3    C3 8914   3.570   1.583  15.112  0.0623 -0.8074  0.0135
  598TMC3    C4 8915   3.799   1.740  15.112  0.5625 -0.2430 -0.0879
  598TMC3    C5 8916   3.695   1.768  15.021  0.8394 -0.1021  0.3999
  598TMC3    C6 8917   3.584   1.687  15.016 -0.0853  0.3949  0.0964
  598TMC3     C 8918   3.878   1.622  15.304 -1.1296  0.5445 -0.1399
  598TMC3     O 8919   3.987   1.655  15.269  0.6050 -0.1473  0.2072
  598TMC3     H 8920   3.664   1.471  15.275 -0.7167 -1.0018 -1.5243
  598TMC3    H1 8921   3.885   1.804  15.121  1.6826 -1.8122  0.3264
  598TMC3    H2 8922   3.512   1.701  14.936 -0.8716 -1.3506  0.4989
  598TMC3    C7 8923   3.735   1.808  14.892  0.6407 -0.2198  0.2546
  598TMC3    C8 8924   3.473   1.477  15.075 -0.2107  0.4613 -0.0905
  598TMC3    O1 8925   3.695   1.752  14.793 -0.5976  0.2930 -0.0534
  598TMC3    O2 8926   3.422   1.483  14.968  0.4981 -0.0711 -0.0302
  599MPD2     C 8927   3.749   4.051  15.786  0.0198  0.0853 -0.0694
  599MPD2    C1 8928   3.714   3.920  15.822  0.0478  0.6118 -0.2718
  599MPD2    C2 8929   3.614   3.905  15.914  0.3430  0.6094 -0.4616
  599MPD2    C3 8930   3.544   4.017  15.966  1.2721  0.5744 -0.7395
  599MPD2    C4 8931   3.576   4.143  15.920  0.0905 -0.0198 -0.4945
  599MPD2    C5 8932   3.671   4.157  15.827  0.3990  0.2837  0.6564
  599MPD2     H 8933   3.603   3.807  15.959  0.9893  0.7576  0.0138
  599MPD2    H1 8934   3.528   4.238  15.941  0.0662 -0.0099 -0.5950
  599MPD2    H2 8935   3.823   4.069  15.709 -0.8084 -1.9403 -1.3448
  599MPD2    H3 8936   3.693   4.260  15.804  0.1783  1.0053  3.6205
  599MPD2     N 8937   3.442   4.018  16.057 -0.3143 -0.0918  0.7537
  599MPD2    H5 8938   3.420   4.106  16.103 -3.9850  0.8902 -2.7862
  599MPD2    N1 8939   3.797   3.818  15.772 -0.0457 -0.3663 -0.0505
  599MPD2    H7 8940   3.882   3.846  15.725  0.7510  2.2494  2.9832
  600TMC3    C1 8941   3.331   3.901  16.243 -0.3173  0.3682  0.0073
  600TMC3    C2 8942   3.289   3.788  16.303  0.0971 -0.0333  0.4840
  600TMC3    C3 8943   3.263   3.785  16.438 -0.1332  0.1142 -0.6280
  600TMC3    C4 8944   3.349   4.015  16.323 -0.5298 -0.0090 -0.1057
  600TMC3    C5 8945   3.307   4.014  16.454  0.3232  0.1077 -0.5335
  600TMC3    C6 8946   3.256   3.901  16.516  0.4474 -0.4889  0.1016
  600TMC3     C 8947   3.386   3.897  16.103  0.1410 -0.2101  0.0460
  600TMC3     O 8948   3.380   3.799  16.031 -0.0386  0.4478  0.2814
  600TMC3     H 8949   3.307   3.693  16.254 -0.4315  0.1433 -0.0459
  600TMC3    H1 8950   3.379   4.106  16.273  1.5162 -1.6189 -1.7886
  600TMC3    H2 8951   3.242   3.898  16.623  1.5469  1.7961  0.3335
  600TMC3    C7 8952   3.269   4.141  16.517 -0.4861 -0.0555 -0.3149
  600TMC3    C8 8953   3.229   3.655  16.506 -0.0191  0.3327 -0.3491
  600TMC3    O1 8954   3.228   4.142  16.633  0.5306  0.1494 -0.9589
  600TMC3    O2 8955   3.252   3.654  16.627  0.2643 -0.3433 -0.1127
  601MPD2     C 8956   1.547   2.611  17.739 -0.2559 -0.4100  0.4234
  601MPD2    C1 8957   1.443   2.551   0.057  0.2329  0.3506 -0.2239
  601MPD2    C2 8958   1.467   2.424   0.108  0.4482  0.2064  0.1243
  601MPD2    C3 8959   1.595   2.362   0.094 -0.4620  0.3810 -0.4091
  601MPD2    C4 8960   1.691   2.425   0.022  0.1026 -0.4423  0.0946
  601MPD2    C5 8961   1.663   2.548  17.716 -0.2804  0.6974  0.0019
  601MPD2     H 8962   1.383   2.377   0.157  1.7262  1.0168  3.0432
  601MPD2    H1 8963   1.784   2.373  17.741 -1.1298 -2.2945 -0.7955
  601MPD2    H2 8964   1.533   2.703  17.683  1.5274  1.7083  3.4390
  601MPD2    H3 8965   1.751   2.581  17.661  0.7233  0.5137  1.4890
  601MPD2     N 8966   1.619   2.233   0.152  0.0206  0.6901 -0.0509
  601MPD2    H5 8967   1.713   2.196   0.152  0.0683  0.7860 -1.5024
  601MPD2    N1 8968   1.309   2.593   0.054 -0.4030 -0.3464  0.4274
  601MPD2    H7 8969   1.235   2.536   0.092  0.2512 -1.7128 -0.3339
  602TMC3    C1 8970   1.126   2.730  17.736  0.2399  0.0524 -0.5523
  602TMC3    C2 8971   1.084   2.863  17.727  0.1668  0.4443  0.3065
  602TMC3    C3 8972   0.954   2.889   0.005 -0.2259 -0.4002  0.0470
  602TMC3    C4 8973   1.040   2.623   0.013  0.6139 -0.6035 -0.0346
  602TMC3    C5 8974   0.912   2.657   0.026 -0.4465 -0.2706 -0.4861
  602TMC3    C6 8975   0.861   2.789   0.021 -0.2807  0.6743 -0.0682
  602TMC3     C 8976   1.269   2.719   0.009 -0.3042 -0.7272 -0.2572
  602TMC3     O 8977   1.339   2.813  17.718  0.1873  0.2757 -0.3650
  602TMC3     H 8978   1.149   2.948  17.707 -1.0578  1.1483 -0.7042
  602TMC3    H1 8979   1.073   2.519   0.007 -0.0266 -0.6702 -2.1864
  602TMC3    H2 8980   0.756   2.800   0.046  0.6163  2.7118  2.8477
  602TMC3    C7 8981   0.813   2.549   0.004 -0.0517 -0.1176 -0.2769
  602TMC3    C8 8982   0.900   3.019  17.700  0.1252 -0.4969  0.4363
  602TMC3    O1 8983   0.851   2.433   0.011 -0.7216 -0.1283  0.1668
  602TMC3    O2 8984   0.957   3.120   0.002  0.0208  0.2245  0.0589
  603TMC3    C1 8985   4.700   2.023  10.827 -0.6892  0.7440 -0.0339
  603TMC3    C2 8986   4.711   2.032  10.966  0.0852  0.6231  0.7449
  603TMC3    C3 8987   4.722   2.153  11.031 -0.0862  0.4267 -0.1413
  603TMC3    C4 8988   4.700   2.137  10.758 -0.7252 -0.4279  0.5678
  603TMC3    C5 8989   4.708   2.255  10.825  0.3851 -0.1486 -0.4111
  603TMC3    C6 8990   4.722   2.267  10.959  0.0681  0.2329 -1.1624
  603TMC3     C 8991   4.717   1.894  10.770 -0.4903  0.7502 -0.0385
  603TMC3     O 8992   0.034   1.810  10.842  0.2615  0.4929  0.1863
  603TMC3     H 8993   4.711   1.940  11.022 -1.7135  0.2441  0.1342
  603TMC3    H1 8994   4.704   2.140  10.650  0.0703  0.8327  0.6237
  603TMC3    H2 8995   4.710   2.362  11.010  3.2981  0.5662 -1.0200
  603TMC3    C7 8996   4.654   2.367  10.757 -0.0398  0.0228 -0.3882
  603TMC3    C8 8997   4.727   2.136  11.173  0.4618 -0.3752  0.0117
  603TMC3    O1 8998   4.689   2.477  10.800 -0.3125  0.2218  0.1348
  603TMC3    O2 8999   4.681   2.030  11.212 -0.2283  0.3282 -0.0342
  604MPD2     C 9000   4.412   0.976  16.175 -0.1481  0.5845  0.0670
  604MPD2    C1 9001   4.366   1.089  16.115  0.1067  0.3276  0.3633
  604MPD2    C2 9002   4.426   1.138  15.996  0.1383 -0.2188  0.2955
  604MPD2    C3 9003   4.531   1.068  15.935  0.8837  0.3742 -0.5548
  604MPD2    C4 9004   4.569   0.951  15.996  0.0978  0.0076  0.8058
  604MPD2    C5 9005   4.514   0.903  16.114 -0.4450 -0.5072  0.4740
  604MPD2     H 9006   4.401   1.235  15.954 -1.5561 -1.9964 -2.8081
  604MPD2    H1 9007   4.653   0.888  15.970  0.0556  0.3239 -0.1201
  604MPD2    H2 9008   4.360   0.945  16.265 -0.1636 -0.3006 -0.2503
  604MPD2    H3 9009   4.558   0.808  16.145 -0.7760 -1.2298 -1.2366
  604MPD2     N 9010   4.594   1.132  15.830  0.0478 -0.7474 -0.5248
  604MPD2    H5 9011   4.558   1.221  15.798  2.7758  0.4263 -0.3841
  604MPD2    N1 9012   4.269   1.168  16.183 -1.0617  0.1714 -0.8613
  604MPD2    H7 9013   4.255   1.159  16.283  0.2994 -1.1379 -0.7872
  605TMC3    C1 9014   4.144   1.366  16.234  1.0508 -0.4141 -0.1680
  605TMC3    C2 9015   4.209   1.374  16.356  0.9867 -0.6934 -0.2702
  605TMC3    C3 9016   4.183   1.472  16.441 -0.5872  0.3009 -0.0592
  605TMC3    C4 9017   4.070   1.468  16.191  0.5835 -0.3489 -0.4797
  605TMC3    C5 9018   4.047   1.570  16.279  0.0681  0.1632  0.0705
  605TMC3    C6 9019   4.103   1.577  16.403  0.5620 -0.4337 -0.1532
  605TMC3     C 9020   4.209   1.287  16.134 -0.5447 -0.3884 -0.3481
  605TMC3     O 9021   4.194   1.316  16.015 -0.6267  0.2918  0.1286
  605TMC3     H 9022   4.264   1.288  16.392  2.0409 -0.0523 -0.3369
  605TMC3    H1 9023   4.020   1.471  16.095  2.4483 -0.3405 -1.4566
  605TMC3    H2 9024   4.069   1.651  16.474  1.9920 -0.2568  0.3340
  605TMC3    C7 9025   3.975   1.689  16.237  0.3830 -0.7143  0.5081
  605TMC3    C8 9026   4.281   1.483  16.547  0.3173  0.6009  0.0996
  605TMC3    O1 9027   3.964   1.781  16.318 -0.7774  0.0515  0.4404
  605TMC3    O2 9028   4.358   1.390  16.573 -0.1813  0.2196 -0.0743
  606TMC3    C1 9029   0.802   4.546  16.854 -0.9493 -0.1630 -0.1472
  606TMC3    C2 9030   0.793   4.648  16.944  0.6685  1.0233 -0.2113
  606TMC3    C3 9031   0.703   4.639  17.045 -0.1653 -0.3306  0.9967
  606TMC3    C4 9032   0.724   4.434  16.855  0.4944  1.0014 -0.4883
  606TMC3    C5 9033   0.626   4.435  16.948  0.8004 -0.1574  0.0453
  606TMC3    C6 9034   0.620   4.530  17.055  0.6740  0.3691  0.2847
  606TMC3     C 9035   0.862   4.592  16.733 -0.1430 -0.3843  0.2562
  606TMC3     O 9036   0.891   4.712  16.719 -0.3283 -0.5182  0.1485
  606TMC3     H 9037   0.861   4.733  16.941  3.1548 -0.9626 -0.0171
  606TMC3    H1 9038   0.720   4.364  16.773  0.0213 -0.5998  0.9179
  606TMC3    H2 9039   0.553   4.521  17.140 -0.7146 -0.0030 -0.8479
  606TMC3    C7 9040   0.561   4.306  16.970  0.0310  0.8236  0.4731
  606TMC3    C8 9041   0.758   4.688  17.174 -0.5775 -0.1489  0.3264
  606TMC3    O1 9042   0.617   4.207  16.930  0.0513  0.4462  0.1468
  606TMC3    O2 9043   0.865   0.011  17.183  0.6373 -0.0293  0.2262
  607MPD2     C 9044   3.398   2.570  11.237 -0.1987 -0.4594 -0.2132
  607MPD2    C1 9045   3.462   2.660  11.322 -0.5211 -0.4808  0.0189
  607MPD2    C2 9046   3.451   2.642  11.462 -0.5541  0.0453  0.8803
  607MPD2    C3 9047   3.387   2.532  11.515 -0.0000  0.2687 -0.4083
  607MPD2    C4 9048   3.329   2.443  11.425  0.0235 -0.3018 -0.1701
  607MPD2    C5 9049   3.321   2.470  11.291 -0.1334  0.0277  0.2243
  607MPD2     H 9050   3.501   2.703  11.536  0.3029 -0.6352  0.8625
  607MPD2    H1 9051   3.271   2.357  11.456 -0.0421 -0.0067  0.5220
  607MPD2    H2 9052   3.408   2.581  11.129 -1.6066 -1.8477 -0.4938
  607MPD2    H3 9053   3.254   2.404  11.236 -1.6749 -0.0044  2.1363
  607MPD2     N 9054   3.400   2.505  11.651  0.8980  0.2741 -0.1458
  607MPD2    H5 9055   3.459   2.569  11.703  0.2978  0.4126  0.3624
  607MPD2    N1 9056   3.565   2.751  11.291  0.0936 -0.0077 -0.0352
  607MPD2    H7 9057   3.627   2.777  11.367  1.7115  1.5160 -1.8959
  608TMC3    C1 9058   3.723   2.880  11.189  0.0291 -0.2148 -0.5465
  608TMC3    C2 9059   3.744   2.941  11.307 -0.4819  0.0654 -0.4722
  608TMC3    C3 9060   3.849   3.022  11.318  0.1141  0.4050 -0.0836
  608TMC3    C4 9061   3.814   2.891  11.086 -0.0959  0.1860  0.3302
  608TMC3    C5 9062   3.929   2.959  11.106 -1.3319 -0.3360 -0.4066
  608TMC3    C6 9063   3.945   3.034  11.221  0.3492 -0.2784 -0.1276
  608TMC3     C 9064   3.609   2.797  11.166 -0.0289 -0.0249  0.0475
  608TMC3     O 9065   3.575   2.765  11.052  0.4472  0.4871  0.5583
  608TMC3     H 9066   3.661   2.950  11.376 -0.5324  0.3636 -0.5684
  608TMC3    H1 9067   3.801   2.839  10.992 -2.7760 -0.6239  1.1573
  608TMC3    H2 9068   4.036   3.092  11.236 -0.4196  0.9414 -0.2275
  608TMC3    C7 9069   4.029   2.962  10.998  0.1338  0.3131 -0.0667
  608TMC3    C8 9070   3.873   3.076  11.449  0.1340 -1.0749 -0.5042
  608TMC3    O1 9071   3.985   2.920  10.891  0.2162 -0.6767 -0.1967
  608TMC3    O2 9072   3.930   3.187  11.465  0.1546 -0.1537  0.6220
  609TMC3    C1 9073   1.972   1.887   8.950 -0.4573  0.2930  0.7111
  609TMC3    C2 9074   1.909   1.914   8.838  0.7981  0.1429  0.1374
  609TMC3    C3 9075   1.907   1.823   8.731  0.7191 -0.0125 -0.3785
  609TMC3    C4 9076   2.037   1.768   8.967 -0.0699  0.0033 -0.6281
  609TMC3    C5 9077   2.026   1.678   8.864 -0.1992  0.0717  0.4441
  609TMC3    C6 9078   1.957   1.694   8.753 -0.1116  0.3814 -0.6363
  609TMC3     C 9079   1.979   1.985   9.053 -0.2123 -0.8325  0.6456
  609TMC3     O 9080   2.068   1.974   9.141  0.2737 -0.3556  0.8128
  609TMC3     H 9081   1.875   2.014   8.811  0.7344  0.0810 -0.0090
  609TMC3    H1 9082   2.100   1.743   9.052 -0.1327 -0.2467 -0.6553
  609TMC3    H2 9083   1.959   1.625   8.670  0.1190 -0.0441 -0.2735
  609TMC3    C7 9084   2.118   1.568   8.870 -0.3780 -0.0267  0.4000
  609TMC3    C8 9085   1.812   1.849   8.625  0.9766 -0.6134  0.4334
  609TMC3    O1 9086   2.232   1.607   8.886 -0.4997 -0.1423 -0.4574
  609TMC3    O2 9087   1.729   1.934   8.648  0.2337  0.1564  0.1402
  610TMC3    C1 9088   3.088   2.195  12.604 -0.4378 -0.4434  0.2796
  610TMC3    C2 9089   3.154   2.311  12.583 -0.7845 -0.0849 -0.2670
  610TMC3    C3 9090   3.220   2.364  12.679 -0.1340  0.8604 -0.4639
  610TMC3    C4 9091   3.100   2.119  12.717 -0.6392  0.2208 -0.2143
  610TMC3    C5 9092   3.190   2.168  12.806 -0.0978  0.6174 -0.0339
  610TMC3    C6 9093   3.246   2.292  12.790 -0.6114 -0.4766 -0.2427
  610TMC3     C 9094   3.015   2.141  12.496  0.0507 -0.3964  0.5675
  610TMC3     O 9095   3.033   2.178  12.382  0.2625  0.4345 -0.3830
  610TMC3     H 9096   3.146   2.357  12.485 -2.5708 -0.4957 -0.3316
  610TMC3    H1 9097   3.068   2.016  12.718  2.0639 -0.6395  0.1654
  610TMC3    H2 9098   3.302   2.340  12.869  0.0613  0.9013 -1.5532
  610TMC3    C7 9099   3.247   2.078  12.908  0.3328  0.6154 -0.1149
  610TMC3    C8 9100   3.294   2.491  12.655 -0.0331 -0.4992 -0.1308
  610TMC3    O1 9101   3.331   2.131  12.978 -0.2628 -0.3812 -0.0262
  610TMC3    O2 9102   3.313   2.514  12.535 -0.0179  0.0004  0.1727
  611MPD2     C 9103   3.172   2.415  10.694  0.5647 -0.3282  0.4938
  611MPD2    C1 9104   3.163   2.385  10.558  0.6059  0.1288 -0.0149
  611MPD2    C2 9105   3.284   2.399  10.486  0.3214  0.9904 -0.8134
  611MPD2    C3 9106   3.406   2.417  10.551  1.0380 -0.7463  1.0256
  611MPD2    C4 9107   3.405   2.433  10.689  0.1371 -0.2410  1.2631
  611MPD2    C5 9108   3.290   2.436  10.764 -0.0767  0.2814  0.4295
  611MPD2     H 9109   3.277   2.382  10.379  0.8574 -2.3691 -0.3229
  611MPD2    H1 9110   3.499   2.441  10.743 -0.6913  2.9436  2.2579
  611MPD2    H2 9111   3.084   2.401  10.756  1.6129 -0.6867  1.8741
  611MPD2    H3 9112   3.292   2.442  10.872  1.0927 -0.1427  0.4285
  611MPD2     N 9113   3.533   2.416  10.483  0.0832 -0.0692 -0.0961
  611MPD2    H5 9114   3.613   2.423  10.546 -0.5399 -1.6111  0.8561
  611MPD2    N1 9115   3.054   2.325  10.503  0.3998 -0.6035 -0.6681
  611MPD2    H7 9116   2.977   2.322  10.569  2.3417  0.8425  1.6665
  612TMC3    C1 9117   3.689   2.371  10.313 -0.5501  0.1425 -0.7671
  612TMC3    C2 9118   3.786   2.431  10.393 -0.0651  1.0806  1.0112
  612TMC3    C3 9119   3.915   2.391  10.388 -0.2187  0.3348  0.5423
  612TMC3    C4 9120   3.725   2.278  10.212 -0.2488  0.3253 -0.1865
  612TMC3    C5 9121   3.859   2.242  10.207 -0.2159  0.0245  0.2537
  612TMC3    C6 9122   3.954   2.294  10.290 -0.4536  0.2513 -0.3820
  612TMC3     C 9123   3.553   2.382  10.351  0.1425 -0.2407  1.1162
  612TMC3     O 9124   3.473   2.329  10.273 -0.3960 -0.3857  0.1206
  612TMC3     H 9125   3.756   2.517  10.451 -2.3356  1.0032 -0.0154
  612TMC3    H1 9126   3.656   2.209  10.164 -0.9834  1.2537 -0.4696
  612TMC3    H2 9127   4.058   2.273  10.269 -0.5141 -0.6924  0.2564
  612TMC3    C7 9128   3.894   2.110  10.158  0.0252  0.1609  0.4097
  612TMC3    C8 9129   4.015   2.477  10.442 -0.0151  0.5944 -0.2744
  612TMC3    O1 9130   3.996   2.064  10.209 -0.3521 -0.3476  0.0897
  612TMC3    O2 9131   3.990   2.595  10.456 -0.3106 -0.7240 -0.2538
  613MPD2     C 9132   2.194   0.022  16.779  0.0267  0.5355  0.8135
  613MPD2    C1 9133   2.153   0.119  16.698  0.8396  0.6531  0.1252
  613MPD2    C2 9134   2.072   0.089  16.590 -0.0929 -0.2189 -0.2033
  613MPD2    C3 9135   2.033   4.691  16.572  0.2462  0.1142  0.0574
  613MPD2    C4 9136   2.074   4.596  16.661  0.2100 -0.7908  0.7142
  613MPD2    C5 9137   2.157   4.624  16.769  0.1829  0.2514 -0.6517
  613MPD2     H 9138   2.040   0.170  16.525  0.2176 -0.8131 -1.1051
  613MPD2    H1 9139   2.047   4.491  16.649  1.1224 -0.7681 -1.5890
  613MPD2    H2 9140   2.270   0.041  16.855  1.5804 -1.9318 -0.1221
  613MPD2    H3 9141   2.192   4.546  16.836  0.0239 -1.0413 -2.0728
  613MPD2     N 9142   1.977   4.640  16.458  0.2687 -0.3733 -0.5696
  613MPD2    H5 9143   1.985   4.539  16.449  0.3504 -0.5911  1.8157
  613MPD2    N1 9144   2.195   0.250  16.732 -0.5033  0.6677 -0.3239
  613MPD2    H7 9145   2.221   0.266  16.828  0.4178 -2.7139  0.0034
  614TMC3    C1 9146   2.194   0.359  16.514  0.4587 -0.0936 -0.0825
  614TMC3    C2 9147   2.260   0.258  16.445 -0.1015 -0.4046  0.8620
  614TMC3    C3 9148   2.269   0.266  16.308 -0.0959  0.3080 -0.2788
  614TMC3    C4 9149   2.139   0.459  16.436  0.2898  0.4899  0.0637
  614TMC3    C5 9150   2.141   0.463  16.299  0.6996  0.2905  0.2910
  614TMC3    C6 9151   2.218   0.369  16.230  0.1176  0.0201  0.3652
  614TMC3     C 9152   2.179   0.368  16.656 -0.1668 -0.5837  0.5803
  614TMC3     O 9153   2.162   0.480  16.700 -0.1513 -0.4073 -0.0321
  614TMC3     H 9154   2.330   0.194  16.497 -1.3226 -1.2108  1.5058
  614TMC3    H1 9155   2.076   0.534  16.482 -1.1647  0.1126 -1.3110
  614TMC3    H2 9156   2.226   0.369  16.122 -0.4407 -2.8430  0.3040
  614TMC3    C7 9157   2.085   0.577  16.239  0.0251 -0.0104 -1.1144
  614TMC3    C8 9158   2.295   0.134  16.244 -0.6702  0.2269  0.2342
  614TMC3    O1 9159   2.062   0.679  16.308 -0.3442  0.1835 -0.2119
  614TMC3    O2 9160   2.272   0.035  16.318 -0.6117 -0.2195  0.5415
  615MPD2     C 9161   1.987   1.452  16.310 -0.5682  0.6677 -0.1601
  615MPD2    C1 9162   1.868   1.527  16.301  0.4661 -0.7959  0.0847
  615MPD2    C2 9163   1.798   1.528  16.177  0.2224 -0.8810  0.1994
  615MPD2    C3 9164   1.849   1.477  16.064  0.6769  0.3736  0.0196
  615MPD2    C4 9165   1.974   1.412  16.073 -0.4560 -0.1126 -0.1824
  615MPD2    C5 9166   2.042   1.404  16.193  0.2144  0.4415 -0.4323
  615MPD2     H 9167   1.706   1.584  16.170  1.0383  0.4752  0.2581
  615MPD2    H1 9168   2.022   1.366  15.988  0.2407 -2.2911  1.3853
  615MPD2    H2 9169   2.048   1.436  16.398  1.1137 -1.1057 -1.6531
  615MPD2    H3 9170   2.140   1.359  16.204 -0.3328 -0.9966 -1.3525
  615MPD2     N 9171   1.788   1.498  15.935  0.3003  0.1551 -0.2680
  615MPD2    H5 9172   1.845   1.481  15.853  0.4698 -3.0277  0.5181
  615MPD2    N1 9173   1.815   1.599  16.408 -0.7981 -0.3985 -0.5976
  615MPD2    H7 9174   1.724   1.643  16.397 -0.4929  0.2069 -0.6802
  616TMC3    C1 9175   1.843   1.765  16.565  0.0883  0.0054 -0.0421
  616TMC3    C2 9176   1.931   1.864  16.527  0.5825  0.8292 -0.1114
  616TMC3    C3 9177   1.879   1.986  16.531  0.3825  0.8532 -0.2917
  616TMC3    C4 9178   1.704   1.781  16.569  0.2960  0.4206  0.4117
  616TMC3    C5 9179   1.665   1.910  16.570  0.1327 -0.5360  0.7911
  616TMC3    C6 9180   1.752   2.016  16.557  0.7674  0.2130 -0.7814
  616TMC3     C 9181   1.894   1.636  16.515  0.5685  0.7972  0.6363
  616TMC3     O 9182   2.013   1.608  16.539 -0.1416  0.0363  0.5342
  616TMC3     H 9183   2.028   1.841  16.485 -0.1253 -1.9674 -0.2484
  616TMC3    H1 9184   1.652   1.701  16.621  0.5208 -0.3919 -0.6175
  616TMC3    H2 9185   1.720   2.119  16.560  0.6119  0.1811 -1.3328
  616TMC3    C7 9186   1.529   1.934  16.613 -0.0628  0.6292 -0.1485
  616TMC3    C8 9187   1.968   2.090  16.471  0.5926 -0.4694 -0.5981
  616TMC3    O1 9188   1.507   2.042  16.662  0.9461  0.1265 -0.4695
  616TMC3    O2 9189   1.907   2.188  16.427 -0.2925  0.2720 -0.4094
  617MPD2     C 9190   4.611   4.576  13.230  0.2327 -0.4183 -0.2512
  617MPD2    C1 9191   4.602   4.542  13.360 -1.0424 -0.0223 -0.6884
  617MPD2    C2 9192   4.483   4.476  13.401 -0.1431 -0.6716  0.6563
  617MPD2    C3 9193   4.379   4.455  13.309 -0.1548  0.0625  0.6565
  617MPD2    C4 9194   4.394   4.502  13.180 -0.2188 -0.3321  0.6330
  617MPD2    C5 9195   4.510   4.561  13.141  0.3185 -0.5096  0.4092
  617MPD2     H 9196   4.480   4.435  13.501 -1.6689 -1.8454  0.1126
  617MPD2    H1 9197   4.315   4.496  13.106 -1.5179 -1.0543  2.0806
  617MPD2    H2 9198   4.706   4.619  13.201  0.9864 -0.5541  2.0764
  617MPD2    H3 9199   4.512   4.608  13.043 -1.5033  1.8654  1.4945
  617MPD2     N 9200   4.263   4.378  13.351  0.0581  0.1420 -0.2618
  617MPD2    H5 9201   4.246   4.371  13.451  0.1841 -1.9223 -0.3890
  617MPD2    N1 9202   4.716   4.563  13.440  0.2537  0.3197  0.2621
  617MPD2    H7 9203   0.061   4.607  13.396 -0.1724 -2.8798 -3.7037
  618TMC3    C1 9204   0.104   4.604  13.640  0.4585  0.1262  0.1356
  618TMC3    C2 9205   0.139   4.559  13.761  0.5473 -0.5088  1.1287
  618TMC3    C3 9206   0.270   4.560  13.805 -0.1790  0.4640 -0.2059
  618TMC3    C4 9207   0.194   4.665  13.560 -0.0923 -0.2753  0.5848
  618TMC3    C5 9208   0.316   4.678  13.613 -0.4141  0.3445 -0.7648
  618TMC3    C6 9209   0.365   4.618  13.723  0.2867  0.1833  0.2837
  618TMC3     C 9210   4.716   4.552  13.575 -0.0158 -0.2966 -0.4785
  618TMC3     O 9211   4.639   4.499  13.650 -0.0033  0.1138  0.4781
  618TMC3     H 9212   0.061   4.521  13.826 -1.3240 -1.8835 -1.9129
  618TMC3    H1 9213   0.166   4.728  13.477 -0.1180 -1.0607 -0.0009
  618TMC3    H2 9214   0.459   4.651  13.765  0.6461 -1.1324  0.4980
  618TMC3    C7 9215   0.392   0.044  13.543 -0.4444 -0.4345 -0.6583
  618TMC3    C8 9216   0.316   4.453  13.892  0.4194 -0.1330  0.0273
  618TMC3    O1 9217   0.331   0.150  13.522 -0.5490  0.2646 -0.2522
  618TMC3    O2 9218   0.233   4.413  13.973 -0.0440 -0.0135  0.0845
  619MPD2     C 9219   1.330   1.335  13.509 -0.1509  0.0998  0.4587
  619MPD2    C1 9220   1.285   1.377  13.386  0.5833 -0.3365 -0.1468
  619MPD2    C2 9221   1.189   1.307  13.314  0.0327  0.3542  0.5107
  619MPD2    C3 9222   1.137   1.189  13.365 -0.0422 -0.0094 -0.1644
  619MPD2    C4 9223   1.175   1.149  13.493  0.6760  0.2911 -0.0596
  619MPD2    C5 9224   1.264   1.229  13.562  0.2141 -0.3052  0.1172
  619MPD2     H 9225   1.163   1.346  13.217  0.6883  1.6514  0.8611
  619MPD2    H1 9226   1.133   1.065  13.548  0.2246  0.1034 -0.6943
  619MPD2    H2 9227   1.400   1.383  13.577 -0.2659  4.2397 -2.3160
  619MPD2    H3 9228   1.291   1.189  13.659 -0.1468  2.3940  1.3400
  619MPD2     N 9229   1.035   1.116  13.299 -0.1629  0.0906  0.5287
  619MPD2    H5 9230   0.979   1.050  13.352  0.6093  0.4920  1.8639
  619MPD2    N1 9231   1.317   1.502  13.336 -0.1585 -0.4446  0.7518
  619MPD2    H7 9232   1.276   1.524  13.246  1.7554 -2.0130 -0.5211
  620TMC3    C1 9233   1.399   1.728  13.344 -0.4971  0.3450 -0.1149
  620TMC3    C2 9234   1.334   1.753  13.222  0.1486  0.4240  0.2906
  620TMC3    C3 9235   1.282   1.875  13.199  0.3386 -0.1700 -0.4571
  620TMC3    C4 9236   1.406   1.816  13.444 -0.1422  0.2133 -0.5323
  620TMC3    C5 9237   1.350   1.937  13.421 -0.7866  0.8844 -0.1434
  620TMC3    C6 9238   1.287   1.963  13.302  0.0554  0.2536  0.0084
  620TMC3     C 9239   1.405   1.585  13.397 -0.5319  0.2034  0.4712
  620TMC3     O 9240   1.466   1.578  13.500  0.2985 -0.0414 -0.7751
  620TMC3     H 9241   1.332   1.671  13.152  2.0862  0.9692 -0.4000
  620TMC3    H1 9242   1.458   1.808  13.538  2.3095  0.7088 -1.8311
  620TMC3    H2 9243   1.238   2.058  13.284 -0.8057 -0.4712 -1.4922
  620TMC3    C7 9244   1.274   1.980  13.534  0.1307  0.3284 -0.3069
  620TMC3    C8 9245   1.144   1.854  13.178 -0.1818  0.5965  0.1118
  620TMC3    O1 9246   1.329   1.978  13.642  0.2275 -0.5854  0.2604
  620TMC3    O2 9247   1.065   1.915  13.253 -0.2484  0.5279 -0.0980
  621MPD2     C 9248   1.670   1.816   9.569  0.1067  0.2632  0.0522
  621MPD2    C1 9249   1.744   1.713   9.626 -0.1761  0.0694 -0.8774
  621MPD2    C2 9250   1.882   1.723   9.632  0.6695 -0.6167 -0.6426
  621MPD2    C3 9251   1.939   1.851   9.603  0.1422 -0.3043 -0.1935
  621MPD2    C4 9252   1.863   1.959   9.558  0.0004  0.8579 -0.3732
  621MPD2    C5 9253   1.725   1.944   9.545  1.0766  0.2038  0.0369
  621MPD2     H 9254   1.946   1.638   9.651  1.4417  0.1219  0.0632
  621MPD2    H1 9255   1.916   2.053   9.550 -0.2998  1.1924  1.4259
  621MPD2    H2 9256   1.565   1.806   9.544  0.1756  0.2642 -0.2370
  621MPD2    H3 9257   1.676   2.037   9.519 -1.5088 -0.9467  0.8457
  621MPD2     N 9258   2.080   1.862   9.604 -0.0431 -0.1735 -0.5839
  621MPD2    H5 9259   2.115   1.785   9.660 -0.7150 -0.9580 -1.2490
  621MPD2    N1 9260   1.690   1.580   9.638  0.6152 -0.0094  0.1110
  621MPD2    H7 9261   1.756   1.510   9.669  1.0198 -0.7547 -2.3886
  622TMC3    C1 9262   1.515   1.428   9.671 -0.8756  0.1486 -0.1562
  622TMC3    C2 9263   1.573   1.363   9.781 -0.0793  0.3455 -0.1534
  622TMC3    C3 9264   1.516   1.242   9.814 -0.2174  0.0281 -0.2553
  622TMC3    C4 9265   1.410   1.368   9.603 -0.3891 -0.1142 -0.0717
  622TMC3    C5 9266   1.359   1.252   9.649  0.9036 -0.1323 -0.1043
  622TMC3    C6 9267   1.413   1.185   9.751  0.6667  0.0889  0.1941
  622TMC3     C 9268   1.559   1.546   9.610 -0.1228 -0.8736  0.2147
  622TMC3     O 9269   1.468   1.604   9.549 -0.1808 -0.3114  0.6282
  622TMC3     H 9270   1.650   1.412   9.840  0.1952 -1.3041  0.8903
  622TMC3    H1 9271   1.360   1.417   9.520 -0.5178  0.5583  0.4014
  622TMC3    H2 9272   1.374   1.091   9.790  0.0712 -0.3841 -1.5355
  622TMC3    C7 9273   1.274   1.173   9.557 -0.3348  0.7219 -0.0379
  622TMC3    C8 9274   1.553   1.186   9.935 -0.2371 -0.2295  0.0059
  622TMC3    O1 9275   1.272   1.053   9.576 -0.5346 -0.2700 -0.0348
  622TMC3    O2 9276   1.568   1.065   9.950  0.0325 -0.5386 -0.6813
  623MPD2     C 9277   0.124   1.819  15.708 -0.4386  0.0628  0.2595
  623MPD2    C1 9278   0.048   1.728  15.779 -0.3516  0.9644 -0.6704
  623MPD2    C2 9279   0.093   1.675  15.895  0.0653  0.2677 -1.1020
  623MPD2    C3 9280   0.222   1.703  15.935 -0.2851 -0.0364 -0.5251
  623MPD2    C4 9281   0.296   1.804  15.872  0.0652  0.5845 -0.4737
  623MPD2    C5 9282   0.247   1.855  15.756 -0.7699 -0.3755 -0.2011
  623MPD2     H 9283   0.030   1.619  15.964  1.5308 -0.9771 -0.7751
  623MPD2    H1 9284   0.396   1.838  15.895 -0.2079  0.4696  0.8671
  623MPD2    H2 9285   0.106   1.865  15.612  0.7376 -4.0175 -1.9052
  623MPD2    H3 9286   0.302   1.928  15.699  1.0542 -0.5401  1.3246
  623MPD2     N 9287   0.261   1.638  16.055  0.6059 -0.2074 -0.9100
  623MPD2    H5 9288   0.195   1.565  16.083 -1.9736  1.8747 -1.4945
  623MPD2    N1 9289   4.645   1.706  15.747  0.3073  0.2274  0.6484
  623MPD2    H7 9290   4.588   1.639  15.798  0.4854 -0.8132 -0.5180
  624TMC3    C1 9291   0.431   1.663  16.486 -0.6060  0.4303 -0.2468
  624TMC3    C2 9292   0.322   1.604  16.538 -0.3601 -0.2796 -0.6722
  624TMC3    C3 9293   0.228   1.554  16.452  0.0948 -0.4645  0.4833
  624TMC3    C4 9294   0.455   1.673  16.353  0.0949 -0.5763  0.5559
  624TMC3    C5 9295   0.364   1.613  16.266 -0.1660  0.7436  0.1474
  624TMC3    C6 9296   0.248   1.551  16.316  0.0608  0.0561 -0.4483
  624TMC3     C 9297   0.545   1.663  16.575 -0.6109 -0.2593  0.1419
  624TMC3     O 9298   0.636   1.743  16.551 -0.3622 -0.0765 -0.3140
  624TMC3     H 9299   0.306   1.596  16.645  1.5370  0.4445 -0.3288
  624TMC3    H1 9300   0.546   1.718  16.316 -1.3201  2.1482  0.3851
  624TMC3    H2 9301   0.153   1.542  16.264 -0.3415 -0.6739  0.4205
  624TMC3    C7 9302   0.363   1.677  16.132  0.2552 -0.1006 -0.7241
  624TMC3    C8 9303   0.091   1.547  16.496  0.1743 -0.0219  0.6134
  624TMC3    O1 9304   0.447   1.761  16.108 -0.3665 -0.1447 -0.2354
  624TMC3    O2 9305   0.016   1.467  16.445  0.8033  0.4614 -0.1965
  625MPD2     C 9306   0.602   3.083   0.664 -0.4243  0.3642  0.2096
  625MPD2    C1 9307   0.654   3.204   0.704 -0.1916 -0.0337 -0.0929
  625MPD2    C2 9308   0.778   3.216   0.756  0.2074 -1.0160 -0.3445
  625MPD2    C3 9309   0.857   3.108   0.780 -0.4935  0.2560 -0.4029
  625MPD2    C4 9310   0.803   2.983   0.739 -0.2303  0.8303  0.6020
  625MPD2    C5 9311   0.680   2.973   0.686  0.7239  0.3946  0.2531
  625MPD2     H 9312   0.814   3.315   0.784  0.2810 -1.3295  0.6808
  625MPD2    H1 9313   0.860   2.892   0.756  0.8649  1.6280  1.2378
  625MPD2    H2 9314   0.504   3.062   0.621 -0.1256 -3.4789  1.3773
  625MPD2    H3 9315   0.637   2.876   0.663 -2.9072  1.6444  1.7217
  625MPD2     N 9316   0.990   3.126   0.826 -0.0537 -0.0521 -0.3157
  625MPD2    H5 9317   1.021   3.222   0.826  1.1001 -0.4121  1.4724
  625MPD2    N1 9318   0.585   3.324   0.695 -0.1337  0.5786  0.9021
  625MPD2    H7 9319   0.632   3.402   0.738 -1.5295  2.6446 -1.2930
  626TMC3    C1 9320   0.407   3.467   0.653 -0.6349  0.4615  0.4634
  626TMC3    C2 9321   0.324   3.506   0.549 -0.0422 -0.0001  0.3603
  626TMC3    C3 9322   0.230   3.610   0.570  0.5323 -0.0186  0.2812
  626TMC3    C4 9323   0.394   3.522   0.778  0.3538 -0.6647 -0.2244
  626TMC3    C5 9324   0.314   3.629   0.796 -0.1154  0.1629  0.4180
  626TMC3    C6 9325   0.230   3.671   0.696 -0.0749  0.1400  0.3521
  626TMC3     C 9326   0.466   3.338   0.634  0.6590  0.1775  0.2413
  626TMC3     O 9327   0.415   3.271   0.548 -0.3616  0.3493 -0.3280
  626TMC3     H 9328   0.338   3.470   0.448  0.6072 -0.3024  0.5591
  626TMC3    H1 9329   0.466   3.491   0.853 -0.6312 -0.1037  0.9389
  626TMC3    H2 9330   0.178   3.766   0.701 -2.2061 -1.0028 -0.3450
  626TMC3    C7 9331   0.307   3.696   0.928  0.1544 -0.1013 -0.0455
  626TMC3    C8 9332   0.167   3.679   0.454  0.1083  0.3914  0.2891
  626TMC3    O1 9333   0.394   3.674   1.010  0.0526  0.3446 -0.8164
  626TMC3    O2 9334   0.206   3.647   0.339  0.3421 -0.2656 -0.2070
  627MPD2     C 9335   3.448   3.278  13.910  0.0541  0.6414  0.1697
  627MPD2    C1 9336   3.502   3.243  14.026 -0.2939 -0.5935 -0.3269
  627MPD2    C2 9337   3.463   3.127  14.091 -0.0923  0.4591  0.1866
  627MPD2    C3 9338   3.377   3.040  14.030 -1.4460  0.3554  0.1506
  627MPD2    C4 9339   3.315   3.086  13.914 -0.7071 -0.5448 -0.3294
  627MPD2    C5 9340   3.345   3.206  13.858  0.9307 -0.3951 -0.1302
  627MPD2     H 9341   3.501   3.099  14.189  1.0477  2.2063  0.2415
  627MPD2    H1 9342   3.238   3.027  13.867  1.0816 -3.3668  0.3201
  627MPD2    H2 9343   3.490   3.352  13.843 -0.1689  1.1287  0.5742
  627MPD2    H3 9344   3.301   3.227  13.762 -2.0829 -1.6240  0.9711
  627MPD2     N 9345   3.338   2.919  14.101 -0.1248 -0.0253  0.1299
  627MPD2    H5 9346   3.387   2.908  14.189 -1.2393 -3.5025  0.3184
  627MPD2    N1 9347   3.594   3.329  14.090 -0.2483 -0.4335  0.1182
  627MPD2    H7 9348   3.620   3.291  14.181  0.9104 -0.2250 -0.1365
  628TMC3    C1 9349   3.768   3.479  14.145 -0.4092 -0.3417  0.3034
  628TMC3    C2 9350   3.806   3.386  14.239 -0.2061  0.3062  0.1341
  628TMC3    C3 9351   3.922   3.400  14.312  0.2646  0.2343  0.2510
  628TMC3    C4 9352   3.842   3.595  14.123  0.1150  0.2014 -0.4934
  628TMC3    C5 9353   3.959   3.607  14.198  0.2800 -0.1074 -0.6252
  628TMC3    C6 9354   4.006   3.512  14.291 -0.5749  0.0034 -0.1806
  628TMC3     C 9355   3.654   3.449  14.058 -0.5389 -0.0790  0.7326
  628TMC3     O 9356   3.621   3.522  13.961  0.4111  0.2732  0.2707
  628TMC3     H 9357   3.740   3.306  14.271 -1.4666  0.9697 -0.8358
  628TMC3    H1 9358   3.807   3.680  14.065  0.1631  0.3380 -0.3224
  628TMC3    H2 9359   4.073   3.546  14.369 -1.7546 -0.4868  1.0508
  628TMC3    C7 9360   4.042   3.729  14.183  0.6066 -0.0364  0.1923
  628TMC3    C8 9361   3.912   3.384  14.455  0.2315  0.1622  0.6513
  628TMC3    O1 9362   4.118   3.759  14.270  0.6203 -0.0989  0.0010
  628TMC3    O2 9363   3.808   3.426  14.505  0.1029  0.3845  0.2270
  629MPD2     C 9364   2.420   2.204  16.244  0.0740  0.3098 -0.2932
  629MPD2    C1 9365   2.449   2.129  16.354 -0.6526  0.1794  0.2542
  629MPD2    C2 9366   2.340   2.083  16.423  0.2644  0.2692 -0.8007
  629MPD2    C3 9367   2.207   2.124  16.397  0.1698  0.1953 -0.1356
  629MPD2    C4 9368   2.187   2.208  16.292  0.0032 -0.0348  0.6312
  629MPD2    C5 9369   2.290   2.240  16.217  0.2123  0.2141 -0.5250
  629MPD2     H 9370   2.356   2.029  16.515 -0.9276  0.0653 -0.7131
  629MPD2    H1 9371   2.087   2.243  16.270 -0.4492 -1.0448  1.0829
  629MPD2    H2 9372   2.508   2.243  16.194  0.9269  1.2041  1.9142
  629MPD2    H3 9373   2.265   2.316  16.144  2.0074  1.7367  0.4485
  629MPD2     N 9374   2.102   2.061  16.467  0.3028 -0.2310  0.0267
  629MPD2    H5 9375   2.126   1.985  16.530 -0.7484 -0.1555  0.5223
  629MPD2    N1 9376   2.591   2.115  16.390  0.2278 -0.3550 -0.2145
  629MPD2    H7 9377   2.662   2.170  16.342  2.7466 -1.2565  2.5182
  630TMC3    C1 9378   2.755   2.093  16.548 -0.7213 -0.0524 -0.2585
  630TMC3    C2 9379   2.799   2.220  16.512  0.1639  0.2772 -0.5390
  630TMC3    C3 9380   2.879   2.277  16.612 -0.4552  0.1032  0.5871
  630TMC3    C4 9381   2.783   2.025  16.664 -0.3203  0.5526  0.1689
  630TMC3    C5 9382   2.862   2.086  16.757 -0.2842 -0.6717 -0.7179
  630TMC3    C6 9383   2.909   2.215  16.734  0.9234 -0.0900  0.0794
  630TMC3     C 9384   2.625   2.053  16.507 -0.7693 -0.4024  0.4771
  630TMC3     O 9385   2.554   1.989  16.583  0.0781  0.4434 -0.0863
  630TMC3     H 9386   2.749   2.283  16.440 -0.0404  1.2327  0.4465
  630TMC3    H1 9387   2.761   1.920  16.677 -0.8628  0.4212 -1.7903
  630TMC3    H2 9388   2.983   2.259  16.800  0.6053 -3.8029  2.9268
  630TMC3    C7 9389   2.846   2.036  16.891 -0.2066 -0.5168  0.1410
  630TMC3    C8 9390   2.981   2.376  16.576 -0.2358  0.0562  0.2594
  630TMC3    O1 9391   2.762   1.945  16.919 -0.6545  0.4729  0.1959
  630TMC3    O2 9392   3.015   2.451  16.669 -0.3720  0.0595 -0.5821
  631MPD2     C 9393   0.887   1.754  15.369  0.3369 -0.2801 -0.5423
  631MPD2    C1 9394   0.991   1.795  15.295  0.6132 -0.3606  0.5575
  631MPD2    C2 9395   1.117   1.772  15.348  0.0282 -0.1837  0.4222
  631MPD2    C3 9396   1.142   1.693  15.453  0.0090  0.3000  0.9649
  631MPD2    C4 9397   1.033   1.639  15.518  0.3085 -0.3078 -0.0674
  631MPD2    C5 9398   0.906   1.671  15.478 -0.1905  0.4719 -0.5274
  631MPD2     H 9399   1.202   1.806  15.289 -1.6483  1.2069 -1.1776
  631MPD2    H1 9400   1.040   1.572  15.603  0.5258  0.4344  0.5034
  631MPD2    H2 9401   0.783   1.769  15.342  0.2918  1.3626  0.5250
  631MPD2    H3 9402   0.832   1.615  15.535  1.7220  0.6480  2.1084
  631MPD2     N 9403   1.277   1.662  15.480  0.0842 -0.4522  0.5559
  631MPD2    H5 9404   1.344   1.699  15.414  0.5910 -0.6291  0.9696
  631MPD2    N1 9405   0.967   1.871  15.180  0.7093 -0.2081  0.0846
  631MPD2    H7 9406   0.869   1.877  15.154  0.9742  1.5148 -0.5559
  632TMC3    C1 9407   0.984   2.038  15.023  0.2821 -0.0662 -0.4813
  632TMC3    C2 9408   0.855   2.082  15.038 -0.1192 -0.1763 -0.0922
  632TMC3    C3 9409   0.814   2.196  14.967  0.4260 -0.1883 -0.1091
  632TMC3    C4 9410   1.068   2.099  14.940 -0.3389  0.2665  0.2372
  632TMC3    C5 9411   1.029   2.208  14.868  0.5910  0.2421  0.1963
  632TMC3    C6 9412   0.897   2.256  14.880 -0.6614 -0.4993 -0.2002
  632TMC3     C 9413   1.050   1.950  15.108 -0.3448 -0.4866  0.2918
  632TMC3     O 9414   1.167   1.978  15.127 -0.2802 -0.5499  0.0955
  632TMC3     H 9415   0.790   2.037  15.112 -0.6299  1.4055  0.4042
  632TMC3    H1 9416   1.163   2.055  14.910 -0.5823 -1.2586  1.7064
  632TMC3    H2 9417   0.859   2.336  14.817 -1.5810 -0.6573  0.1535
  632TMC3    C7 9418   1.088   2.233  14.740 -0.5107  0.1434 -0.1346
  632TMC3    C8 9419   0.717   2.274  15.035 -0.2055  0.1508 -0.4582
  632TMC3    O1 9420   1.015   2.278  14.648  0.6622  0.1868  0.0378
  632TMC3    O2 9421   0.608   2.220  15.056  0.6802  0.1461  0.0490
  633MPD2     C 9422   4.417   0.146  17.169 -0.3168  0.3059 -0.3174
  633MPD2    C1 9423   4.466   0.102  17.052  0.2453  0.6699 -0.6896
  633MPD2    C2 9424   4.454   4.705  17.022 -0.0891  0.3437  0.5345
  633MPD2    C3 9425   4.407   4.614  17.116  1.2977 -0.9202  0.3480
  633MPD2    C4 9426   4.363   4.658  17.239 -0.6530  0.6018 -0.4987
  633MPD2    C5 9427   4.363   0.054  17.262 -0.0122  0.7362 -0.4461
  633MPD2     H 9428   4.484   4.671  16.924  1.1701  2.0942  0.3139
  633MPD2    H1 9429   4.324   4.587  17.311  0.7804  0.5255  0.2024
  633MPD2    H2 9430   4.420   0.252  17.195 -2.5420 -0.1037  1.6772
  633MPD2    H3 9431   4.331   0.090  17.359 -0.1850  0.3808 -0.3744
  633MPD2     N 9432   4.391   4.480  17.086  0.0187 -0.3112 -0.1024
  633MPD2    H5 9433   4.364   4.419  17.163  1.1160 -0.2677  0.3117
  633MPD2    N1 9434   4.535   0.180  16.963 -0.3919 -0.4593 -0.4626
  633MPD2    H7 9435   4.558   0.136  16.875 -0.3702  1.0783 -1.2179
  634TMC3    C1 9436   4.675   0.358  16.893 -0.2502 -0.4791  0.4477
  634TMC3    C2 9437   0.006   0.255  16.825 -0.5456 -0.6343 -0.2186
  634TMC3    C3 9438   0.090   0.296  16.725 -0.1785  0.0714  0.8836
  634TMC3    C4 9439   4.695   0.496  16.878  1.1028  0.0256  0.1163
  634TMC3    C5 9440   0.050   0.525  16.776  0.2060 -0.1539 -0.9076
  634TMC3    C6 9441   0.117   0.429  16.700 -0.7433 -0.5458 -0.4738
  634TMC3     C 9442   4.578   0.311  16.988 -0.2851 -0.3532  0.6610
  634TMC3     O 9443   4.554   0.384  17.082 -0.3499 -0.0585  0.0249
  634TMC3     H 9444   0.005   0.148  16.838  0.3981 -0.7560 -1.0621
  634TMC3    H1 9445   4.642   0.569  16.938  1.0719  1.7606 -2.0269
  634TMC3    H2 9446   0.198   0.460  16.635  1.0495 -2.7031  0.7454
  634TMC3    C7 9447   0.038   0.653  16.705 -0.0256 -0.1709 -0.2350
  634TMC3    C8 9448   0.136   0.198  16.637 -0.3493 -0.1746 -0.4273
  634TMC3    O1 9449   0.083   0.646  16.589  0.1637 -0.0790 -0.1097
  634TMC3    O2 9450   0.085   0.089  16.656 -0.2924 -0.0017  0.4757
  635TMC3    C1 9451   1.107   1.025   0.258  0.8493 -0.3105  0.1898
  635TMC3    C2 9452   1.069   0.898   0.207  0.1928  0.0656  0.4897
  635TMC3    C3 9453   1.014   0.812   0.301  0.0679  0.1147 -0.2855
  635TMC3    C4 9454   1.099   1.064   0.387  0.1593  0.1055  0.3261
  635TMC3    C5 9455   1.057   0.963   0.473 -0.4383 -0.2500  0.4930
  635TMC3    C6 9456   0.999   0.850   0.431 -0.3580  0.2615  0.6142
  635TMC3     C 9457   1.135   1.124   0.154  0.0400 -0.4610 -0.3917
  635TMC3     O 9458   1.097   1.099   0.039  0.6005 -0.8778  0.0097
  635TMC3     H 9459   1.071   0.869   0.102  0.2015  0.5856  0.3450
  635TMC3    H1 9460   1.151   1.149   0.429 -0.0815 -0.5493  1.9947
  635TMC3    H2 9461   0.971   0.767   0.495 -0.0009  1.3764  2.2053
  635TMC3    C7 9462   1.071   0.990   0.616 -0.0336 -0.6647  0.0538
  635TMC3    C8 9463   0.952   0.693   0.256  0.3135 -0.2903  0.5281
  635TMC3    O1 9464   1.077   1.109   0.649  0.1773 -0.2040 -0.0095
  635TMC3    O2 9465   0.846   0.678   0.315 -0.4584 -0.4035  0.3461
  636MPD2     C 9466   1.554   0.332  15.701 -0.7805 -0.0793  0.4116
  636MPD2    C1 9467   1.589   0.366  15.824  0.1325  0.2172  0.3988
  636MPD2    C2 9468   1.674   0.281  15.889 -0.0038  0.6324  0.5761
  636MPD2    C3 9469   1.731   0.173  15.830 -0.0261  0.3862 -0.4639
  636MPD2    C4 9470   1.693   0.140  15.708 -0.4113 -0.0703  0.1152
  636MPD2    C5 9471   1.605   0.223  15.647  0.0856 -0.4693  1.4433
  636MPD2     H 9472   1.709   0.297  15.990 -1.6168 -3.5829  1.8186
  636MPD2    H1 9473   1.744   0.059  15.656  1.5216  0.4606  1.1810
  636MPD2    H2 9474   1.480   0.392  15.649  1.2086  0.4766 -1.7381
  636MPD2    H3 9475   1.581   0.192  15.546  1.0854 -0.7746  1.3042
  636MPD2     N 9476   1.812   0.097  15.915  0.6434  0.1800  0.1360
  636MPD2    H5 9477   1.818   0.132  16.010  2.3997 -1.5085  0.6214
  636MPD2    N1 9478   1.545   0.479  15.895 -0.3454 -0.4307  0.1202
  636MPD2    H7 9479   1.587   0.489  15.986  0.6024  1.1257 -0.4956
  637TMC3    C1 9480   1.917   4.653  16.004 -0.2812  0.6303  0.1638
  637TMC3    C2 9481   1.876   4.698  16.129  0.2514 -0.3336  0.5767
  637TMC3    C3 9482   1.936   4.627  16.237 -0.3858 -0.3623 -0.1522
  637TMC3    C4 9483   2.005   4.551  15.989 -0.9179  0.6514 -0.4960
  637TMC3    C5 9484   2.065   4.490  16.099  1.3169  0.1566 -0.9373
  637TMC3    C6 9485   2.026   4.521  16.229 -0.2306  0.3848 -0.6768
  637TMC3     C 9486   1.875   4.715  15.885 -0.2000 -0.6761  0.1796
  637TMC3     O 9487   1.875   4.650  15.784  0.2371 -0.2165  0.4559
  637TMC3     H 9488   1.795   0.033  16.142 -0.1592 -0.8527  0.8629
  637TMC3    H1 9489   2.042   4.526  15.890  1.5565 -0.4629  0.7122
  637TMC3    H2 9490   2.073   4.474  16.314  1.5439  0.9883 -1.3161
  637TMC3    C7 9491   2.169   4.388  16.073 -0.1618 -0.0183  0.9819
  637TMC3    C8 9492   1.949   4.715  16.346  0.2173 -0.2460 -0.1857
  637TMC3    O1 9493   2.156   4.283  16.138 -0.4164 -0.1009 -0.1302
  637TMC3    O2 9494   1.944   0.098  16.315  0.6347 -0.6377 -0.3593
  638MPD2     C 9495   1.778   3.982  14.908 -0.1326  0.1420  0.0986
  638MPD2    C1 9496   1.822   3.865  14.849 -0.2889  0.4418 -0.2908
  638MPD2    C2 9497   1.774   3.748  14.899 -0.4025 -0.2971 -0.3111
  638MPD2    C3 9498   1.671   3.741  14.996  0.2009  0.2276 -0.3962
  638MPD2    C4 9499   1.620   3.860  15.051 -0.6307  1.0211 -0.2748
  638MPD2    C5 9500   1.676   3.976  15.001  0.1692  0.1907 -0.1689
  638MPD2     H 9501   1.810   3.653  14.860  2.4393  0.0986  1.4042
  638MPD2    H1 9502   1.559   3.866  15.141 -1.9089  3.3340 -1.2995
  638MPD2    H2 9503   1.808   4.080  14.871 -0.5177  0.2535  0.0782
  638MPD2    H3 9504   1.666   4.066  15.062  1.2019 -0.8539  1.5648
  638MPD2     N 9505   1.619   3.613  15.023  0.4650 -0.1170 -0.0414
  638MPD2    H5 9506   1.658   3.533  14.975  1.1354  0.7105 -0.8880
  638MPD2    N1 9507   1.891   3.870  14.732  0.4213 -0.2040 -0.2779
  638MPD2    H7 9508   1.882   3.952  14.674  1.0970  0.4791  0.5771
  639TMC3    C1 9509   1.490   3.439  15.086 -0.3263  0.0719  0.8297
  639TMC3    C2 9510   1.446   3.394  14.960 -0.5722 -0.3455 -0.8872
  639TMC3    C3 9511   1.502   3.280  14.910  0.2456 -0.3682  0.2352
  639TMC3    C4 9512   1.582   3.368  15.152  0.1221  0.1670  0.0952
  639TMC3    C5 9513   1.638   3.260  15.094 -0.6142  0.8429  0.3740
  639TMC3    C6 9514   1.604   3.212  14.973 -0.1478 -0.1681 -0.5532
  639TMC3     C 9515   1.512   3.580  15.092  0.0203 -1.0318  0.7288
  639TMC3     O 9516   1.435   3.649  15.156 -1.0805  0.5201 -0.0325
  639TMC3     H 9517   1.390   3.463  14.898 -1.9228 -1.0596 -0.4541
  639TMC3    H1 9518   1.637   3.418  15.231  0.5584 -0.1977  0.0172
  639TMC3    H2 9519   1.657   3.129  14.929 -0.5143 -0.0023 -1.3052
  639TMC3    C7 9520   1.774   3.234  15.138  0.1052 -0.3335 -0.3336
  639TMC3    C8 9521   1.437   3.204  14.803  0.6506  0.0410 -0.6704
  639TMC3    O1 9522   1.782   3.217  15.257 -0.2299 -0.7702  0.8111
  639TMC3    O2 9523   1.496   3.109  14.752  0.1915  0.6078  0.0666
  640MPD2     C 9524   2.612   2.690   9.453  0.2949  0.4866 -0.2492
  640MPD2    C1 9525   2.484   2.643   9.449 -0.0833  0.4140 -0.4500
  640MPD2    C2 9526   2.384   2.705   9.522  0.5049 -0.2650 -0.0609
  640MPD2    C3 9527   2.419   2.809   9.611  0.1524  1.0772  0.5184
  640MPD2    C4 9528   2.546   2.858   9.618  0.0986  0.1934 -0.1441
  640MPD2    C5 9529   2.635   2.793   9.536  0.4345 -0.4929  0.3694
  640MPD2     H 9530   2.279   2.675   9.521  0.3554  0.3151 -2.8548
  640MPD2    H1 9531   2.582   2.935   9.686  1.7141 -1.3118  0.6802
  640MPD2    H2 9532   2.691   2.632   9.406 -0.5339 -0.2309 -0.7602
  640MPD2    H3 9533   2.738   2.823   9.548  0.3995 -0.1893 -0.1028
  640MPD2     N 9534   2.320   2.865   9.707 -0.5610  0.0720  0.1910
  640MPD2    H5 9535   2.362   2.935   9.767  1.3562 -1.0065  0.0797
  640MPD2    N1 9536   2.457   2.537   9.360 -0.1643 -0.4147 -0.1454
  640MPD2    H7 9537   2.538   2.501   9.310  2.3076  2.2507  1.9461
  641TMC3    C1 9538   2.349   2.371   9.248  0.4529  0.5080  1.0560
  641TMC3    C2 9539   2.457   2.285   9.269  0.1246 -0.2731 -0.4814
  641TMC3    C3 9540   2.465   2.178   9.186  0.0647  0.8284  0.0791
  641TMC3    C4 9541   2.261   2.355   9.141  0.1458 -0.5276  0.3249
  641TMC3    C5 9542   2.276   2.250   9.054 -0.1427 -0.4639  0.0246
  641TMC3    C6 9543   2.377   2.163   9.079 -0.6103  0.7276  0.7127
  641TMC3     C 9544   2.328   2.483   9.337 -0.2763  0.2441 -1.1658
  641TMC3     O 9545   2.217   2.507   9.373 -0.4502  0.0638 -0.1847
  641TMC3     H 9546   2.507   2.305   9.363  1.8183 -0.3550 -1.3656
  641TMC3    H1 9547   2.178   2.423   9.126 -0.0332 -0.3415  2.1229
  641TMC3    H2 9548   2.403   2.091   9.003 -2.1675 -1.3353  2.1623
  641TMC3    C7 9549   2.213   2.245   8.926  0.0092 -0.5373 -0.0939
  641TMC3    C8 9550   2.536   2.061   9.227  0.0094  0.0919 -0.1071
  641TMC3    O1 9551   2.144   2.342   8.902  0.1498 -0.0011 -0.7030
  641TMC3    O2 9552   2.537   1.966   9.151 -0.2136  0.3090  0.2726
  642TMC3    C1 9553   3.537   3.355  12.350 -0.5715  0.5150  0.9919
  642TMC3    C2 9554   3.665   3.330  12.324 -0.7497 -0.6145  0.0206
  642TMC3    C3 9555   3.700   3.206  12.287 -0.7415 -0.7895 -0.1536
  642TMC3    C4 9556   3.439   3.255  12.358  0.5326  0.2903 -0.0053
  642TMC3    C5 9557   3.476   3.131  12.319 -0.5911  0.3795  0.3804
  642TMC3    C6 9558   3.607   3.105  12.295  0.8551  0.1429 -0.2746
  642TMC3     C 9559   3.510   3.492  12.395  0.2512 -0.4357 -0.0705
  642TMC3     O 9560   3.605   3.564  12.421 -0.2825  0.6806  0.8873
  642TMC3     H 9561   3.739   3.405  12.349 -2.7135  1.0934  0.7115
  642TMC3    H1 9562   3.338   3.281  12.388 -0.0832  0.7694 -2.4595
  642TMC3    H2 9563   3.637   3.003  12.272 -0.1664 -0.3403  0.5360
  642TMC3    C7 9564   3.395   3.020  12.372  0.8049 -0.0183  1.1785
  642TMC3    C8 9565   3.835   3.165  12.288  0.1800  0.3477  0.7274
  642TMC3    O1 9566   3.402   2.915  12.309  0.0804  0.0484  0.3871
  642TMC3    O2 9567   3.865   3.057  12.338 -0.0561  0.0158 -0.4414
  643TMC3    C1 9568   2.217   2.840   0.295 -0.7187  0.1743  0.1848
  643TMC3    C2 9569   2.099   2.877   0.232  0.0671  0.5300  0.4740
  643TMC3    C3 9570   2.056   2.798   0.128  0.1518  0.0304  0.2342
  643TMC3    C4 9571   2.289   2.729   0.249 -0.3526 -1.1283  0.6295
  643TMC3    C5 9572   2.250   2.664   0.134 -0.0961  0.5158  0.1421
  643TMC3    C6 9573   2.127   2.690   0.079  0.0372  0.1119 -0.4195
  643TMC3     C 9574   2.253   2.918   0.410  0.7900 -0.3586 -0.0939
  643TMC3     O 9575   2.186   3.016   0.430 -0.5064 -0.2170 -0.2964
  643TMC3     H 9576   2.042   2.967   0.251  0.6700  1.3205 -1.4514
  643TMC3    H1 9577   2.389   2.732   0.289 -0.1450  0.4105 -0.0058
  643TMC3    H2 9578   2.107   2.652  17.721  1.8051 -4.2270  0.8792
  643TMC3    C7 9579   2.349   2.676   0.034  0.5344  0.0041  0.0166
  643TMC3    C8 9580   2.021   2.877   0.015 -0.0844  1.1291  0.1547
  643TMC3    O1 9581   2.413   2.781   0.035  0.1113  0.0526 -0.2004
  643TMC3    O2 9582   1.963   2.821  17.664 -0.3143  0.3307 -0.1810
  644MPD2     C 9583   1.910   2.585   8.957  0.1255  0.3566 -0.0593
  644MPD2    C1 9584   2.017   2.670   8.981  0.5608 -0.2187  0.6912
  644MPD2    C2 9585   1.999   2.796   9.037  0.4815  0.2753  0.2515
  644MPD2    C3 9586   1.873   2.832   9.078 -0.2154  0.5550  0.0750
  644MPD2    C4 9587   1.770   2.743   9.063  0.2449  0.1531 -0.1585
  644MPD2    C5 9588   1.782   2.628   8.993  0.0494  0.4751  0.0551
  644MPD2     H 9589   2.075   2.870   9.060 -1.4338  2.3797 -0.2328
  644MPD2    H1 9590   1.668   2.769   9.092 -0.0259 -2.2378  1.0464
  644MPD2    H2 9591   1.925   2.496   8.897 -1.9377 -0.3082  0.4045
  644MPD2    H3 9592   1.694   2.566   8.979  1.0092 -1.1552  1.2591
  644MPD2     N 9593   1.850   2.953   9.143 -0.5725  0.1584  0.0573
  644MPD2    H5 9594   1.929   3.017   9.141 -0.4123  0.0262  2.0365
  644MPD2    N1 9595   2.143   2.624   8.942 -0.2518  0.3746  0.6791
  644MPD2    H7 9596   2.150   2.527   8.911 -0.4771  1.0851 -1.6565
  645TMC3    C1 9597   1.738   3.119   9.288 -0.7722 -0.0702 -0.8585
  645TMC3    C2 9598   1.837   3.200   9.254 -0.0380  0.1762  0.1028
  645TMC3    C3 9599   1.835   3.329   9.288 -0.5091 -0.8584  0.2520
  645TMC3    C4 9600   1.634   3.151   9.365 -0.1989  0.5155  0.5777
  645TMC3    C5 9601   1.631   3.282   9.398 -0.0705 -1.4767  0.9659
  645TMC3    C6 9602   1.721   3.376   9.350  0.3433 -0.1880  0.0504
  645TMC3     C 9603   1.738   2.992   9.224 -0.4193  0.1826  0.7966
  645TMC3     O 9604   1.637   2.922   9.247 -0.2932  0.1062 -0.1818
  645TMC3     H 9605   1.917   3.171   9.186 -0.1691 -0.0238  0.0362
  645TMC3    H1 9606   1.571   3.074   9.408  1.6004 -1.3257 -0.0632
  645TMC3    H2 9607   1.688   3.478   9.371 -0.4245 -0.5334  0.5359
  645TMC3    C7 9608   1.501   3.330   9.447  0.4593 -0.1552 -0.2477
  645TMC3    C8 9609   1.916   3.427   9.216  0.2211 -0.1499  0.0528
  645TMC3    O1 9610   1.478   3.449   9.441 -0.5892  0.7175  0.0227
  645TMC3    O2 9611   2.011   3.374   9.167  0.5967  0.1738 -0.2377
  646MPD2     C 9612   1.926   2.423  14.434 -0.7994 -0.0884 -0.1256
  646MPD2    C1 9613   1.832   2.425  14.534 -0.1101 -0.1973 -0.0561
  646MPD2    C2 9614   1.702   2.461  14.501 -0.0416  1.1504  0.8791
  646MPD2    C3 9615   1.670   2.503  14.368  0.0378 -0.8200 -0.0355
  646MPD2    C4 9616   1.761   2.486  14.268  0.4994  0.2971  0.1567
  646MPD2    C5 9617   1.890   2.459  14.306  0.6748  0.3065  0.0426
  646MPD2     H 9618   1.632   2.484  14.581 -1.0397 -3.1383  1.2498
  646MPD2    H1 9619   1.751   2.516  14.164 -0.6881 -0.4800  0.0542
  646MPD2    H2 9620   2.030   2.406  14.460 -0.5517  1.8886  0.1517
  646MPD2    H3 9621   1.965   2.469  14.229  0.0995 -1.0847 -0.6834
  646MPD2     N 9622   1.540   2.551  14.345 -0.4699  0.3348  0.2533
  646MPD2    H5 9623   1.477   2.565  14.423 -0.9093  0.9526 -0.2186
  646MPD2    N1 9624   1.878   2.397  14.661  0.0092 -0.1131  0.0011
  646MPD2    H7 9625   1.978   2.379  14.668  0.0603 -0.2878 -1.0996
  647TMC3    C1 9626   1.876   2.346  14.888 -0.0236  0.1246 -0.5185
  647TMC3    C2 9627   1.800   2.267  14.975 -0.0437  0.0331  0.0801
  647TMC3    C3 9628   1.867   2.221  15.081 -0.4928 -0.1209 -0.1636
  647TMC3    C4 9629   2.013   2.363  14.894 -0.4582  0.8443  0.1774
  647TMC3    C5 9630   2.074   2.301  14.999  0.6172  0.2504 -0.3804
  647TMC3    C6 9631   2.000   2.230  15.090 -0.6912 -0.0556  0.1126
  647TMC3     C 9632   1.801   2.371  14.770  0.2631 -0.3446  0.3660
  647TMC3     O 9633   1.677   2.367  14.778  0.0971 -0.4856  0.6276
  647TMC3     H 9634   1.693   2.256  14.956 -0.3317  2.3589  0.3815
  647TMC3    H1 9635   2.070   2.436  14.837 -0.6997  2.3082  1.8038
  647TMC3    H2 9636   2.050   2.195  15.180 -0.7832  2.3072  1.0928
  647TMC3    C7 9637   2.198   2.239  14.966 -0.8595  0.4669  0.3313
  647TMC3    C8 9638   1.817   2.114  15.164 -0.1502 -0.7604 -0.1272
  647TMC3    O1 9639   2.218   2.230  14.847 -0.0901  0.5519  0.3326
  647TMC3    O2 9640   1.888   2.058  15.246  0.1303 -0.0474  0.1391
  648TMC3    C1 9641   0.787   0.098  16.133 -0.6562 -0.4218  0.3675
  648TMC3    C2 9642   0.867   4.732  16.095  0.1812 -0.6668  0.8648
  648TMC3    C3 9643   0.920   0.007  15.966  0.4784  0.1926  0.8018
  648TMC3    C4 9644   0.744   0.203  16.055  0.7096  0.1743 -0.0840
  648TMC3    C5 9645   0.789   0.207  15.927 -0.3047  0.1454  0.4377
  648TMC3    C6 9646   0.883   0.118  15.889 -0.6884 -0.6687 -0.2414
  648TMC3     C 9647   0.740   0.099  16.272  0.1545 -0.9411 -0.2190
  648TMC3     O 9648   0.753   0.202  16.335  0.1287  0.3550  0.0717
  648TMC3     H 9649   0.900   4.655  16.164 -2.4610 -1.9453  0.7138
  648TMC3    H1 9650   0.685   0.285  16.096  0.3145  0.5938 -1.4943
  648TMC3    H2 9651   0.932   0.130  15.794 -1.5284 -1.7857 -0.8195
  648TMC3    C7 9652   0.769   0.324  15.847  0.4008 -0.4733  0.3162
  648TMC3    C8 9653   1.003   4.642  15.912 -0.0537 -0.5275 -0.5742
  648TMC3    O1 9654   0.844   0.353  15.753  0.4451  0.3981  0.2467
  648TMC3    O2 9655   1.023   4.643  15.792  0.6046  0.0713  0.3148
  649TMC3    C1 9656   0.287   0.897  12.212 -0.5925 -0.2412  0.7181
  649TMC3    C2 9657   0.371   0.999  12.223 -0.4274  0.1624 -0.1513
  649TMC3    C3 9658   0.410   1.045  12.345  0.0775 -0.2109 -0.1896
  649TMC3    C4 9659   0.239   0.842  12.324  0.3579  0.6641 -1.2495
  649TMC3    C5 9660   0.282   0.884  12.451  0.2484 -0.1142  0.1523
  649TMC3    C6 9661   0.374   0.987  12.461 -0.4844 -0.1019 -0.5228
  649TMC3     C 9662   0.211   0.902  12.084 -0.9384 -0.2528 -0.2712
  649TMC3     O 9663   0.094   0.869  12.081  0.2244  0.2922  0.5475
  649TMC3     H 9664   0.425   1.054  12.146  1.0791 -1.3649 -0.1844
  649TMC3    H1 9665   0.172   0.757  12.319  0.8469  0.1403  0.7988
  649TMC3    H2 9666   0.385   1.044  12.553 -1.1683 -2.9431  1.3119
  649TMC3    C7 9667   0.187   0.865  12.558 -0.4167 -0.9410  0.5521
  649TMC3    C8 9668   0.478   1.173  12.351  0.4890 -0.0826  0.0028
  649TMC3    O1 9669   0.068   0.865  12.525 -0.5253 -0.3383  0.6193
  649TMC3    O2 9670   0.583   1.178  12.410  0.1981  0.8783  0.2595
  650TMC3    C1 9671   2.118   2.694  12.289 -0.0513 -0.4723  0.0017
  650TMC3    C2 9672   2.224   2.724  12.370 -0.1119  0.0216  0.6364
  650TMC3    C3 9673   2.332   2.783  12.314  0.1880 -0.0576  0.0551
  650TMC3    C4 9674   2.105   2.727  12.156  0.1763  0.0020  0.6998
  650TMC3    C5 9675   2.224   2.777  12.103 -0.3937  0.4877  0.6446
  650TMC3    C6 9676   2.336   2.784  12.182  0.3981 -0.1497 -0.0584
  650TMC3     C 9677   2.009   2.614  12.342  0.3742  0.0716 -0.8380
  650TMC3     O 9678   1.905   2.611  12.282  0.2052 -0.3086 -0.7864
  650TMC3     H 9679   2.225   2.723  12.479  0.2770 -0.8170  0.6206
  650TMC3    H1 9680   2.010   2.742  12.106  0.9032  2.9252  0.1761
  650TMC3    H2 9681   2.431   2.818  12.143  1.1107 -1.9813  0.0734
  650TMC3    C7 9682   2.218   2.874  11.997 -0.0422  0.4292 -0.3368
  650TMC3    C8 9683   2.356   2.917  12.359  0.6250 -0.6624  0.2802
  650TMC3    O1 9684   2.120   2.870  11.926  0.0157 -0.0333 -0.0918
  650TMC3    O2 9685   2.425   2.994  12.294 -0.3561 -0.1669 -0.0705
  651MPD2     C 9686   1.278   4.558  10.920 -0.5448 -1.0376 -0.0046
  651MPD2    C1 9687   1.236   4.679  10.881 -0.1329 -0.0506 -0.7828
  651MPD2    C2 9688   1.328   0.031  10.826 -0.0014 -0.6759  0.1715
  651MPD2    C3 9689   1.462   4.732  10.809 -0.2963  0.5064 -0.9095
  651MPD2    C4 9690   1.497   4.607  10.859 -0.1019 -0.0858 -0.9546
  651MPD2    C5 9691   1.409   4.517  10.913 -0.1105  0.2722 -0.2946
  651MPD2     H 9692   1.284   0.124  10.792 -1.3800 -0.7427  1.8273
  651MPD2    H1 9693   1.595   4.560  10.866  0.2254  0.3335 -2.5420
  651MPD2    H2 9694   1.199   4.489  10.947  0.0715 -1.7036  0.1072
  651MPD2    H3 9695   1.432   4.414  10.942 -0.8654 -0.0783 -0.9503
  651MPD2     N 9696   1.562   0.079  10.748  0.2654  0.2894  0.4683
  651MPD2    H5 9697   1.529   0.161  10.698  1.9727  1.7864  1.7954
  651MPD2    N1 9698   1.100   4.727  10.891 -0.4823 -0.3596  0.1268
  651MPD2    H7 9699   1.070   0.082  10.857  0.0974 -0.0718  0.3787
  652TMC3    C1 9700   1.993   0.197  10.574  0.1384 -0.2592 -0.2937
  652TMC3    C2 9701   1.912   0.113  10.645  0.8094  0.3393  0.2153
  652TMC3    C3 9702   1.781   0.146  10.673  0.3905 -0.0968  0.6991
  652TMC3    C4 9703   1.958   0.321  10.546 -0.0689  0.2939 -0.1097
  652TMC3    C5 9704   1.823   0.344  10.560 -0.0461  0.7702 -0.9900
  652TMC3    C6 9705   1.730   0.262  10.624 -0.1366 -0.5128 -0.0786
  652TMC3     C 9706   2.136   0.168  10.591  0.3047  0.3568 -0.6052
  652TMC3     O 9707   2.168   0.072  10.663  0.1535 -0.2650 -0.5934
  652TMC3     H 9708   1.938   0.010  10.667 -0.6914  0.1049  0.9365
  652TMC3    H1 9709   2.024   0.396  10.503 -1.9139  2.2361  0.3945
  652TMC3    H2 9710   1.633   0.307  10.642  0.8425  1.7977 -0.5521
  652TMC3    C7 9711   1.773   0.471  10.508 -0.3949 -0.0582 -0.2214
  652TMC3    C8 9712   1.700   0.052  10.749  0.3304  0.4588 -0.2264
  652TMC3    O1 9713   1.654   0.480  10.488  0.2127  0.1549  0.9816
  652TMC3    O2 9714   1.762   4.712  10.825 -0.1485 -0.0753 -0.0189
  653MPD2     C 9715   4.423   0.125   0.004 -0.7952  0.7441  0.5758
  653MPD2    C1 9716   4.321   0.206  17.698  0.5127  0.3949  0.0236
  653MPD2    C2 9717   4.218   0.159  17.621 -0.0851  0.3488 -0.2146
  653MPD2    C3 9718   4.213   0.021  17.598  0.3092  0.2361 -0.2457
  653MPD2    C4 9719   4.318   4.675  17.645 -0.0780 -0.1197  0.3444
  653MPD2    C5 9720   4.421   4.728  17.711  0.0096  0.2204  0.0501
  653MPD2     H 9721   4.150   0.229  17.573 -1.0955  1.5231  2.9171
  653MPD2    H1 9722   4.325   4.569  17.624  0.6974 -0.3609  1.8829
  653MPD2    H2 9723   4.510   0.158   0.061 -0.5967 -1.1966  1.3981
  653MPD2    H3 9724   4.492   4.658   0.012 -2.2881 -0.5856  2.4758
  653MPD2     N 9725   4.111   4.710  17.515 -0.0390 -0.4794 -0.3286
  653MPD2    H5 9726   4.047   0.045  17.481  0.2756 -0.0576 -0.0494
  653MPD2    N1 9727   4.336   0.343  17.711 -0.4570  0.0417 -0.2875
  653MPD2    H7 9728   4.277   0.406  17.658  2.4613  2.4361 -0.6694
  654TMC3    C1 9729   4.018   4.570  17.346  0.7240 -0.0657 -0.7554
  654TMC3    C2 9730   4.003   4.679  17.264  0.0803  0.0405  0.0478
  654TMC3    C3 9731   3.984   4.657  17.129 -0.9756  0.1517 -0.5150
  654TMC3    C4 9732   3.995   4.445  17.293 -0.4104 -0.0705  0.5213
  654TMC3    C5 9733   3.967   4.432  17.160  0.2693 -0.2046 -0.0034
  654TMC3    C6 9734   3.956   4.538  17.077 -0.4985 -1.0747  0.2297
  654TMC3     C 9735   4.089   4.577  17.476 -0.1790  0.1793 -0.5251
  654TMC3     O 9736   4.162   4.477  17.491 -0.6405  0.4155 -0.0171
  654TMC3     H 9737   4.016   0.039  17.312 -0.0642  0.5727 -0.9916
  654TMC3    H1 9738   3.984   4.363  17.363  0.4494  0.4077  1.2121
  654TMC3    H2 9739   3.932   4.529  16.972 -0.2579 -1.0807  0.1757
  654TMC3    C7 9740   3.957   4.304  17.093  0.2070 -0.4470  0.3540
  654TMC3    C8 9741   3.979   0.045  17.046  1.0182 -0.1912 -0.4873
  654TMC3    O1 9742   3.882   4.284  17.001 -0.0685 -0.3760 -0.0693
  654TMC3    O2 9743   3.965   0.154  17.100  0.5368  0.3650  0.2001
  655MPD2     C 9744   1.250   0.171  15.884 -0.2112 -0.0861 -0.1577
  655MPD2    C1 9745   1.199   0.267  15.799  0.4315  0.3049  0.2588
  655MPD2    C2 9746   1.219   0.263  15.665  0.2797  0.2610  0.4863
  655MPD2    C3 9747   1.272   0.144  15.612 -0.2053  0.2382 -0.2128
  655MPD2    C4 9748   1.312   0.038  15.692 -0.6337  0.4637  0.5626
  655MPD2    C5 9749   1.304   0.061  15.829  0.0635  0.2341  0.0173
  655MPD2     H 9750   1.190   0.340  15.595 -1.0378 -0.2256  0.4850
  655MPD2    H1 9751   1.351   4.682  15.651 -1.4313 -0.5790  2.1613
  655MPD2    H2 9752   1.230   0.172  15.991 -1.0491  3.0358 -0.3205
  655MPD2    H3 9753   1.313   4.717  15.902 -1.3023  2.2954  2.4585
  655MPD2     N 9754   1.289   0.123  15.473 -0.3051 -0.2265  0.1826
  655MPD2    H5 9755   1.322   0.031  15.445  0.8408 -0.0123  0.8303
  655MPD2    N1 9756   1.132   0.385  15.846  1.4402  0.2512 -0.3397
  655MPD2    H7 9757   1.096   0.449  15.775  1.0989  0.9946  0.5074
  656TMC3    C1 9758   1.025   0.535  15.981  0.1586 -0.2262 -0.2509
  656TMC3    C2 9759   0.928   0.536  16.072  0.0116 -0.1930 -0.5058
  656TMC3    C3 9760   0.830   0.633  16.061 -0.3383  0.0772  0.1437
  656TMC3    C4 9761   1.030   0.624  15.882 -0.3188 -0.3374 -0.2335
  656TMC3    C5 9762   0.939   0.725  15.876 -0.0060 -0.0690  0.3744
  656TMC3    C6 9763   0.833   0.738  15.972 -0.3247  0.7065 -0.0191
  656TMC3     C 9764   1.098   0.414  15.972 -0.2555  0.0673  0.4215
  656TMC3     O 9765   1.118   0.353  16.075 -0.8201 -0.2212  0.2869
  656TMC3     H 9766   0.921   0.454  16.142 -0.9070 -1.3672 -1.9665
  656TMC3    H1 9767   1.085   0.620  15.789  1.9289  1.1532  1.0555
  656TMC3    H2 9768   0.750   0.807  15.978 -2.5354 -2.0196  0.8139
  656TMC3    C7 9769   0.929   0.804  15.751  0.9533  0.1875 -0.1948
  656TMC3    C8 9770   0.708   0.614  16.140 -0.0627 -0.6840 -0.2647
  656TMC3    O1 9771   1.010   0.780  15.662 -0.1875  0.5636  0.1246
  656TMC3    O2 9772   0.680   0.502  16.179  0.1063 -0.3948 -0.0619
  657TMC3    C1 9773   4.685   4.171  14.642  0.2100  0.0130  0.1001
  657TMC3    C2 9774   4.724   4.198  14.767 -0.1064  0.0474  0.5716
  657TMC3    C3 9775   4.681   4.323  14.812 -0.6259 -0.0777  0.5148
  657TMC3    C4 9776   4.605   4.247  14.559 -0.0990 -0.3818  0.2554
  657TMC3    C5 9777   4.573   4.374  14.609 -0.9087 -0.0350 -0.1224
  657TMC3    C6 9778   4.614   4.415  14.738 -0.2168 -0.0465  0.2438
  657TMC3     C 9779   4.707   4.037  14.597 -0.5237  0.3858  0.7432
  657TMC3     O 9780   4.622   3.981  14.530  0.0702 -0.4639  0.1562
  657TMC3     H 9781   0.043   4.129  14.830 -0.6060 -0.4817  0.4299
  657TMC3    H1 9782   4.596   4.217  14.455  0.5048  1.1521 -0.2296
  657TMC3    H2 9783   4.593   4.514  14.778 -0.0175  0.6719 -1.4599
  657TMC3    C7 9784   4.519   4.476  14.523  0.6646 -0.4146 -0.1971
  657TMC3    C8 9785   4.717   4.360  14.947  0.0426 -0.1175 -0.0123
  657TMC3    O1 9786   4.541   4.585  14.570  0.4112  0.5554 -0.1943
  657TMC3    O2 9787   4.657   4.453  14.990 -0.1108  0.2507  0.0810
  658MPD2     C 9788   1.776   0.054  14.942 -0.2827 -0.4651  0.6148
  658MPD2    C1 9789   1.659   4.718  14.923 -0.4452 -0.8110 -0.5064
  658MPD2    C2 9790   1.656   4.620  14.826  0.5445 -0.0133 -0.2305
  658MPD2    C3 9791   1.751   4.618  14.730  0.1249  0.0970 -0.5811
  658MPD2    C4 9792   1.868   4.687  14.745 -0.8226 -0.5912 -0.0657
  658MPD2    C5 9793   1.878   0.029  14.855  0.6116 -0.1258  0.3092
  658MPD2     H 9794   1.574   4.552  14.811  0.0065  0.8249 -1.0533
  658MPD2    H1 9795   1.956   4.671  14.684 -0.6072  1.0395 -0.1958
  658MPD2    H2 9796   1.802   0.112  15.030  0.1295  1.0233 -0.4790
  658MPD2    H3 9797   1.974   0.076  14.870  0.1963  0.1592  2.0234
  658MPD2     N 9798   1.731   4.524  14.626 -0.6149  0.0579 -0.2745
  658MPD2    H5 9799   1.646   4.468  14.633  0.1574 -1.2458 -1.3013
  658MPD2    N1 9800   1.553   0.002  15.009 -0.5244 -0.1644  0.3910
  658MPD2    H7 9801   1.576   0.066  15.084  0.2628  1.5039 -1.2871
  659TMC3    C1 9802   1.341   0.007  15.086 -0.9302 -0.2849  0.2123
  659TMC3    C2 9803   1.359   0.068  15.205 -0.1541  0.3795  0.0557
  659TMC3    C3 9804   1.281   0.174  15.241 -0.0406  0.1342 -0.0300
  659TMC3    C4 9805   1.262   0.065  14.995  0.1203  0.0326 -0.0369
  659TMC3    C5 9806   1.175   0.161  15.036  0.0336 -0.4684 -0.4812
  659TMC3    C6 9807   1.177   0.209  15.162 -0.1093  0.2514  0.3610
  659TMC3     C 9808   1.440   4.664  15.023  0.0028  0.2606  1.0000
  659TMC3     O 9809   1.395   4.575  14.948 -0.1780  0.0812 -0.0170
  659TMC3     H 9810   1.434   0.035  15.277 -0.6070  1.1645  0.8853
  659TMC3    H1 9811   1.273   0.034  14.892 -0.5307  1.2137 -0.4630
  659TMC3    H2 9812   1.106   0.283  15.197  1.2375  1.7073  0.0033
  659TMC3    C7 9813   1.061   0.198  14.951  0.8814  0.3633  0.1364
  659TMC3    C8 9814   1.276   0.221  15.375  0.1994  0.0756 -0.3030
  659TMC3    O1 9815   0.963   0.239  15.010 -0.0360 -0.3060  0.0308
  659TMC3    O2 9816   1.262   0.348  15.381 -0.4527  0.0300 -0.0404
  660MPD2     C 9817   4.596   3.662  12.254  0.1941 -0.0247 -0.5065
  660MPD2    C1 9818   4.470   3.680  12.196 -0.3785 -0.0723 -0.3004
  660MPD2    C2 9819   4.364   3.623  12.276 -0.0226 -0.0288 -0.0033
  660MPD2    C3 9820   4.386   3.553  12.394  0.3044 -0.3365  0.4022
  660MPD2    C4 9821   4.509   3.539  12.441 -0.2606  0.0147  0.5464
  660MPD2    C5 9822   4.615   3.589  12.368 -0.9421  0.0736 -0.3116
  660MPD2     H 9823   4.262   3.635  12.243  0.6807  1.2206 -1.7178
  660MPD2    H1 9824   4.538   3.493  12.535 -1.0427 -0.6757  0.4434
  660MPD2    H2 9825   4.681   3.689  12.193 -0.1310  2.6673  0.2188
  660MPD2    H3 9826   4.705   3.593  12.428 -2.2456 -1.5572  1.7585
  660MPD2     N 9827   4.275   3.506  12.469 -0.0318 -0.1296  0.5687
  660MPD2    H5 9828   4.288   3.448  12.551  0.6051  0.2923  0.7673
  660MPD2    N1 9829   4.460   3.741  12.067 -0.8377 -0.1739 -0.3027
  660MPD2    H7 9830   4.551   3.758  12.026 -0.5428  1.0004  0.8357
  661TMC3    C1 9831   4.342   3.794  11.871  0.3773 -0.3896  0.2127
  661TMC3    C2 9832   4.454   3.746  11.805  0.3512 -0.9613 -0.1423
  661TMC3    C3 9833   4.423   3.676  11.687 -0.3009  0.2391  0.4725
  661TMC3    C4 9834   4.216   3.779  11.823 -0.7221  0.8260  0.7823
  661TMC3    C5 9835   4.191   3.690  11.726  0.3447 -0.5999  0.5411
  661TMC3    C6 9836   4.294   3.632  11.659 -0.9851 -0.7838  0.2815
  661TMC3     C 9837   4.339   3.780  12.012 -0.3524  0.3998 -0.7486
  661TMC3     O 9838   4.229   3.778  12.075  0.0097  0.0527 -0.2992
  661TMC3     H 9839   4.549   3.792  11.831 -0.9211  0.1730  2.5339
  661TMC3    H1 9840   4.132   3.838  11.857  1.1393  2.4098  2.7013
  661TMC3    H2 9841   4.274   3.548  11.593  0.5794 -0.6879 -0.3170
  661TMC3    C7 9842   4.073   3.608  11.748  1.0582 -0.6852  0.1842
  661TMC3    C8 9843   4.535   3.608  11.625 -0.3168 -0.0079 -0.8432
  661TMC3    O1 9844   4.064   3.511  11.669 -0.4796 -0.0405 -0.3470
  661TMC3    O2 9845   4.642   3.645  11.678 -0.3793 -0.0189  0.8022
  662MPD2     C 9846   4.541   3.391   0.052 -0.6236 -0.0599 -0.3616
  662MPD2    C1 9847   4.481   3.368  17.670 -0.5311  0.4848  0.5262
  662MPD2    C2 9848   4.391   3.462  17.621 -0.7132 -0.6615  0.0385
  662MPD2    C3 9849   4.347   3.573  17.699 -0.3266  0.4906  0.2982
  662MPD2    C4 9850   4.406   3.590   0.083  0.4705  0.1183 -0.0862
  662MPD2    C5 9851   4.499   3.499   0.132  0.2605  0.3524  0.1011
  662MPD2     H 9852   4.341   3.436  17.529 -0.8664 -1.6744  0.4124
  662MPD2    H1 9853   4.382   3.670   0.153  2.1358 -0.1712  0.8171
  662MPD2    H2 9854   4.612   3.320   0.093 -2.5068 -0.3801  2.3269
  662MPD2    H3 9855   4.545   3.512   0.230  1.1284  0.7193 -0.3495
  662MPD2     N 9856   4.228   3.639  17.667 -0.6223  0.2974 -0.0735
  662MPD2    H5 9857   4.200   3.724  17.716 -0.0929  1.2570 -1.4234
  662MPD2    N1 9858   4.493   3.241  17.604 -0.1532 -0.0103 -0.3271
  662MPD2    H7 9859   4.456   3.235  17.510 -1.0455 -1.5318  0.1181
  663TMC3    C1 9860   4.453   3.014  17.602  0.5910  0.3682 -0.1150
  663TMC3    C2 9861   4.330   3.041  17.541  0.7595  0.4486  0.0877
  663TMC3    C3 9862   4.253   2.934  17.509 -0.1926 -0.1904  0.4139
  663TMC3    C4 9863   4.490   2.891  17.639  0.7144 -0.0952 -0.1205
  663TMC3    C5 9864   4.411   2.789  17.601  0.5865 -0.6504 -0.5705
  663TMC3    C6 9865   4.292   2.809  17.532 -0.2177  0.3597 -0.0064
  663TMC3     C 9866   4.518   3.124  17.666  0.1836 -0.5452  0.3287
  663TMC3     O 9867   4.568   3.095   0.032 -0.6780 -0.3058 -0.2117
  663TMC3     H 9868   4.277   3.134  17.553  0.1638  0.2687 -1.1250
  663TMC3    H1 9869   4.577   2.879  17.702  3.3786 -0.9292 -3.9759
  663TMC3    H2 9870   4.216   2.732  17.535 -0.4906  0.6385  0.1749
  663TMC3    C7 9871   4.443   2.652  17.651 -0.1689 -0.4428 -0.1760
  663TMC3    C8 9872   4.118   2.944  17.560 -0.2802  0.2935  0.1537
  663TMC3    O1 9873   4.388   2.555  17.604 -0.3142 -0.0202 -0.5683
  663TMC3    O2 9874   4.116   2.985  17.674 -0.5433  0.6959 -0.5235
  664MPD2     C 9875   2.142   1.475  17.651  0.6176  0.6892  0.0722
  664MPD2    C1 9876   2.225   1.572  17.694  0.2760  0.6918  0.6047
  664MPD2    C2 9877   2.282   1.572   0.081  0.3572  0.3277  0.1720
  664MPD2    C3 9878   2.244   1.480   0.176  0.2224  0.2125  0.5978
  664MPD2    C4 9879   2.155   1.390   0.137  0.2865 -0.7695 -0.2719
  664MPD2    C5 9880   2.111   1.387   0.009  1.0665 -0.2598 -0.1764
  664MPD2     H 9881   2.363   1.641   0.101 -0.9008  2.0084 -0.5465
  664MPD2    H1 9882   2.117   1.317   0.207  0.6927 -1.9487 -1.2814
  664MPD2    H2 9883   2.104   1.470  17.549 -0.4480 -2.4754  0.6041
  664MPD2    H3 9884   2.034   1.316  17.723 -0.3569  0.2906  2.4180
  664MPD2     N 9885   2.306   1.480   0.305 -0.1230 -0.1619  0.6117
  664MPD2    H5 9886   2.377   1.550   0.323  1.5298 -1.1059 -2.1353
  664MPD2    N1 9887   2.280   1.683  17.626 -0.8297  0.0707 -0.4384
  664MPD2    H7 9888   2.342   1.740  17.682 -1.7814  0.0361  0.6519
  665TMC3    C1 9889   2.370   1.410   0.512  0.4360 -0.1348 -0.0961
  665TMC3    C2 9890   2.297   1.395   0.629  0.0776  0.2500 -0.1653
  665TMC3    C3 9891   2.332   1.484   0.730 -0.2578 -0.8608 -0.0104
  665TMC3    C4 9892   2.470   1.502   0.497 -0.0311  0.2146  0.2776
  665TMC3    C5 9893   2.506   1.586   0.605  0.3029 -0.7505 -0.2697
  665TMC3    C6 9894   2.428   1.578   0.720 -0.2061 -0.4277  0.0266
  665TMC3     C 9895   2.286   1.388   0.402  0.1412  0.3309 -0.2338
  665TMC3     O 9896   2.215   1.287   0.403 -0.3876 -0.0363  0.0564
  665TMC3     H 9897   2.223   1.316   0.639 -0.1483  0.2843 -1.6014
  665TMC3    H1 9898   2.515   1.536   0.404  0.0475  0.1859  0.3059
  665TMC3    H2 9899   2.435   1.646   0.805 -1.6911  1.6638 -1.5407
  665TMC3    C7 9900   2.581   1.706   0.574  0.4187 -0.2222 -0.1817
  665TMC3    C8 9901   2.261   1.477   0.854  0.5425  0.0805  0.0066
  665TMC3    O1 9902   2.592   1.739   0.457  0.0168  0.0246  0.2806
  665TMC3    O2 9903   2.267   1.568   0.930  0.4824 -0.2946  1.2506
  666TMC3    C1 9904   2.296   1.938   9.594 -0.3253  0.7407  0.4327
  666TMC3    C2 9905   2.333   1.807   9.576  0.4375 -0.2072  0.3409
  666TMC3    C3 9906   2.454   1.778   9.630  0.3486 -0.4798 -0.2651
  666TMC3    C4 9907   2.361   2.040   9.660  0.0873 -0.1488  1.0591
  666TMC3    C5 9908   2.488   2.012   9.701 -0.4985 -0.0579  0.0376
  666TMC3    C6 9909   2.539   1.877   9.685 -0.1170  0.5032 -0.7580
  666TMC3     C 9910   2.158   1.971   9.565  0.1870 -0.2964 -0.5848
  666TMC3     O 9911   2.143   2.082   9.518 -0.1298 -0.3704  0.1301
  666TMC3     H 9912   2.269   1.731   9.533  1.5545 -0.5166 -0.7641
  666TMC3    H1 9913   2.323   2.141   9.656 -0.2556 -0.3403 -0.8825
  666TMC3    H2 9914   2.637   1.847   9.720 -0.6718 -1.0239 -0.5123
  666TMC3    C7 9915   2.540   2.092   9.803  0.3733 -0.2372  0.6819
  666TMC3    C8 9916   2.494   1.639   9.654  0.6681  0.4889 -0.1963
  666TMC3    O1 9917   2.659   2.072   9.823 -0.1344  0.1341 -0.4612
  666TMC3    O2 9918   2.405   1.559   9.655  0.8323  0.3366  0.3312
  667MPD2     C 9919   3.155   1.326  14.607 -0.4494 -0.2338 -0.4692
  667MPD2    C1 9920   3.064   1.370  14.700  0.2161 -0.3070  0.0820
  667MPD2    C2 9921   2.950   1.296  14.719 -0.3478 -0.8152  0.4767
  667MPD2    C3 9922   2.931   1.172  14.649 -0.1388 -0.2875 -0.0896
  667MPD2    C4 9923   3.026   1.134  14.553 -0.3393  0.4342 -0.4483
  667MPD2    C5 9924   3.126   1.217  14.528  0.1188 -0.4736 -0.2482
  667MPD2     H 9925   2.885   1.329  14.799 -0.4510 -1.4913  0.6699
  667MPD2    H1 9926   3.018   1.047  14.489 -1.6001  0.0188  0.2810
  667MPD2    H2 9927   3.241   1.389  14.586 -0.2725 -0.6373 -0.9468
  667MPD2    H3 9928   3.198   1.190  14.451  1.1940  0.2496  0.5044
  667MPD2     N 9929   2.823   1.091  14.680 -0.9203 -0.5725  0.6549
  667MPD2    H5 9930   2.835   0.991  14.678  2.9549 -0.0681  0.2491
  667MPD2    N1 9931   3.077   1.490  14.769  0.1197  0.0872 -0.0685
  667MPD2    H7 9932   3.011   1.501  14.846 -1.2201  2.3934 -1.5839
  668TMC3    C1 9933   3.177   1.687  14.853 -0.2788  0.3446 -0.2611
  668TMC3    C2 9934   3.241   1.807  14.842 -0.4192  0.0001  0.6377
  668TMC3    C3 9935   3.265   1.881  14.953 -0.6969  0.5574 -0.5067
  668TMC3    C4 9936   3.133   1.639  14.971 -0.1814 -0.6971 -0.2539
  668TMC3    C5 9937   3.149   1.718  15.087  0.2327 -0.1174  0.4683
  668TMC3    C6 9938   3.222   1.837  15.078 -0.1833  0.3271 -0.2176
  668TMC3     C 9939   3.181   1.586  14.751 -0.0887 -0.1065 -0.2908
  668TMC3     O 9940   3.277   1.598  14.672 -0.0394  0.4329 -0.0464
  668TMC3     H 9941   3.279   1.840  14.746  2.1988 -1.3822  1.2081
  668TMC3    H1 9942   3.098   1.538  14.985 -1.9318 -0.2204 -1.1700
  668TMC3    H2 9943   3.242   1.896  15.166 -2.6357 -0.4508  0.8385
  668TMC3    C7 9944   3.104   1.672  15.217  0.5913  0.7813 -0.9839
  668TMC3    C8 9945   3.338   2.008  14.944 -0.6205 -0.1507  0.5082
  668TMC3    O1 9946   3.166   1.709  15.316  0.1369  0.0963  0.0812
  668TMC3    O2 9947   3.347   2.072  15.049  0.2015  0.7222 -0.1342
  669TMC3    C1 9948   1.464   1.853  14.499  0.9270 -0.3280  0.6666
  669TMC3    C2 9949   1.351   1.869  14.423 -0.2008 -0.0294  0.3195
  669TMC3    C3 9950   1.365   1.878  14.287 -0.1413 -0.0768 -0.6562
  669TMC3    C4 9951   1.591   1.855  14.448 -0.0879 -0.2961  0.0308
  669TMC3    C5 9952   1.604   1.895  14.315  0.0204  0.2124 -0.3399
  669TMC3    C6 9953   1.489   1.902  14.234 -0.7950 -0.0213 -0.1390
  669TMC3     C 9954   1.441   1.788  14.624  0.2322 -0.3259  0.4916
  669TMC3     O 9955   1.328   1.801  14.671  0.1954 -0.3991  0.2330
  669TMC3     H 9956   1.251   1.870  14.465 -0.2584  1.9447  0.1169
  669TMC3    H1 9957   1.670   1.849  14.522  0.3622  0.3274 -0.3976
  669TMC3    H2 9958   1.494   1.939  14.132  2.4587 -0.3684 -0.1023
  669TMC3    C7 9959   1.731   1.937  14.269  0.9805  0.9522 -0.1110
  669TMC3    C8 9960   1.252   1.897  14.193 -0.7023 -0.0906  0.2567
  669TMC3    O1 9961   1.827   1.971  14.337  0.9379  0.0361 -0.1527
  669TMC3    O2 9962   1.279   1.903  14.070  0.0802  0.2870  0.3587
  670MPD2     C 9963   4.395   3.910  13.624  0.5851 -0.5752  0.1633
  670MPD2    C1 9964   4.500   3.829  13.656 -0.4439  0.5191 -0.6230
  670MPD2    C2 9965   4.477   3.715  13.729  0.0169  0.3897 -0.2581
  670MPD2    C3 9966   4.351   3.683  13.776 -0.3245 -0.0788  0.2357
  670MPD2    C4 9967   4.246   3.773  13.748 -0.2648 -0.2998  0.0167
  670MPD2    C5 9968   4.270   3.890  13.684  0.9048 -0.4492  0.3723
  670MPD2     H 9969   4.560   3.653  13.760  0.1210 -0.4443 -2.2740
  670MPD2    H1 9970   4.145   3.757  13.786 -0.5933 -3.0700 -2.0358
  670MPD2    H2 9971   4.403   3.993  13.555 -2.2893  0.7482  1.3832
  670MPD2    H3 9972   4.187   3.959  13.670  0.8867 -0.0803  2.2228
  670MPD2     N 9973   4.339   3.562  13.842 -0.3196 -0.2066  0.6163
  670MPD2    H5 9974   4.423   3.506  13.856  1.4980  2.3336 -0.1921
  670MPD2    N1 9975   4.635   3.867  13.621 -0.7512  0.2540 -0.4308
  670MPD2    H7 9976   4.712   3.806  13.642 -0.8265 -0.1067 -1.2010
  671TMC3    C1 9977   4.230   3.391  13.966 -0.5001  0.1938  1.2581
  671TMC3    C2 9978   4.352   3.376  14.026  0.0185 -0.4206  0.0725
  671TMC3    C3 9979   4.413   3.259  13.999 -0.4405  0.7032 -0.9123
  671TMC3    C4 9980   4.167   3.289  13.897 -0.1362  0.5824  0.0245
  671TMC3    C5 9981   4.224   3.164  13.885 -0.3725 -0.0081 -0.6973
  671TMC3    C6 9982   4.351   3.153  13.938  0.3138 -0.1024  0.2225
  671TMC3     C 9983   4.215   3.516  13.902  0.4922 -0.4566 -0.5205
  671TMC3     O 9984   4.103   3.570  13.896 -0.3419  0.2330  0.4237
  671TMC3     H 9985   4.402   3.464  14.065  0.3280 -0.4900 -0.1715
  671TMC3    H1 9986   4.072   3.303  13.847  0.7325  0.9996 -1.5339
  671TMC3    H2 9987   4.413   3.066  13.924 -0.0454 -0.3781  0.3241
  671TMC3    C7 9988   4.222   3.129  13.744 -0.4109  0.9636 -0.3847
  671TMC3    C8 9989   4.553   3.272  13.992  0.0990  0.0115  0.8161
  671TMC3    O1 9990   4.328   3.127  13.684  0.2130 -0.8288  0.1725
  671TMC3    O2 9991   4.613   3.224  13.894  0.2861 -0.0770 -0.5600
  672MPD2     C 9992   0.084   0.206   0.844  0.0349 -0.0977 -0.5492
  672MPD2    C1 9993   0.161   0.098   0.817 -0.8387  0.3660  0.2653
  672MPD2    C2 9994   0.301   0.111   0.829 -0.2289  0.1462  0.5818
  672MPD2    C3 9995   0.361   0.229   0.882  0.2500 -1.0030  0.0756
  672MPD2    C4 9996   0.277   0.337   0.902  0.1940 -0.1560 -0.3929
  672MPD2    C5 9997   0.141   0.326   0.876  0.5980  0.0272 -0.6082
  672MPD2     H 9998   0.364   0.024   0.821  1.0858  0.9261  2.4027
  672MPD2    H1 9999   0.320   0.423   0.952 -1.2362 -0.1986  0.8970
  672MPD2    H210000   4.711   0.197   0.840 -0.0847  1.1219 -0.0393
  672MPD2    H310001   0.081   0.411   0.908 -2.1806 -2.5586  1.0042
  672MPD2     N10002   0.500   0.254   0.902 -0.5376  0.2596 -0.4070
  672MPD2    H510003   0.521   0.338   0.955 -1.0884  0.5264 -0.6129
  672MPD2    N110004   0.109   4.712   0.774  0.1330  0.3310  0.4231
  672MPD2    H710005   0.168   4.640   0.735 -1.1291 -2.1668  3.1516
  673TMC3    C110006   4.672   4.535   0.733 -0.5612  0.4277  0.2334
  673TMC3    C210007   0.032   4.454   0.691 -0.7002  0.1340  0.0972
  673TMC3    C310008   4.723   4.339   0.626 -0.3079  0.0049  0.1123
  673TMC3    C410009   4.541   4.518   0.712  0.2866  0.4051  0.0078
  673TMC3    C510010   4.501   4.412   0.641  0.3433 -0.4433  0.0651
  673TMC3    C610011   4.588   4.316   0.599  0.1162  0.1404 -0.7766
  673TMC3     C10012   4.709   4.668   0.785 -0.0736 -0.2311 -0.0931
  673TMC3     O10013   4.617   4.724   0.841 -0.5481 -0.2926 -0.1081
  673TMC3     H10014   0.138   4.479   0.696 -0.8503  0.8829 -0.4664
  673TMC3    H110015   4.468   4.583   0.758  0.9325  2.5072 -1.9444
  673TMC3    H210016   4.559   4.219   0.560 -1.1660 -0.3540  1.3878
  673TMC3    C710017   4.356   4.404   0.608  0.5228  0.2097 -0.2167
  673TMC3    C810018   0.079   4.246   0.571 -0.1854  0.0351 -0.6736
  673TMC3    O110019   4.316   4.303   0.553  0.4208 -0.4954  0.2146
  673TMC3    O210020   0.036   4.178   0.483 -0.3650 -0.3452  0.5648
  674MPD2     C10021   3.923   0.172   0.072  0.3291  0.1418 -0.1465
  674MPD2    C110022   3.896   0.041   0.052  0.2730  0.2986 -0.7679
  674MPD2    C210023   3.775   0.007  17.737 -0.0732 -0.0300 -0.0342
  674MPD2    C310024   3.676   0.104  17.715  0.3185  0.7324 -0.7735
  674MPD2    C410025   3.710   0.241  17.732 -0.5942 -0.3986  0.6797
  674MPD2    C510026   3.829   0.267   0.051 -0.9681  0.3066 -0.2435
  674MPD2     H10027   3.747   4.641  17.709 -1.3982  0.9115 -2.1158
  674MPD2    H110028   3.641   0.325  17.724  0.2269  0.2102  0.0701
  674MPD2    H210029   4.025   0.192   0.105 -0.4786  0.5486  2.0853
  674MPD2    H310030   3.861   0.366   0.080  0.8261 -0.6647  1.1058
  674MPD2     N10031   3.554   0.059  17.662 -0.3986 -0.3769  0.5224
  674MPD2    H510032   3.540   4.695  17.651  0.5645 -0.3481 -1.0248
  674MPD2    N110033   3.989   4.683   0.097 -0.4330 -0.2319 -0.4950
  674MPD2    H710034   4.075   4.720   0.137 -2.1023  3.0213  0.0921
  675TMC3    C110035   4.089   4.482   0.147 -0.0588  0.6135 -0.5539
  675TMC3    C210036   4.082   4.352   0.177  0.4104 -0.2077  0.7592
  675TMC3    C310037   4.191   4.280   0.215  0.3043 -0.8424  0.1009
  675TMC3    C410038   4.203   4.550   0.195 -0.2315 -0.3777  0.2582
  675TMC3    C510039   4.305   4.476   0.243  0.2632 -0.2874  0.0958
  675TMC3    C610040   4.309   4.337   0.249  0.3234  0.8296 -0.4207
  675TMC3     C10041   3.971   4.547   0.100 -0.0579  0.4010  0.6892
  675TMC3     O10042   3.868   4.482   0.089 -0.0995  0.3008 -0.0513
  675TMC3     H10043   3.987   4.304   0.156  0.8724 -2.1028  3.0130
  675TMC3    H110044   4.215   4.658   0.189 -0.8705 -0.3302 -0.2006
  675TMC3    H210045   4.393   4.277   0.280 -1.3207 -0.5933  1.2455
  675TMC3    C710046   4.426   4.545   0.265 -0.2343  0.3229  0.9843
  675TMC3    C810047   4.163   4.148   0.254 -0.9892  0.5078  0.4003
  675TMC3    O110048   4.414   4.664   0.292  0.3758 -0.1106  0.0899
  675TMC3    O210049   4.095   4.099   0.168  0.4419 -0.2088 -0.3086
  676MPD2     C10050   2.622   2.394  11.055 -0.0520 -0.4180  0.4946
  676MPD2    C110051   2.575   2.332  11.171  0.1635 -0.2880 -0.7330
  676MPD2    C210052   2.579   2.191  11.174  0.6720 -0.0697  0.4633
  676MPD2    C310053   2.614   2.115  11.064 -0.6442  0.0412 -0.2144
  676MPD2    C410054   2.647   2.177  10.951 -0.4951  0.0949 -0.4735
  676MPD2    C510055   2.649   2.319  10.947 -0.0510  0.0493 -0.1810
  676MPD2     H10056   2.549   2.143  11.266  0.1272  0.3603  0.5074
  676MPD2    H110057   2.668   2.128  10.857  1.1800  0.7114 -0.4151
  676MPD2    H210058   2.630   2.502  11.043  0.3533 -0.5821 -0.6728
  676MPD2    H310059   2.675   2.358  10.849 -1.2919 -0.3873 -0.6859
  676MPD2     N10060   2.602   1.971  11.050  0.0410 -0.6014 -0.0384
  676MPD2    H510061   2.643   1.929  10.967 -0.6987  1.7651 -1.6143
  676MPD2    N110062   2.547   2.404  11.286 -0.1121  0.4715 -0.3545
  676MPD2    H710063   2.537   2.345  11.368  2.7544  0.3188 -0.1257
  677TMC3    C110064   2.486   2.591  11.422  0.1596  0.1302  0.1930
  677TMC3    C210065   2.442   2.504  11.515  0.5041 -0.0452 -0.0732
  677TMC3    C310066   2.363   2.549  11.614  0.2221 -0.0260 -0.2213
  677TMC3    C410067   2.456   2.721  11.424  0.2830 -0.8047 -0.0480
  677TMC3    C510068   2.395   2.765  11.536  0.2213 -0.0100  0.6252
  677TMC3    C610069   2.332   2.683  11.626  0.7686 -0.5073  0.2403
  677TMC3     C10070   2.537   2.542  11.296 -0.1798 -0.2387 -0.3494
  677TMC3     O10071   2.544   2.627  11.207  0.6551  0.5082 -0.7764
  677TMC3     H10072   2.481   2.403  11.517 -1.0210 -0.6548 -0.9746
  677TMC3    H110073   2.499   2.788  11.350  1.4322 -0.0940  1.2524
  677TMC3    H210074   2.294   2.724  11.719  2.7787  1.3358  0.2546
  677TMC3    C710075   2.407   2.901  11.569  0.2377 -0.4202  0.6409
  677TMC3    C810076   2.389   2.487  11.737 -0.4320  0.9484 -0.0685
  677TMC3    O110077   2.309   2.944  11.627  0.3499  0.3457 -0.1651
  677TMC3    O210078   2.498   2.428  11.742  0.0477  0.1491  0.8571
  678MPD2     C10079   3.416   2.105   1.512 -0.4814  0.1422  0.1478
  678MPD2    C110080   3.458   2.156   1.390  0.2626 -0.3553 -0.3317
  678MPD2    C210081   3.352   2.216   1.314  0.0338 -0.5296  0.1503
  678MPD2    C310082   3.226   2.251   1.362 -0.1799  0.3170  0.6095
  678MPD2    C410083   3.195   2.207   1.490 -0.5718 -0.4567  0.9957
  678MPD2    C510084   3.291   2.132   1.552  0.1291 -0.3409  0.7805
  678MPD2     H10085   3.377   2.244   1.212  3.7760 -1.4244  0.8039
  678MPD2    H110086   3.091   2.209   1.521 -0.4345  1.5297  1.2981
  678MPD2    H210087   3.487   2.048   1.570 -0.5992  1.6142  1.7238
  678MPD2    H310088   3.273   2.082   1.646 -0.2666  0.4563  1.1360
  678MPD2     N10089   3.129   2.291   1.270  0.2306 -0.4571 -0.7051
  678MPD2    H510090   3.159   2.298   1.173  1.1153  0.8990 -0.3372
  678MPD2    N110091   3.582   2.131   1.331  0.3605 -0.2260 -0.4136
  678MPD2    H710092   3.597   2.165   1.237  0.0732  0.7079 -0.1207
  679TMC3    C110093   4.010   1.968   1.246  0.7931 -0.2755 -1.3666
  679TMC3    C210094   3.895   1.961   1.323 -0.4300  0.5249 -0.5718
  679TMC3    C310095   3.803   2.060   1.304 -0.5508 -0.8563 -0.3320
  679TMC3    C410096   4.028   2.070   1.161  0.2818 -0.0044  0.8474
  679TMC3    C510097   3.929   2.164   1.149 -0.6528 -0.3893 -0.0687
  679TMC3    C610098   3.814   2.161   1.214  0.4190 -0.0193  0.1750
  679TMC3     C10099   4.116   1.872   1.276  0.0250  0.0650 -0.0094
  679TMC3     O10100   4.086   1.777   1.350  0.1409  0.1695  0.7072
  679TMC3     H10101   3.865   1.878   1.386 -1.2182  0.9510 -0.3891
  679TMC3    H110102   4.111   2.067   1.091 -0.1861  3.3257  0.1418
  679TMC3    H210103   3.761   2.254   1.232  0.3368  0.3861 -2.1198
  679TMC3    C710104   3.928   2.270   1.045 -0.7620  0.0723 -0.3479
  679TMC3    C810105   3.689   2.071   1.390 -1.0754  0.4668 -0.1037
  679TMC3    O110106   3.819   2.318   1.029 -0.1968  0.2624  0.0179
  679TMC3    O210107   3.699   2.021   1.502  0.5687  0.0167 -0.1601
  680MPD2     C10108   3.810   0.662  13.041 -0.2706  0.0722  0.1564
  680MPD2    C110109   3.941   0.705  13.055 -0.1228  0.2219 -0.4859
  680MPD2    C210110   3.989   0.747  13.179  0.1930  0.1922  0.3927
  680MPD2    C310111   3.896   0.735  13.282 -0.6976 -0.0744  0.7694
  680MPD2    C410112   3.763   0.703  13.261 -0.1585 -0.6522  0.4337
  680MPD2    C510113   3.720   0.666  13.138 -0.5798  0.3835 -0.3723
  680MPD2     H10114   4.093   0.776  13.192  0.6705 -1.7858  1.0500
  680MPD2    H110115   3.698   0.708  13.347  1.5070  1.1843  1.5783
  680MPD2    H210116   3.779   0.646  12.938  1.6570 -1.0548 -0.2496
  680MPD2    H310117   3.616   0.640  13.121 -0.3513 -0.6732 -0.1668
  680MPD2     N10118   3.924   0.769  13.417 -0.1015  0.6974  0.1060
  680MPD2    H510119   3.846   0.752  13.480  0.4518  1.5564  1.0407
  680MPD2    N110120   4.004   0.713  12.927 -0.2927  0.0670  0.3767
  680MPD2    H710121   3.945   0.713  12.845 -2.6997 -0.2120  2.1253
  681TMC3    C110122   4.230   0.700  13.006  0.2538 -0.3838  0.2445
  681TMC3    C210123   4.215   0.584  13.078 -0.2631  0.1617 -0.1312
  681TMC3    C310124   4.305   0.566  13.178  0.4713  1.1132  0.9011
  681TMC3    C410125   4.332   0.784  13.023  0.8768  0.4996 -0.1003
  681TMC3    C510126   4.421   0.754  13.119  0.5276 -0.3122 -0.2548
  681TMC3    C610127   4.406   0.649  13.207  0.9984  0.0630 -0.0520
  681TMC3     C10128   4.139   0.736  12.899 -0.1698 -0.0931 -0.0296
  681TMC3     O10129   4.194   0.756  12.793  0.7803 -0.5897 -0.6348
  681TMC3     H10130   4.129   0.521  13.058 -0.8613  0.7050  0.7260
  681TMC3    H110131   4.340   0.877  12.967 -0.8932  1.9894  2.1194
  681TMC3    H210132   4.490   0.618  13.268  0.2569 -1.9672 -0.0542
  681TMC3    C710133   4.553   0.802  13.114 -0.3392 -0.3288  0.4387
  681TMC3    C810134   4.254   0.487  13.288  0.1801  0.2900  0.7230
  681TMC3    O110135   4.614   0.794  13.222  0.3928  0.2110 -0.2743
  681TMC3    O210136   4.167   0.411  13.250 -0.4395  0.7244  0.2548
  682MPD2     C10137   1.909   2.789  10.960  0.3813  0.0861  1.0135
  682MPD2    C110138   1.853   2.661  10.940  0.5167 -0.1718  0.2604
  682MPD2    C210139   1.771   2.614  11.041 -0.5278  0.1332 -0.2681
  682MPD2    C310140   1.734   2.692  11.150  0.2958 -0.0370  0.3697
  682MPD2    C410141   1.790   2.816  11.161 -0.8255 -0.7731 -0.1441
  682MPD2    C510142   1.884   2.857  11.069 -0.2520  0.4447 -0.1569
  682MPD2     H10143   1.733   2.512  11.045  0.0222 -0.0936 -0.7387
  682MPD2    H110144   1.765   2.880  11.245  0.4394 -0.8556  0.2948
  682MPD2    H210145   1.975   2.835  10.888 -0.5274  0.2916  0.3037
  682MPD2    H310146   1.935   2.952  11.082  0.6271 -0.2203  1.2070
  682MPD2     N10147   1.639   2.669  11.254  0.3151 -0.6063 -0.1980
  682MPD2    H510148   1.634   2.736  11.330 -2.0153 -3.2830  1.9555
  682MPD2    N110149   1.896   2.567  10.838  0.1177  0.4925 -0.1063
  682MPD2    H710150   1.845   2.479  10.830 -1.2879  1.2374  0.5582
  683TMC3    C110151   1.385   2.534  11.558  1.1913  0.0649 -0.0390
  683TMC3    C210152   1.282   2.444  11.531 -0.1454 -0.5906 -0.1506
  683TMC3    C310153   1.245   2.433  11.401  0.1455 -0.1435  0.4383
  683TMC3    C410154   1.461   2.595  11.460  0.7092  0.0006 -0.0269
  683TMC3    C510155   1.432   2.572  11.329  0.1125 -0.1143 -0.2841
  683TMC3    C610156   1.318   2.492  11.301  0.7424  0.3252 -0.3532
  683TMC3     C10157   1.423   2.561  11.696 -0.2205  0.4091  0.7644
  683TMC3     O10158   1.513   2.647  11.703 -0.0772  0.1449 -0.3410
  683TMC3     H10159   1.224   2.390  11.604 -0.8857 -0.1320 -0.4015
  683TMC3    H110160   1.557   2.639  11.482  0.1751  0.0648  2.1379
  683TMC3    H210161   1.284   2.466  11.202  0.9380 -0.3917 -0.2288
  683TMC3    C710162   1.539   2.573  11.228  0.1071  0.5826 -0.1094
  683TMC3    C810163   1.176   2.311  11.357  0.1459  0.1125  1.1167
  683TMC3    O110164   1.528   2.492  11.137 -0.0083  0.3049  0.0573
  683TMC3    O210165   1.102   2.332  11.263  0.5993  0.8149 -0.0057
  684MPD2     C10166   4.331   1.904  16.295  0.0699 -0.4563 -0.0889
  684MPD2    C110167   4.257   1.970  16.200  0.3382 -0.4347 -0.2134
  684MPD2    C210168   4.238   2.098  16.230 -0.6049 -0.1667  0.1764
  684MPD2    C310169   4.293   2.166  16.339  0.1740  0.1909 -0.2572
  684MPD2    C410170   4.366   2.096  16.433  0.3985  0.2293  0.2430
  684MPD2    C510171   4.380   1.961  16.402 -0.0375 -0.6161 -0.6125
  684MPD2     H10172   4.170   2.152  16.165  0.6680  0.4392 -0.6360
  684MPD2    H110173   4.409   2.137  16.523  1.5937  1.3014 -0.8166
  684MPD2    H210174   4.357   1.799  16.282  2.1239 -0.0255  0.5501
  684MPD2    H310175   4.446   1.902  16.465 -1.2171 -0.9078  0.3463
  684MPD2     N10176   4.287   2.309  16.357  0.0440 -0.8191 -0.3039
  684MPD2    H510177   4.330   2.348  16.440  1.0042 -0.9456 -0.7492
  684MPD2    N110178   4.237   1.918  16.065 -0.3475  0.6725 -0.6481
  684MPD2    H710179   4.199   1.991  16.006  0.3594  1.3894 -0.2091
  685TMC3    C110180   4.284   1.781  15.878  0.5169 -0.4082  0.2426
  685TMC3    C210181   4.191   1.852  15.804  0.3532 -0.0484 -0.0836
  685TMC3    C310182   4.224   1.887  15.673  0.5534 -0.3685  0.3592
  685TMC3    C410183   4.401   1.740  15.824  0.2996 -0.1727  0.0620
  685TMC3    C510184   4.425   1.774  15.687 -0.5048 -0.0063  0.0162
  685TMC3    C610185   4.341   1.846  15.612 -0.2107 -0.3622  0.0076
  685TMC3     C10186   4.285   1.794  16.023  0.4090  0.6063 -0.4283
  685TMC3     O10187   4.319   1.697  16.085  0.3893  0.5106 -0.9507
  685TMC3     H10188   4.106   1.898  15.853  2.2584  1.6722  1.6064
  685TMC3    H110189   4.471   1.692  15.890  1.4126 -0.3451 -1.2422
  685TMC3    H210190   4.362   1.868  15.508  1.7284  0.1157  0.4998
  685TMC3    C710191   4.572   1.781  15.655  0.0569 -0.0916  0.0612
  685TMC3    C810192   4.144   1.982  15.595  0.9941 -0.1267  0.1230
  685TMC3    O110193   4.608   1.875  15.587  0.5888  0.2251 -0.1835
  685TMC3    O210194   4.143   1.953  15.476  0.0010  0.6601 -0.5444
  686MPD2     C10195   1.324   2.152  15.531 -0.2790 -1.2544  0.0022
  686MPD2    C110196   1.347   2.048  15.616  0.0938  0.1780  0.2231
  686MPD2    C210197   1.466   1.976  15.611  0.1342 -0.0533 -0.2056
  686MPD2    C310198   1.562   2.003  15.513 -0.2125 -0.2766 -0.6607
  686MPD2    C410199   1.535   2.099  15.419  0.6185 -0.3349  0.1204
  686MPD2    C510200   1.415   2.174  15.432 -0.5172 -0.3356  0.3111
  686MPD2     H10201   1.483   1.893  15.678 -0.7147 -1.1622 -1.3706
  686MPD2    H110202   1.602   2.136  15.342  0.3115  2.1100  1.0100
  686MPD2    H210203   1.233   2.210  15.524  1.3475  1.2271 -0.7137
  686MPD2    H310204   1.390   2.250  15.359  1.4656 -0.7945 -0.8408
  686MPD2     N10205   1.685   1.939  15.505  0.4967  0.2765 -0.2126
  686MPD2    H510206   1.750   1.970  15.434 -0.2204  1.5310 -0.3078
  686MPD2    N110207   1.240   2.004  15.687 -0.6656 -0.2939 -0.1988
  686MPD2    H710208   1.157   2.061  15.680 -1.1862 -1.2557 -1.9080
  687TMC3    C110209   1.656   1.722  15.611 -0.0836  0.6993 -0.2116
  687TMC3    C210210   1.538   1.693  15.551 -0.0350 -0.6459  0.6649
  687TMC3    C310211   1.472   1.589  15.610 -0.2313 -0.0169  0.3382
  687TMC3    C410212   1.705   1.654  15.718 -0.4629 -0.2612  0.1450
  687TMC3    C510213   1.635   1.555  15.771 -1.0220  0.6098  0.7599
  687TMC3    C610214   1.514   1.525  15.723 -0.1132 -0.0595 -0.2419
  687TMC3     C10215   1.737   1.831  15.574 -0.7010 -0.0223  0.1508
  687TMC3     O10216   1.857   1.815  15.580 -0.2937 -0.1241 -0.6334
  687TMC3     H10217   1.500   1.753  15.469  1.9674 -1.6705 -1.0088
  687TMC3    H110218   1.798   1.686  15.762  0.7273 -1.8550 -1.2128
  687TMC3    H210219   1.456   1.443  15.764 -1.1219  0.3568 -0.8210
  687TMC3    C710220   1.659   1.527  15.911 -0.7143  0.6208 -0.4873
  687TMC3    C810221   1.321   1.581  15.586 -0.8068 -0.5257  1.4436
  687TMC3    O110222   1.564   1.533  15.989 -0.4165  0.7720 -0.1370
  687TMC3    O210223   1.255   1.541  15.678 -0.4321 -0.0094  0.0977
  688MPD2     C10224   4.694   0.857  17.279  0.0971  0.2709 -0.2075
  688MPD2    C110225   4.706   0.727  17.328 -0.1060 -0.6271 -0.5653
  688MPD2    C210226   0.035   0.632  17.251  0.3547 -0.5666 -1.3832
  688MPD2    C310227   0.109   0.664  17.136 -0.1040  0.2186 -0.1433
  688MPD2    C410228   0.107   0.793  17.100 -0.3175  0.2363  0.1981
  688MPD2    C510229   0.034   0.885  17.172 -0.7443 -0.4314  0.2136
  688MPD2     H10230   0.026   0.530  17.286  0.6376  0.1066  0.6013
  688MPD2    H110231   0.168   0.828  17.017 -0.0886 -0.6974 -0.0303
  688MPD2    H210232   4.633   0.938  17.319  0.4568 -0.7187  2.3294
  688MPD2    H310233   0.027   0.988  17.141  1.3543  0.1747  1.8178
  688MPD2     N10234   0.206   0.579  17.082 -0.1253 -0.5603 -0.0201
  688MPD2    H510235   0.268   0.614  17.010 -0.6067 -2.1419 -1.1962
  688MPD2    N110236   4.636   0.681  17.444  0.1214 -0.3713 -0.4305
  688MPD2    H710237   4.656   0.584  17.467  1.2597  0.1092  0.5905
  689TMC3    C110238   4.544   0.706  17.658 -0.5793 -0.4493 -0.4335
  689TMC3    C210239   4.548   0.790   0.026  0.3556  0.0743 -0.1551
  689TMC3    C310240   4.502   0.744   0.144  0.0062 -0.1330 -0.6821
  689TMC3    C410241   4.478   0.583  17.669  0.6870  0.6168 -0.3124
  689TMC3    C510242   4.427   0.546   0.049  0.1023 -1.0339  0.1779
  689TMC3    C610243   4.442   0.622   0.158 -0.3302 -0.1154 -0.5865
  689TMC3     C10244   4.571   0.768  17.528 -0.7544  0.3225  0.1819
  689TMC3     O10245   4.551   0.890  17.526  0.1332  0.2961  0.3195
  689TMC3     H10246   4.611   0.879   0.019 -1.0038  0.9769 -0.8400
  689TMC3    H110247   4.495   0.503  17.598  2.2256  0.2052  0.5157
  689TMC3    H210248   4.425   0.576   0.255 -0.5506  0.4911 -0.3374
  689TMC3    C710249   4.421   0.402   0.060 -0.1015 -0.3228  0.7282
  689TMC3    C810250   4.551   0.800   0.268  0.1791  0.6770  0.1465
  689TMC3    O110251   4.475   0.354   0.158  0.3088 -0.1861  0.5299
  689TMC3    O210252   4.558   0.728   0.364 -0.6147 -0.0186  0.6059
  690MPD2     C10253   2.894   2.638  15.591  0.4155 -0.2339 -0.4353
  690MPD2    C110254   2.807   2.619  15.492  0.1701 -0.2689  0.1402
  690MPD2    C210255   2.842   2.652  15.364  0.1412 -0.5989 -0.2499
  690MPD2    C310256   2.980   2.671  15.336  0.4506 -0.1418 -0.1605
  690MPD2    C410257   3.072   2.678  15.442 -0.5786  0.5841 -0.0794
  690MPD2    C510258   3.025   2.667  15.569 -0.6875  0.3248 -0.1730
  690MPD2     H10259   2.770   2.641  15.284 -1.5863  1.4796  1.0229
  690MPD2    H110260   3.179   2.685  15.428 -0.5253 -1.4179 -0.6952
  690MPD2    H210261   2.866   2.619  15.694 -0.9452  0.8662 -0.5899
  690MPD2    H310262   3.091   2.672  15.655 -0.0338 -2.1115 -0.5237
  690MPD2     N10263   3.029   2.676  15.201 -0.4347  0.5130  0.4298
  690MPD2    H510264   2.966   2.690  15.123 -1.7506 -1.6512  1.0995
  690MPD2    N110265   2.668   2.578  15.517  0.1797 -1.0418  0.4647
  690MPD2    H710266   2.604   2.589  15.439  1.2227 -0.3856 -0.3102
  691TMC3    C110267   2.504   2.441  15.605  0.3388  0.2467 -0.2198
  691TMC3    C210268   2.417   2.489  15.506 -0.2442 -0.3503 -0.5058
  691TMC3    C310269   2.316   2.401  15.471 -0.6694 -0.4486  0.3390
  691TMC3    C410270   2.479   2.323  15.661 -0.5309 -0.0527  0.6168
  691TMC3    C510271   2.382   2.239  15.618  0.1550  0.2748 -0.5076
  691TMC3    C610272   2.300   2.271  15.512 -0.4299 -0.5574  0.0691
  691TMC3     C10273   2.635   2.503  15.626  0.4567 -0.2853 -0.0822
  691TMC3     O10274   2.702   2.469  15.722 -0.2628  0.2824  0.2250
  691TMC3     H10275   2.424   2.588  15.464  0.4764 -0.7760 -1.3953
  691TMC3    H110276   2.550   2.290  15.736  0.3279 -1.6958 -0.9235
  691TMC3    H210277   2.218   2.214  15.470 -1.3267 -0.4975  1.7530
  691TMC3    C710278   2.401   2.100  15.653 -0.0345 -0.4015 -0.2294
  691TMC3    C810279   2.223   2.450  15.375 -0.4298  0.4398 -0.4887
  691TMC3    O110280   2.498   2.078  15.722 -0.5652 -0.1356  0.0353
  691TMC3    O210281   2.189   2.368  15.290  0.0247  0.4198 -0.5305
  692TMC3    C110282   3.900   3.611  15.750  0.5550 -0.0159 -0.5016
  692TMC3    C210283   4.017   3.672  15.791  0.6394 -0.2516 -0.3209
  692TMC3    C310284   4.132   3.594  15.787  0.4643 -0.5187  0.6061
  692TMC3    C410285   3.889   3.488  15.690  0.2000  0.2987  1.1425
  692TMC3    C510286   4.005   3.415  15.685 -0.5246  0.3528  0.2881
  692TMC3    C610287   4.123   3.464  15.734  0.0401  0.2745 -0.3908
  692TMC3     C10288   3.779   3.682  15.783 -0.5036 -0.8667 -0.4294
  692TMC3     O10289   3.684   3.616  15.814  0.2719  0.3779 -0.3929
  692TMC3     H10290   4.010   3.760  15.854 -0.2928 -2.0719  2.1428
  692TMC3    H110291   3.800   3.448  15.643  0.9491 -0.6358  0.5231
  692TMC3    H210292   4.216   3.416  15.707  0.2426  0.3495  0.1725
  692TMC3    C710293   3.992   3.273  15.645  0.4750  0.0383  0.2184
  692TMC3    C810294   4.206   3.585  15.913  0.5073  0.0604  0.4543
  692TMC3    O110295   3.894   3.235  15.582 -0.1547  0.7365 -0.0775
  692TMC3    O210296   4.254   3.480  15.942  0.1023 -0.8580 -0.0078
  693MPD2     C10297   3.706   1.389  10.099  0.2623 -0.3368 -0.4132
  693MPD2    C110298   3.664   1.457  10.211 -0.6365 -0.5727  0.1441
  693MPD2    C210299   3.742   1.475  10.326 -0.8586 -0.2351  0.3035
  693MPD2    C310300   3.864   1.415  10.332 -0.4335 -0.2817 -0.8002
  693MPD2    C410301   3.915   1.365  10.215  0.2495 -0.5739 -0.5049
  693MPD2    C510302   3.832   1.346  10.105  0.5543  0.1415 -0.4765
  693MPD2     H10303   3.689   1.519  10.410  0.2599 -0.9916  1.3932
  693MPD2    H110304   4.017   1.327  10.214  0.6797  0.6870 -3.2830
  693MPD2    H210305   3.644   1.382  10.010  0.1718 -2.9086 -0.1266
  693MPD2    H310306   3.869   1.293  10.019  1.1169  1.2129 -0.8979
  693MPD2     N10307   3.932   1.382  10.451  0.5931 -0.0756 -0.5235
  693MPD2    H510308   4.020   1.333  10.446  1.0714  0.7944 -0.6435
  693MPD2    N110309   3.526   1.493  10.215 -0.3552 -0.8505 -0.4446
  693MPD2    H710310   3.470   1.451  10.141 -0.4948 -0.2098 -0.6968
  694TMC3    C110311   3.347   1.514  10.365 -0.2902  0.1845 -0.4666
  694TMC3    C210312   3.306   1.383  10.334  0.0281 -0.3246  0.5020
  694TMC3    C310313   3.249   1.315  10.432  0.1700 -0.8047 -0.3611
  694TMC3    C410314   3.308   1.572  10.483  0.5757 -0.1337  0.0557
  694TMC3    C510315   3.249   1.489  10.575  0.2766  0.3575 -0.3979
  694TMC3    C610316   3.223   1.360  10.560  0.3351 -0.2141 -0.5083
  694TMC3     C10317   3.465   1.582  10.298  0.0286 -1.0486  0.5256
  694TMC3     O10318   3.509   1.673  10.372  0.2927 -0.3639  0.1465
  694TMC3     H10319   3.333   1.341  10.238 -1.5646 -0.7296  0.2366
  694TMC3    H110320   3.315   1.679  10.501 -0.6986 -0.1433  0.6406
  694TMC3    H210321   3.177   1.312  10.645  1.4257 -2.3509 -1.1281
  694TMC3    C710322   3.270   1.541  10.710 -0.0218  0.0803  0.1050
  694TMC3    C810323   3.196   1.181  10.409  0.1680  1.1194 -0.2555
  694TMC3    O110324   3.262   1.663  10.725  0.0362  0.4017 -0.4807
  694TMC3    O210325   3.128   1.137  10.498  0.3966 -0.1659 -0.2641
  695MPD2     C10326   0.396   3.372  13.078  0.0039 -1.0380 -0.0756
  695MPD2    C110327   0.317   3.351  13.191 -0.3919  0.0385  0.4507
  695MPD2    C210328   0.185   3.329  13.169  0.2892  0.0792 -0.0837
  695MPD2    C310329   0.127   3.334  13.044 -0.4695 -0.8079  0.7734
  695MPD2    C410330   0.201   3.350  12.935 -0.1494 -0.8755 -0.2387
  695MPD2    C510331   0.336   3.368  12.949 -0.0775  0.0556 -1.0664
  695MPD2     H10332   0.124   3.298  13.252 -1.5545 -3.0092 -2.6022
  695MPD2    H110333   0.168   3.354  12.832  3.9137  3.8595 -1.3982
  695MPD2    H210334   0.500   3.400  13.088  0.7007 -3.9130  0.5584
  695MPD2    H310335   0.402   3.394  12.868 -0.4904  1.0584 -1.0822
  695MPD2     N10336   4.722   3.344  13.052  0.8531  0.5234  0.0775
  695MPD2    H510337   4.682   3.348  13.145 -0.8290  1.1906 -0.6795
  695MPD2    N110338   0.367   3.335  13.319 -0.5939 -0.0644  0.3648
  695MPD2    H710339   0.308   3.294  13.391 -0.5427 -0.7845 -0.0041
  696TMC3    C110340   4.496   3.375  12.968 -0.5052  1.1223  0.4615
  696TMC3    C210341   4.444   3.290  13.056  0.2795  0.2048  0.0455
  696TMC3    C310342   4.318   3.320  13.095  0.5704  0.2923  0.6055
  696TMC3    C410343   4.430   3.480  12.909 -1.0184 -0.6903  0.4525
  696TMC3    C510344   4.302   3.483  12.930  0.2777 -0.6899 -0.2901
  696TMC3    C610345   4.241   3.408  13.025 -0.5702  0.3197  0.5076
  696TMC3     C10346   4.644   3.379  12.947 -0.2840 -0.1987 -0.1279
  696TMC3     O10347   4.676   3.398  12.831 -0.0707 -0.6967 -0.1507
  696TMC3     H10348   4.517   3.224  13.099  0.1196 -2.1639 -3.3040
  696TMC3    H110349   4.480   3.552  12.845 -1.4707  0.9004  1.8615
  696TMC3    H210350   4.138   3.429  13.049 -0.4694  0.0290  1.1815
  696TMC3    C710351   4.226   3.596  12.868 -0.1902  0.4917 -0.3689
  696TMC3    C810352   4.276   3.241  13.205  0.1191 -0.2280 -0.7370
  696TMC3    O110353   4.268   3.628  12.756 -0.6728 -0.4557 -0.1645
  696TMC3    O210354   4.357   3.185  13.275 -0.1219 -0.1038 -0.5036
  697MPD2     C10355   3.941   0.441  15.658 -0.5645  0.3751 -0.0742
  697MPD2    C110356   3.880   0.456  15.535  0.3180  0.5765  0.1063
  697MPD2    C210357   3.920   0.558  15.446  0.7552  0.2417 -0.2782
  697MPD2    C310358   4.020   0.645  15.485  0.5380 -0.5870  0.1178
  697MPD2    C410359   4.080   0.627  15.602  0.8391 -0.1842 -0.5221
  697MPD2    C510360   4.048   0.529  15.687 -0.2495  1.0691 -0.3453
  697MPD2     H10361   3.867   0.576  15.352 -1.0666  1.3167  0.9571
  697MPD2    H110362   4.165   0.690  15.627  1.6027 -0.8085 -1.5488
  697MPD2    H210363   3.917   0.363  15.730  0.1390 -0.3106 -0.5729
  697MPD2    H310364   4.097   0.529  15.784  0.6091  2.1604 -0.7875
  697MPD2     N10365   4.059   0.749  15.398  0.3796 -0.2181 -0.0103
  697MPD2    H510366   3.999   0.772  15.319  0.1737 -0.9717 -0.0716
  697MPD2    N110367   3.782   0.367  15.482 -0.0015 -0.2820  0.1534
  697MPD2    H710368   3.737   0.387  15.393 -0.2207  0.7606  0.4907
  698TMC3    C110369   4.197   0.879  15.269  0.1407 -0.3023 -0.4293
  698TMC3    C210370   4.283   0.983  15.259 -1.0488 -0.7384  0.6604
  698TMC3    C310371   4.331   1.029  15.141  0.1994 -0.2053 -0.0880
  698TMC3    C410372   4.163   0.804  15.158  0.1294  0.2098  0.7516
  698TMC3    C510373   4.224   0.844  15.040 -0.1559 -0.3974  0.4950
  698TMC3    C610374   4.297   0.958  15.026  0.2760 -0.2065 -0.4271
  698TMC3     C10375   4.170   0.824  15.398 -0.0986 -0.2677  0.1627
  698TMC3     O10376   4.255   0.833  15.486 -0.5312 -0.0038  0.0707
  698TMC3     H10377   4.319   1.024  15.353  1.0379 -0.9716 -0.0240
  698TMC3    H110378   4.104   0.713  15.169 -1.0127  0.7614 -0.9832
  698TMC3    H210379   4.318   0.991  14.925  1.2774 -0.7896 -0.4104
  698TMC3    C710380   4.182   0.770  14.918 -0.0847  0.3747 -0.2153
  698TMC3    C810381   4.396   1.161  15.140  0.4140  0.3802  0.1942
  698TMC3    O110382   4.063   0.742  14.926 -0.3813  0.2634  0.1185
  698TMC3    O210383   4.441   1.210  15.241 -0.6668  0.0807  0.3651
  699TMC3    C110384   4.055   3.482  12.543  0.2609  0.4354 -0.0889
  699TMC3    C210385   4.084   3.348  12.564  0.8401 -0.6155 -0.2093
  699TMC3    C310386   3.979   3.271  12.611  0.0702  0.7963 -0.2479
  699TMC3    C410387   3.936   3.541  12.571 -0.0769  0.2426  0.4696
  699TMC3    C510388   3.845   3.466  12.636  0.5688  0.3359  0.4556
  699TMC3    C610389   3.864   3.330  12.646  0.1684 -0.0801  0.4038
  699TMC3     C10390   4.145   3.546  12.453  0.2612 -0.2737 -0.7297
  699TMC3     O10391   4.102   3.645  12.397 -0.0878 -0.1143  0.9053
  699TMC3     H10392   4.166   3.290  12.522  0.9942  0.0524 -0.8121
  699TMC3    H110393   3.921   3.645  12.542  0.3880  0.1179 -0.2183
  699TMC3    H210394   3.787   3.276  12.699  0.4274  1.9155  2.8017
  699TMC3    C710395   3.731   3.518  12.706  0.0136  0.1026 -0.6252
  699TMC3    C810396   3.988   3.136  12.663 -0.1599 -0.4750  0.4887
  699TMC3    O110397   3.653   3.435  12.753  0.0454  0.2469 -0.3644
  699TMC3    O210398   3.891   3.091  12.722  0.2117 -0.0321  0.1187
  700TMC3    C110399   3.024   1.615  17.117  0.0157 -0.3007 -0.3186
  700TMC3    C210400   3.043   1.479  17.092  0.1555  0.0020 -0.4619
  700TMC3    C310401   3.100   1.406  17.197  0.6821 -0.2335 -0.0250
  700TMC3    C410402   3.037   1.666  17.243  0.0716  0.4431  0.4993
  700TMC3    C510403   3.081   1.585  17.346 -0.2275 -0.5455  0.5534
  700TMC3    C610404   3.123   1.456  17.324  0.2018  0.5970 -0.6235
  700TMC3     C10405   3.025   1.697  16.996  0.4124  0.3180  0.2733
  700TMC3     O10406   2.988   1.648  16.892  0.1871  0.4741  0.0084
  700TMC3     H10407   3.036   1.438  16.992  3.8206  1.3994 -1.2977
  700TMC3    H110408   3.001   1.768  17.255  0.5489  0.9121 -1.9993
  700TMC3    H210409   3.165   1.396  17.403 -1.4206 -1.4435 -1.2793
  700TMC3    C710410   3.108   1.642  17.477  0.0375 -0.6046  0.1923
  700TMC3    C810411   3.151   1.280  17.150  0.0297 -0.0169 -0.3993
  700TMC3    O110412   3.114   1.762  17.487  0.5864  0.0725  0.1745
  700TMC3    O210413   3.132   1.246  17.035  0.8616  0.1003  0.4468
  701TMC3    C110414   3.078   0.184  15.569  0.0712  0.6021  0.6927
  701TMC3    C210415   3.045   0.145  15.444  0.4721  0.3432  0.0776
  701TMC3    C310416   3.124   0.198  15.338  0.1337  0.6366 -0.0588
  701TMC3    C410417   3.171   0.280  15.594  0.3837 -0.3507  0.0149
  701TMC3    C510418   3.248   0.329  15.487  0.4958 -0.2120  0.2341
  701TMC3    C610419   3.229   0.280  15.356  0.7348 -0.3287 -0.3286
  701TMC3     C10420   3.012   0.129  15.692  0.1501 -0.3309  0.1899
  701TMC3     O10421   2.999   0.197  15.794  0.3520 -0.3793 -0.1497
  701TMC3     H10422   2.960   0.083  15.417  1.6277 -0.4393 -1.7260
  701TMC3    H110423   3.186   0.299  15.700 -1.0608 -1.4975  0.4329
  701TMC3    H210424   3.287   0.327  15.277 -0.0846 -0.3072 -0.9139
  701TMC3    C710425   3.352   0.424  15.517  0.3600 -0.0917  0.7476
  701TMC3    C810426   3.070   0.201  15.203  0.2785 -0.3246  0.9476
  701TMC3    O110427   3.396   0.495  15.432 -0.3268  0.2104  0.1372
  701TMC3    O210428   3.152   0.208  15.110  0.3100 -0.1036  0.0300
  702MPD2     C10429   2.495   1.527  10.550 -0.1420 -0.0557  0.1917
  702MPD2    C110430   2.593   1.612  10.603 -0.1654 -0.3908  0.1444
  702MPD2    C210431   2.647   1.718  10.529  0.6920 -0.3724 -0.0194
  702MPD2    C310432   2.609   1.736  10.404 -0.1317  0.5953  0.1865
  702MPD2    C410433   2.512   1.655  10.346  0.3023  0.0835  0.1151
  702MPD2    C510434   2.460   1.549  10.418  0.1405 -0.2673  0.1272
  702MPD2     H10435   2.715   1.787  10.577  1.6371 -2.2622  1.3962
  702MPD2    H110436   2.471   1.686  10.250  0.5515  2.5512  0.8015
  702MPD2    H210437   2.451   1.450  10.612  1.7254  0.2951  1.9240
  702MPD2    H310438   2.380   1.486  10.381 -0.6443  0.5410  0.4385
  702MPD2     N10439   2.646   1.854  10.337  0.0614 -0.1594 -0.0113
  702MPD2    H510440   2.602   1.876  10.249  1.7251 -1.3894 -1.1519
  702MPD2    N110441   2.645   1.599  10.734  0.3102 -0.2429  0.5249
  702MPD2    H710442   2.699   1.678  10.768  1.5449  0.3198 -2.6807
  703TMC3    C110443   2.772   2.048  10.296  0.3495  0.1825 -0.2585
  703TMC3    C210444   2.656   2.112  10.337  0.2304 -0.1311  0.1685
  703TMC3    C310445   2.675   2.219  10.415  0.5407  0.3987 -0.2427
  703TMC3    C410446   2.895   2.102  10.302 -0.4595 -0.4886 -0.3160
  703TMC3    C510447   2.903   2.222  10.360 -0.2760  0.3342  0.4464
  703TMC3    C610448   2.794   2.281  10.422  0.1910 -1.2480 -0.1660
  703TMC3     C10449   2.771   1.908  10.346 -1.0045 -0.3697  0.2405
  703TMC3     O10450   2.860   1.872  10.421  0.0706 -0.1679 -0.6795
  703TMC3     H10451   2.556   2.077  10.317  0.8728 -2.9115  1.8343
  703TMC3    H110452   2.979   2.045  10.265 -0.2248 -1.2281  1.3363
  703TMC3    H210453   2.800   2.375  10.475  2.7145 -1.1247 -0.6819
  703TMC3    C710454   3.031   2.272  10.377 -0.9135  0.1264  0.3027
  703TMC3    C810455   2.569   2.242  10.511  0.3348  0.3240  0.1125
  703TMC3    O110456   3.106   2.260  10.283  0.1663 -0.1525 -0.0894
  703TMC3    O210457   2.581   2.349  10.569  0.3200 -0.1803  0.2011
  704TMC3    C110458   0.658   4.706  12.740 -0.3231 -0.3204  0.4029
  704TMC3    C210459   0.770   4.694  12.825 -0.2810  0.2407  0.1304
  704TMC3    C310460   0.768   4.599  12.925 -0.1881 -0.6026 -0.6657
  704TMC3    C410461   0.538   4.651  12.769  0.1597  0.6512 -0.5966
  704TMC3    C510462   0.541   4.561  12.881 -0.3382 -0.1643 -0.1228
  704TMC3    C610463   0.653   4.538  12.957 -0.1004  0.0730  0.3484
  704TMC3     C10464   0.692   0.024  12.601  0.1280 -0.7087  0.4078
  704TMC3     O10465   0.811   0.053  12.586 -0.6771 -0.0053  0.4169
  704TMC3     H10466   0.862   0.014  12.811  1.6825 -3.5221 -2.1463
  704TMC3    H110467   0.447   4.678  12.717  0.0242  2.3745  0.5196
  704TMC3    H210468   0.652   4.457  13.029 -0.2434  1.2143  1.6216
  704TMC3    C710469   0.463   4.439  12.866 -0.6794  1.0013  0.1793
  704TMC3    C810470   0.878   4.591  13.023  0.7897 -0.1460  0.2440
  704TMC3    O110471   0.469   4.377  12.762  0.0195 -0.0867 -0.2786
  704TMC3    O210472   0.840   4.597  13.137  0.2125 -0.0264 -0.6589
  705MPD2     C10473   4.438   3.056  16.400  0.6970 -0.0749  0.7372
  705MPD2    C110474   4.425   3.182  16.346  0.0545  0.2212 -0.2649
  705MPD2    C210475   4.330   3.274  16.395  0.9391 -0.2511  0.0034
  705MPD2    C310476   4.233   3.223  16.479  0.3859 -0.0853 -0.7518
  705MPD2    C410477   4.240   3.092  16.521 -0.3325  0.3906  0.3133
  705MPD2    C510478   4.344   3.013  16.493 -0.0555 -0.4553  0.2096
  705MPD2     H10479   4.314   3.368  16.343 -1.0569  0.0245  1.1190
  705MPD2    H110480   4.175   3.056  16.601 -3.4726  0.5123 -2.2019
  705MPD2    H210481   4.527   2.998  16.380  0.4231 -0.0396 -0.6112
  705MPD2    H310482   4.363   2.922  16.548 -0.8104  0.0866  1.3628
  705MPD2     N10483   4.133   3.298  16.530  0.1519 -0.1018  0.8633
  705MPD2    H510484   4.061   3.236  16.566 -0.2970 -1.0608 -1.7023
  705MPD2    N110485   4.510   3.226  16.242 -0.2017 -0.1877 -1.1139
  705MPD2    H710486   4.489   3.323  16.221 -2.3315 -1.0267 -2.9347
  706TMC3    C110487   0.095   3.244  15.899 -0.2531 -0.2413 -0.0076
  706TMC3    C210488   0.059   3.375  15.871 -0.1262 -0.4411  0.3731
  706TMC3    C310489   4.698   3.435  15.948 -0.1502 -0.0043  0.0976
  706TMC3    C410490   0.037   3.186  16.004 -0.7172  0.9867 -0.4532
  706TMC3    C510491   4.683   3.247  16.090 -0.7178  0.2525  0.3657
  706TMC3    C610492   4.647   3.375  16.059  0.6179 -0.1887 -0.1741
  706TMC3     C10493   0.174   3.158  15.812  0.3106 -0.0008 -0.1385
  706TMC3     O10494   0.258   3.091  15.870 -0.9575  0.0436  0.3715
  706TMC3     H10495   0.093   3.421  15.779 -1.3431 -0.5092 -0.1212
  706TMC3    H110496   0.058   3.080  16.010 -3.1474  0.5266  0.2186
  706TMC3    H210497   4.580   3.426  16.127 -1.3454 -0.6235 -1.7686
  706TMC3    C710498   4.612   3.156  16.181  0.1152 -0.1170 -0.2224
  706TMC3    C810499   4.675   3.574  15.911  0.2455 -0.3460 -0.0952
  706TMC3    O110500   4.646   3.039  16.183 -0.0744 -0.6083  0.0628
  706TMC3    O210501   4.681   3.611  15.797  0.3475 -0.0783 -0.0962
  707TMC3    C110502   1.523   2.393   1.030  0.4273  0.1126  0.1266
  707TMC3    C210503   1.525   2.418   1.163 -0.1006  0.5978  0.0796
  707TMC3    C310504   1.457   2.344   1.252  0.4367 -0.1494  0.3423
  707TMC3    C410505   1.442   2.290   0.989  0.7061  0.3224 -0.4313
  707TMC3    C510506   1.375   2.206   1.079 -0.2125  1.3532 -0.4448
  707TMC3    C610507   1.380   2.232   1.211 -0.4494 -0.5211 -0.4188
  707TMC3     C10508   1.656   2.389   0.974  0.1107  0.5653 -0.0188
  707TMC3     O10509   1.697   2.287   0.919 -0.1766 -0.4459  0.0165
  707TMC3     H10510   1.584   2.497   1.210 -0.6046  1.2020 -0.3077
  707TMC3    H110511   1.435   2.272   0.882 -0.8683  1.2504 -0.4895
  707TMC3    H210512   1.324   2.178   1.286 -0.7352 -0.6040 -0.6931
  707TMC3    C710513   1.277   2.108   1.028  0.9930  0.5416  0.4160
  707TMC3    C810514   1.513   2.331   1.384 -0.1105  0.3595  0.2846
  707TMC3    O110515   1.234   2.139   0.919  0.3128 -0.3134 -0.0428
  707TMC3    O210516   1.491   2.431   1.450 -0.2875 -0.3373  0.2431
  708MPD2     C10517   2.807   1.370  13.744 -0.2230  0.2880 -0.0851
  708MPD2    C110518   2.716   1.431  13.823  0.3979 -0.3803 -0.3353
  708MPD2    C210519   2.725   1.422  13.959  0.5579  0.3570  0.4835
  708MPD2    C310520   2.827   1.349  14.022  0.0804  0.1932  0.7769
  708MPD2    C410521   2.926   1.306  13.938 -0.3559 -0.4768 -0.7559
  708MPD2    C510522   2.924   1.317  13.804  0.3612 -0.4566  0.1261
  708MPD2     H10523   2.643   1.459  14.019 -1.4189  1.4984 -2.9339
  708MPD2    H110524   3.009   1.253  13.984 -0.8595  0.9962  1.8328
  708MPD2    H210525   2.810   1.402  13.640 -0.9418  0.1937 -0.1367
  708MPD2    H310526   3.010   1.300  13.740  1.2102  0.2422  1.0630
  708MPD2     N10527   2.840   1.331  14.161  0.1241  0.2375  0.3510
  708MPD2    H510528   2.930   1.303  14.198  0.4322 -0.2142 -0.7507
  708MPD2    N110529   2.620   1.521  13.774  0.3781 -0.3995 -0.2031
  708MPD2    H710530   2.597   1.535  13.676  0.4829 -1.6449 -0.4057
  709TMC3    C110531   2.501   1.731  13.771  0.1813  0.9317 -0.3684
  709TMC3    C210532   2.385   1.669  13.726 -0.3082  0.7225 -0.2185
  709TMC3    C310533   2.264   1.720  13.770 -0.0038  0.5827 -0.2397
  709TMC3    C410534   2.492   1.845  13.846 -0.5588  0.4452 -0.4846
  709TMC3    C510535   2.369   1.891  13.887  0.1605  0.1179 -0.7375
  709TMC3    C610536   2.251   1.824  13.856  0.3250  0.1941 -0.2977
  709TMC3     C10537   2.587   1.634  13.839 -0.2339 -0.5411 -0.1328
  709TMC3     O10538   2.637   1.680  13.939 -0.1725 -0.2220  0.5024
  709TMC3     H10539   2.386   1.588  13.653  1.0730 -0.5258  1.1948
  709TMC3    H110540   2.581   1.903  13.866  0.1890 -0.9192  0.1426
  709TMC3    H210541   2.150   1.863  13.860 -0.8018 -2.7394 -0.5729
  709TMC3    C710542   2.380   1.935  14.025  0.2690 -0.5377  0.9790
  709TMC3    C810543   2.142   1.691  13.682  0.1775 -0.3254  0.6732
  709TMC3    O110544   2.488   1.967  14.071 -0.1770 -0.5842 -0.4516
  709TMC3    O210545   2.030   1.722  13.724  0.0791  0.4299  0.5109
  710TMC3    C110546   3.487   2.742   0.438 -0.1957 -0.1281 -0.3765
  710TMC3    C210547   3.536   2.777   0.316 -0.4537  0.2875 -0.0580
  710TMC3    C310548   3.667   2.751   0.292 -0.3164 -0.1757 -0.4017
  710TMC3    C410549   3.551   2.664   0.528  0.0878 -0.6783  0.0635
  710TMC3    C510550   3.684   2.642   0.511  0.2196 -0.7112  0.5340
  710TMC3    C610551   3.746   2.694   0.400  0.1212 -0.6653 -0.0327
  710TMC3     C10552   3.381   2.838   0.470  0.5638 -0.2897  0.0337
  710TMC3     O10553   3.289   2.848   0.388  0.1901 -0.1181  0.5692
  710TMC3     H10554   3.476   2.841   0.251 -0.1658 -0.0396 -0.6462
  710TMC3    H110555   3.498   2.639   0.619  0.4117  0.4730  0.5755
  710TMC3    H210556   3.848   2.669   0.372  1.6754  1.6730  3.5264
  710TMC3    C710557   3.758   2.570   0.610 -0.3322 -0.3060 -0.2452
  710TMC3    C810558   3.743   2.801   0.174  0.1420  0.1012  0.8090
  710TMC3    O110559   3.699   2.499   0.687  0.0792  0.1717 -0.2147
  710TMC3    O210560   3.860   2.820   0.177  0.0228 -0.4801 -0.4917
  711TMC3    C110561   3.553   4.084  14.574  0.0182 -0.2196  0.0665
  711TMC3    C210562   3.511   4.048  14.693 -0.6816 -0.1535  0.9252
  711TMC3    C310563   3.559   4.100  14.808 -0.1336 -0.3167  0.6624
  711TMC3    C410564   3.650   4.181  14.567  0.3792  0.4207  0.3584
  711TMC3    C510565   3.693   4.238  14.686 -0.3422  0.0619  0.2803
  711TMC3    C610566   3.628   4.215  14.802  0.5865 -0.2325 -0.3437
  711TMC3     C10567   3.522   3.998  14.461 -0.2818 -0.8224  0.3944
  711TMC3     O10568   3.472   3.886  14.479  0.5600  0.0100  0.4757
  711TMC3     H10569   3.440   3.966  14.692 -1.8719  0.8386  3.0482
  711TMC3    H110570   3.702   4.200  14.474 -0.4735  0.1278 -0.1752
  711TMC3    H210571   3.649   4.276  14.889  2.3612  0.3158 -1.1576
  711TMC3    C710572   3.830   4.192  14.716 -0.0865 -0.2759 -0.3720
  711TMC3    C810573   3.552   4.017  14.928  0.1288  0.0230  0.6340
  711TMC3    O110574   3.871   4.232  14.822 -0.4500  0.0641  0.4806
  711TMC3    O210575   3.468   3.929  14.932 -0.0368 -0.5296  0.0652
  712MPD2     C10576   0.379   0.747  13.648 -0.6826  0.1645 -0.1344
  712MPD2    C110577   0.343   0.704  13.523 -0.2083  0.4433  0.5359
  712MPD2    C210578   0.421   0.749  13.413  0.0558 -0.4559  0.4850
  712MPD2    C310579   0.519   0.843  13.425 -0.1399  0.1534  0.5487
  712MPD2    C410580   0.543   0.883  13.555 -0.1053 -0.2568  0.6093
  712MPD2    C510581   0.485   0.830  13.661  0.6759 -0.3619  0.2305
  712MPD2     H10582   0.397   0.706  13.317  1.4635  2.3723 -1.1212
  712MPD2    H110583   0.620   0.955  13.577  1.3197 -0.9963 -1.9102
  712MPD2    H210584   0.319   0.721  13.735  0.1737 -3.0616 -0.5105
  712MPD2    H310585   0.508   0.866  13.761 -2.1458  1.6480  0.1607
  712MPD2     N10586   0.614   0.882  13.321 -0.1794 -0.5221 -0.1758
  712MPD2    H510587   0.698   0.930  13.352 -0.9817 -0.2931  1.7026
  712MPD2    N110588   0.243   0.599  13.508 -0.2503  0.0655  0.5726
  712MPD2    H710589   0.226   0.553  13.419 -0.1135  2.8327 -0.9056
  713TMC3    C110590   0.708   0.942  13.115 -0.4419 -0.7038 -0.5169
  713TMC3    C210591   0.821   0.990  13.180 -0.4907 -0.0140 -0.4881
  713TMC3    C310592   0.900   1.078  13.111  0.3494  0.5862 -0.4989
  713TMC3    C410593   0.670   0.991  12.992  0.1726  0.7843  0.4424
  713TMC3    C510594   0.754   1.080  12.933 -0.0551 -0.4656  0.2854
  713TMC3    C610595   0.866   1.130  12.986  0.1184  0.9832  0.2076
  713TMC3     C10596   0.600   0.870  13.188 -0.7603  0.2576 -0.1552
  713TMC3     O10597   0.512   0.822  13.123 -0.3555  0.2463  0.1229
  713TMC3     H10598   0.860   0.941  13.268  1.5148  0.4179 -1.1327
  713TMC3    H110599   0.597   0.931  12.938  1.5411 -0.5969  0.1122
  713TMC3    H210600   0.926   1.204  12.936  1.6749 -0.9175 -0.7323
  713TMC3    C710601   0.696   1.163  12.820 -0.1489 -0.4769  1.2734
  713TMC3    C810602   1.023   1.132  13.160  0.7665 -0.8270  0.8972
  713TMC3    O110603   0.767   1.247  12.772 -0.0208  0.1580  0.2650
  713TMC3    O210604   1.111   1.174  13.079  0.6021  0.1202 -0.4143
  714MPD2     C10605   2.383   4.030   1.394  0.1502  0.1278 -0.7588
  714MPD2    C110606   2.419   3.969   1.278 -0.4641 -0.2521  0.2048
  714MPD2    C210607   2.326   3.945   1.175 -0.3517  0.5697  0.5009
  714MPD2    C310608   2.203   4.006   1.187  0.4540 -0.0335  0.4038
  714MPD2    C410609   2.166   4.087   1.291  0.4081  0.7652  0.4856
  714MPD2    C510610   2.261   4.091   1.394 -0.5152 -0.8533  0.0877
  714MPD2     H10611   2.352   3.885   1.088  1.7391  0.5721  1.1202
  714MPD2    H110612   2.074   4.143   1.305  0.0262  0.3434 -0.3499
  714MPD2    H210613   2.451   4.032   1.478 -2.8456  1.2475  1.6059
  714MPD2    H310614   2.240   4.150   1.482 -1.7179 -1.5789  0.2947
  714MPD2     N10615   2.119   4.003   1.075  0.1509  0.4078  0.2663
  714MPD2    H510616   2.150   3.950   0.994 -0.4271  1.0977 -0.4007
  714MPD2    N110617   2.550   3.917   1.271  0.5147 -0.2427  0.0390
  714MPD2    H710618   2.609   3.932   1.352  0.5809  0.7313 -0.1880
  715TMC3    C110619   2.748   3.818   1.211  0.1302  0.6603  0.4700
  715TMC3    C210620   2.814   3.711   1.156  0.2174  0.1727 -0.0211
  715TMC3    C310621   2.939   3.681   1.196  0.4518  0.3469 -0.2010
  715TMC3    C410622   2.818   3.900   1.300  0.5587 -0.6026 -0.9119
  715TMC3    C510623   2.948   3.864   1.327  0.2821 -0.1776 -0.4730
  715TMC3    C610624   3.015   3.759   1.279 -0.3453  0.1493 -0.2040
  715TMC3     C10625   2.609   3.839   1.173  0.6141  0.6651  0.8274
  715TMC3     O10626   2.563   3.784   1.070  0.3570 -0.0390  0.3650
  715TMC3     H10627   2.754   3.641   1.099  1.3642  0.0540 -1.0831
  715TMC3    H110628   2.772   3.991   1.336  0.1260 -0.8656 -0.7951
  715TMC3    H210629   3.112   3.736   1.321 -0.3877  2.1953  0.9738
  715TMC3    C710630   3.026   3.958   1.404  0.6359 -0.0678  0.1644
  715TMC3    C810631   2.977   3.544   1.170 -0.2952  0.5538 -0.0435
  715TMC3    O110632   3.139   3.977   1.367 -0.3111 -0.5609 -0.5362
  715TMC3    O210633   2.918   3.491   1.076 -0.0216 -0.1015 -0.6551
  716MPD2     C10634   2.794   2.019   9.486  0.5383  0.8190  0.3275
  716MPD2    C110635   2.689   1.987   9.403  0.2181 -0.5105 -0.4938
  716MPD2    C210636   2.674   1.853   9.371 -0.2124  0.4383  0.1491
  716MPD2    C310637   2.765   1.758   9.402 -0.1744 -0.2700 -0.0398
  716MPD2    C410638   2.869   1.790   9.488 -0.6305  0.4449 -0.1023
  716MPD2    C510639   2.879   1.922   9.532  0.0419  0.4508 -0.4661
  716MPD2     H10640   2.584   1.820   9.320 -0.0842  0.3639 -0.0248
  716MPD2    H110641   2.935   1.713   9.526 -0.3353  0.7910  0.0895
  716MPD2    H210642   2.799   2.123   9.515 -0.3261  0.5486  1.4094
  716MPD2    H310643   2.964   1.942   9.596  0.1536  1.7674 -1.0058
  716MPD2     N10644   2.732   1.625   9.361  0.3822  0.3495 -0.6540
  716MPD2    H510645   2.647   1.612   9.307  1.3601 -1.3489 -1.8029
  716MPD2    N110646   2.608   2.083   9.339  0.3573  0.0696 -0.2310
  716MPD2    H710647   2.613   2.174   9.384 -0.3651  0.6562 -1.3442
  717TMC3    C110648   2.788   1.393   9.319 -0.7433 -0.5497 -0.5165
  717TMC3    C210649   2.660   1.378   9.280  0.1565  0.2895 -0.0287
  717TMC3    C310650   2.626   1.288   9.185 -0.0890 -0.1221 -0.1997
  717TMC3    C410651   2.877   1.294   9.288  0.2873  0.6710  0.7288
  717TMC3    C510652   2.836   1.199   9.201 -0.6876  0.0622 -0.6285
  717TMC3    C610653   2.714   1.193   9.143 -0.6860  0.5283  0.2872
  717TMC3     C10654   2.829   1.526   9.365  0.6171 -0.0918 -0.0672
  717TMC3     O10655   2.949   1.535   9.396  0.2144 -0.3578  0.1546
  717TMC3     H10656   2.577   1.440   9.312 -0.4162 -0.6397  0.2983
  717TMC3    H110657   2.981   1.304   9.317  0.6450 -0.7987 -0.0475
  717TMC3    H210658   2.702   1.148   9.045 -0.7197  2.3544 -0.5562
  717TMC3    C710659   2.947   1.111   9.148  0.1235  0.6316  0.4223
  717TMC3    C810660   2.510   1.317   9.108  0.7161  0.3027  0.5949
  717TMC3    O110661   3.060   1.138   9.178 -0.8137 -0.6956 -0.8192
  717TMC3    O210662   2.486   1.438   9.104  0.3650 -0.4063 -0.0412
  718MPD2     C10663   2.203   0.785  13.185  0.1299 -0.3689 -0.1264
  718MPD2    C110664   2.127   0.802  13.069  0.2582 -0.1949 -0.0409
  718MPD2    C210665   2.045   0.700  13.033 -0.1010 -0.0470  0.3673
  718MPD2    C310666   2.041   0.585  13.110  0.3202  0.1749  0.1984
  718MPD2    C410667   2.115   0.574  13.230 -0.0500  0.6010 -0.0193
  718MPD2    C510668   2.192   0.678  13.268  0.6726  0.0476 -0.0222
  718MPD2     H10669   1.991   0.697  12.939  0.0061 -1.3642  0.3461
  718MPD2    H110670   2.144   0.479  13.273  0.8981  0.2355 -1.4532
  718MPD2    H210671   2.270   0.863  13.220 -0.3674  0.0980 -0.2070
  718MPD2    H310672   2.269   0.667  13.343 -1.1316 -1.4939  1.5848
  718MPD2     N10673   1.981   0.472  13.050  1.0586  0.4619  0.0004
  718MPD2    H510674   1.933   0.494  12.963 -0.9574 -0.4038  0.9143
  718MPD2    N110675   2.140   0.912  12.979 -0.9685 -0.3600 -0.5737
  718MPD2    H710676   2.091   0.892  12.892 -1.6991  0.5616 -0.3776
  719TMC3    C110677   2.217   1.096  12.866  0.2700 -0.4132  0.8832
  719TMC3    C210678   2.099   1.055  12.801 -0.1392 -0.6256 -0.1294
  719TMC3    C310679   2.108   1.022  12.669 -0.0670 -0.6944  0.3158
  719TMC3    C410680   2.328   1.120  12.789  0.2140  0.7764  0.1495
  719TMC3    C510681   2.327   1.100  12.649  0.8344 -0.0494 -0.2257
  719TMC3    C610682   2.222   1.034  12.591  0.6878  0.6708  0.0637
  719TMC3     C10683   2.230   1.018  12.984  0.1136 -0.1091  0.1813
  719TMC3     O10684   2.328   1.034  13.056  0.5062  0.4134 -0.2912
  719TMC3     H10685   1.998   1.067  12.839 -0.1255 -0.3806 -0.1692
  719TMC3    H110686   2.420   1.144  12.841 -0.6260  1.1615  1.4548
  719TMC3    H210687   2.217   1.035  12.483 -0.4879  1.1608  0.1161
  719TMC3    C710688   2.421   1.156  12.558 -0.2263 -0.3053  0.2883
  719TMC3    C810689   2.028   0.905  12.648  0.3390  0.9197  0.3964
  719TMC3    O110690   2.421   1.125  12.438 -0.2430  0.5724 -0.4500
  719TMC3    O210691   1.961   0.866  12.745  0.1527 -0.2599 -0.3152
  720MPD2     C10692   0.407   2.511  13.938 -0.4722  1.0192  0.1763
  720MPD2    C110693   0.470   2.477  13.818 -0.5261 -0.0911 -0.3110
  720MPD2    C210694   0.604   2.445  13.815 -0.9662 -0.1104  0.2019
  720MPD2    C310695   0.680   2.436  13.933  0.4360  0.0312  0.2706
  720MPD2    C410696   0.617   2.465  14.047  0.8901  0.5868  0.2234
  720MPD2    C510697   0.485   2.500  14.051 -0.0241  0.0915  0.9584
  720MPD2     H10698   0.645   2.420  13.718 -0.0818  1.1848  0.2487
  720MPD2    H110699   0.669   2.449  14.141 -0.4694 -3.3232  0.3036
  720MPD2    H210700   0.308   2.555  13.945 -0.1719  1.5309  1.2528
  720MPD2    H310701   0.440   2.523  14.147 -1.7714 -0.8652  0.3793
  720MPD2     N10702   0.809   2.381  13.927 -0.3108 -0.5845 -0.2702
  720MPD2    H510703   0.845   2.381  13.832 -0.8738  0.8342 -0.4791
  720MPD2    N110704   0.411   2.487  13.692 -0.2667 -0.1958  0.2345
  720MPD2    H710705   0.476   2.470  13.615 -0.7369  0.8009 -0.3773
  721TMC3    C110706   1.023   2.321  13.985 -0.8803 -0.0331 -0.6362
  721TMC3    C210707   1.108   2.255  14.070  0.3265  0.3123 -0.5315
  721TMC3    C310708   1.244   2.244  14.037  0.0730  0.7389 -0.2835
  721TMC3    C410709   1.059   2.362  13.860  0.3352 -0.1188  0.1234
  721TMC3    C510710   1.185   2.320  13.822  0.0985  0.1331  0.0472
  721TMC3    C610711   1.284   2.279  13.910 -0.3074 -0.0237 -0.1268
  721TMC3     C10712   0.884   2.346  14.034  0.2330  0.0923  0.7141
  721TMC3     O10713   0.857   2.327  14.152 -0.4611  0.2775 -0.2265
  721TMC3     H10714   1.069   2.206  14.158  0.6834 -1.6508 -1.4626
  721TMC3    H110715   0.989   2.421  13.802  0.9604  1.2040  0.7210
  721TMC3    H210716   1.384   2.258  13.875  0.3488  0.6940  1.3297
  721TMC3    C710717   1.204   2.321  13.678  0.3109  0.3050 -0.0409
  721TMC3    C810718   1.342   2.228  14.139  0.3456 -0.1693 -0.3783
  721TMC3    O110719   1.115   2.377  13.618  0.0775 -0.3189  0.6207
  721TMC3    O210720   1.452   2.185  14.101  0.2506 -0.2846  0.0559
  722MPD2     C10721   4.214   1.106  13.143  0.4794  0.1587  0.6618
  722MPD2    C110722   4.177   1.111  13.010 -0.0473 -0.5327  0.8472
  722MPD2    C210723   4.043   1.104  12.980 -0.7182  0.0901 -0.1281
  722MPD2    C310724   3.947   1.089  13.072 -0.1661 -0.2732 -0.1669
  722MPD2    C410725   3.982   1.090  13.203  0.5894 -0.5533 -0.2882
  722MPD2    C510726   4.113   1.102  13.232 -0.0496 -0.7614 -0.7179
  722MPD2     H10727   4.020   1.100  12.874  1.5485 -0.7539 -0.5763
  722MPD2    H110728   3.914   1.080  13.287 -0.6633  0.6775 -1.1460
  722MPD2    H210729   4.316   1.105  13.181  0.7705 -0.1412 -0.1326
  722MPD2    H310730   4.128   1.113  13.339  1.0271  0.1898 -0.9747
  722MPD2     N10731   3.815   1.058  13.026  0.0202 -0.2208  0.2400
  722MPD2    H510732   3.809   1.050  12.925 -1.5827  0.7960  0.2379
  722MPD2    N110733   4.265   1.097  12.898  0.5239 -0.3175  0.0027
  722MPD2    H710734   4.223   1.092  12.806  0.2113  1.9676  0.0062
  723TMC3    C110735   3.592   0.975  13.043  0.3233  0.8254 -0.0133
  723TMC3    C210736   3.599   0.924  12.913 -0.1577  0.0438  0.6967
  723TMC3    C310737   3.487   0.873  12.857 -0.4108 -0.1290 -0.0515
  723TMC3    C410738   3.475   0.986  13.115  0.2221  0.2894  0.0487
  723TMC3    C510739   3.357   0.955  13.045  0.7691 -0.2639  0.6135
  723TMC3    C610740   3.365   0.891  12.926  0.0626  0.0933 -0.1516
  723TMC3     C10741   3.711   1.025  13.109 -0.0260 -0.1773  0.1752
  723TMC3     O10742   3.694   1.040  13.232  0.4340 -0.3773 -0.5429
  723TMC3     H10743   3.695   0.892  12.873 -0.9009 -0.5444 -0.6348
  723TMC3    H110744   3.479   1.022  13.217  0.9058 -0.4864  0.2906
  723TMC3    H210745   3.276   0.873  12.867  0.2981  1.7890 -1.0357
  723TMC3    C710746   3.225   0.997  13.106  0.2255 -0.7502  0.4685
  723TMC3    C810747   3.484   0.858  12.712 -0.0933 -0.3548 -0.3463
  723TMC3    O110748   3.122   0.945  13.068 -0.2437  0.4005  0.4244
  723TMC3    O210749   3.519   0.957  12.652  0.1161 -0.2652  0.0267
  724TMC3    C110750   0.386   3.970  10.901 -0.8392  0.5773 -0.2540
  724TMC3    C210751   0.306   4.060  10.832  0.0274 -0.4805  0.4714
  724TMC3    C310752   0.374   4.168  10.783  0.9940 -0.3383  0.0687
  724TMC3    C410753   0.523   3.983  10.915 -0.0674  0.1268  0.4036
  724TMC3    C510754   0.576   4.095  10.858 -0.0355 -0.4236  0.1046
  724TMC3    C610755   0.512   4.179  10.782  0.2543 -0.1551  0.3575
  724TMC3     C10756   0.322   3.853  10.955  0.1901 -0.0987 -0.9075
  724TMC3     O10757   0.197   3.846  10.959  0.2215  0.3963 -0.0165
  724TMC3     H10758   0.198   4.063  10.825 -0.1154 -0.8156  2.6073
  724TMC3    H110759   0.591   3.913  10.961  1.7782  2.4395  1.2221
  724TMC3    H210760   0.567   4.254  10.726  0.7710 -0.4979  0.4060
  724TMC3    C710761   0.708   4.125  10.888  0.5485 -0.1624 -0.7337
  724TMC3    C810762   0.302   4.261  10.698 -0.2078  0.0961 -0.3947
  724TMC3    O110763   0.740   4.242  10.902  0.3017 -0.3499  0.3266
  724TMC3    O210764   0.204   4.221  10.645  0.1109  0.6410 -0.1330
  725TMC3    C110765   1.444   2.566  12.684  0.6842 -0.2623  0.0983
  725TMC3    C210766   1.343   2.597  12.609 -0.2922  0.4164 -0.2195
  725TMC3    C310767   1.251   2.501  12.586  0.1100 -0.3735 -0.7513
  725TMC3    C410768   1.459   2.439  12.739  0.5044  0.4490 -0.2998
  725TMC3    C510769   1.360   2.348  12.725 -0.2724 -0.2747 -0.3513
  725TMC3    C610770   1.256   2.382  12.645 -0.0039 -0.9062  0.0962
  725TMC3     C10771   1.488   2.661  12.775  0.5600  1.1912  0.7305
  725TMC3     O10772   1.509   2.770  12.725 -0.3250  0.1566  0.6030
  725TMC3     H10773   1.322   2.699  12.578  0.1793  0.2431 -1.1235
  725TMC3    H110774   1.551   2.422  12.793  0.5201  3.6963  0.6831
  725TMC3    H210775   1.170   2.317  12.631 -1.0670  0.2037  1.4749
  725TMC3    C710776   1.391   2.210  12.716 -0.8320  0.7825 -0.5337
  725TMC3    C810777   1.146   2.518  12.489  0.8854 -0.2314  0.0867
  725TMC3    O110778   1.341   2.162  12.616  0.4857  0.1348  0.1958
  725TMC3    O210779   1.048   2.443  12.484  0.5515 -0.3844 -0.9751
  726MPD2     C10780   3.788   4.101  10.090 -0.1143  0.6209  0.0013
  726MPD2    C110781   3.664   4.163  10.078  0.3385  0.3792  0.2620
  726MPD2    C210782   3.553   4.098  10.127 -0.8555 -0.3386  0.0643
  726MPD2    C310783   3.556   3.987  10.207  0.3212 -1.3098 -0.6165
  726MPD2    C410784   3.678   3.932  10.228 -0.5542 -0.6697 -0.0850
  726MPD2    C510785   3.789   3.978  10.159  0.1676  0.1011  0.6240
  726MPD2     H10786   3.455   4.139  10.105 -0.9950  1.6949  4.4414
  726MPD2    H110787   3.692   3.848  10.294  0.8890  0.5563  1.1659
  726MPD2    H210788   3.885   4.133  10.054  0.0750  1.2461  1.0570
  726MPD2    H310789   3.887   3.933  10.174 -1.1569 -2.0514  2.7818
  726MPD2     N10790   3.444   3.922  10.274 -0.7889 -0.5446 -0.2627
  726MPD2    H510791   3.470   3.839  10.326  0.6830 -0.0868 -0.2654
  726MPD2    N110792   3.645   4.276  10.001 -0.2677  0.0551 -0.2122
  726MPD2    H710793   3.551   4.293   9.967 -1.1225 -1.3020  1.4945
  727TMC3    C110794   3.705   4.498   9.912 -0.8624 -0.4475  0.0441
  727TMC3    C210795   3.792   4.598   9.946  0.0613  0.1829 -0.2367
  727TMC3    C310796   3.752   4.723   9.910 -0.7643 -0.0919  0.2792
  727TMC3    C410797   3.591   4.512   9.839  0.6323  0.5860  0.7986
  727TMC3    C510798   3.561   4.641   9.803 -0.1012  0.1510 -0.6062
  727TMC3    C610799   3.640   0.016   9.834 -0.3512 -0.5678 -0.0322
  727TMC3     C10800   3.748   4.366   9.967 -0.7939 -0.1857 -0.4266
  727TMC3     O10801   3.867   4.358  10.005  0.0178 -0.6588 -0.1672
  727TMC3     H10802   3.880   4.583  10.007 -0.8053 -0.7427  0.7869
  727TMC3    H110803   3.536   4.426   9.803 -1.3552  2.4737 -0.5998
  727TMC3    H210804   3.626   0.110   9.782 -0.7668 -0.5572  0.0990
  727TMC3    C710805   3.430   4.672   9.753  0.1162  0.1231 -0.0883
  727TMC3    C810806   3.843   0.094   9.957 -0.1460  0.5887 -0.0065
  727TMC3    O110807   3.405   0.053   9.734  0.5498  0.3443 -0.1510
  727TMC3    O210808   3.951   0.058   9.998 -0.7557 -0.3028  0.3323
  728TMC3    C110809   3.185   2.688  15.017 -0.0646  0.2287  1.4129
  728TMC3    C210810   3.314   2.737  14.993 -0.0048 -0.1716 -0.4607
  728TMC3    C310811   3.335   2.807  14.876  0.1483 -0.3267 -0.4231
  728TMC3    C410812   3.074   2.716  14.939  0.1411  0.7067 -0.1392
  728TMC3    C510813   3.098   2.779  14.821 -0.5642 -0.7237 -0.0856
  728TMC3    C610814   3.228   2.824  14.796  0.8525 -0.1355 -0.1730
  728TMC3     C10815   3.162   2.670  15.162 -0.2195  0.6069  0.7135
  728TMC3     O10816   3.265   2.660  15.230 -0.1260 -0.4785 -0.8195
  728TMC3     H10817   3.397   2.730  15.062  0.9272  3.2420 -1.2011
  728TMC3    H110818   2.978   2.669  14.959 -0.0338  1.0037 -0.2866
  728TMC3    H210819   3.256   2.876  14.705  0.5305  1.3296  0.5654
  728TMC3    C710820   2.999   2.782  14.720  0.6396 -0.3903 -0.5569
  728TMC3    C810821   3.460   2.792  14.805 -0.3801 -0.5846  0.0578
  728TMC3    O110822   2.900   2.716  14.737  0.9458  0.4409  0.4189
  728TMC3    O210823   3.490   2.680  14.776  0.0856  0.6475  0.1024
  729MPD2     C10824   0.136   3.795  16.477 -0.2869  0.9661 -0.0651
  729MPD2    C110825   0.096   3.924  16.475  0.0025  0.0990 -0.1763
  729MPD2    C210826   4.720   3.960  16.551  0.2543  0.1883  0.1262
  729MPD2    C310827   4.655   3.866  16.628 -0.1458  0.0807 -1.0228
  729MPD2    C410828   4.702   3.735  16.630  0.8577 -0.4772 -0.3542
  729MPD2    C510829   0.076   3.701  16.556 -0.5409  0.3071 -0.2831
  729MPD2     H10830   4.689   4.063  16.565 -2.2136 -0.7813  1.7732
  729MPD2    H110831   4.660   3.663  16.698 -1.0214  0.5443 -0.4287
  729MPD2    H210832   0.226   3.772  16.421  0.3934  1.1105  0.9586
  729MPD2    H310833   0.120   3.603  16.568  1.2467  1.2779  1.1684
  729MPD2     N10834   4.540   3.904  16.712 -0.6731 -0.5985  0.2926
  729MPD2    H510835   4.513   3.832  16.778 -3.1026  0.2029  0.1458
  729MPD2    N110836   0.176   4.018  16.412  0.5384 -0.4143  0.0337
  729MPD2    H710837   0.258   3.977  16.369  0.2280  0.2704 -1.1870
  730TMC3    C110838   4.421   4.071  16.844 -0.5813  0.4436 -0.3150
  730TMC3    C210839   4.486   4.009  16.945 -0.6552 -0.7339 -0.2846
  730TMC3    C310840   4.522   4.086  17.054  0.5001  0.3698 -0.0123
  730TMC3    C410841   4.388   4.205  16.852  0.4558 -0.3198 -0.5627
  730TMC3    C510842   4.424   4.276  16.967  0.3270 -0.2040 -0.4046
  730TMC3    C610843   4.493   4.217  17.066 -0.1123 -0.0592  0.2677
  730TMC3     C10844   4.470   4.025  16.709 -0.2116 -0.1267 -0.1211
  730TMC3     O10845   4.473   4.106  16.620 -0.5797  0.0821  0.4112
  730TMC3     H10846   4.516   3.905  16.944 -0.8959 -0.8118  0.1448
  730TMC3    H110847   4.360   4.268  16.769 -0.8213  1.3696  1.1416
  730TMC3    H210848   4.520   4.279  17.150  0.2132 -0.5941  0.5511
  730TMC3    C710849   4.413   4.424  16.961 -0.2499 -0.1660  0.3200
  730TMC3    C810850   4.644   4.041  17.115 -0.0058 -0.5348 -1.0685
  730TMC3    O110851   4.420   4.469  16.845 -0.2954  0.1936  0.6171
  730TMC3    O210852   4.668   3.922  17.140 -0.2406 -0.0428  0.5120
  731MPD2     C10853   0.597   2.264  12.220  0.4819 -0.0553 -0.6736
  731MPD2    C110854   0.501   2.170  12.178 -0.2172 -0.1921  0.0106
  731MPD2    C210855   0.375   2.178  12.232  0.2634  0.3577 -0.4235
  731MPD2    C310856   0.341   2.273  12.322 -0.2068  0.5514 -0.4634
  731MPD2    C410857   0.429   2.370  12.362 -0.6982 -0.0957 -0.4476
  731MPD2    C510858   0.555   2.355  12.313 -0.5399 -0.4683  0.3441
  731MPD2     H10859   0.298   2.107  12.203 -1.1238  2.0707 -0.8744
  731MPD2    H110860   0.410   2.447  12.436 -0.0191 -0.7775  0.4332
  731MPD2    H210861   0.698   2.266  12.181  0.3847  2.6724 -0.7881
  731MPD2    H310862   0.629   2.429  12.342 -2.2132  0.8472  1.2616
  731MPD2     N10863   0.225   2.246  12.401  0.1017  0.0006 -0.1074
  731MPD2    H510864   0.166   2.166  12.377  1.7408 -1.2731  0.1102
  731MPD2    N110865   0.549   2.075  12.085 -0.3046  0.7143 -0.0756
  731MPD2    H710866   0.640   2.081  12.041 -0.1866  1.2250  0.2457
  732TMC3    C110867   0.529   1.880  11.944  0.2265 -1.0222 -0.3604
  732TMC3    C210868   0.436   1.824  11.861  0.0104  0.8315  0.9129
  732TMC3    C310869   0.480   1.748  11.760  0.7325 -0.1523 -0.3765
  732TMC3    C410870   0.661   1.854  11.928 -0.3643 -1.0102 -0.4177
  732TMC3    C510871   0.697   1.765  11.830 -0.0862  0.1253  0.3177
  732TMC3    C610872   0.610   1.716  11.744 -0.1167 -0.5431  0.7561
  732TMC3     C10873   0.469   1.967  12.042  0.2560 -0.4469  0.6660
  732TMC3     O10874   0.361   1.930  12.076 -0.4412 -0.2802 -0.4608
  732TMC3     H10875   0.347   1.882  11.841 -0.3173 -1.2658 -3.6504
  732TMC3    H110876   0.736   1.890  11.997 -0.1182  0.4693 -1.4447
  732TMC3    H210877   0.643   1.632  11.684 -0.4693  0.2483 -0.5517
  732TMC3    C710878   0.830   1.762  11.772 -0.2759  0.6133 -0.2497
  732TMC3    C810879   0.403   1.628  11.755  0.1425 -0.0993 -0.1705
  732TMC3    O110880   0.838   1.768  11.648 -0.1030  0.4108  0.5458
  732TMC3    O210881   0.447   1.538  11.681  0.0110 -0.8140  0.0236
  733TMC3    C110882   1.742   0.127  12.916  0.5257 -0.2997  0.3263
  733TMC3    C210883   1.812   0.178  13.024  0.0816 -0.0903 -0.2757
  733TMC3    C310884   1.931   0.252  12.999  0.0831 -0.3882 -0.2924
  733TMC3    C410885   1.784   0.146  12.791 -0.5954 -0.2721 -0.5342
  733TMC3    C510886   1.898   0.223  12.764 -0.3804  0.0690  0.0078
  733TMC3    C610887   1.969   0.283  12.867 -0.6847 -0.2271 -0.6496
  733TMC3     C10888   1.601   0.106  12.933 -1.0498 -0.5921  0.5391
  733TMC3     O10889   1.520   0.149  12.851  0.1984 -0.2176 -0.2709
  733TMC3     H10890   1.780   0.171  13.127  1.4896  0.4645  0.2081
  733TMC3    H110891   1.721   0.131  12.704  1.1150  2.7779 -2.3283
  733TMC3    H210892   2.065   0.326  12.842 -1.1386  0.4489 -1.2170
  733TMC3    C710893   1.908   0.283  12.636  0.0116  0.1667  0.7494
  733TMC3    C810894   1.975   0.344  13.102 -0.1635  1.2313  0.1702
  733TMC3    O110895   1.860   0.220  12.538 -0.2859 -0.1414  0.0547
  733TMC3    O210896   1.972   0.310  13.220  0.3766 -0.1529 -0.0398
  734MPD2     C10897   3.805   2.975  11.958 -0.4523 -0.5486 -0.0760
  734MPD2    C110898   3.746   2.877  11.882  0.0444 -0.5956  0.4712
  734MPD2    C210899   3.769   2.883  11.744 -0.3846  0.3237  0.3578
  734MPD2    C310900   3.832   2.986  11.678  0.0136 -0.3259  0.1832
  734MPD2    C410901   3.884   3.088  11.759  0.4367  0.2537  0.9274
  734MPD2    C510902   3.863   3.087  11.900 -1.1189  0.0935 -0.4328
  734MPD2     H10903   3.735   2.795  11.691 -2.1331  0.9439  0.4494
  734MPD2    H110904   3.933   3.179  11.727 -0.3054  0.0841 -0.6560
  734MPD2    H210905   3.789   2.976  12.065  0.3251 -2.1439  0.0578
  734MPD2    H310906   3.911   3.172  11.948 -0.5627  0.2027 -1.1848
  734MPD2     N10907   3.833   2.980  11.537  0.4446  0.5001 -0.0596
  734MPD2    H510908   3.791   2.899  11.494 -4.4405  2.6576  0.5848
  734MPD2    N110909   3.686   2.760  11.942 -0.0204  0.1266  0.2122
  734MPD2    H710910   3.715   2.742  12.037  0.4491  1.6795  0.3777
  735TMC3    C110911   3.524   2.574  11.957 -0.5927  0.4856  0.0565
  735TMC3    C210912   3.410   2.536  11.895 -1.0029 -0.8974 -0.0139
  735TMC3    C310913   3.398   2.407  11.856 -0.0360  0.2094  0.9354
  735TMC3    C410914   3.622   2.482  11.983 -0.2273 -0.3390  0.6412
  735TMC3    C510915   3.596   2.355  11.961  0.7510  0.1967  0.0372
  735TMC3    C610916   3.477   2.309  11.906 -0.2664  0.2880 -0.5250
  735TMC3     C10917   3.577   2.693  11.886  0.3989 -0.3795 -0.4090
  735TMC3     O10918   3.529   2.714  11.777 -0.1373  0.5747  0.2261
  735TMC3     H10919   3.348   2.615  11.856 -1.5262 -1.3000 -0.0092
  735TMC3    H110920   3.713   2.512  12.033  1.4577  0.1626 -2.7455
  735TMC3    H210921   3.459   2.207  11.875  1.0512 -0.1646  0.2094
  735TMC3    C710922   3.698   2.264  12.000 -0.1047  0.1217  0.6249
  735TMC3    C810923   3.348   2.397  11.719 -0.1156 -0.3358 -0.1169
  735TMC3    O110924   3.807   2.313  12.015 -0.4376 -0.0466  0.3730
  735TMC3    O210925   3.285   2.299  11.686 -0.2274  0.6110  0.1318
  736MPD2     C10926   3.663   1.927  12.090 -0.4950 -0.0303  0.3515
  736MPD2    C110927   3.735   2.034  12.059 -0.6599 -0.1568 -0.0134
  736MPD2    C210928   3.872   2.027  12.044 -0.2346 -0.3575  0.1989
  736MPD2    C310929   3.944   1.912  12.066 -0.0441  0.2530  0.2220
  736MPD2    C410930   3.866   1.802  12.097 -0.1877  0.3454 -0.3861
  736MPD2    C510931   3.731   1.810  12.122 -0.0650  0.1575 -0.0686
  736MPD2     H10932   3.928   2.118  12.025  0.4602 -0.4520  1.8087
  736MPD2    H110933   3.904   1.702  12.115  0.1738  0.7123  0.8665
  736MPD2    H210934   3.555   1.937  12.085 -0.7068 -2.6259 -0.2128
  736MPD2    H310935   3.667   1.726  12.148  2.6774 -1.8082  0.4362
  736MPD2     N10936   4.083   1.905  12.048 -0.0118 -0.0278  0.5047
  736MPD2    H510937   4.117   1.813  12.071  0.7671  0.0219 -0.4812
  736MPD2    N110938   3.655   2.144  12.036 -0.0429  0.6058  0.7940
  736MPD2    H710939   3.554   2.128  12.030  0.3378 -0.7925 -1.9156
  737TMC3    C110940   4.294   1.955  11.949  0.6901  0.0944 -0.1814
  737TMC3    C210941   4.393   2.047  11.939 -0.7572  0.1221  0.7508
  737TMC3    C310942   4.500   2.027  11.853  0.3693 -0.6502  0.2314
  737TMC3    C410943   4.297   1.832  11.883 -0.1323  0.5967 -0.6110
  737TMC3    C510944   4.415   1.811  11.808 -0.5096  0.1069 -0.2653
  737TMC3    C610945   4.510   1.909  11.782 -0.4382  0.0658  0.3455
  737TMC3     C10946   4.167   2.007  12.002  0.3460 -0.1362  0.8410
  737TMC3     O10947   4.147   2.130  11.997  0.2236 -0.1634  0.0477
  737TMC3     H10948   4.391   2.143  11.988 -0.9465 -0.2099  1.3954
  737TMC3    H110949   4.222   1.756  11.898  1.6792 -0.7623  1.5308
  737TMC3    H210950   4.596   1.878  11.724  1.2351 -2.6656  4.3589
  737TMC3    C710951   4.451   1.672  11.782  0.6133 -0.3079  0.3118
  737TMC3    C810952   4.584   2.138  11.806 -0.0593 -0.0274 -0.1231
  737TMC3    O110953   4.403   1.578  11.840 -0.3123  0.5964  0.7262
  737TMC3    O210954   4.583   2.241  11.875 -0.1045  0.3668 -0.0700
  738MPD2     C10955   4.594   1.374  15.054 -0.3760 -0.1799 -0.2966
  738MPD2    C110956   4.507   1.305  14.969 -0.5698 -0.8161 -0.3313
  738MPD2    C210957   4.515   1.328  14.832 -0.6391  0.4219 -0.0318
  738MPD2    C310958   4.596   1.427  14.777 -0.7237 -0.1080  0.5976
  738MPD2    C410959   4.677   1.497  14.865 -0.3757 -0.3389 -0.0581
  738MPD2    C510960   4.682   1.468  14.997 -0.5654 -0.3650  0.8166
  738MPD2     H10961   4.458   1.262  14.768 -2.5140  0.9974  1.0679
  738MPD2    H110962   0.021   1.557  14.822 -1.4268  0.4565 -0.8683
  738MPD2    H210963   4.603   1.356  15.160 -0.3882  0.4870 -0.1831
  738MPD2    H310964   0.022   1.521  15.055 -0.8430  0.0603  0.7920
  738MPD2     N10965   4.595   1.447  14.638  0.1648 -0.4865  0.3083
  738MPD2    H510966   4.527   1.393  14.584  0.9897  0.3555 -1.5639
  738MPD2    N110967   4.426   1.194  15.008 -0.6983  0.7576  0.4391
  738MPD2    H710968   4.369   1.144  14.940  1.9012 -0.3739 -0.9073
  739TMC3    C110969   4.630   1.555  14.426 -0.5102 -0.2731 -0.2230
  739TMC3    C210970   4.588   1.445  14.354 -0.0973 -0.2788  0.7735
  739TMC3    C310971   4.607   1.448  14.217 -0.5967 -0.3274  0.3419
  739TMC3    C410972   4.680   1.663  14.366 -0.2981  0.0311  0.1096
  739TMC3    C510973   4.686   1.669  14.228  0.6395  0.1538 -0.2097
  739TMC3    C610974   4.661   1.557  14.152  0.6722 -0.4302  0.4737
  739TMC3     C10975   4.674   1.539  14.569 -0.5102 -0.0048 -0.3776
  739TMC3     O10976   0.031   1.611  14.611 -0.3403 -0.4539  0.4798
  739TMC3     H10977   4.564   1.351  14.403  0.8747 -0.6566  0.5093
  739TMC3    H110978   4.722   1.742  14.428 -0.1908  0.3286 -0.3431
  739TMC3    H210979   4.685   1.555  14.046  0.0766  1.0509  0.3136
  739TMC3    C710980   4.682   1.801  14.155  0.4744  0.0156  0.1857
  739TMC3    C810981   4.572   1.327  14.146 -0.1839 -0.3790  0.1694
  739TMC3    O110982   4.710   1.796  14.036  0.5398 -0.2933 -0.0051
  739TMC3    O210983   4.490   1.250  14.193 -0.2787 -0.1693 -0.3000
  740TMC3    C110984   0.009   2.952  14.110  0.1603 -0.6617 -0.2088
  740TMC3    C210985   0.042   2.982  14.239 -0.5387  0.3924 -0.4165
  740TMC3    C310986   0.168   3.024  14.264  0.4459 -0.0259  0.0560
  740TMC3    C410987   0.089   2.974  14.010 -0.4256  0.4906  0.2494
  740TMC3    C510988   0.212   3.031  14.035  0.8760  0.0197 -0.2025
  740TMC3    C610989   0.252   3.052  14.162 -0.1644 -0.3873  0.2231
  740TMC3     C10990   4.611   2.919  14.077  0.3061 -0.6431 -0.0871
  740TMC3     O10991   4.584   2.896  13.959 -0.5544 -0.0607  0.1983
  740TMC3     H10992   4.722   2.951  14.326  0.3940 -0.7017 -0.1954
  740TMC3    H110993   0.070   2.920  13.918  1.7041  2.4187 -1.3191
  740TMC3    H210994   0.349   3.097  14.176 -0.6958  0.4152  1.3422
  740TMC3    C710995   0.311   2.988  13.940  0.7274 -0.5397  0.1158
  740TMC3    C810996   0.203   3.068  14.391 -0.8301  0.3152 -0.4234
  740TMC3    O110997   0.423   2.979  13.991  0.5024 -0.0416  0.3192
  740TMC3    O210998   0.109   3.113  14.456 -0.2425  0.5271  0.5807
  741TMC3    C110999   4.418   1.902  13.320  0.4011  0.5141 -0.2725
  741TMC3    C211000   4.351   1.899  13.442  0.0822 -0.7647 -0.0970
  741TMC3    C311001   4.387   1.800  13.534 -0.6631  0.1806  0.9058
  741TMC3    C411002   4.529   1.831  13.300 -0.2109  1.0377 -0.6349
  741TMC3    C511003   4.562   1.737  13.392 -0.6538 -0.4105 -0.6459
  741TMC3    C611004   4.488   1.711  13.505 -0.2880 -0.8901 -0.4483
  741TMC3     C11005   4.340   1.969  13.216  0.0003 -0.0934 -0.8441
  741TMC3     O11006   4.254   2.048  13.255  0.1478 -0.1911  0.2219
  741TMC3     H11007   4.287   1.979  13.477  1.4574  0.6086 -0.7117
  741TMC3    H111008   4.585   1.831  13.207  4.0215  0.8876  1.9127
  741TMC3    H211009   4.505   1.622  13.564  2.2664 -0.0947  0.0034
  741TMC3    C711010   4.674   1.659  13.372  0.0072  0.0807 -1.0424
  741TMC3    C811011   4.291   1.759  13.644  0.2146  0.1125 -0.0763
  741TMC3    O111012   4.712   1.636  13.258  0.0168 -0.2448  0.1133
  741TMC3    O211013   4.202   1.836  13.666 -0.1517  0.1351  1.0719
  742TMC3    C111014   4.154   0.399  15.220 -0.3368  0.1423 -0.1359
  742TMC3    C211015   4.092   0.398  15.101  0.4377  0.2488  0.6271
  742TMC3    C311016   4.168   0.419  14.991  0.3432  0.3691  0.5370
  742TMC3    C411017   4.280   0.438  15.223 -0.0348  1.0774 -0.5638
  742TMC3    C511018   4.354   0.469  15.113 -0.1375 -0.0057 -0.3403
  742TMC3    C611019   4.300   0.452  14.991  0.7042  0.0572  0.6492
  742TMC3     C11020   4.112   0.300  15.314 -0.3663  0.1124  0.5779
  742TMC3     O11021   4.001   0.255  15.293  0.1274 -0.1716  0.3662
  742TMC3     H11022   4.006   0.335  15.085  0.3436  0.2606  1.1012
  742TMC3    H111023   4.325   0.465  15.318  0.4058  1.3058 -0.8345
  742TMC3    H211024   4.359   0.462  14.901 -0.9918  0.8563 -0.3638
  742TMC3    C711025   4.489   0.422  15.119 -1.0971  0.4931  0.2028
  742TMC3    C811026   4.106   0.382  14.863  0.1882  0.1948 -0.1314
  742TMC3    O111027   4.529   0.359  15.020  0.2694 -0.0014 -0.0668
  742TMC3    O211028   4.183   0.327  14.785  0.4346  0.2618  1.1318
  743MPD2     C11029   2.579   1.563   1.955  0.0163 -0.2707 -0.4645
  743MPD2    C111030   2.558   1.567   1.819 -0.1073 -0.3349 -0.4627
  743MPD2    C211031   2.662   1.554   1.725  0.4342 -0.4788  0.2271
  743MPD2    C311032   2.792   1.537   1.775  0.0285  0.2440 -0.4298
  743MPD2    C411033   2.811   1.549   1.910  0.4687 -0.4960  0.9998
  743MPD2    C511034   2.706   1.568   1.997 -0.2389  0.3178  0.2318
  743MPD2     H11035   2.651   1.553   1.617  0.5938  1.2922  0.1874
  743MPD2    H111036   2.914   1.555   1.944  0.4389  3.4987  0.4400
  743MPD2    H211037   2.499   1.563   2.028  2.1135  0.1027  1.8557
  743MPD2    H311038   2.733   1.573   2.102 -1.0903  1.2997  0.3946
  743MPD2     N11039   2.898   1.520   1.678  0.3124 -0.5411 -0.1046
  743MPD2    H511040   2.874   1.522   1.579 -1.2848 -0.7396  0.2794
  743MPD2    N111041   2.422   1.582   1.776 -0.2168  0.3887  0.0567
  743MPD2    H711042   2.353   1.617   1.842  0.7333 -0.5438  1.5440
  744TMC3    C111043   2.234   1.591   1.628 -0.6792  0.1450 -0.2127
  744TMC3    C211044   2.178   1.710   1.665  0.6119  0.5430 -0.4728
  744TMC3    C311045   2.067   1.748   1.598  0.3765 -0.5842 -0.2682
  744TMC3    C411046   2.168   1.501   1.553  0.0024  0.7010  0.0072
  744TMC3    C511047   2.055   1.538   1.487 -0.3696 -0.6703 -0.3687
  744TMC3    C611048   2.002   1.665   1.511 -0.7626  0.9640 -0.1780
  744TMC3     C11049   2.370   1.559   1.652 -0.5406  1.0186 -0.4739
  744TMC3     O11050   2.421   1.506   1.555 -0.0435  0.3717 -0.2387
  744TMC3     H11051   2.231   1.779   1.730 -1.4823  0.4153  1.3946
  744TMC3    H111052   2.217   1.406   1.535  2.1262  1.6730  0.7689
  744TMC3    H211053   1.915   1.699   1.455  0.8255  1.8349 -2.1557
  744TMC3    C711054   2.057   1.498   1.344 -0.0311 -0.4257 -0.5547
  744TMC3    C811055   2.012   1.871   1.655 -1.0575 -0.3689  1.0001
  744TMC3    O111056   2.033   1.581   1.257 -0.2607 -0.0207 -0.2776
  744TMC3    O211057   2.057   1.911   1.763 -0.3835 -0.3238  0.2345
  745TMC3    C111058   0.077   0.445  13.567 -0.3356  0.1272  0.3438
  745TMC3    C211059   4.726   0.393  13.658  0.0409  0.1231  0.6475
  745TMC3    C311060   4.660   0.281  13.619 -0.3883 -0.2187  0.2957
  745TMC3    C411061   0.110   0.378  13.455  0.4341 -0.4732 -0.1768
  745TMC3    C511062   0.028   0.270  13.414 -0.1177 -0.4604  0.1644
  745TMC3    C611063   4.670   0.220  13.498  0.1192 -0.6800 -0.8283
  745TMC3     C11064   0.160   0.552  13.608 -0.6238  0.4261  0.3089
  745TMC3     O11065   0.137   0.592  13.722  0.3451 -0.4868  0.2645
  745TMC3     H11066   4.705   0.445  13.751  2.7274  1.8229  0.3112
  745TMC3    H111067   0.187   0.406  13.383 -0.2098  2.6440  0.3389
  745TMC3    H211068   4.624   0.122  13.488  1.6575 -1.1776 -2.8263
  745TMC3    C711069   0.044   0.215  13.280  0.4604 -0.1582  1.1453
  745TMC3    C811070   4.613   0.189  13.722 -0.4332  0.3208  0.8333
  745TMC3    O111071   4.686   0.153  13.234  0.1494 -0.3194 -0.0305
  745TMC3    O211072   4.523   0.114  13.690  0.3090  0.5271 -0.7503
  746TMC3    C111073   2.549   1.749  11.116  0.8349 -0.4615 -0.6398
  746TMC3    C211074   2.610   1.701  11.001 -0.1156  0.5313 -0.0098
  746TMC3    C311075   2.600   1.567  10.968  0.5792 -0.7600 -0.1636
  746TMC3    C411076   2.464   1.671  11.187  0.3544 -0.9590  0.3700
  746TMC3    C511077   2.468   1.540  11.158  0.2881  0.2700  0.0671
  746TMC3    C611078   2.553   1.482  11.062 -1.0908  0.5183  0.6562
  746TMC3     C11079   2.533   1.890  11.140  0.0620 -0.0179 -0.8581
  746TMC3     O11080   2.469   1.924  11.237 -0.8875 -0.4579 -0.0028
  746TMC3     H11081   2.658   1.766  10.929  2.0100  0.5676  1.4286
  746TMC3    H111082   2.407   1.697  11.275  0.3443  0.9157 -0.1953
  746TMC3    H211083   2.544   1.375  11.046  1.6709  0.4798 -0.7772
  746TMC3    C711084   2.334   1.484  11.172 -0.4999 -0.4658 -0.0816
  746TMC3    C811085   2.607   1.509  10.830  0.9590 -0.3816 -0.0954
  746TMC3    O111086   2.247   1.566  11.154 -0.1439 -0.5794  0.0302
  746TMC3    O211087   2.543   1.402  10.815 -0.1624  0.7971 -0.4262
  747TMC3    C111088   0.399   1.519  11.044  0.8528  0.3075 -0.9480
  747TMC3    C211089   0.298   1.440  11.086  1.0247 -0.7374 -0.6221
  747TMC3    C311090   0.195   1.506  11.153  0.6875  0.0121  0.0725
  747TMC3    C411091   0.395   1.653  11.031 -0.3769 -0.2749 -0.0845
  747TMC3    C511092   0.288   1.719  11.087 -0.3108 -0.4144  0.0494
  747TMC3    C611093   0.188   1.646  11.150  0.5146  0.2340  0.0934
  747TMC3     C11094   0.490   1.470  10.947 -0.5205  0.1505  0.1033
  747TMC3     O11095   0.594   1.532  10.926 -0.1229 -0.2288  0.2230
  747TMC3     H11096   0.317   1.333  11.087  1.1808 -0.7020  0.8962
  747TMC3    H111097   0.487   1.707  11.011 -0.0926 -0.1645  1.5329
  747TMC3    H211098   0.116   1.711  11.199  0.1138  0.4300 -0.7561
  747TMC3    C711099   0.307   1.860  11.102  0.9590 -0.3839 -0.3744
  747TMC3    C811100   0.118   1.423  11.245  0.2416 -0.8407 -0.1675
  747TMC3    O111101   0.284   1.919  11.211 -0.0213  0.0026  0.2532
  747TMC3    O211102   0.160   1.314  11.271  0.5256 -0.1985 -0.8437
  748MPD2     C11103   1.692   2.480   0.608 -0.1612  0.0560 -0.3980
  748MPD2    C111104   1.636   2.579   0.685 -0.0181 -0.2570  0.4682
  748MPD2    C211105   1.719   2.687   0.724 -0.0905 -0.4918  0.2893
  748MPD2    C311106   1.844   2.699   0.677 -0.1290 -0.1853 -0.4141
  748MPD2    C411107   1.901   2.600   0.612  0.2591 -0.2151  0.3818
  748MPD2    C511108   1.828   2.488   0.587 -0.7027  0.2589  0.2859
  748MPD2     H11109   1.677   2.772   0.777  1.0510 -1.1855  2.2848
  748MPD2    H111110   2.007   2.591   0.590 -0.4241 -1.7185 -2.3337
  748MPD2    H211111   1.632   2.395   0.578 -1.2865 -0.7357  4.1024
  748MPD2    H311112   1.874   2.408   0.530 -1.3619  1.4386 -1.9245
  748MPD2     N11113   1.912   2.824   0.710  0.3821  0.0804 -0.3708
  748MPD2    H511114   1.860   2.895   0.761 -0.6323 -0.3411 -0.8156
  748MPD2    N111115   1.500   2.564   0.720  0.3572  0.1217 -0.0714
  748MPD2    H711116   1.456   2.491   0.667 -0.9293  1.0599 -0.2921
  749TMC3    C111117   2.084   2.966   0.757  0.2815 -0.5771  0.3211
  749TMC3    C211118   2.176   2.963   0.856 -0.2041  0.2328 -0.7713
  749TMC3    C311119   2.211   3.083   0.917 -1.0424  0.8092  0.5034
  749TMC3    C411120   2.029   3.074   0.711  0.1494  0.4223  0.0617
  749TMC3    C511121   2.079   3.192   0.762 -0.2037 -0.5858 -0.0021
  749TMC3    C611122   2.167   3.201   0.868 -0.1001 -0.4253 -0.3727
  749TMC3     C11123   2.046   2.839   0.701 -0.1625  0.4546  0.7103
  749TMC3     O11124   2.138   2.761   0.675  0.4942  0.4627 -0.6623
  749TMC3     H11125   2.209   2.862   0.878 -0.3739  0.2916 -0.2304
  749TMC3    H111126   1.948   3.063   0.639  1.0266 -2.0099 -0.5303
  749TMC3    H211127   2.206   3.299   0.895  1.3917 -0.7644 -1.3299
  749TMC3    C711128   2.106   3.304   0.672  0.0199 -0.4382 -0.0730
  749TMC3    C811129   2.267   3.070   1.057  0.7137  0.4719  0.2118
  749TMC3    O111130   2.137   3.412   0.726 -0.8408 -0.3583 -0.0816
  749TMC3    O211131   2.272   3.174   1.119 -0.2481 -0.1072  0.2992
  750MPD2     C11132   3.070   4.036  11.136  0.5751 -0.3892  0.0689
  750MPD2    C111133   2.959   3.990  11.199  0.2215  0.7327  0.7627
  750MPD2    C211134   2.918   3.856  11.198 -0.2960 -0.3264 -0.3923
  750MPD2    C311135   3.005   3.760  11.139  0.1252 -0.0509  0.7856
  750MPD2    C411136   3.121   3.809  11.089  0.4289 -0.6106 -0.3621
  750MPD2    C511137   3.147   3.941  11.085 -0.2911  0.8765  0.5475
  750MPD2     H11138   2.826   3.834  11.251 -0.2579  0.2706 -0.0773
  750MPD2    H111139   3.187   3.731  11.052  0.9136 -0.4303  0.1247
  750MPD2    H211140   3.098   4.140  11.128  0.5599 -0.4454 -0.7170
  750MPD2    H311141   3.245   3.950  11.040  0.1424  0.0531  1.3385
  750MPD2     N11142   2.969   3.625  11.130  0.0366  0.8011  0.1864
  750MPD2    H511143   3.043   3.565  11.095 -1.0664 -0.4075 -0.0515
  750MPD2    N111144   2.888   4.091  11.270  0.6114 -0.1674 -0.1754
  750MPD2    H711145   2.918   4.186  11.254 -1.5430  0.5520 -0.0105
  751TMC3    C111146   2.835   3.433  11.113  0.2638  1.4375 -0.2551
  751TMC3    C211147   2.726   3.360  11.171 -1.2803  0.3469  0.3740
  751TMC3    C311148   2.708   3.234  11.137  0.3779 -0.6965 -0.7204
  751TMC3    C411149   2.913   3.374  11.019 -0.0961  0.4394  0.7320
  751TMC3    C511150   2.880   3.245  10.983  0.6783 -0.5406 -0.6654
  751TMC3    C611151   2.784   3.171  11.042 -0.0846 -0.7873  0.7798
  751TMC3     C11152   2.847   3.572  11.159  0.6497 -0.1596 -0.7100
  751TMC3     O11153   2.745   3.624  11.205  0.0757  0.4507 -0.4176
  751TMC3     H11154   2.679   3.394  11.262  1.8747 -0.5410  2.3117
  751TMC3    H111155   2.986   3.433  10.965  1.0356  0.0691  1.8722
  751TMC3    H211156   2.750   3.077  10.999 -1.0049 -0.9888  1.9620
  751TMC3    C711157   2.972   3.179  10.892  0.2129  0.2117 -0.1629
  751TMC3    C811158   2.588   3.159  11.177  0.3960 -0.1985  0.0610
  751TMC3    O111159   3.036   3.242  10.811  0.1823  0.0848  0.1121
  751TMC3    O211160   2.599   3.039  11.169 -0.2724  0.5447 -0.1055
  752TMC3    C111161   0.914   4.038  17.097  0.3591  0.0913  0.7107
  752TMC3    C211162   0.957   3.937  17.173  0.8771  0.2227  0.4403
  752TMC3    C311163   0.902   3.927  17.299 -0.5967  0.4338  0.0373
  752TMC3    C411164   0.821   4.129  17.141  0.4290 -0.5160 -0.3990
  752TMC3    C511165   0.766   4.110  17.266 -0.0354 -0.4666  0.8476
  752TMC3    C611166   0.795   4.002  17.343 -0.8618  0.1584 -0.3397
  752TMC3     C11167   0.959   4.042  16.962 -0.9344 -0.1293  0.4808
  752TMC3     O11168   1.055   3.975  16.939 -0.6523 -0.1421 -0.5716
  752TMC3     H11169   1.027   3.860  17.146  0.0901  0.1070 -1.2351
  752TMC3    H111170   0.808   4.219  17.082  1.7229 -0.0396  0.0279
  752TMC3    H211171   0.749   3.976  17.438  0.3730 -0.6874  0.0199
  752TMC3    C711172   0.659   4.195  17.317  0.2866  0.0239 -0.0032
  752TMC3    C811173   0.920   3.798  17.370 -0.2448  0.3964  0.1884
  752TMC3    O111174   0.656   4.308  17.272  0.2606  0.4709 -0.9574
  752TMC3    O211175   0.905   3.696  17.300 -0.7223 -0.2403 -0.0270
  753TMC3    C111176   3.354   0.198  13.224 -0.1171  0.8118 -0.0649
  753TMC3    C211177   3.292   0.260  13.331  0.4029  0.2329  0.2298
  753TMC3    C311178   3.305   0.207  13.456  0.2994  0.8119  0.2504
  753TMC3    C411179   3.425   0.081  13.238 -0.1516  0.3602  0.0480
  753TMC3    C511180   3.453   0.039  13.366 -0.1934 -0.1696  0.1159
  753TMC3    C611181   3.391   0.099  13.472 -0.5123  0.1248 -1.1116
  753TMC3     C11182   3.304   0.227  13.094 -0.4573  0.1329 -0.0323
  753TMC3     O11183   3.290   0.349  13.076  0.1224 -0.0787  0.2103
  753TMC3     H11184   3.223   0.342  13.315  0.1095  0.0693  0.6646
  753TMC3    H111185   3.467   0.025  13.156  2.4322  2.4708 -0.0796
  753TMC3    H211186   3.403   0.055  13.570 -0.6667  1.2938 -0.5651
  753TMC3    C711187   3.487   4.632  13.376  0.4336 -0.4285  0.6373
  753TMC3    C811188   3.240   0.264  13.574  0.2320 -0.3425  0.1344
  753TMC3    O111189   3.465   4.567  13.276 -0.4193  0.0440  0.5190
  753TMC3    O211190   3.167   0.359  13.545 -0.5245 -0.1931  0.4033
  754MPD2     C11191   2.370   3.798  12.929 -0.5572  0.1758  0.5908
  754MPD2    C111192   2.386   3.665  12.925  0.2591  0.8825 -0.3137
  754MPD2    C211193   2.269   3.589  12.932  0.7049  0.0680  0.3935
  754MPD2    C311194   2.149   3.648  12.983 -0.5577  0.4881 -0.0027
  754MPD2    C411195   2.147   3.784  13.002  1.0503 -0.4084  0.4886
  754MPD2    C511196   2.252   3.856  12.964 -0.1919  0.9037  0.5604
  754MPD2     H11197   2.269   3.489  12.892 -0.0074 -0.2148  1.1150
  754MPD2    H111198   2.061   3.837  13.040  0.6136  1.3056 -2.8590
  754MPD2    H211199   2.446   3.874  12.913  1.6190 -1.7538  1.7587
  754MPD2    H311200   2.231   3.962  12.961 -1.3289  0.6974  1.0987
  754MPD2     N11201   2.028   3.577  13.001  0.3576 -0.1927 -0.5836
  754MPD2    H511202   1.947   3.635  13.022  0.0871 -0.2353 -1.5326
  754MPD2    N111203   2.513   3.611  12.889  0.2621 -0.1265  0.1109
  754MPD2    H711204   2.582   3.686  12.878  0.7548 -0.6222 -0.1918
  755MPD2     C11205   1.276   3.964  13.233  0.0549 -0.0458  0.2854
  755MPD2    C111206   1.251   3.835  13.266  0.4453 -0.0736 -0.1833
  755MPD2    C211207   1.342   3.736  13.240 -0.2652  0.1159  0.2100
  755MPD2    C311208   1.466   3.767  13.177  0.6362  0.4586 -0.0848
  755MPD2    C411209   1.486   3.899  13.151 -0.3394 -0.0943  0.1018
  755MPD2    C511210   1.395   3.997  13.189 -0.6159  0.1270 -0.8282
  755MPD2     H11211   1.321   3.631  13.259 -0.0162  0.2640  1.3071
  755MPD2    H111212   1.584   3.931  13.114 -0.5508 -0.5681 -0.8684
  755MPD2    H211213   1.210   4.047  13.253  1.4754  1.2757 -0.5323
  755MPD2    H311214   1.422   4.098  13.164  1.7590 -0.1721  0.4965
  755MPD2     N11215   1.566   3.672  13.143  0.0667  0.4449  0.1031
  755MPD2    H511216   1.645   3.705  13.088 -0.1732 -0.2570 -0.6589
  755MPD2    N111217   1.130   3.808  13.327  0.3287 -0.1328  0.0324
  755MPD2    H711218   1.128   3.712  13.358  0.6711 -0.4713 -1.0114
  756MPD2     C11219   2.175   0.029   9.784  0.5390 -0.1961 -0.3428
  756MPD2    C111220   2.140   4.703   9.905 -0.3196  0.2895 -0.4541
  756MPD2    C211221   2.021   4.638   9.914 -0.2569  0.2622  0.6830
  756MPD2    C311222   1.932   4.631   9.810  0.1700  0.0335  0.1653
  756MPD2    C411223   1.965   4.693   9.688 -0.0336 -0.1881  0.8865
  756MPD2    C511224   2.086   0.015   9.674 -0.1636 -0.4125 -0.4518
  756MPD2     H11225   1.986   4.606  10.012 -0.3914  2.1084  1.2314
  756MPD2    H111226   1.889   4.686   9.612  0.8475  2.0043 -0.2061
  756MPD2    H211227   2.260   0.092   9.763  0.5896 -0.6262 -1.4766
  756MPD2    H311228   2.109   0.067   9.581  1.6358 -2.5399 -1.1731
  756MPD2     N11229   1.806   4.571   9.835  0.0285  0.1942 -0.3662
  756MPD2    H511230   1.783   4.531   9.925  2.8989  0.7101  0.5987
  756MPD2    N111231   2.210   4.718  10.024 -0.1049  0.2599  0.8708
  756MPD2    H711232   2.152   4.705  10.107  0.9655 -1.8443  1.2732
  757MPD2     C11233   1.867   3.710   9.911 -1.5577  0.7080  0.3838
  757MPD2    C111234   1.911   3.798   9.809  0.9751  0.0764  0.0697
  757MPD2    C211235   1.849   3.922   9.805 -0.5494 -0.3742 -0.0907
  757MPD2    C311236   1.761   3.958   9.908 -0.2547 -0.2424  0.3633
  757MPD2    C411237   1.722   3.878  10.010  0.5585  0.3066  0.1981
  757MPD2    C511238   1.786   3.754  10.014 -0.1911  0.2722  0.0011
  757MPD2     H11239   1.868   3.990   9.724  0.8046  0.5670  1.0065
  757MPD2    H111240   1.648   3.905  10.084 -0.2177  0.7790 -0.7378
  757MPD2    H211241   1.898   3.607   9.926  0.5828  1.3354  0.1795
  757MPD2    H311242   1.764   3.683  10.093 -0.5397  0.6543  0.2472
  757MPD2     N11243   1.699   4.086   9.893 -0.6427 -0.6618 -0.2926
  757MPD2    H511244   1.738   4.135   9.813 -0.4876  0.6231  0.5842
  757MPD2    N111245   1.997   3.746   9.715 -0.0508  0.3180 -0.2662
  757MPD2    H711246   2.029   3.653   9.742 -1.9124 -0.2619 -0.0793
  758MPD2     C11247   2.112   3.474  15.607  0.0793 -0.5965  0.0898
  758MPD2    C111248   2.134   3.358  15.683 -0.3931 -0.3359 -0.1990
  758MPD2    C211249   2.104   3.363  15.820 -0.3440  0.6790  0.4648
  758MPD2    C311250   2.029   3.469  15.874  0.3171  0.5153  0.7032
  758MPD2    C411251   1.982   3.567  15.791  0.0694  0.4182  0.1767
  758MPD2    C511252   2.028   3.566  15.665 -0.2606  0.2961 -0.0519
  758MPD2     H11253   2.142   3.290  15.891 -1.1648 -1.0390 -0.8507
  758MPD2    H111254   1.916   3.641  15.833  0.9675  0.8262  0.8805
  758MPD2    H211255   2.146   3.477  15.505  1.1540  1.2469  0.5089
  758MPD2    H311256   1.999   3.655  15.610 -1.0753  0.7274  1.0698
  758MPD2     N11257   1.998   3.488  16.010 -0.2979  0.4555  0.0519
  758MPD2    H511258   1.966   3.580  16.037 -3.3582 -0.1340 -1.5261
  758MPD2    N111259   2.208   3.250  15.631  0.6952 -0.2828 -0.3767
  758MPD2    H711260   2.230   3.259  15.533 -1.0223 -0.6213 -0.7946
  759MPD2     C11261   1.703   2.336  10.485  0.5749 -0.3180 -0.5807
  759MPD2    C111262   1.705   2.219  10.402  0.6861  0.0514  0.8444
  759MPD2    C211263   1.774   2.222  10.279 -0.1547  0.0600  0.0120
  759MPD2    C311264   1.842   2.336  10.237  0.3631 -0.0696  0.6295
  759MPD2    C411265   1.835   2.450  10.315  0.4372  0.0533 -0.0289
  759MPD2    C511266   1.777   2.450  10.438 -0.1414  0.0620 -0.6396
  759MPD2     H11267   1.771   2.135  10.215  1.1700 -0.2294  0.3423
  759MPD2    H111268   1.884   2.539  10.276  2.2994 -0.1678  1.8408
  759MPD2    H211269   1.657   2.344  10.582  1.1153 -1.8665 -0.1924
  759MPD2    H311270   1.783   2.540  10.498 -1.6918 -1.7822  2.2830
  759MPD2     N11271   1.903   2.321  10.109 -1.2700  0.3152 -0.1852
  759MPD2    H511272   1.896   2.229  10.067  0.7886  0.1797 -0.2141
  759MPD2    N111273   1.639   2.101  10.439 -0.4261 -0.5957 -0.8487
  759MPD2    H711274   1.646   2.014  10.388  0.3603 -0.0503 -1.6705
  760MPD2     C11275   0.752   3.502  11.999  0.2538  0.1700 -0.2504
  760MPD2    C111276   0.875   3.556  11.964  0.0007  0.5502  0.2590
  760MPD2    C211277   0.971   3.466  11.916 -0.1904  0.0388 -0.5629
  760MPD2    C311278   0.948   3.333  11.895  0.3860  0.2178  0.0560
  760MPD2    C411279   0.820   3.284  11.932  0.9350  0.5058  0.1538
  760MPD2    C511280   0.724   3.371  11.981  0.7964 -0.2493  0.0625
  760MPD2     H11281   1.069   3.505  11.889 -0.0926 -0.0475 -0.3352
  760MPD2    H111282   0.783   3.184  11.909  2.0439 -0.0885  0.9536
  760MPD2    H211283   0.676   3.565  12.043  1.0268 -0.3138  1.7777
  760MPD2    H311284   0.625   3.339  12.012 -0.6107  0.5555 -3.6290
  760MPD2     N11285   1.037   3.246  11.831 -0.2533 -0.3044 -1.1847
  760MPD2    H511286   1.007   3.150  11.813  2.8018 -1.1553 -1.8164
  760MPD2    N111287   0.912   3.692  11.976  0.0065  0.8963 -0.4769
  760MPD2    H711288   1.002   3.729  11.949  0.0395  0.0171 -1.5745
  761MPD2     C11289   2.127   3.101  11.383  1.0390 -0.1444 -0.2770
  761MPD2    C111290   2.199   3.027  11.297 -0.9712 -0.2843  0.0858
  761MPD2    C211291   2.325   3.063  11.263 -0.0114  0.1772 -0.1380
  761MPD2    C311292   2.369   3.186  11.295 -0.0304  0.7479 -0.1389
  761MPD2    C411293   2.290   3.277  11.360 -0.1078 -0.0311  1.0716
  761MPD2    C511294   2.174   3.227  11.418  0.4688  0.1188  0.0883
  761MPD2     H11295   2.383   2.999  11.197 -2.2401 -0.3630 -1.6010
  761MPD2    H111296   2.324   3.375  11.391 -0.0138  0.5499 -0.8831
  761MPD2    H211297   2.029   3.077  11.421  0.3054  0.6649 -1.6816
  761MPD2    H311298   2.105   3.285  11.480 -0.1897 -1.4384  0.8175
  761MPD2     N11299   2.491   3.235  11.242  0.3444 -0.2656  0.0021
  761MPD2    H511300   2.497   3.335  11.259  0.2510 -0.2432 -0.0998
  761MPD2    N111301   2.157   2.891  11.271  0.1924  0.2402  0.5804
  761MPD2    H711302   2.083   2.851  11.327  0.0903 -0.9167 -0.3910
  762MPD2     C11303   2.225   2.061  10.861 -0.4447 -0.4714  0.0084
  762MPD2    C111304   2.284   2.185  10.845 -0.5957  0.3728  0.4829
  762MPD2    C211305   2.368   2.212  10.736  0.1551 -0.5097 -0.2108
  762MPD2    C311306   2.411   2.105  10.654  0.2399 -0.7102  0.3234
  762MPD2    C411307   2.357   1.978  10.677 -0.1311  0.6035 -0.1907
  762MPD2    C511308   2.272   1.956  10.781 -0.1470 -0.2216  0.0513
  762MPD2     H11309   2.405   2.313  10.722  1.1342 -1.0029 -1.1970
  762MPD2    H111310   2.388   1.894  10.616 -0.6347  1.1697 -1.2242
  762MPD2    H211311   2.154   2.031  10.937 -1.1697  0.2383 -0.3852
  762MPD2    H311312   2.228   1.858  10.795 -0.2297 -0.1550  0.2536
  762MPD2     N11313   2.492   2.126  10.541 -0.2376  0.1131 -0.7340
  762MPD2    H511314   2.517   2.043  10.488  0.9292  0.2545 -0.4061
  762MPD2    N111315   2.240   2.281  10.938 -0.1175  0.6120  0.3440
  762MPD2    H711316   2.181   2.252  11.016 -0.7064  1.5803  0.2625
  763MPD2     C11317   3.964   3.271  16.076 -0.0685 -0.0757  0.3702
  763MPD2    C111318   3.852   3.347  16.050 -0.4533  0.2296  0.8515
  763MPD2    C211319   3.844   3.471  16.108 -0.8643 -0.5501 -0.2091
  763MPD2    C311320   3.949   3.518  16.191  0.5052 -0.6195 -0.6281
  763MPD2    C411321   4.069   3.445  16.206  0.3586  0.4139  0.1662
  763MPD2    C511322   4.073   3.321  16.147  0.3465  0.4671  0.0880
  763MPD2     H11323   3.767   3.545  16.085  0.8448  0.8780 -1.3721
  763MPD2    H111324   4.163   3.488  16.241 -0.5687 -0.1206  3.2964
  763MPD2    H211325   3.984   3.182  16.016 -0.5870  0.7009 -0.9438
  763MPD2    H311326   4.171   3.275  16.142  0.6534  0.9480  1.9045
  763MPD2     N11327   3.947   3.650  16.245 -0.1608  0.4187 -0.3790
  763MPD2    H511328   4.037   3.683  16.280 -1.3318  2.0764  1.0773
  763MPD2    N111329   3.749   3.304  15.968 -0.4473 -0.4913 -0.6764
  763MPD2    H711330   3.671   3.365  15.947 -0.6065 -0.5325 -0.2098
  764MPD2     C11331   1.776   0.213  17.193 -0.2346 -0.0347 -0.0191
  764MPD2    C111332   1.666   0.152  17.139  0.1693 -0.4970 -0.2017
  764MPD2    C211333   1.591   0.073  17.223  1.3531  0.3639  0.4664
  764MPD2    C311334   1.626   0.072  17.360 -0.4297 -0.5710  0.0001
  764MPD2    C411335   1.750   0.114  17.404 -0.0184 -0.5865  0.6873
  764MPD2    C511336   1.822   0.194  17.326  0.1942  0.5717 -0.0952
  764MPD2     H11337   1.508   0.017  17.183 -1.1542  3.3113  1.5387
  764MPD2    H111338   1.792   0.097  17.503  0.5018 -0.1229  0.5432
  764MPD2    H211339   1.854   0.250  17.127 -0.9769 -1.0671 -1.4915
  764MPD2    H311340   1.907   0.247  17.368 -1.4368  2.3492  0.9648
  764MPD2     N11341   1.542   4.729  17.442 -0.3912  0.4058  0.0285
  764MPD2    H511342   1.458   4.699  17.394 -0.1829 -1.5034  0.8372
  764MPD2    N111343   1.644   0.157  17.006 -0.1211 -0.1080 -0.2347
  764MPD2    H711344   1.573   0.099  16.962 -0.3057  0.7710 -1.1185
  765MPD2     C11345   1.829   2.741  15.284 -0.1660  0.2410  0.4487
  765MPD2    C111346   1.896   2.800  15.392 -0.2556  0.2645 -0.5462
  765MPD2    C211347   2.027   2.752  15.420  0.0972 -0.1643  0.3398
  765MPD2    C311348   2.073   2.642  15.354 -0.3922  1.0253 -0.3845
  765MPD2    C411349   2.009   2.584  15.242 -1.7903 -0.0224  0.0291
  765MPD2    C511350   1.885   2.643  15.200  0.1406  0.2528 -0.4529
  765MPD2     H11351   2.083   2.799  15.500 -0.5077  0.8978  0.1394
  765MPD2    H111352   2.048   2.503  15.181  0.7727  0.5953  0.8404
  765MPD2    H211353   1.728   2.770  15.257  0.2557  0.0967 -1.2820
  765MPD2    H311354   1.825   2.600  15.121 -1.9317 -0.3000  1.4501
  765MPD2     N11355   2.177   2.571  15.416  0.9380 -0.4829  0.2753
  765MPD2    H511356   2.213   2.612  15.502  0.9137  1.8556 -0.8161
  765MPD2    N111357   1.834   2.906  15.463 -0.0836 -0.2612 -0.3408
  765MPD2    H711358   1.738   2.927  15.439  0.2100 -0.2218 -1.4932
  766MPD2     C11359   1.214   3.110  15.229 -0.3774 -0.1674  0.1259
  766MPD2    C111360   1.334   3.057  15.259 -0.6617 -0.2702  1.2124
  766MPD2    C211361   1.404   2.984  15.171  0.1256 -0.2119  0.2683
  766MPD2    C311362   1.349   2.949  15.043 -0.4092 -0.6235 -0.8091
  766MPD2    C411363   1.220   3.002  15.014  0.4557 -0.2998 -0.1525
  766MPD2    C511364   1.154   3.083  15.108  0.0143 -0.1728  0.3178
  766MPD2     H11365   1.502   2.945  15.193  0.0803 -1.1012 -1.1245
  766MPD2    H111366   1.166   2.986  14.921  1.3031  0.6267 -0.8020
  766MPD2    H211367   1.158   3.166  15.304  1.3870  3.6766 -1.4171
  766MPD2    H311368   1.055   3.123  15.090 -0.5167 -1.6438 -0.0931
  766MPD2     N11369   1.414   2.871  14.944  0.0404  0.1965  0.0142
  766MPD2    H511370   1.387   2.882  14.847  0.4070  1.6582  0.0794
  766MPD2    N111371   1.384   3.080  15.391  0.3168 -0.3487  0.0411
  766MPD2    H711372   1.340   3.161  15.435 -2.6326 -0.6923 -2.2459
  767MPD2     C11373   1.074   3.173  14.768  0.2398  0.9927  0.1667
  767MPD2    C111374   1.209   3.159  14.727  0.6672 -0.0347  0.1379
  767MPD2    C211375   1.242   3.076  14.620 -0.3380 -0.9268 -0.5248
  767MPD2    C311376   1.151   2.997  14.558  0.2897 -0.0899 -0.2050
  767MPD2    C411377   1.021   3.006  14.604 -0.4438 -0.2390 -0.0221
  767MPD2    C511378   0.977   3.094  14.706 -0.3778 -0.3584  0.7271
  767MPD2     H11379   1.341   3.087  14.577 -0.0116  1.7149  0.8721
  767MPD2    H111380   0.941   2.952  14.555  1.9400 -2.0001 -1.9584
  767MPD2    H211381   1.044   3.237  14.850  1.7753  2.2219 -0.2313
  767MPD2    H311382   0.875   3.094  14.742 -0.5012 -2.5650  0.4183
  767MPD2     N11383   1.204   2.907  14.467  0.1244  1.0318 -0.1347
  767MPD2    H511384   1.304   2.904  14.449  0.2380  1.2652  0.4262
  767MPD2    N111385   1.302   3.235  14.797 -0.1016  0.3116 -0.3575
  767MPD2    H711386   1.252   3.303  14.853 -0.2852 -1.4316  1.5670
  768MPD2     C11387   2.370   1.217  10.370  0.1276 -0.4022  0.0626
  768MPD2    C111388   2.309   1.187  10.490  0.0265 -0.1486  0.5455
  768MPD2    C211389   2.384   1.154  10.603  0.5568 -0.3650 -0.4987
  768MPD2    C311390   2.523   1.167  10.598  0.1973 -0.0221 -0.0430
  768MPD2    C411391   2.587   1.189  10.472  0.0050  0.4358  0.5663
  768MPD2    C511392   2.506   1.225  10.361  0.7399 -0.3766  0.5231
  768MPD2     H11393   2.343   1.124  10.699  2.2304 -0.5008  0.1805
  768MPD2    H111394   2.693   1.181  10.452  0.1660 -0.8201  1.8938
  768MPD2    H211395   2.315   1.247  10.282  1.6015 -3.2816 -1.8136
  768MPD2    H311396   2.559   1.235  10.267  1.4112 -2.6911  0.6500
  768MPD2     N11397   2.613   1.126  10.702 -0.1422 -0.6470  0.1256
  768MPD2    H511398   2.708   1.120  10.667 -0.1785  1.8575 -0.3874
  768MPD2    N111399   2.166   1.187  10.510 -0.6020  0.8307 -0.6710
  768MPD2    H711400   2.127   1.176  10.603 -0.4240 -2.3597 -0.9786
  769MPD2     C11401   2.704   0.260  14.862 -0.0722  0.0925  0.7350
  769MPD2    C111402   2.797   0.154  14.876  0.0778 -0.0168 -0.2263
  769MPD2    C211403   2.889   0.151  14.977 -0.6606  0.6994  0.2530
  769MPD2    C311404   2.866   0.245  15.082 -0.2951 -0.3971 -0.4259
  769MPD2    C411405   2.769   0.349  15.073  0.2116  0.5265 -0.3305
  769MPD2    C511406   2.701   0.360  14.954  0.2980  0.5488  0.2798
  769MPD2     H11407   2.968   0.077  14.974 -0.5329  0.8606 -0.3651
  769MPD2    H111408   2.772   0.429  15.146 -0.9276 -1.9157  2.4149
  769MPD2    H211409   2.648   0.279  14.771 -0.6929 -1.3030  0.8389
  769MPD2    H311410   2.641   0.450  14.942 -1.1747  0.0565  3.7716
  769MPD2     N11411   2.946   0.249  15.194 -0.0247  0.3743  0.3849
  769MPD2    H511412   2.904   0.305  15.269 -1.0939 -1.5115  1.1935
  769MPD2    N111413   2.784   0.042  14.788  0.2816 -0.5675  0.3249
  769MPD2    H711414   2.694   0.032  14.742 -0.0913 -1.3712  1.2238
  770MPD2     C11415   3.026   3.735  14.658  0.8414 -0.2403 -0.0099
  770MPD2    C111416   2.886   3.756  14.654 -0.1915 -0.4921 -0.3192
  770MPD2    C211417   2.846   3.884  14.627  0.0890 -0.0813  0.6245
  770MPD2    C311418   2.939   3.986  14.619 -0.0406  0.2079 -0.0172
  770MPD2    C411419   3.073   3.959  14.637  1.0932 -0.2531  0.0568
  770MPD2    C511420   3.119   3.831  14.651 -0.0271 -0.1924  0.4249
  770MPD2     H11421   2.738   3.891  14.615  0.3002  0.5588 -0.8732
  770MPD2    H111422   3.145   4.040  14.629  0.1621  0.6456  0.7942
  770MPD2    H211423   3.068   3.635  14.672 -3.3448 -2.1823 -1.3584
  770MPD2    H311424   3.225   3.808  14.661 -0.4644 -1.4556  2.0958
  770MPD2     N11425   2.890   4.121  14.607 -0.2104  0.1304 -0.3948
  770MPD2    H511426   2.789   4.124  14.594 -0.2141  2.0415  0.0522
  770MPD2    N111427   2.814   3.636  14.670  0.1716 -0.2006  1.1497
  770MPD2    H711428   2.873   3.553  14.667 -1.4494 -1.3413  1.1035
  771MPD2     C11429   3.818   2.228  13.650 -0.2360  0.6273  0.7187
  771MPD2    C111430   3.740   2.277  13.546 -0.0470  0.0593 -0.6024
  771MPD2    C211431   3.644   2.201  13.482 -0.3202  0.4422  0.2284
  771MPD2    C311432   3.624   2.075  13.528  0.0776  0.6277 -0.1282
  771MPD2    C411433   3.689   2.023  13.641  0.2648 -0.1559 -0.2140
  771MPD2    C511434   3.787   2.102  13.697  0.5185 -0.0282  0.1889
  771MPD2     H11435   3.588   2.240  13.399 -0.2659  0.7606  0.3399
  771MPD2    H111436   3.670   1.925  13.682 -1.2847  0.2811  0.0836
  771MPD2    H211437   3.888   2.288  13.707  0.0494  1.9637 -1.0078
  771MPD2    H311438   3.835   2.072  13.790 -0.6493 -2.5110 -0.0023
  771MPD2     N11439   3.507   2.012  13.475  0.6016 -0.2889  0.0914
  771MPD2    H511440   3.449   2.072  13.418  4.0488  3.1165  0.1928
  771MPD2    N111441   3.748   2.415  13.496  0.1926  0.7592 -0.0011
  771MPD2    H711442   3.678   2.452  13.432  0.2017  0.5642 -0.1219
  772MPD2     C11443   3.321   2.918  13.221 -0.3432  0.7192  0.7897
  772MPD2    C111444   3.348   2.806  13.299  0.1947 -0.1539  0.7159
  772MPD2    C211445   3.237   2.735  13.347  0.0776  0.1707 -0.1741
  772MPD2    C311446   3.107   2.778  13.329  0.6307  0.6532  0.1905
  772MPD2    C411447   3.082   2.890  13.241  0.1020 -0.4767 -0.7442
  772MPD2    C511448   3.193   2.950  13.187 -0.6490  0.2229 -0.7800
  772MPD2     H11449   3.264   2.646  13.403  0.6260  1.6883  1.9943
  772MPD2    H111450   2.981   2.922  13.215  0.1744  0.6775  0.3527
  772MPD2    H211451   3.403   2.974  13.177 -0.3693 -0.9009 -1.3354
  772MPD2    H311452   3.187   3.031  13.116 -0.9117  3.3238  2.7643
  772MPD2     N11453   2.994   2.714  13.392  0.5224  0.8183 -0.4214
  772MPD2    H511454   2.908   2.767  13.383  0.5072  1.1199  1.4698
  772MPD2    N111455   3.480   2.760  13.332  0.2262 -0.2341  0.0998
  772MPD2    H711456   3.491   2.671  13.379  0.9764 -0.5584 -0.6777
  773MPD2     C11457   2.684   3.674   0.293 -0.0892  0.3278 -0.0542
  773MPD2    C111458   2.619   3.582   0.220  0.6143 -0.4233 -0.3581
  773MPD2    C211459   2.644   3.448   0.254 -0.2974  0.3243  0.1018
  773MPD2    C311460   2.731   3.418   0.362 -0.3309  0.5475  0.7325
  773MPD2    C411461   2.799   3.517   0.421  0.4731  0.6056  0.7493
  773MPD2    C511462   2.778   3.647   0.391  0.3221  0.5880 -0.7592
  773MPD2     H11463   2.592   3.363   0.212  1.7328 -0.5172 -0.7001
  773MPD2    H111464   2.874   3.491   0.496  2.3486  0.6278 -1.1305
  773MPD2    H211465   2.670   3.781   0.276 -1.4087  0.0473 -0.7569
  773MPD2    H311466   2.841   3.724   0.434  0.1497  0.2098  0.1861
  773MPD2     N11467   2.769   3.287   0.395 -0.4927 -0.6745  0.0701
  773MPD2    H511468   2.855   3.282   0.450  1.4795 -0.8323 -3.0464
  773MPD2    N111469   2.519   3.619   0.124  0.0507  0.2610 -0.0034
  773MPD2    H711470   2.463   3.543   0.086 -0.0534 -0.3378  1.3460
  774MPD2     C11471   2.357   2.555  12.646  0.1333 -0.3032  0.5178
  774MPD2    C111472   2.262   2.592  12.741 -0.4053 -0.1040  0.5958
  774MPD2    C211473   2.265   2.718  12.793  0.2932  0.1519 -0.4934
  774MPD2    C311474   2.364   2.806  12.769 -0.0102  0.5763 -0.0382
  774MPD2    C411475   2.465   2.768  12.673 -0.0123  0.3600 -0.1014
  774MPD2    C511476   2.458   2.642  12.613  0.1507 -0.0392  0.1986
  774MPD2     H11477   2.198   2.741  12.875  1.3526 -1.8344  0.9206
  774MPD2    H111478   2.548   2.832  12.644 -1.4733  2.5904  0.6399
  774MPD2    H211479   2.360   2.453  12.607  4.8230  0.8463 -2.1452
  774MPD2    H311480   2.525   2.611  12.534 -0.0951  0.9853 -0.4267
  774MPD2     N11481   2.375   2.923  12.843  0.3184  0.4063 -0.4018
  774MPD2    H511482   2.298   2.939  12.908 -0.2453  1.4413 -1.3361
  774MPD2    N111483   2.169   2.493  12.787  0.9347  0.4295 -0.0929
  774MPD2    H711484   2.198   2.398  12.768 -3.5910 -1.0556  0.5254
  775MPD2     C11485   3.155   4.214  15.610 -0.4342 -0.8769  0.0953
  775MPD2    C111486   3.199   4.320  15.695  0.6233  0.6689 -0.1738
  775MPD2    C211487   3.276   4.423  15.652  0.4574 -0.1587  0.1968
  775MPD2    C311488   3.307   4.422  15.518  0.2617  0.0813 -0.7806
  775MPD2    C411489   3.281   4.314  15.436 -0.0758 -0.1421  0.3162
  775MPD2    C511490   3.200   4.220  15.483 -1.1238 -0.6182  0.4933
  775MPD2     H11491   3.311   4.502  15.718  1.8236 -0.8127  0.2671
  775MPD2    H111492   3.324   4.302  15.337  1.5735  0.4137  0.9555
  775MPD2    H211493   3.085   4.136  15.637 -0.4064 -0.4289  1.4768
  775MPD2    H311494   3.183   4.135  15.418  0.9902 -0.0676 -0.7963
  775MPD2     N11495   3.397   4.522  15.461 -0.3236 -0.7843 -0.3634
  775MPD2    H511496   3.435   4.500  15.369  0.8489  1.7878 -0.4882
  775MPD2    N111497   3.154   4.302  15.829  0.0829  0.0473 -0.2453
  775MPD2    H711498   3.099   4.218  15.844  0.1241 -0.0085 -0.3981
  776MPD2     C11499   2.414   4.728  11.047  0.0374  0.3898 -0.8452
  776MPD2    C111500   2.539   4.689  11.091 -0.0597  0.2567 -0.2142
  776MPD2    C211501   2.646   0.039  11.066  0.0427 -0.2674  0.7754
  776MPD2    C311502   2.633   0.144  10.978  0.4741 -0.7481 -0.1549
  776MPD2    C411503   2.505   0.172  10.921 -0.3072  0.0481  0.3713
  776MPD2    C511504   2.400   0.103  10.968  0.5195 -0.1664  0.3412
  776MPD2     H11505   2.743   0.005  11.099  0.2935 -0.0957  0.2064
  776MPD2    H111506   2.491   0.252  10.850  3.4159 -0.5125 -0.9928
  776MPD2    H211507   2.325   4.673  11.077  1.1102 -1.0259 -0.2745
  776MPD2    H311508   2.300   0.124  10.932  1.6031  0.5107 -2.3150
  776MPD2     N11509   2.734   0.232  10.937 -0.6007  0.1666 -0.2065
  776MPD2    H511510   2.714   0.298  10.862  0.2279  0.4213 -0.2026
  776MPD2    N111511   2.541   4.576  11.174  0.2930  0.2278  0.2231
  776MPD2    H711512   2.450   4.533  11.184  0.2326  0.0452 -1.2387
  777MPD2     C11513   2.600   2.182   0.751  0.4101  0.4316  0.4428
  777MPD2    C111514   2.621   2.097   0.854 -0.6669 -0.4697  0.6019
  777MPD2    C211515   2.645   1.960   0.826  0.0681  0.0187 -0.5986
  777MPD2    C311516   2.617   1.913   0.698  0.4279 -0.3459  0.3819
  777MPD2    C411517   2.575   2.001   0.596  0.4180 -1.1572  0.4351
  777MPD2    C511518   2.568   2.135   0.626  0.8180  0.2650  0.2753
  777MPD2     H11519   2.660   1.887   0.905  0.1582 -0.3790 -0.9840
  777MPD2    H111520   2.541   1.971   0.498  1.0676 -4.6212  1.2889
  777MPD2    H211521   2.585   2.287   0.772  1.2060  0.8041 -0.8459
  777MPD2    H311522   2.538   2.203   0.547 -0.8027  1.5135  1.9681
  777MPD2     N11523   2.608   1.776   0.684  0.2727 -0.1117  0.6527
  777MPD2    H511524   2.601   1.722   0.770 -0.3857 -0.8082  0.1547
  777MPD2    N111525   2.612   2.156   0.986 -0.5781 -0.2527 -0.5528
  777MPD2    H711526   2.590   2.255   0.992  1.0295  0.1866 -1.7881
  778MPD2     C11527   3.489   2.264  14.883 -0.2744 -0.2386 -0.1163
  778MPD2    C111528   3.481   2.148  14.798  0.3237  0.4931  0.4100
  778MPD2    C211529   3.543   2.164  14.675 -0.1732 -0.0817 -0.6701
  778MPD2    C311530   3.597   2.278  14.632 -0.0290 -0.4041 -0.0591
  778MPD2    C411531   3.618   2.387  14.722 -0.2514 -0.6255 -0.0090
  778MPD2    C511532   3.548   2.380  14.842 -0.6428 -0.5100 -0.6630
  778MPD2     H11533   3.535   2.073  14.617  0.4829 -0.9763  0.6612
  778MPD2    H111534   3.663   2.481  14.690  0.6691 -1.0979 -0.1090
  778MPD2    H211535   3.441   2.267  14.980 -0.0278 -1.8282  0.0430
  778MPD2    H311536   3.554   2.462  14.912 -2.1281 -0.0448 -1.1025
  778MPD2     N11537   3.649   2.274  14.502 -0.2653  0.1930 -0.0929
  778MPD2    H511538   3.662   2.183  14.459  1.2279 -0.0316  0.8292
  778MPD2    N111539   3.409   2.033  14.830 -0.2900 -0.3154  0.3499
  778MPD2    H711540   3.414   1.953  14.768  0.1918  0.3947 -0.5195
  779MPD2     C11541   3.537   1.069  14.521 -0.1227 -0.2305 -0.1677
  779MPD2    C111542   3.598   1.023  14.411  0.5852  0.0918  0.7148
  779MPD2    C211543   3.611   1.111  14.310 -0.1114  0.4032 -0.3295
  779MPD2    C311544   3.546   1.233  14.296  0.1170 -0.5801  0.2598
  779MPD2    C411545   3.490   1.278  14.413  0.3324 -0.7045 -0.2018
  779MPD2    C511546   3.487   1.197  14.525  0.0301  0.1834 -0.3665
  779MPD2     H11547   3.662   1.072  14.222  0.5562  0.6608 -0.0566
  779MPD2    H111548   3.445   1.376  14.425  1.3086 -0.3783  0.7790
  779MPD2    H211549   3.511   0.997  14.598 -2.7284  0.0421 -0.7908
  779MPD2    H311550   3.422   1.232  14.605 -0.8613 -0.6448 -0.7297
  779MPD2     N11551   3.562   1.323  14.189  0.1382 -0.5878  0.8349
  779MPD2    H511552   3.628   1.302  14.115  0.0887  1.7026  0.1291
  779MPD2    N111553   3.629   0.885  14.384  0.4737 -0.0436  0.7953
  779MPD2    H711554   3.659   0.863  14.289  0.6832  3.0048  0.1509
  780MPD2     C11555   2.519   1.215   1.033 -0.4406 -0.1188 -0.2833
  780MPD2    C111556   2.592   1.094   1.044 -0.0940 -0.0604 -0.0782
  780MPD2    C211557   2.688   1.064   0.951  0.6195  0.2052 -0.9117
  780MPD2    C311558   2.712   1.154   0.848  0.0994 -0.0169  0.8962
  780MPD2    C411559   2.641   1.272   0.836  0.4377 -0.1401 -0.4013
  780MPD2    C511560   2.543   1.302   0.932 -0.0990  0.3677 -0.3883
  780MPD2     H11561   2.744   0.972   0.943 -0.8470 -0.9657  2.2266
  780MPD2    H111562   2.663   1.347   0.761 -0.2071 -0.4698 -0.9221
  780MPD2    H211563   2.434   1.231   1.098 -2.7022 -1.3833 -2.8872
  780MPD2    H311564   2.496   1.400   0.926 -0.0746  0.1563 -4.1817
  780MPD2     N11565   2.811   1.111   0.754  0.4084 -0.6096  0.1188
  780MPD2    H511566   2.873   1.037   0.784 -0.7741 -2.0638 -1.0215
  780MPD2    N111567   2.544   0.989   1.128 -0.0403 -0.7556  0.0673
  780MPD2    H711568   2.466   1.009   1.190  0.2379 -1.1667  0.5456
  781MPD2     C11569   0.336   2.252  11.855 -0.8077 -0.3888 -0.1909
  781MPD2    C111570   0.287   2.383  11.857  0.0766 -0.8598  0.1802
  781MPD2    C211571   0.322   2.467  11.754 -0.3236 -0.1930  0.4275
  781MPD2    C311572   0.402   2.420  11.651 -0.0051 -0.2352 -0.6201
  781MPD2    C411573   0.451   2.288  11.649  0.4067  0.2154 -0.5783
  781MPD2    C511574   0.418   2.210  11.758  0.5414  0.0033  0.3328
  781MPD2     H11575   0.280   2.567  11.763 -0.6134 -0.1256 -1.6671
  781MPD2    H111576   0.517   2.252  11.571 -0.0262 -2.7160  0.4086
  781MPD2    H211577   0.315   2.188  11.939 -1.6641 -0.1679 -0.2346
  781MPD2    H311578   0.448   2.106  11.760  1.1180  0.1228 -1.6991
  781MPD2     N11579   0.420   2.495  11.537  0.2083  0.2655 -0.0164
  781MPD2    H511580   0.473   2.444  11.467 -2.0359  1.1313 -2.3238
  781MPD2    N111581   0.201   2.430  11.949  0.5784  0.2010 -0.2233
  781MPD2    H711582   0.180   2.529  11.941  0.1599 -0.0532 -2.0971
  782MPD2     C11583   2.763   3.264  10.168  0.9359 -0.3239  0.3768
  782MPD2    C111584   2.898   3.275  10.156  0.3670  0.2051  0.3216
  782MPD2    C211585   2.957   3.392  10.192 -0.3911 -1.0227 -0.4707
  782MPD2    C311586   2.886   3.498  10.253 -0.1609 -0.0404  0.6195
  782MPD2    C411587   2.753   3.479  10.276  0.0174  0.0855  0.1855
  782MPD2    C511588   2.692   3.361  10.231 -0.1380  0.0596 -0.4291
  782MPD2     H11589   3.064   3.407  10.178 -0.4795  0.9423  0.9400
  782MPD2    H111590   2.698   3.553  10.334 -1.4750 -0.9570  0.1056
  782MPD2    H211591   2.710   3.174  10.138  1.7993 -1.9183  3.5383
  782MPD2    H311592   2.587   3.350  10.256  0.0674  0.7810  0.7495
  782MPD2     N11593   2.954   3.611  10.294  0.6391  0.4627 -0.2974
  782MPD2    H511594   3.055   3.612  10.286  0.5896  2.2685 -0.6781
  782MPD2    N111595   2.974   3.159  10.117  0.5024  0.3291 -0.0280
  782MPD2    H711596   2.915   3.077  10.110  0.8877 -0.0332  0.9973
  783MPD2     C11597   3.017   2.816  10.877  0.1144 -0.2846  0.2165
  783MPD2    C111598   3.013   2.942  10.823  0.2728 -0.5134  0.4518
  783MPD2    C211599   3.051   2.963  10.691  0.5692 -0.5478  0.2949
  783MPD2    C311600   3.109   2.864  10.613  0.5617  0.4831 -0.4301
  783MPD2    C411601   3.117   2.734  10.668  0.8958  0.9004  0.0511
  783MPD2    C511602   3.064   2.712  10.796  0.3937  0.5281 -0.6434
  783MPD2     H11603   3.043   3.065  10.654  0.8373 -0.3516  0.7664
  783MPD2    H111604   3.150   2.651  10.606  0.6315  0.1070  0.9572
  783MPD2    H211605   2.960   2.800  10.967  1.7010 -1.8156  0.9245
  783MPD2    H311606   3.068   2.611  10.835 -1.8936  0.0771 -1.5514
  783MPD2     N11607   3.143   2.899  10.480 -0.0042  0.4967  0.8662
  783MPD2    H511608   3.119   2.993  10.451  0.1313 -0.4568 -2.3001
  783MPD2    N111609   2.965   3.044  10.909  0.3971 -0.2138  0.1668
  783MPD2    H711610   2.925   3.005  10.994  1.1472 -1.1593  0.0863
  784MPD2     C11611   0.486   3.937   0.594  0.8052  0.7116 -0.4297
  784MPD2    C111612   0.501   4.029   0.693 -0.2753  0.1854 -0.6367
  784MPD2    C211613   0.417   4.139   0.696  0.7600 -0.0096 -0.0971
  784MPD2    C311614   0.303   4.143   0.614 -0.1269 -0.2998  0.4409
  784MPD2    C411615   0.288   4.039   0.518  0.3939 -0.0857  0.4756
  784MPD2    C511616   0.387   3.948   0.504 -0.8188 -0.4683  0.3321
  784MPD2     H11617   0.428   4.225   0.762  0.1323 -0.9292  1.2191
  784MPD2    H111618   0.204   4.024   0.452 -0.5592  1.8153  1.2381
  784MPD2    H211619   0.558   3.857   0.585 -1.1600 -1.1032  0.0913
  784MPD2    H311620   0.376   3.875   0.424  1.6492  0.8931 -1.2578
  784MPD2     N11621   0.203   4.241   0.632 -0.4323  0.2041 -0.0169
  784MPD2    H511622   0.212   4.294   0.718 -0.1029 -1.2753  0.8459
  784MPD2    N111623   0.611   4.027   0.784 -0.3671  0.1688 -0.1204
  784MPD2    H711624   0.624   4.106   0.846 -0.7931  0.9461 -1.0325
  785MPD2     C11625   0.206   3.122  10.087  0.0977  0.5971  0.3533
  785MPD2    C111626   0.288   3.192  10.179  0.5896 -0.1959 -0.0376
  785MPD2    C211627   0.319   3.325  10.159 -0.0860 -0.2129 -0.5305
  785MPD2    C311628   0.274   3.391  10.046  0.4045 -0.0409  0.8693
  785MPD2    C411629   0.195   3.321   9.958 -0.3070 -0.7506 -0.0209
  785MPD2    C511630   0.168   3.185   9.972 -0.6181  0.6758 -0.6076
  785MPD2     H11631   0.379   3.375  10.234  1.4679 -0.8699 -1.3274
  785MPD2    H111632   0.152   3.360   9.867 -0.8962 -3.2063 -0.8091
  785MPD2    H211633   0.173   3.022  10.113 -0.7825  0.9214  0.5108
  785MPD2    H311634   0.119   3.131   9.891  0.6782 -0.1924 -0.8203
  785MPD2     N11635   0.308   3.525  10.031 -0.0928  0.2668  0.7069
  785MPD2    H511636   0.326   3.574  10.118  1.1307 -0.2549  0.7548
  785MPD2    N111637   0.324   3.134  10.303  0.2187  0.0307 -0.6136
  785MPD2    H711638   0.372   3.198  10.366  1.4863 -0.3600 -1.1937
  786MPD2     C11639   3.694   0.263  14.579  0.0317 -0.2667 -0.0687
  786MPD2    C111640   3.823   0.218  14.574  0.5303 -1.3524 -0.3139
  786MPD2    C211641   3.910   0.257  14.677 -0.1531  0.7860 -0.3200
  786MPD2    C311642   3.882   0.360  14.765  0.5340 -0.0284 -0.4783
  786MPD2    C411643   3.755   0.413  14.764 -0.0446 -0.5335  1.0681
  786MPD2    C511644   3.665   0.363  14.673 -0.2969  0.4834  0.5694
  786MPD2     H11645   4.003   0.201  14.675 -0.8851 -0.4437 -0.4682
  786MPD2    H111646   3.722   0.488  14.836 -1.6537  1.8153 -2.1376
  786MPD2    H211647   3.614   0.230  14.514  2.4553 -1.6863 -2.3444
  786MPD2    H311648   3.567   0.411  14.671 -0.2783  0.4854 -0.3580
  786MPD2     N11649   3.972   0.397  14.861 -0.5094  0.5718  0.1110
  786MPD2    H511650   3.943   0.462  14.933 -2.0302 -1.0529  0.9677
  786MPD2    N111651   3.877   0.125  14.474  0.1477  0.0233 -0.0024
  786MPD2    H711652   3.973   0.096  14.487 -1.0450 -2.7855  2.4485
  787MPD2     C11653   4.227   4.407  14.692 -0.1185 -0.1427  0.0169
  787MPD2    C111654   4.162   4.353  14.587 -0.0813 -0.0912  0.6124
  787MPD2    C211655   4.174   4.215  14.578  0.8222  0.0245  0.8871
  787MPD2    C311656   4.249   4.139  14.666 -0.2178  0.3850  0.5225
  787MPD2    C411657   4.310   4.202  14.769 -0.4443  0.5837  0.0716
  787MPD2    C511658   4.292   4.336  14.783  0.2857 -0.1012 -0.6576
  787MPD2     H11659   4.152   4.165  14.485  1.6639 -1.2821  1.3894
  787MPD2    H111660   4.375   4.152  14.839  2.5064  3.5012 -0.6046
  787MPD2    H211661   4.223   4.515  14.698  2.4672 -0.0784  0.5915
  787MPD2    H311662   4.341   4.383  14.868 -0.4619 -0.0725 -0.2478
  787MPD2     N11663   4.264   4.001  14.643  0.0223  0.4605 -0.0888
  787MPD2    H511664   4.223   3.963  14.558 -1.5734  1.8343  0.0684
  787MPD2    N111665   4.104   4.442  14.489  0.7745  0.4900 -0.5146
  787MPD2    H711666   4.107   4.541  14.511 -3.3730  0.4888  0.0944
  788MPD2     C11667   1.463   3.664   0.851 -0.4101  0.1214  0.7110
  788MPD2    C111668   1.460   3.599   0.724  0.7497  0.5111  0.4741
  788MPD2    C211669   1.478   3.682   0.608  0.3237 -0.0045  0.1219
  788MPD2    C311670   1.460   3.820   0.618  0.1040 -0.7564 -0.3331
  788MPD2    C411671   1.441   3.873   0.743  0.0854 -0.3787 -0.0740
  788MPD2    C511672   1.453   3.794   0.855  0.1070  0.3731  0.6836
  788MPD2     H11673   1.473   3.635   0.510 -0.1669 -2.3193  1.2444
  788MPD2    H111674   1.415   3.974   0.770  1.4980 -0.2028  0.6032
  788MPD2    H211675   1.460   3.612   0.947 -1.4362  0.6825  0.9846
  788MPD2    H311676   1.434   3.850   0.946 -0.7218 -0.5259  1.0701
  788MPD2     N11677   1.459   3.906   0.506 -0.4498  0.6947 -0.3703
  788MPD2    H511678   1.482   3.872   0.413  1.5791  0.8300  0.0853
  788MPD2    N111679   1.436   3.462   0.704 -0.6862  0.5982 -0.5969
  788MPD2    H711680   1.458   3.425   0.612 -1.2607 -1.9996  0.3341
  789MPD2     C11681   1.498   3.365  16.858  0.1648 -0.1885 -0.0480
  789MPD2    C111682   1.381   3.313  16.914 -0.3168  0.3588  0.9440
  789MPD2    C211683   1.268   3.396  16.922  0.1355  0.3898  0.5088
  789MPD2    C311684   1.257   3.525  16.893 -0.4208  0.6144  0.8923
  789MPD2    C411685   1.381   3.570  16.829 -0.0978  0.3093 -0.1193
  789MPD2    C511686   1.501   3.495  16.815 -0.2477  0.1989 -0.2410
  789MPD2     H11687   1.175   3.345  16.943  1.3461 -1.0099  2.4281
  789MPD2    H111688   1.389   3.671  16.793 -0.2433 -0.3220 -1.9142
  789MPD2    H211689   1.587   3.303  16.859  1.2258  1.4006  1.9272
  789MPD2    H311690   1.591   3.538  16.771  1.2549 -1.7181  0.9792
  789MPD2     N11691   1.142   3.612  16.905 -0.0473  0.1811 -0.2250
  789MPD2    H511692   1.142   3.705  16.866 -0.5210 -0.1963 -1.1234
  789MPD2    N111693   1.366   3.178  16.935 -0.5458 -0.2671  0.0896
  789MPD2    H711694   1.275   3.149  16.970 -1.8561  1.9309 -1.4858
  790MPD2     C11695   2.372   0.520  13.005 -0.1900  0.6407 -0.1407
  790MPD2    C111696   2.443   0.404  13.026  0.5375 -0.2560  0.1055
  790MPD2    C211697   2.441   0.305  12.925  0.0561  0.0047  0.1122
  790MPD2    C311698   2.371   0.319  12.811 -0.0571  0.2151  0.0234
  790MPD2    C411699   2.312   0.433  12.788 -0.7298 -0.4178  0.0322
  790MPD2    C511700   2.304   0.535  12.880  0.2588 -0.0867  0.5410
  790MPD2     H11701   2.507   0.220  12.931 -0.8333 -0.6887  0.0600
  790MPD2    H111702   2.255   0.453  12.697  0.1491 -0.1438 -0.4599
  790MPD2    H211703   2.378   0.599  13.079 -0.6004 -0.9917  1.6412
  790MPD2    H311704   2.252   0.626  12.853 -2.0774 -0.4471  3.8241
  790MPD2     N11705   2.374   0.211  12.716 -0.0875  0.0901 -0.5098
  790MPD2    H511706   2.423   0.128  12.748  0.7207  0.4830 -0.7223
  790MPD2    N111707   2.503   0.375  13.152 -0.2369  0.0427 -0.2223
  790MPD2    H711708   2.503   0.449  13.221  0.0839  0.6055 -0.8325
  791MPD2     C11709   1.785   4.627  12.301  0.2984 -0.0905  0.0546
  791MPD2    C111710   1.879   4.545  12.359  0.5284  0.2732  0.2072
  791MPD2    C211711   1.846   4.426  12.419  0.4735  0.2799  0.4408
  791MPD2    C311712   1.715   4.384  12.434  0.4595 -0.2360  0.1034
  791MPD2    C411713   1.627   4.462  12.361  0.0490 -0.0937 -0.9086
  791MPD2    C511714   1.664   4.574  12.293 -0.0512 -0.0001  0.2071
  791MPD2     H11715   1.917   4.376  12.484 -0.6119 -1.6913  0.1334
  791MPD2    H111716   1.521   4.438  12.366 -0.3073  1.6239 -0.5283
  791MPD2    H211717   1.807   4.721  12.252 -4.2356  1.0983  0.3289
  791MPD2    H311718   1.592   4.632  12.237 -0.9447 -1.2597  0.0411
  791MPD2     N11719   1.688   4.267  12.507 -0.2600 -1.4166 -0.0394
  791MPD2    H511720   1.770   4.220  12.544  0.8797 -1.0178 -2.0450
  791MPD2    N111721   2.004   4.604  12.389  0.2150  0.1530 -0.1254
  791MPD2    H711722   2.016   4.704  12.379  0.2617  0.3495  1.8416
  792MPD2     C11723   2.735   4.059  10.953 -0.2665  0.1298  0.7579
  792MPD2    C111724   2.693   4.190  10.965 -0.1873 -0.0533  0.0788
  792MPD2    C211725   2.586   4.216  11.039  0.0449  0.5448  0.3160
  792MPD2    C311726   2.508   4.113  11.088  0.4633 -0.5152  0.6507
  792MPD2    C411727   2.544   3.981  11.065  0.4183  0.1796 -0.2103
  792MPD2    C511728   2.656   3.956  10.992 -0.4244  0.2098  0.4613
  792MPD2     H11729   2.569   4.321  11.060 -2.5039  0.2373 -0.2237
  792MPD2    H111730   2.494   3.891  11.098  0.1741  0.9663  1.5616
  792MPD2    H211731   2.835   4.052  10.912 -1.1193  1.9545 -1.6117
  792MPD2    H311732   2.692   3.855  10.978 -1.5878 -0.4564  2.3174
  792MPD2     N11733   2.388   4.120  11.151 -0.0868 -0.3638 -0.3098
  792MPD2    H511734   2.351   4.028  11.173 -0.8722 -0.1150 -0.5657
  792MPD2    N111735   2.779   4.286  10.910  0.7471  0.5667 -0.4061
  792MPD2    H711736   2.873   4.257  10.886  1.7406  2.6084  0.9550
  793MPD2     C11737   1.886   4.473  10.512  0.0663 -0.0992 -0.6801
  793MPD2    C111738   2.014   4.489  10.567  0.2648 -0.7166 -0.5606
  793MPD2    C211739   2.034   4.446  10.694  0.1040  0.0420  0.4103
  793MPD2    C311740   1.930   4.403  10.772  0.3925  0.3403  0.2098
  793MPD2    C411741   1.801   4.406  10.726 -0.1697 -0.6568 -0.2652
  793MPD2    C511742   1.780   4.428  10.593  0.0165 -0.6607 -0.0629
  793MPD2     H11743   2.135   4.455  10.732  0.5535 -1.7858 -0.3561
  793MPD2    H111744   1.713   4.365  10.774 -0.2566 -1.4776 -1.1108
  793MPD2    H211745   1.859   4.484  10.408  0.5911  2.1427 -0.5664
  793MPD2    H311746   1.681   4.417  10.550  0.0622 -2.2100  0.2231
  793MPD2     N11747   1.964   4.362  10.905  0.1812  0.1006 -0.1119
  793MPD2    H511748   2.064   4.359  10.924  0.2897  1.4987 -0.4930
  793MPD2    N111749   2.123   4.538  10.499  0.1285 -0.4574 -0.3540
  793MPD2    H711750   2.216   4.541  10.539 -0.9449 -1.7551  2.2325
  794MPD2     C11751   2.362   4.151  17.174 -0.6658 -0.2667  0.3881
  794MPD2    C111752   2.325   4.018  17.160 -0.1341 -0.6270  0.0156
  794MPD2    C211753   2.286   3.973  17.033 -0.7775  0.1226  0.1923
  794MPD2    C311754   2.260   4.071  16.936  0.8115  0.1212 -0.0938
  794MPD2    C411755   2.311   4.199  16.952 -0.3521  0.3197 -0.2561
  794MPD2    C511756   2.363   4.238  17.070  0.5846 -0.4784 -0.2698
  794MPD2     H11757   2.243   3.875  17.016  0.6464 -0.3096 -0.8489
  794MPD2    H111758   2.296   4.277  16.878 -0.5267  0.2799 -0.2617
  794MPD2    H211759   2.394   4.191  17.269  0.5087 -2.8666  1.0863
  794MPD2    H311760   2.398   4.340  17.083  0.9428 -0.6098 -0.2105
  794MPD2     N11761   2.216   4.045  16.807  0.0758 -0.2092 -0.3467
  794MPD2    H511762   2.219   4.118  16.736  0.0779 -0.0635 -0.1963
  794MPD2    N111763   2.333   3.920  17.266  0.3470 -0.1407 -0.0079
  794MPD2    H711764   2.302   3.828  17.238 -1.2697 -0.1429  1.8171
  795MPD2     C11765   0.283   1.394  12.608 -0.5471 -0.1987 -0.4109
  795MPD2    C111766   0.243   1.290  12.697  0.0136  0.3126 -0.2998
  795MPD2    C211767   0.338   1.228  12.776 -0.0234 -0.0245 -0.3914
  795MPD2    C311768   0.475   1.257  12.752  0.0754 -0.5016 -0.4244
  795MPD2    C411769   0.513   1.357  12.662 -0.2038  0.1084 -0.5869
  795MPD2    C511770   0.416   1.425  12.601 -0.2480  0.0524  0.1799
  795MPD2     H11771   0.307   1.155  12.850  0.1372 -0.0010 -0.3002
  795MPD2    H111772   0.616   1.388  12.646  0.7969 -1.3915  2.9699
  795MPD2    H211773   0.212   1.447  12.546 -0.3412 -0.9984 -1.3306
  795MPD2    H311774   0.438   1.503  12.529 -1.5169  1.2407  1.0865
  795MPD2     N11775   0.560   1.171  12.829  0.0606 -0.5724  0.1501
  795MPD2    H511776   0.519   1.106  12.896  1.5380 -0.9771  0.6636
  795MPD2    N111777   0.114   1.233  12.705 -0.1413 -0.3203 -0.4423
  795MPD2    H711778   0.098   1.169  12.782 -0.3319 -0.9613 -1.0155
  796MPD2     C11779   4.049   2.785  15.768 -0.5246  0.3446 -0.1329
  796MPD2    C111780   4.119   2.856  15.860 -0.8073 -0.4771  0.2635
  796MPD2    C211781   4.133   2.996  15.846  0.1048  0.4241 -0.5778
  796MPD2    C311782   4.079   3.056  15.733 -0.6083  0.4174  0.5622
  796MPD2    C411783   4.006   2.980  15.641  0.1376 -0.5098  0.1904
  796MPD2    C511784   3.994   2.847  15.657  0.4137 -0.6005  0.1462
  796MPD2     H11785   4.190   3.052  15.919 -0.0590  1.4588 -1.2415
  796MPD2    H111786   3.948   3.027  15.561 -1.3059 -3.6233 -0.5806
  796MPD2    H211787   4.029   2.679  15.781 -1.6566  0.3535 -1.7884
  796MPD2    H311788   3.940   2.786  15.585  1.4218  0.6052 -1.6303
  796MPD2     N11789   4.088   3.198  15.714  0.7751  0.0666 -0.2181
  796MPD2    H511790   4.153   3.246  15.776  1.5183 -1.4765  0.2169
  796MPD2    N111791   4.167   2.788  15.972  0.4953  0.0765  0.0586
  796MPD2    H711792   4.149   2.689  15.979 -2.0142  0.5924  1.1097
  797MPD2     C11793   0.594   2.394  17.595  0.0071  0.2440  0.0271
  797MPD2    C111794   0.607   2.531  17.603 -0.6101 -0.0052  0.9263
  797MPD2    C211795   0.531   2.602  17.522 -0.0908 -0.0341  0.4164
  797MPD2    C311796   0.432   2.551  17.441  0.9323  0.2659 -0.2467
  797MPD2    C411797   0.413   2.415  17.444 -1.4374  0.1385  0.4672
  797MPD2    C511798   0.505   2.338  17.509  0.0311 -0.0992  0.3488
  797MPD2     H11799   0.553   2.708  17.526  0.1190 -0.1049  1.1089
  797MPD2    H111800   0.340   2.371  17.377 -0.6315  0.7226 -0.7888
  797MPD2    H211801   0.667   2.332  17.646  1.4466  2.7250  0.9576
  797MPD2    H311802   0.497   2.230  17.515 -2.4160  0.1240  1.2507
  797MPD2     N11803   0.358   2.642  17.359 -0.0865  0.7640 -0.1272
  797MPD2    H511804   0.367   2.741  17.376 -0.5317  0.6574  0.7655
  797MPD2    N111805   0.717   2.594  17.665 -1.3919  0.0611  0.4976
  797MPD2    H711806   0.712   2.692  17.640 -0.5312  0.2989  1.2376
  798MPD2     C11807   0.594   3.287  17.390 -0.6096 -0.1933 -0.6848
  798MPD2    C111808   0.571   3.154  17.369 -0.4930 -0.0272  0.2492
  798MPD2    C211809   0.655   3.063  17.433  0.0236  0.2395 -0.7153
  798MPD2    C311810   0.747   3.114  17.525 -0.3284  0.1964  0.3817
  798MPD2    C411811   0.760   3.247  17.552  0.0728  0.3313 -0.6050
  798MPD2    C511812   0.678   3.331  17.484  0.1438 -0.0342 -0.6192
  798MPD2     H11813   0.655   2.955  17.422  1.0601  0.1649 -0.0251
  798MPD2    H111814   0.830   3.295  17.620  0.0444  1.3573 -1.2928
  798MPD2    H211815   0.522   3.360  17.354 -0.7670 -0.5212 -1.0370
  798MPD2    H311816   0.667   3.435  17.513 -2.0789 -0.8522  1.4128
  798MPD2     N11817   0.818   3.012  17.587  0.4272 -0.9130  0.1577
  798MPD2    H511818   0.801   2.920  17.547 -0.5781 -1.2367  1.3248
  798MPD2    N111819   0.469   3.113  17.285 -0.1414 -0.1367  0.0008
  798MPD2    H711820   0.421   3.181  17.226  0.1180  0.1059  0.0687
  799MPD2     C11821   4.142   4.011  14.115  0.1913  0.3397  0.3243
  799MPD2    C111822   4.064   3.926  14.036 -0.1312  0.5908  0.3557
  799MPD2    C211823   4.027   3.974  13.912  0.3771 -0.0697 -0.3355
  799MPD2    C311824   4.048   4.104  13.869  0.3258 -0.1815  0.7534
  799MPD2    C411825   4.119   4.187  13.953  0.1073 -0.2502  0.1147
  799MPD2    C511826   4.170   4.136  14.071 -0.0373 -0.3565 -0.3943
  799MPD2     H11827   3.975   3.909  13.841 -0.8439  0.0220  0.4745
  799MPD2    H111828   4.147   4.289  13.931  0.2742  0.1752  2.2688
  799MPD2    H211829   4.176   3.976  14.212  2.8445 -1.9512 -1.4295
  799MPD2    H311830   4.232   4.197  14.136 -1.2484 -0.4272  0.8212
  799MPD2     N11831   4.021   4.152  13.739  0.1916 -0.2782 -0.3743
  799MPD2    H511832   4.062   4.241  13.713 -0.8909  0.0934 -0.8231
  799MPD2    N111833   4.020   3.794  14.065  0.1811  0.0603  0.5653
  799MPD2    H711834   3.969   3.744  13.993  0.9391 -0.8153  0.6402
  800MPD2     C11835   4.721   4.674  14.158  0.4069  0.4780  0.3789
  800MPD2    C111836   0.082   0.035  14.136 -0.5194  0.1527 -0.7316
  800MPD2    C211837   0.082   0.119  14.025  0.3716 -0.2083 -0.6055
  800MPD2    C311838   4.710   0.100  13.931 -0.0344  0.7054  0.4089
  800MPD2    C411839   4.621   0.002  13.947 -0.0159  0.1767 -0.9968
  800MPD2    C511840   4.627   4.652  14.062  0.3463  0.1286 -0.2495
  800MPD2     H11841   0.156   0.197  14.007  1.3592 -0.3397  2.9580
  800MPD2    H111842   4.554   4.698  13.872 -0.3680 -1.7887  0.3713
  800MPD2    H211843   4.720   4.609  14.245 -1.5214  1.0291  0.7817
  800MPD2    H311844   4.579   4.555  14.068 -1.2416  0.9468  0.3861
  800MPD2     N11845   4.708   0.182  13.815  0.0424 -0.3594  0.1916
  800MPD2    H511846   0.046   0.252  13.816 -2.2161  1.9658 -0.3654
  800MPD2    N111847   0.182   0.047  14.234 -0.0993 -0.0434 -0.2507
  800MPD2    H711848   0.162   0.020  14.330  1.4487 -1.9078 -0.4696
  801MPD2     C11849   0.152   0.641  14.652  0.1165 -0.1816 -0.8319
  801MPD2    C111850   0.122   0.569  14.535 -0.5385  0.5965  0.2813
  801MPD2    C211851   0.022   0.612  14.442 -0.0616 -0.0927  0.0639
  801MPD2    C311852   4.695   0.733  14.451  0.0885 -0.8386 -0.0829
  801MPD2    C411853   0.001   0.807  14.559  0.1573  0.1964 -0.2417
  801MPD2    C511854   0.093   0.758  14.655 -0.2681 -0.5399  0.3900
  801MPD2     H11855   4.735   0.544  14.360  1.7817  0.1044 -0.6190
  801MPD2    H111856   4.685   0.899  14.586  0.3543 -0.0131  0.8431
  801MPD2    H211857   0.229   0.620  14.725 -0.1553 -0.9400 -0.7678
  801MPD2    H311858   0.134   0.818  14.735  0.3973 -0.2811 -0.1498
  801MPD2     N11859   4.590   0.778  14.368  0.3966  0.0032 -0.5235
  801MPD2    H511860   4.551   0.868  14.395  0.3374 -0.7783  2.0671
  801MPD2    N111861   0.180   0.449  14.510 -0.1284  0.8176  0.1755
  801MPD2    H711862   0.139   0.388  14.440  3.3948 -0.1767 -1.0328
  802MPD2     C11863   3.556   1.744  17.172 -0.2145  0.7687 -0.2434
  802MPD2    C111864   3.603   1.650  17.266  0.6821 -0.4191  0.2288
  802MPD2    C211865   3.625   1.522  17.223 -0.3528  0.2045  0.0701
  802MPD2    C311866   3.630   1.494  17.087 -0.1007  0.2653 -0.1671
  802MPD2    C411867   3.608   1.592  16.997  0.0643 -0.2820  0.6344
  802MPD2    C511868   3.577   1.718  17.038 -0.0423  0.3922 -0.7503
  802MPD2     H11869   3.660   1.447  17.293 -2.4175  1.2164  2.2071
  802MPD2    H111870   3.621   1.582  16.889 -2.2470 -3.2153  0.6172
  802MPD2    H211871   3.542   1.849  17.194 -3.6175  0.0936  0.8921
  802MPD2    H311872   3.568   1.798  16.965 -1.4364  0.3449 -0.6347
  802MPD2     N11873   3.658   1.360  17.045  0.3727 -0.5751 -0.3706
  802MPD2    H511874   3.660   1.296  17.123 -1.2593 -1.0423 -0.7008
  802MPD2    N111875   3.623   1.675  17.402 -0.5818 -0.3394 -0.1683
  802MPD2    H711876   3.652   1.597  17.460  1.0856  1.0111  0.8113
  803MPD2     C11877   0.331   4.284  12.294 -0.2736  0.8567 -0.4461
  803MPD2    C111878   0.455   4.262  12.348  0.3375  0.1352 -0.4869
  803MPD2    C211879   0.471   4.142  12.416  0.1272 -0.2167  0.3917
  803MPD2    C311880   0.369   4.047  12.427  0.3732  0.7729 -0.1664
  803MPD2    C411881   0.256   4.059  12.355  1.2790 -0.1065 -0.4489
  803MPD2    C511882   0.232   4.180  12.296  0.1373  0.0782 -0.2930
  803MPD2     H11883   0.567   4.136  12.465  0.1090 -1.8992  0.2055
  803MPD2    H111884   0.180   3.983  12.343 -0.3436  1.6862 -1.5530
  803MPD2    H211885   0.301   4.378  12.249 -2.2495  0.0159 -0.8853
  803MPD2    H311886   0.136   4.201  12.250  0.7464  0.1891 -1.5232
  803MPD2     N11887   0.385   3.934  12.512  0.6836  0.1416  0.0007
  803MPD2    H511888   0.312   3.865  12.498  0.9178 -0.0074 -0.4972
  803MPD2    N111889   0.571   4.347  12.335 -0.1360 -0.1050  0.2054
  803MPD2    H711890   0.659   4.320  12.376 -0.9303  1.1741  2.7729
  804MPD2     C11891   4.458   1.343  16.952 -0.5312  0.7270  0.1318
  804MPD2    C111892   4.467   1.302  17.086  0.6514 -0.4109 -0.0983
  804MPD2    C211893   4.547   1.376  17.174  0.1952  0.1008 -0.1340
  804MPD2    C311894   4.636   1.475  17.130  0.0044 -0.2805 -0.7153
  804MPD2    C411895   4.628   1.514  17.001  0.7695  0.2315  0.4470
  804MPD2    C511896   4.539   1.455  16.917  0.0499  0.9041  0.8280
  804MPD2     H11897   4.542   1.339  17.275  1.9402  1.3674  0.4188
  804MPD2    H111898   4.705   1.567  16.946 -1.5035 -0.8853 -3.8248
  804MPD2    H211899   4.406   1.290  16.873  2.1297 -1.1291 -0.3676
  804MPD2    H311900   4.538   1.483  16.812  0.4435  0.0825  0.6019
  804MPD2     N11901   0.006   1.522  17.219  0.3757  0.1924  0.6758
  804MPD2    H511902   4.727   1.488  17.314  0.1522 -0.7010  0.3147
  804MPD2    N111903   4.397   1.187  17.130  0.5164 -0.0210 -0.6796
  804MPD2    H711904   4.411   1.162  17.228 -1.1842 -0.0417 -0.4435
  805MPD2     C11905   3.614   3.897  15.195  0.2434  0.2543  0.7317
  805MPD2    C111906   3.691   3.995  15.131 -0.5923 -0.3123  0.4328
  805MPD2    C211907   3.808   4.040  15.195  0.3372  0.5016  0.1421
  805MPD2    C311908   3.856   3.987  15.313  0.4634 -0.1288  0.1286
  805MPD2    C411909   3.770   3.900  15.376  0.1788  0.1939  0.1055
  805MPD2    C511910   3.649   3.856  15.322 -0.2434  0.5079  0.2410
  805MPD2     H11911   3.875   4.113  15.151  1.8756 -1.3647 -0.6311
  805MPD2    H111912   3.798   3.852  15.468  0.0397  0.7492  0.4411
  805MPD2    H211913   3.527   3.853  15.147  1.9136 -2.6559  0.3578
  805MPD2    H311914   3.597   3.780  15.378  2.0055 -0.1205  1.4814
  805MPD2     N11915   3.972   4.046  15.375  0.2744  0.2528  0.3931
  805MPD2    H511916   4.024   4.122  15.333 -0.3121  0.9288  0.8794
  805MPD2    N111917   3.660   4.055  15.009 -0.3628  0.3178 -0.9351
  805MPD2    H711918   3.722   4.128  14.975 -0.3192  2.0554  2.8192
  806MPD2     C11919   4.042   3.803   0.623  0.1452 -0.5766 -0.6649
  806MPD2    C111920   4.124   3.897   0.680  0.1547 -0.4952 -0.1107
  806MPD2    C211921   4.175   3.999   0.597  0.4994 -0.3365  0.3063
  806MPD2    C311922   4.142   4.007   0.464 -0.1335 -0.0699  0.8590
  806MPD2    C411923   4.050   3.919   0.415  0.2125  0.2403 -1.2103
  806MPD2    C511924   4.009   3.815   0.496  0.2610  0.0833 -0.4089
  806MPD2     H11925   4.242   4.078   0.632 -0.2307 -0.1088  1.2054
  806MPD2    H111926   4.011   3.931   0.314  2.3250 -4.3655 -2.5446
  806MPD2    H211927   4.012   3.715   0.680  0.2746  0.1537  0.5435
  806MPD2    H311928   3.936   3.748   0.450 -1.7615  0.1309  2.7190
  806MPD2     N11929   4.190   4.120   0.388  0.3006  0.4192  0.2283
  806MPD2    H511930   4.240   4.192   0.440  1.8055  0.2580 -1.0073
  806MPD2    N111931   4.154   3.890   0.818 -0.0108 -0.1718  0.3311
  806MPD2    H711932   4.119   3.804   0.861 -0.2542 -0.5146 -0.5348
  807MPD2     C11933   3.973   3.539   1.429  0.2322  0.0036 -0.1554
  807MPD2    C111934   4.022   3.542   1.296  0.4999  0.2849 -0.0387
  807MPD2    C211935   4.013   3.427   1.222 -0.1142  0.1871  0.3215
  807MPD2    C311936   3.961   3.313   1.286  0.1001 -0.0442 -0.5122
  807MPD2    C411937   3.907   3.309   1.415 -0.3756  0.2253 -0.7967
  807MPD2    C511938   3.908   3.429   1.476  0.9714  0.8324  0.2653
  807MPD2     H11939   4.054   3.416   1.122  2.0104 -2.5668  1.5098
  807MPD2    H111940   3.865   3.226   1.470 -1.7898  0.8124 -0.9873
  807MPD2    H211941   3.958   3.631   1.485 -0.1605  0.2905 -0.7272
  807MPD2    H311942   3.863   3.437   1.575  1.1717 -2.9562  0.6461
  807MPD2     N11943   3.957   3.197   1.210 -0.0077  0.0510 -0.2565
  807MPD2    H511944   4.012   3.204   1.125 -1.4266 -2.1233 -1.3602
  807MPD2    N111945   4.095   3.651   1.243 -0.0807  0.3167  0.4991
  807MPD2    H711946   4.125   3.653   1.146 -0.6366  0.9129  0.3391
  808MPD2     C11947   0.413   0.744  10.192  0.0720 -0.6461  0.4044
  808MPD2    C111948   0.549   0.762  10.232  0.0370  0.0922  1.2440
  808MPD2    C211949   0.615   0.883  10.206 -0.1118  0.5572  0.7716
  808MPD2    C311950   0.550   0.988  10.145  0.0697 -0.0858  0.2885
  808MPD2    C411951   0.424   0.970  10.095 -0.4306  0.4025 -0.3353
  808MPD2    C511952   0.355   0.852  10.131 -0.1693  0.2975 -0.0070
  808MPD2     H11953   0.720   0.898  10.229  0.0624  0.5698 -0.0236
  808MPD2    H111954   0.372   1.050  10.042 -0.8177  2.1161  2.6437
  808MPD2    H211955   0.345   0.661  10.209 -3.2695  1.9706 -0.1863
  808MPD2    H311956   0.248   0.838  10.116 -0.3375 -0.2428  1.6353
  808MPD2     N11957   0.610   1.109  10.119  0.3494 -0.2041  0.3574
  808MPD2    H511958   0.547   1.182  10.087 -0.5899 -1.6005 -0.9906
  808MPD2    N111959   0.618   0.659  10.296  0.0555 -0.0981 -0.2857
  808MPD2    H711960   0.715   0.678  10.320  0.1256 -0.2368 -0.4659
  809MPD2     C11961   0.471   1.919   9.537 -0.2946  0.0278 -0.0984
  809MPD2    C111962   0.530   1.795   9.518 -0.1412 -0.2173  1.2093
  809MPD2    C211963   0.556   1.718   9.631  0.3651  0.0512  0.3647
  809MPD2    C311964   0.532   1.758   9.762 -0.6627 -0.0968 -0.3503
  809MPD2    C411965   0.474   1.882   9.781 -0.3977  0.2530  0.9727
  809MPD2    C511966   0.440   1.954   9.665  0.0006 -0.0821  0.0356
  809MPD2     H11967   0.610   1.625   9.615  0.8662 -0.2690  4.0611
  809MPD2    H111968   0.446   1.940   9.868 -0.7724 -1.1008  1.7527
  809MPD2    H211969   0.445   1.984   9.455 -2.5932 -1.8137 -0.7951
  809MPD2    H311970   0.396   2.053   9.677  1.5547  0.3575  2.2724
  809MPD2     N11971   0.570   1.675   9.874  0.1828 -0.3114 -0.3167
  809MPD2    H511972   0.560   1.718   9.965  0.5844  0.7801 -0.7841
  809MPD2    N111973   0.572   1.746   9.394 -0.5324  0.1649 -0.3299
  809MPD2    H711974   0.634   1.665   9.392  2.8135  2.6995  1.2935
  810MPD2     C11975   4.494   4.552  10.501  0.0770 -0.3942  0.6082
  810MPD2    C111976   4.545   4.576  10.372 -0.0437  0.0856  0.2138
  810MPD2    C211977   4.550   4.706  10.322  0.2450 -0.2671 -0.7387
  810MPD2    C311978   4.498   0.071  10.400  0.1623 -0.2469 -1.1489
  810MPD2    C411979   4.431   0.040  10.518 -0.3038 -0.0282  0.6195
  810MPD2    C511980   4.420   4.652  10.566  0.3353  0.4387  0.4866
  810MPD2     H11981   4.597   4.723  10.225  1.5629 -1.3617 -0.3096
  810MPD2    H111982   4.374   0.121  10.563 -0.3879 -0.2670  0.9407
  810MPD2    H211983   4.489   4.454  10.546  0.8131 -0.5884  0.2692
  810MPD2    H311984   4.359   4.631  10.653  0.1935 -0.7350  0.1033
  810MPD2     N11985   4.490   0.206  10.360  0.1282  0.5118  0.4986
  810MPD2    H511986   4.412   0.258  10.399 -1.1703 -0.6191 -0.6261
  810MPD2    N111987   4.585   4.477  10.282  0.7022  0.5566  0.0161
  810MPD2    H711988   4.602   4.510  10.187 -0.9877  1.7567  0.1532
  811MPD2     C11989   4.030   4.187   9.769  0.2331 -0.6989  0.2026
  811MPD2    C111990   4.149   4.251   9.777 -0.5843 -0.0116 -0.3667
  811MPD2    C211991   4.168   4.369   9.700 -0.7298  0.7449 -0.5658
  811MPD2    C311992   4.051   4.427   9.640 -0.1004  0.6546  0.3086
  811MPD2    C411993   3.929   4.360   9.643  0.2462 -0.8605 -0.3064
  811MPD2    C511994   3.916   4.247   9.708 -0.2739 -0.3078  0.0598
  811MPD2     H11995   4.261   4.425   9.694  0.0361 -0.6494 -1.5524
  811MPD2    H111996   3.847   4.398   9.583  0.5214 -0.1964 -0.2583
  811MPD2    H211997   4.009   4.094   9.822  0.5081  0.3669  2.1923
  811MPD2    H311998   3.819   4.200   9.719  0.1438 -0.7592  1.7759
  811MPD2     N11999   4.063   4.561   9.597  0.9764 -0.6746  0.1345
  811MPD2    H512000   4.153   4.601   9.623  1.2378  0.3855 -2.3424
  811MPD2    N112001   4.246   4.212   9.873 -0.6070 -0.3771  0.5636
  811MPD2    H712002   4.213   4.134   9.929 -2.9181  1.4083  1.6962
  812MPD2     C12003   3.346   4.356  11.713 -0.6966 -0.7371 -0.3970
  812MPD2    C112004   3.303   4.426  11.825  0.4508  0.0261  0.3469
  812MPD2    C212005   3.297   4.356  11.943  0.4338 -1.0036 -0.0025
  812MPD2    C312006   3.329   4.224  11.955 -0.3795 -0.2807  0.0249
  812MPD2    C412007   3.381   4.162  11.837 -0.5102 -0.3410  0.1249
  812MPD2    C512008   3.381   4.228  11.720 -0.0938 -0.7702 -0.2127
  812MPD2     H12009   3.278   4.412  12.033  0.6702 -1.9123  0.6145
  812MPD2    H112010   3.415   4.059  11.829  0.7232 -0.0434  1.5050
  812MPD2    H212011   3.358   4.401  11.615 -0.5566 -0.4219 -0.2353
  812MPD2    H312012   3.417   4.169  11.636  0.0321 -0.4535 -0.3806
  812MPD2     N12013   3.340   4.154  12.083 -0.0421 -0.1669  0.2591
  812MPD2    H512014   3.307   4.203  12.165 -1.5569 -2.0630  0.7768
  812MPD2    N112015   3.289   4.563  11.798 -0.4963  0.4797 -0.4001
  812MPD2    H712016   3.317   4.593  11.706  0.2702  0.5847 -0.1364
  813MPD2     C12017   2.698   1.721  13.077 -0.6167 -0.4268 -0.6754
  813MPD2    C112018   2.620   1.629  13.012 -0.4028 -0.0547  0.1370
  813MPD2    C212019   2.599   1.511  13.073  0.3774  0.4514  0.1773
  813MPD2    C312020   2.653   1.490  13.201  0.1855 -0.1826 -0.3924
  813MPD2    C412021   2.734   1.579  13.264 -0.7726  0.0919 -0.0984
  813MPD2    C512022   2.761   1.694  13.191  0.5903 -0.3957  0.4406
  813MPD2     H12023   2.525   1.438  13.042 -0.3079  1.3965 -0.3810
  813MPD2    H112024   2.781   1.562  13.360 -0.0007  1.0078 -0.3214
  813MPD2    H212025   2.720   1.818  13.034  0.7893 -0.8844 -0.9677
  813MPD2    H312026   2.825   1.773  13.228 -0.3264  0.3700  0.3719
  813MPD2     N12027   2.600   1.379  13.269 -0.0407  0.8625  0.2567
  813MPD2    H512028   2.566   1.305  13.210 -1.8937  1.0311  1.1195
  813MPD2    N112029   2.522   1.661  12.911 -0.5781 -0.3279 -0.6553
  813MPD2    H712030   2.467   1.583  12.878 -1.2322 -0.5301  0.8973
  814MPD2     C12031   3.065   2.806  12.700 -0.0587  0.6944 -0.1405
  814MPD2    C112032   3.085   2.791  12.568 -0.3431 -0.2161 -0.3266
  814MPD2    C212033   3.187   2.857  12.510 -0.0600 -0.8525  0.1030
  814MPD2    C312034   3.253   2.959  12.571 -0.3623  0.1818  0.4204
  814MPD2    C412035   3.223   2.992  12.697  0.0251  0.2135  0.1837
  814MPD2    C512036   3.139   2.908  12.764 -0.3310  0.1067  0.0796
  814MPD2     H12037   3.200   2.839  12.404  1.4730  3.0204 -0.3503
  814MPD2    H112038   3.267   3.078  12.746  2.3343 -1.0489  0.3065
  814MPD2    H212039   2.991   2.752  12.758  0.2685 -0.7558 -1.0858
  814MPD2    H312040   3.123   2.928  12.869  0.3223 -2.3733  0.6517
  814MPD2     N12041   3.351   3.039  12.502  0.5058  0.5898 -0.0701
  814MPD2    H512042   3.383   3.121  12.552  1.4610  1.4736 -2.1513
  814MPD2    N112043   3.012   2.697  12.490 -0.4068  0.5591 -0.0766
  814MPD2    H712044   3.054   2.692  12.397  1.3079 -0.2901  0.7447
  815MPD2     C12045   3.438   1.635  11.401  0.1316 -0.2709  0.3306
  815MPD2    C112046   3.444   1.502  11.447  0.3066 -0.5993 -0.5437
  815MPD2    C212047   3.369   1.455  11.553 -0.0698  0.5095  0.8707
  815MPD2    C312048   3.283   1.550  11.609  0.0718  0.0415  0.5187
  815MPD2    C412049   3.283   1.683  11.572  0.1133  0.0138 -0.0214
  815MPD2    C512050   3.363   1.730  11.467  0.0284 -0.1455 -0.7727
  815MPD2     H12051   3.347   1.350  11.569  0.2085  0.2196 -0.6648
  815MPD2    H112052   3.221   1.754  11.625  1.0330 -1.5147  3.0825
  815MPD2    H212053   3.498   1.666  11.316 -3.3437  1.9905 -1.3027
  815MPD2    H312054   3.363   1.837  11.450 -0.5167  0.0652  0.5470
  815MPD2     N12055   3.210   1.502  11.719  0.2212  0.1119  0.1156
  815MPD2    H512056   3.232   1.414  11.765 -2.0285 -0.4052  0.2209
  815MPD2    N112057   3.525   1.411  11.372 -0.0839 -0.2231 -0.2960
  815MPD2    H712058   3.562   1.448  11.285  2.4542 -1.5507  0.2237
  816MPD2     C12059   3.310   1.033  17.358 -0.7826 -0.9069  0.0546
  816MPD2    C112060   3.277   1.095  17.240  0.1362 -0.0753  0.5472
  816MPD2    C212061   3.323   1.054  17.120  0.3138  0.1468  0.4860
  816MPD2    C312062   3.408   0.944  17.117 -0.5373  0.5589 -0.5790
  816MPD2    C412063   3.432   0.878  17.236 -0.6349  0.5153 -1.1724
  816MPD2    C512064   3.383   0.921  17.358  0.0598  0.2979 -0.0531
  816MPD2     H12065   3.302   1.110  17.030  0.5489  0.3271  0.5439
  816MPD2    H112066   3.488   0.785  17.231  1.0481  1.3840  1.5341
  816MPD2    H212067   3.275   1.072  17.453 -1.8335 -1.6633 -0.0271
  816MPD2    H312068   3.396   0.858  17.445  0.8638  1.7956  0.9019
  816MPD2     N12069   3.452   0.893  16.994  0.0465 -0.4894  0.2331
  816MPD2    H512070   3.400   0.922  16.912  2.1877  3.7510  0.3625
  816MPD2    N112071   3.203   1.210  17.251 -0.7776  0.3842 -0.1670
  816MPD2    H712072   3.176   1.248  17.342  0.4012 -0.8839  0.7021
  817MPD2     C12073   3.028   2.191   9.263  0.5261  0.4714  0.0213
  817MPD2    C112074   2.976   2.115   9.165  0.7222 -0.0217  0.1711
  817MPD2    C212075   2.865   2.168   9.103 -0.0088 -0.7742  0.1527
  817MPD2    C312076   2.813   2.295   9.126  0.1856  0.1393 -0.0012
  817MPD2    C412077   2.863   2.362   9.235  0.4865  0.2785  0.0578
  817MPD2    C512078   2.962   2.305   9.302 -0.1031 -0.0356  0.4647
  817MPD2     H12079   2.833   2.120   9.011  0.6777  0.8271 -0.9123
  817MPD2    H112080   2.827   2.459   9.268  1.0220  0.4458  0.1510
  817MPD2    H212081   3.121   2.174   9.315 -0.3042 -2.6760  0.5113
  817MPD2    H312082   3.008   2.354   9.387  0.2854 -0.8321  0.7090
  817MPD2     N12083   2.720   2.347   9.031  0.4842 -0.1056 -0.2087
  817MPD2    H512084   2.694   2.289   8.952  0.4730  1.3883 -1.3025
  817MPD2    N112085   3.023   1.986   9.128  0.6560 -0.0729 -0.1356
  817MPD2    H712086   2.996   1.939   9.042 -0.5663  3.7040 -1.8497
  818MPD2     C12087   2.481   2.409  10.191 -0.9128  0.3963  0.1043
  818MPD2    C112088   2.374   2.325  10.187  0.0601  0.5538 -0.0808
  818MPD2    C212089   2.363   2.230  10.086 -0.0925  0.8063 -0.1069
  818MPD2    C312090   2.462   2.219   9.992  0.3724 -0.3576  0.8115
  818MPD2    C412091   2.579   2.290  10.019 -0.2087 -0.0055  0.2477
  818MPD2    C512092   2.589   2.386  10.115 -0.3977 -0.8151  0.0710
  818MPD2     H12093   2.271   2.172  10.081  2.6470 -3.2656 -2.6946
  818MPD2    H112094   2.664   2.296   9.951 -0.9023  2.3644 -0.4065
  818MPD2    H212095   2.494   2.491  10.261  0.0428  2.0284 -1.9933
  818MPD2    H312096   2.675   2.452  10.117  0.6751 -2.1380 -2.2983
  818MPD2     N12097   2.439   2.128   9.882  0.0043 -0.1801  0.1398
  818MPD2    H512098   2.343   2.114   9.855 -0.4394  0.6480  1.2530
  818MPD2    N112099   2.271   2.323  10.284 -0.3485 -0.0032 -0.1801
  818MPD2    H712100   2.192   2.262  10.268  0.2020 -0.1863 -2.1504
  819MPD2     C12101   4.592   4.138  15.481  0.5280  0.2579  0.6081
  819MPD2    C112102   4.563   4.002  15.503  0.2206 -0.7322  0.2309
  819MPD2    C212103   4.634   3.925  15.596 -0.0238  0.0252  1.0122
  819MPD2    C312104   4.727   3.991  15.672 -0.3959  0.4093  0.6120
  819MPD2    C412105   0.028   4.117  15.638  0.0311 -0.2754  0.2302
  819MPD2    C512106   4.697   4.195  15.541 -0.7472 -0.8467  0.3776
  819MPD2     H12107   4.609   3.822  15.619 -1.4146  0.1387  0.0100
  819MPD2    H112108   0.104   4.162  15.701  0.4202 -1.1677  0.4010
  819MPD2    H212109   4.551   4.187  15.394  0.6756  1.5815  1.2902
  819MPD2    H312110   4.716   4.301  15.527  2.2010 -1.4867 -0.4513
  819MPD2     N12111   0.061   3.915  15.763  0.1430 -0.3972  0.2956
  819MPD2    H512112   0.037   3.816  15.763  2.2466 -0.9048  2.0310
  819MPD2    N112113   4.453   3.948  15.433  0.0470 -0.3645 -0.5211
  819MPD2    H712114   4.422   3.999  15.352  0.6789 -0.8000 -1.0353
  820MPD2     C12115   3.919   3.858  14.596  0.5021  0.2758  0.0822
  820MPD2    C112116   3.932   3.970  14.680 -0.4696 -0.4305  0.8936
  820MPD2    C212117   3.987   3.950  14.809  0.6747 -0.3491 -0.4454
  820MPD2    C312118   4.033   3.823  14.838  0.5206 -0.1672  0.4635
  820MPD2    C412119   4.012   3.717  14.760  0.4333 -0.8678  0.0376
  820MPD2    C512120   3.953   3.737  14.640 -0.0166  0.0368 -0.3215
  820MPD2     H12121   3.991   4.033  14.879 -2.1900 -0.4984 -0.1049
  820MPD2    H112122   4.045   3.618  14.787 -0.9196 -0.8420  1.7173
  820MPD2    H212123   3.873   3.872  14.500 -1.0743  3.1906  1.2640
  820MPD2    H312124   3.915   3.651  14.587 -0.3168  0.2530 -0.4558
  820MPD2     N12125   4.104   3.796  14.961 -0.1808  0.4127 -0.4289
  820MPD2    H512126   4.115   3.700  14.991  0.9102  0.6841  0.0477
  820MPD2    N112127   3.865   4.088  14.636  0.2142  0.6171 -0.3375
  820MPD2    H712128   3.841   4.087  14.537 -1.6624 -0.7068  0.1127
  821MPD2     C12129   0.144   0.160  12.987 -0.0061  0.1211 -0.2555
  821MPD2    C112130   0.224   0.201  13.094 -0.2582 -0.3914  0.2362
  821MPD2    C212131   0.363   0.212  13.085 -0.1207  0.2608  0.6470
  821MPD2    C312132   0.412   0.206  12.957 -0.1776 -0.1782  0.5663
  821MPD2    C412133   0.334   0.181  12.842  0.4166 -0.0074 -0.3708
  821MPD2    C512134   0.206   0.151  12.865 -0.2581 -0.2638  0.3340
  821MPD2     H12135   0.430   0.239  13.166  0.1077  2.3245 -0.2356
  821MPD2    H112136   0.372   0.178  12.740 -1.9302 -0.0842 -1.2312
  821MPD2    H212137   0.039   0.137  13.001  0.6737 -1.4866  2.1494
  821MPD2    H312138   0.147   0.104  12.786 -0.2559  1.2216 -0.5367
  821MPD2     N12139   0.545   0.235  12.934  0.1843 -0.2321  0.1989
  821MPD2    H512140   0.570   0.260  12.839 -0.1944  0.4454  0.2833
  821MPD2    N112141   0.180   0.216  13.234  0.4259 -0.0483 -0.2847
  821MPD2    H712142   0.251   0.256  13.293 -0.1999 -0.6659  0.8797
  822MPD2     C12143   0.641   0.558  15.710 -0.3840 -0.2058 -0.4192
  822MPD2    C112144   0.600   0.504  15.829 -0.6210  0.0955 -0.7068
  822MPD2    C212145   0.502   0.577  15.900 -0.1845  0.7782 -0.0480
  822MPD2    C312146   0.441   0.693  15.844 -0.9096 -0.1879 -0.3339
  822MPD2    C412147   0.472   0.723  15.712 -0.0685 -0.6645  0.8694
  822MPD2    C512148   0.570   0.664  15.649 -0.1042 -0.8009 -0.2073
  822MPD2     H12149   0.491   0.545  16.003  2.7424  2.0177  0.6757
  822MPD2    H112150   0.420   0.803  15.660 -0.1825 -1.4790 -0.2798
  822MPD2    H212151   0.700   0.496  15.644 -2.4578 -0.7767 -1.7033
  822MPD2    H312152   0.588   0.693  15.546 -1.5032 -0.2027 -0.2813
  822MPD2     N12153   0.358   0.773  15.928  0.1174 -0.5204 -0.2289
  822MPD2    H512154   0.334   0.726  16.015  1.3465  1.5816  1.2718
  822MPD2    N112155   0.658   0.389  15.893 -0.0263  0.2685  0.1444
  822MPD2    H712156   0.620   0.355  15.982  0.1048  1.7051  0.7420
  823MPD2     C12157   4.604   1.099  16.569  0.0112  0.8657  0.4833
  823MPD2    C112158   4.673   1.011  16.497  0.2017 -0.1434 -0.4624
  823MPD2    C212159   4.704   0.895  16.558  0.1066 -0.4702 -0.2455
  823MPD2    C312160   4.672   0.869  16.692 -0.2221 -0.2381 -0.0336
  823MPD2    C412161   4.600   0.960  16.755 -0.9358  0.1523  0.0430
  823MPD2    C512162   4.559   1.069  16.696 -0.4360 -1.2999  0.0317
  823MPD2     H12163   0.038   0.830  16.506  1.3527  0.5161  0.2036
  823MPD2    H112164   4.576   0.943  16.859  0.0648 -1.4522  0.0187
  823MPD2    H212165   4.557   1.181  16.517  1.3625  1.5220  0.2994
  823MPD2    H312166   4.506   1.144  16.753 -0.4284 -0.3954 -1.1471
  823MPD2     N12167   4.710   0.755  16.771  0.1408 -0.1234  0.5591
  823MPD2    H512168   4.674   0.743  16.865 -2.7551  2.3892 -0.2347
  823MPD2    N112169   4.720   1.041  16.366  0.8538  0.2082 -0.1259
  823MPD2    H712170   4.705   1.139  16.342  1.1296 -0.0698 -1.4125
  824MPD2     C12171   1.110   4.324  16.073  0.0883 -0.5631 -0.2881
  824MPD2    C112172   1.116   4.427  15.984 -0.0298  0.0348  0.2608
  824MPD2    C212173   1.204   4.423  15.877 -1.4016  0.5910  0.2518
  824MPD2    C312174   1.289   4.314  15.869 -0.4594 -0.0318 -0.6441
  824MPD2    C412175   1.271   4.202  15.959  0.1154 -0.2922 -0.4879
  824MPD2    C512176   1.182   4.208  16.061 -0.0586 -0.7653 -0.0805
  824MPD2     H12177   1.210   4.503  15.804 -0.2627 -1.6369 -2.1287
  824MPD2    H112178   1.335   4.115  15.960 -0.1455 -0.4885 -1.0520
  824MPD2    H212179   1.046   4.334  16.159 -0.5616 -1.5201 -0.6617
  824MPD2    H312180   1.181   4.124  16.130  2.7951 -0.8490 -0.1448
  824MPD2     N12181   1.376   4.310  15.753  0.8618  0.5366 -0.1450
  824MPD2    H512182   1.361   4.375  15.677  3.9125  2.7643  1.1830
  824MPD2    N112183   1.027   4.542  16.002 -0.0452 -0.3526  0.6802
  824MPD2    H712184   0.965   4.548  16.082 -0.7574 -1.4669  0.2018
  825MPD2     C12185   1.983   4.633  15.252  0.6041 -0.3016 -0.2329
  825MPD2    C112186   1.850   4.644  15.307  0.5894 -0.9403  0.5456
  825MPD2    C212187   1.781   0.030  15.313  0.3812 -0.5853  0.0202
  825MPD2    C312188   1.852   0.145  15.287  0.2985 -0.5542 -0.0504
  825MPD2    C412189   1.983   0.132  15.232 -0.7653  0.0529  0.1664
  825MPD2    C512190   2.046   0.014  15.212 -0.4189  0.6515  0.0694
  825MPD2     H12191   1.677   0.040  15.338  0.3980  1.2174 -0.6586
  825MPD2    H112192   2.025   0.221  15.189  0.9992 -0.6325  0.4710
  825MPD2    H212193   2.037   4.540  15.244 -1.1760 -1.2896 -0.8951
  825MPD2    H312194   2.147   0.004  15.174  0.1486  0.2472  1.6929
  825MPD2     N12195   1.803   0.279  15.294  0.1659  0.6011  0.1256
  825MPD2    H512196   1.877   0.347  15.308 -0.2807  0.7301  1.8699
  825MPD2    N112197   1.785   4.522  15.344  0.0880  0.1550 -0.0469
  825MPD2    H712198   1.833   4.434  15.332  0.8835  0.6234 -0.3236
  826MPD2     C12199   1.320   3.658  13.674 -0.3843  0.1299 -0.0934
  826MPD2    C112200   1.347   3.791  13.661  0.4141 -0.2734  0.2659
  826MPD2    C212201   1.250   3.885  13.701  0.4680 -0.0814 -0.6698
  826MPD2    C312202   1.137   3.838  13.758  0.5509  0.4720 -0.3742
  826MPD2    C412203   1.114   3.705  13.778 -0.6225  1.2110  0.4861
  826MPD2    C512204   1.205   3.615  13.734  1.2723  0.5714  0.3785
  826MPD2     H12205   1.266   3.992  13.706 -1.3065  0.0983  1.0992
  826MPD2    H112206   1.028   3.675  13.837 -0.6010 -0.2880 -0.2654
  826MPD2    H212207   1.394   3.583  13.649 -0.1465  0.9680 -1.9378
  826MPD2    H312208   1.191   3.509  13.749 -1.4455  1.1162  1.7757
  826MPD2     N12209   1.042   3.925  13.816 -0.2898  0.4370 -0.2391
  826MPD2    H512210   0.983   3.884  13.888 -0.1874  1.2929  0.3239
  826MPD2    N112211   1.470   3.824  13.601  0.3260  0.0502 -0.0367
  826MPD2    H712212   1.525   3.747  13.566 -1.5665 -1.8306  1.1564
  827MPD2     C12213   2.600   0.673   9.901 -0.8326 -0.5302 -0.2590
  827MPD2    C112214   2.517   0.651  10.008 -0.0584 -0.4149  0.5975
  827MPD2    C212215   2.380   0.669   9.995 -0.5635  0.8522 -0.0262
  827MPD2    C312216   2.327   0.723   9.880 -0.4113 -0.3403  0.2438
  827MPD2    C412217   2.409   0.748   9.773 -0.2373 -0.3829 -0.0609
  827MPD2    C512218   2.543   0.715   9.786  0.1661 -0.0850 -0.5352
  827MPD2     H12219   2.315   0.639  10.077 -0.8152  0.2482 -0.4475
  827MPD2    H112220   2.378   0.786   9.676  1.6537 -0.8595 -0.8700
  827MPD2    H212221   2.707   0.661   9.911 -0.7832  1.4921  1.8240
  827MPD2    H312222   2.603   0.723   9.696 -0.8541  0.9054 -1.1388
  827MPD2     N12223   2.182   0.725   9.872  0.2493 -0.0489  0.1334
  827MPD2    H512224   2.132   0.679   9.947  0.5050 -4.0199 -2.1703
  827MPD2    N112225   2.576   0.591  10.126  0.0023  0.5739 -0.4575
  827MPD2    H712226   2.675   0.568  10.125 -0.2244 -0.6227  2.7690
  828MPD2     C12227   0.679   0.775  11.543  0.3780 -0.3274  0.3194
  828MPD2    C112228   0.567   0.704  11.514  0.0968 -0.6336 -0.2260
  828MPD2    C212229   0.510   0.699  11.391 -0.6793  0.2019 -0.6718
  828MPD2    C312230   0.570   0.766  11.281 -0.4206  0.4675 -0.1104
  828MPD2    C412231   0.673   0.846  11.317 -0.1008 -0.8049 -0.7929
  828MPD2    C512232   0.729   0.855  11.443 -1.0943  0.2327 -0.0230
  828MPD2     H12233   0.411   0.656  11.385 -0.2483 -0.7754 -0.8054
  828MPD2    H112234   0.736   0.893  11.242  1.0303 -0.5264  0.3411
  828MPD2    H212235   0.724   0.787  11.640  0.3282  1.2559  0.1452
  828MPD2    H312236   0.825   0.905  11.441 -0.1815 -1.4973 -0.2205
  828MPD2     N12237   0.521   0.767  11.147  0.7292  0.4739 -1.0452
  828MPD2    H512238   0.577   0.806  11.072 -0.2046  1.3973 -1.2551
  828MPD2    N112239   0.481   0.648  11.603  0.1503  0.1542  0.1380
  828MPD2    H712240   0.396   0.607  11.565 -0.8542 -0.2522  2.8343
  829MPD2     C12241   4.379   0.649  11.443 -0.2917  0.1613  0.1351
  829MPD2    C112242   4.380   0.680  11.582  0.2693  0.6234  0.3522
  829MPD2    C212243   4.494   0.650  11.655  0.1392 -0.3980  0.1495
  829MPD2    C312244   4.613   0.609  11.593  0.1345 -0.0193  0.0914
  829MPD2    C412245   4.612   0.591  11.454 -0.1881  0.4674  1.2506
  829MPD2    C512246   4.492   0.607  11.387  0.0229 -0.0991  0.8366
  829MPD2     H12247   4.488   0.662  11.762 -1.5080  0.4338 -0.0369
  829MPD2    H112248   4.691   0.550  11.393  1.5318  2.4320  2.1633
  829MPD2    H212249   4.284   0.662  11.391 -0.0180 -1.1233 -0.6717
  829MPD2    H312250   4.491   0.595  11.279  1.5167  0.9598  0.7107
  829MPD2     N12251   0.000   0.591  11.662  0.1889 -0.0495  0.0232
  829MPD2    H512252   0.080   0.575  11.602 -0.7116 -3.6340 -0.2115
  829MPD2    N112253   4.255   0.722  11.638 -0.2213  0.4611  0.7225
  829MPD2    H712254   4.180   0.727  11.570 -0.5057  0.0275  1.0086
  830MPD2     C12255   0.471   3.334  15.601 -0.3874  0.2779 -0.3633
  830MPD2    C112256   0.466   3.474  15.588  0.3084 -0.6064  0.1381
  830MPD2    C212257   0.508   3.529  15.470 -0.1778 -0.6627 -1.0954
  830MPD2    C312258   0.560   3.455  15.362  0.0350  0.2505  0.6648
  830MPD2    C412259   0.563   3.318  15.382  0.4152 -0.2632 -0.1608
  830MPD2    C512260   0.521   3.254  15.498  0.3671 -0.6787  0.2712
  830MPD2     H12261   0.514   3.637  15.468 -0.4787 -0.6520 -1.5357
  830MPD2    H112262   0.600   3.249  15.307  1.4361  0.4376 -0.3106
  830MPD2    H212263   0.443   3.285  15.694 -1.9716  1.2060 -0.3367
  830MPD2    H312264   0.537   3.148  15.515  0.2353 -1.2166 -2.9017
  830MPD2     N12265   0.590   3.525  15.245  0.0026  0.2360 -0.1611
  830MPD2    H512266   0.599   3.626  15.259  0.4886 -0.0107  1.3461
  830MPD2    N112267   0.407   3.559  15.694 -0.2566  0.0735 -0.4698
  830MPD2    H712268   0.401   3.657  15.666 -3.3386  0.3297  1.1635
  831MPD2     C12269   0.546   0.883  16.329  0.5238 -0.4832  0.7802
  831MPD2    C112270   0.550   0.759  16.266  0.0664 -0.1329  0.3810
  831MPD2    C212271   0.451   0.666  16.274 -0.0657 -0.0482  0.0909
  831MPD2    C312272   0.339   0.698  16.344  0.3440 -0.1303 -1.1209
  831MPD2    C412273   0.343   0.818  16.421  0.3132 -0.0793  0.3353
  831MPD2    C512274   0.439   0.913  16.402 -0.2936 -0.2495  0.0366
  831MPD2     H12275   0.464   0.569  16.228 -2.7669 -0.1644 -0.4313
  831MPD2    H112276   0.256   0.839  16.482  0.5631  2.3815 -0.1560
  831MPD2    H212277   0.626   0.955  16.320 -0.8454  0.7888 -1.2551
  831MPD2    H312278   0.430   1.006  16.456 -2.0403 -0.7556  0.6309
  831MPD2     N12279   0.229   0.615  16.326  0.5518  0.5214 -0.0214
  831MPD2    H512280   0.145   0.630  16.382 -0.1179 -1.8447 -0.3743
  831MPD2    N112281   0.668   0.739  16.191 -0.2226 -0.2433  0.0270
  831MPD2    H712282   0.737   0.813  16.192  0.1822 -0.5918 -2.7475
  832MPD2     C12283   4.001   1.731  17.384  0.0562 -1.4689 -0.1347
  832MPD2    C112284   4.045   1.855  17.411  0.6838 -0.2210  0.6423
  832MPD2    C212285   4.019   1.952  17.320  0.1397  0.1045 -0.0277
  832MPD2    C312286   3.960   1.929  17.198 -0.0474  0.5571  0.0998
  832MPD2    C412287   3.917   1.804  17.175 -0.2907 -0.2124  0.8338
  832MPD2    C512288   3.927   1.708  17.268  0.1286  0.0317 -0.3306
  832MPD2     H12289   4.063   2.050  17.333 -0.9600  0.4497  1.0936
  832MPD2    H112290   3.859   1.782  17.086 -0.8442  0.3354  1.0539
  832MPD2    H212291   4.006   1.653  17.458 -2.6777 -0.2543  1.3473
  832MPD2    H312292   3.882   1.611  17.249 -0.8183  0.7651 -1.8090
  832MPD2     N12293   3.941   2.027  17.097 -0.1467 -0.3065  0.8832
  832MPD2    H512294   3.891   2.005  17.011 -0.8708 -0.0606  1.2489
  832MPD2    N112295   4.136   1.880  17.517  0.8684 -0.0259 -0.7142
  832MPD2    H712296   4.182   1.971  17.519 -0.6809  0.7304  0.1810
  833MPD2     C12297   1.241   3.238  12.800 -0.3941 -0.4284  0.2212
  833MPD2    C112298   1.305   3.299  12.701  0.2010  0.2428 -0.4315
  833MPD2    C212299   1.420   3.237  12.648 -0.0583 -0.0042 -0.0646
  833MPD2    C312300   1.458   3.109  12.690 -0.3941 -0.5073  0.0918
  833MPD2    C412301   1.374   3.043  12.778 -0.7034  0.3568 -0.7181
  833MPD2    C512302   1.270   3.114  12.837 -0.0591 -0.1079 -0.3279
  833MPD2     H12303   1.482   3.277  12.569 -0.3448 -0.4741 -0.5258
  833MPD2    H112304   1.395   2.938  12.791 -0.8122  0.2133 -1.7158
  833MPD2    H212305   1.153   3.280  12.847 -0.9854  0.5691 -1.7576
  833MPD2    H312306   1.216   3.062  12.916 -1.4099  0.4818 -0.8624
  833MPD2     N12307   1.565   3.035  12.634 -0.2445 -0.3137  0.7173
  833MPD2    H512308   1.549   2.936  12.649 -0.0733 -0.7295 -1.6893
  833MPD2    N112309   1.253   3.423  12.650  0.3402 -0.1626 -0.4640
  833MPD2    H712310   1.156   3.447  12.668  0.2320 -1.5296  0.8253
  834MPD2     C12311   1.332   2.383  12.002  0.0072 -0.2857 -0.3426
  834MPD2    C112312   1.398   2.478  11.927  0.4043 -0.3298  0.3997
  834MPD2    C212313   1.482   2.570  11.988  0.2327  0.3059  0.3362
  834MPD2    C312314   1.487   2.569  12.129 -0.3954  0.1578  0.2966
  834MPD2    C412315   1.428   2.470  12.208 -0.1583  0.5861  0.3060
  834MPD2    C512316   1.341   2.381  12.140 -0.1139 -0.0185  0.4542
  834MPD2     H12317   1.551   2.635  11.934 -1.3797  1.6575 -0.1128
  834MPD2    H112318   1.424   2.478  12.316  0.6621  0.2982  0.3586
  834MPD2    H212319   1.273   2.308  11.951 -1.8445  0.1695  1.1513
  834MPD2    H312320   1.306   2.300  12.204 -0.6279  1.4172  1.9875
  834MPD2     N12321   1.557   2.675  12.181  0.2163  0.2542  0.1566
  834MPD2    H512322   1.605   2.736  12.115  0.2703  0.7312  0.6302
  834MPD2    N112323   1.368   2.480  11.786 -0.4970  0.6656 -0.0370
  834MPD2    H712324   1.301   2.408  11.758  1.4446 -1.3966  0.5755
  835MPD2     C12325   1.336   1.123  10.846  0.2553 -0.1830  0.3465
  835MPD2    C112326   1.258   1.133  10.959  0.7491  0.3871 -0.0824
  835MPD2    C212327   1.319   1.152  11.086 -0.1623 -0.5985  0.6823
  835MPD2    C312328   1.455   1.147  11.100  0.2012 -0.4595  0.0313
  835MPD2    C412329   1.533   1.151  10.986 -0.7852 -0.7926 -0.1943
  835MPD2    C512330   1.471   1.140  10.865  0.3688 -1.0146 -0.1554
  835MPD2     H12331   1.250   1.153  11.170 -3.7054 -1.8977 -2.2385
  835MPD2    H112332   1.641   1.150  10.978 -0.7051 -0.0088  0.7441
  835MPD2    H212333   1.301   1.097  10.746 -0.0236 -2.3005  0.9873
  835MPD2    H312334   1.541   1.144  10.782  0.4970  0.9503  0.0373
  835MPD2     N12335   1.512   1.149  11.229  0.4159 -0.1435 -0.1484
  835MPD2    H512336   1.453   1.168  11.310 -0.5760 -1.1598 -0.6316
  835MPD2    N112337   1.120   1.114  10.960  0.3304 -0.1890 -0.3741
  835MPD2    H712338   1.063   1.137  11.042  0.6854  0.0766 -0.2034
  836MPD2     C12339   1.615   1.112  12.098  0.4863  0.6623  0.0137
  836MPD2    C112340   1.541   1.082  11.986 -0.8001 -0.0704  0.0466
  836MPD2    C212341   1.406   1.058  12.006  0.1458  0.6589  0.2840
  836MPD2    C312342   1.349   1.066  12.133  0.0616 -0.4721  0.4211
  836MPD2    C412343   1.426   1.103  12.243  0.1319  0.1443 -0.8405
  836MPD2    C512344   1.563   1.114  12.221 -0.5481 -0.3781 -0.1778
  836MPD2     H12345   1.331   1.043  11.929  1.5805 -1.1202 -0.7617
  836MPD2    H112346   1.394   1.116  12.346  1.5793 -0.0821 -0.3564
  836MPD2    H212347   1.722   1.118  12.080  0.6532 -0.6215  0.5527
  836MPD2    H312348   1.619   1.149  12.307 -0.2531  0.4410 -0.6938
  836MPD2     N12349   1.210   1.049  12.158  0.0578  0.5811  0.7037
  836MPD2    H512350   1.190   1.055  12.257 -1.7353  1.2495  0.2994
  836MPD2    N112351   1.605   1.076  11.861 -0.2064 -0.4542 -0.4613
  836MPD2    H712352   1.706   1.083  11.860 -0.2629  0.3964 -0.1781
  837MPD2     C12353   4.487   0.455   9.731 -0.1760 -0.3462 -0.3291
  837MPD2    C112354   4.360   0.475   9.781 -0.3079 -0.4554 -0.4654
  837MPD2    C212355   4.325   0.602   9.823  0.2787 -0.1462  0.4361
  837MPD2    C312356   4.412   0.710   9.807 -0.6768  0.5773 -0.0784
  837MPD2    C412357   4.538   0.689   9.754  0.5357 -0.2383  0.4534
  837MPD2    C512358   4.578   0.566   9.723 -0.3119 -0.3455 -0.3635
  837MPD2     H12359   4.224   0.625   9.857  0.7758  2.6814  0.0526
  837MPD2    H112360   4.603   0.776   9.755 -2.7171  2.2097  0.9182
  837MPD2    H212361   4.529   0.359   9.702  3.6549  1.3176 -0.3161
  837MPD2    H312362   4.683   0.560   9.696  0.2561 -1.4797  2.1134
  837MPD2     N12363   4.363   0.834   9.847  0.2581  0.1578  0.1648
  837MPD2    H512364   4.265   0.844   9.871 -0.4496 -1.7276 -1.9950
  837MPD2    N112365   4.258   0.379   9.778  0.1260 -0.4135  0.1525
  837MPD2    H712366   4.174   0.411   9.824 -0.3726  0.2150 -1.1818
  838MPD2     C12367   3.318   3.622  11.934  0.1895 -0.4982 -0.1586
  838MPD2    C112368   3.204   3.589  11.865 -0.4589  0.5889 -0.4012
  838MPD2    C212369   3.076   3.603  11.913  0.3305 -0.3361 -0.6067
  838MPD2    C312370   3.064   3.648  12.044  0.7695  0.0231  0.3344
  838MPD2    C412371   3.171   3.694  12.113  0.6899  0.0324  0.3817
  838MPD2    C512372   3.295   3.673  12.054 -0.1522  0.2362  0.8697
  838MPD2     H12373   2.984   3.563  11.871  0.5738 -0.8121 -0.6811
  838MPD2    H112374   3.168   3.716  12.219  0.5666  1.2563  0.1281
  838MPD2    H212375   3.415   3.608  11.888 -1.1183 -1.3667 -2.6052
  838MPD2    H312376   3.380   3.710  12.111 -0.1133 -1.4411  1.8931
  838MPD2     N12377   2.937   3.654  12.092  0.2087 -0.9197 -0.7914
  838MPD2    H512378   2.860   3.609  12.044  0.9996 -0.5152 -2.4442
  838MPD2    N112379   3.198   3.522  11.738  0.2141  0.2500  0.0873
  838MPD2    H712380   3.108   3.477  11.721 -0.0087  2.0047 -3.2186
  839MPD2     C12381   2.485   3.184  11.620 -0.6414  0.5885 -0.3854
  839MPD2    C112382   2.565   3.093  11.551  0.2390 -0.4824 -0.1677
  839MPD2    C212383   2.692   3.129  11.510  0.1024  0.4091  0.6755
  839MPD2    C312384   2.733   3.263  11.527  1.3111 -0.2026 -0.0092
  839MPD2    C412385   2.652   3.352  11.595  0.1245 -0.7159 -1.1539
  839MPD2    C512386   2.531   3.309  11.639  0.3214 -0.4386  0.5854
  839MPD2     H12387   2.762   3.064  11.460  0.8991  0.9167  1.1299
  839MPD2    H112388   2.684   3.452  11.622 -0.8256 -0.6840 -0.1764
  839MPD2    H212389   2.394   3.164  11.674 -0.1279  0.7539  0.5360
  839MPD2    H312390   2.479   3.371  11.710 -1.1582 -0.2857 -0.6391
  839MPD2     N12391   2.859   3.317  11.494  0.5661  0.1160  0.1110
  839MPD2    H512392   2.874   3.412  11.526 -0.5356 -0.3854  2.1133
  839MPD2    N112393   2.522   2.960  11.528  0.1972 -0.1536 -0.4044
  839MPD2    H712394   2.588   2.896  11.486 -0.9055 -2.4263  1.3028
  840MPD2     C12395   3.124   0.756  10.113 -0.1371  0.1582  0.4772
  840MPD2    C112396   3.092   0.782  10.249  1.2638 -0.3354 -0.3050
  840MPD2    C212397   3.133   0.900  10.310 -1.1821 -0.0604  0.1588
  840MPD2    C312398   3.195   0.991  10.234 -0.0350 -1.1413  0.8131
  840MPD2    C412399   3.219   0.974  10.098 -0.5316 -0.0634 -0.3698
  840MPD2    C512400   3.191   0.854  10.041 -0.5630 -0.4175 -0.8801
  840MPD2     H12401   3.121   0.915  10.417 -0.0304 -3.1945  0.7282
  840MPD2    H112402   3.268   1.052  10.040  2.9094 -0.5629  1.8688
  840MPD2    H212403   3.091   0.662  10.069 -0.0407  0.3806 -0.0673
  840MPD2    H312404   3.202   0.817   9.940  0.2887 -2.3418 -0.0820
  840MPD2     N12405   3.216   1.125  10.279  0.5242  0.0423  0.0574
  840MPD2    H512406   3.252   1.180  10.202 -0.1570 -1.4330 -1.3116
  840MPD2    N112407   3.009   0.687  10.312  0.3282 -0.2801 -0.4211
  840MPD2    H712408   2.977   0.612  10.251  0.8070 -1.6121  0.9826
  841MPD2     C12409   1.827   0.764  15.029 -0.0932 -0.0816 -0.4333
  841MPD2    C112410   1.893   0.663  14.964  0.3117 -0.3876  0.5265
  841MPD2    C212411   2.017   0.688  14.921 -0.0297  0.4737  0.0274
  841MPD2    C312412   2.086   0.809  14.943  0.3800  0.6153  0.0278
  841MPD2    C412413   2.019   0.906  15.013 -0.7605  0.5160  1.0656
  841MPD2    C512414   1.898   0.872  15.061  0.2789 -0.3604  0.0194
  841MPD2     H12415   2.072   0.605  14.877 -0.1000  1.8241 -2.5832
  841MPD2    H112416   2.062   1.001  15.042  1.2480  0.1101 -0.6221
  841MPD2    H212417   1.725   0.754  15.066  0.0988 -1.3947 -0.2592
  841MPD2    H312418   1.843   0.948  15.115  0.7565  0.1080 -0.1570
  841MPD2     N12419   2.218   0.816  14.893 -0.7220  0.6076  0.2782
  841MPD2    H512420   2.252   0.730  14.852  0.0436  0.8628  0.3892
  841MPD2    N112421   1.835   0.543  14.920 -0.0502  0.3059  0.3354
  841MPD2    H712422   1.902   0.480  14.879 -2.4357 -0.4548 -2.3696
  842MPD2     C12423   3.014   2.119  17.198 -0.4748 -0.7274  0.8437
  842MPD2    C112424   2.903   2.101  17.117 -0.2142  0.3830 -0.1309
  842MPD2    C212425   2.778   2.085  17.181  0.0607  0.3334 -0.7942
  842MPD2    C312426   2.772   2.080  17.320 -0.1696 -0.0560  0.5093
  842MPD2    C412427   2.882   2.107  17.393 -0.5735 -0.4169  0.2629
  842MPD2    C512428   3.001   2.123  17.331 -0.2339  0.0414  0.6326
  842MPD2     H12429   2.688   2.061  17.126 -0.9495  0.7788  0.6320
  842MPD2    H112430   2.882   2.095  17.501  1.7247  1.1184  0.4202
  842MPD2    H212431   3.116   2.134  17.163 -1.0664  2.2651  0.4051
  842MPD2    H312432   3.090   2.107  17.391  0.8174  0.9821 -0.6679
  842MPD2     N12433   2.643   2.051  17.376  0.2003  0.1231  0.2720
  842MPD2    H512434   2.566   2.057  17.311  1.3856  1.0284 -1.0699
  842MPD2    N112435   2.922   2.102  16.978 -0.5544 -0.3771  0.7974
  842MPD2    H712436   3.005   2.147  16.942  1.2990 -1.6493  3.5765
  843MPD2     C12437   0.092   3.136  17.468  0.6599 -0.2993  0.4356
  843MPD2    C112438   0.151   3.055  17.558  0.4881  0.2318  0.5527
  843MPD2    C212439   0.250   3.116  17.637  0.3211 -0.1395  1.0698
  843MPD2    C312440   0.293   3.249  17.619  0.0874 -0.3250  0.0191
  843MPD2    C412441   0.228   3.325  17.523 -0.2231  0.3250  0.3771
  843MPD2    C512442   0.125   3.272  17.459  0.6989  0.6537  0.7675
  843MPD2     H12443   0.302   3.070  17.719  2.1315  0.1334  0.0700
  843MPD2    H112444   0.254   3.429  17.507  1.0201 -0.1745 -0.9019
  843MPD2    H212445   4.733   3.110  17.422  1.4966  0.7900 -1.9120
  843MPD2    H312446   0.083   3.330  17.378  0.5274 -0.9266 -0.2763
  843MPD2     N12447   0.394   3.309  17.694 -0.1464 -0.3807  0.1454
  843MPD2    H512448   0.408   3.406  17.665 -1.2012 -0.1764  0.3134
  843MPD2    N112449   0.103   2.927  17.580  0.2789  0.5294 -0.7714
  843MPD2    H712450   0.027   2.900  17.518 -0.0257 -1.6929  0.5713
  844MPD2     C12451   3.498   1.814  16.482 -0.0941  0.2841 -0.3406
  844MPD2    C112452   3.565   1.695  16.468  0.0285  0.2374  0.2009
  844MPD2    C212453   3.682   1.672  16.537 -0.3494 -0.5603  0.1739
  844MPD2    C312454   3.724   1.759  16.637  0.0438 -0.4204 -0.2663
  844MPD2    C412455   3.648   1.873  16.652 -0.3722  0.3480  0.1110
  844MPD2    C512456   3.546   1.903  16.572 -0.1788 -0.5622  0.0190
  844MPD2     H12457   3.741   1.587  16.505 -0.8026 -0.1787 -1.6990
  844MPD2    H112458   3.678   1.955  16.717 -0.0747 -1.3170  2.0642
  844MPD2    H212459   3.409   1.853  16.434  0.9226  1.2974 -1.4054
  844MPD2    H312460   3.495   1.999  16.577 -0.7029 -0.7477 -1.8368
  844MPD2     N12461   3.847   1.729  16.707  0.0299  0.0944 -0.6093
  844MPD2    H512462   3.891   1.640  16.689  0.8001  0.7000 -1.6747
  844MPD2    N112463   3.520   1.609  16.369  0.1687 -0.4272 -0.1525
  844MPD2    H712464   3.568   1.526  16.337 -1.9233 -0.7745 -2.3769
  845MPD2     C12465   4.432   2.258  17.349  0.5764  0.0482 -0.1530
  845MPD2    C112466   4.340   2.293  17.250  0.4131  0.3264 -0.2200
  845MPD2    C212467   4.303   2.201  17.156 -0.2862 -0.1077  0.0372
  845MPD2    C312468   4.345   2.074  17.160  0.3491 -0.0270  0.2275
  845MPD2    C412469   4.423   2.039  17.265  0.3935  0.2193 -0.2137
  845MPD2    C512470   4.476   2.129  17.354  0.0174  0.9961 -0.1221
  845MPD2     H12471   4.225   2.230  17.086  0.6887 -0.1424 -1.0602
  845MPD2    H112472   4.451   1.935  17.277 -1.1408 -0.3615 -1.8166
  845MPD2    H212473   4.470   2.330  17.420 -0.1420 -1.0153  1.2953
  845MPD2    H312474   4.530   2.094  17.442 -2.0308  0.3241  0.8719
  845MPD2     N12475   4.297   1.978  17.074 -0.8493  0.0879  0.3539
  845MPD2    H512476   4.229   2.024  17.014 -0.9438 -1.4384 -0.6942
  845MPD2    N112477   4.287   2.419  17.268 -0.4621 -0.6403 -0.0954
  845MPD2    H712478   4.299   2.470  17.356 -4.6003 -1.8049  1.1429
  846MPD2     C12479   0.536   2.774  13.527 -1.0392  0.0776 -0.7155
  846MPD2    C112480   0.412   2.823  13.494  0.9342 -0.3657 -0.0273
  846MPD2    C212481   0.337   2.887  13.588 -0.5018 -0.2470 -0.1875
  846MPD2    C312482   0.373   2.889  13.722  0.3190  0.2287  0.3631
  846MPD2    C412483   0.499   2.831  13.760 -0.0360 -0.1891  0.0687
  846MPD2    C512484   0.573   2.774  13.657  0.2040 -0.0831  0.4158
  846MPD2     H12485   0.248   2.937  13.553 -1.0483  0.8336  2.7308
  846MPD2    H112486   0.538   2.838  13.861  2.8326  2.9174 -1.2725
  846MPD2    H212487   0.607   2.737  13.454 -2.1826  1.4875 -2.5688
  846MPD2    H312488   0.667   2.727  13.682  0.4990 -0.6610 -1.7925
  846MPD2     N12489   0.281   2.961  13.808 -1.1631 -0.2798 -0.3071
  846MPD2    H512490   0.190   2.989  13.772 -1.8960 -0.5235  1.3604
  846MPD2    N112491   0.375   2.849  13.360 -0.1235 -0.1988 -0.7360
  846MPD2    H712492   0.295   2.910  13.349 -1.8863 -2.0786  1.6909
  847MPD2     C12493   0.696   3.466  14.591 -0.1128  0.2095  0.2041
  847MPD2    C112494   0.735   3.584  14.531  0.0383 -0.4136  0.2026
  847MPD2    C212495   0.849   3.645  14.573 -0.1467  0.7411 -0.3608
  847MPD2    C312496   0.936   3.591  14.664 -0.5469 -0.6110  0.0050
  847MPD2    C412497   0.902   3.469  14.717 -0.2044 -0.4599  0.2596
  847MPD2    C512498   0.785   3.406  14.675  0.8002 -0.2179 -0.0538
  847MPD2     H12499   0.876   3.747  14.546 -0.2586  1.0429  0.6791
  847MPD2    H112500   0.949   3.415  14.799  0.6916  3.1508  2.0890
  847MPD2    H212501   0.599   3.427  14.564 -1.2826  3.2860 -0.0680
  847MPD2    H312502   0.761   3.313  14.725 -1.6147  0.5109  0.1433
  847MPD2     N12503   1.045   3.675  14.715  0.1659  0.4455  0.2148
  847MPD2    H512504   1.050   3.768  14.675 -0.0541  0.1989 -0.3836
  847MPD2    N112505   0.648   3.658  14.453  0.1608  0.3398  0.3570
  847MPD2    H712506   0.681   3.752  14.432  2.3376 -0.6855 -0.8233
  848MPD2     C12507   4.075   2.626  16.658  0.9241  0.1879 -1.2973
  848MPD2    C112508   3.955   2.647  16.724 -0.0259 -1.1409 -0.7447
  848MPD2    C212509   3.884   2.761  16.696 -0.4557 -0.2578 -0.0231
  848MPD2    C312510   3.909   2.843  16.590 -0.1445  0.0674 -1.2781
  848MPD2    C412511   4.024   2.807  16.519  0.8206  0.4163 -0.5252
  848MPD2    C512512   4.108   2.705  16.554  0.2054  0.4027 -0.9442
  848MPD2     H12513   3.786   2.777  16.740 -0.1588 -2.3127  1.3958
  848MPD2    H112514   4.062   2.849  16.427 -0.4773  2.3647 -0.1565
  848MPD2    H212515   4.138   2.539  16.671  0.0036 -0.7470 -3.0902
  848MPD2    H312516   4.193   2.669  16.497  0.5420  0.3777 -0.4360
  848MPD2     N12517   3.830   2.942  16.547 -0.7575 -0.5810  0.3261
  848MPD2    H512518   3.832   2.967  16.449  3.0477  1.5412  0.9379
  848MPD2    N112519   3.910   2.546  16.805  0.3386  0.1446  0.3875
  848MPD2    H712520   3.984   2.482  16.830  0.7797  0.0624 -1.1537
  849MPD2     C12521   2.138   1.827  14.271 -0.0678  0.3186  0.1654
  849MPD2    C112522   2.262   1.842  14.212  0.5203 -0.4923 -0.2507
  849MPD2    C212523   2.375   1.780  14.261 -0.1740  0.4719  0.5636
  849MPD2    C312524   2.357   1.708  14.377 -0.1494  0.0167  0.4884
  849MPD2    C412525   2.235   1.698  14.445 -0.1293  0.3184  0.3609
  849MPD2    C512526   2.128   1.764  14.393  0.2884  0.2244  0.1208
  849MPD2     H12527   2.471   1.774  14.212 -2.2343  0.9622 -3.5783
  849MPD2    H112528   2.219   1.640  14.536 -0.9926  0.6790  0.4399
  849MPD2    H212529   2.046   1.862  14.227 -0.8288  0.1320  1.6057
  849MPD2    H312530   2.037   1.772  14.452  2.1675  1.0023  2.8929
  849MPD2     N12531   2.475   1.634  14.417 -0.0100  0.4015 -0.5172
  849MPD2    H512532   2.555   1.650  14.358  0.2981  2.7234  0.5204
  849MPD2    N112533   2.264   1.905  14.089  0.6392 -0.2254  0.3419
  849MPD2    H712534   2.176   1.917  14.040  0.1536 -0.4611  1.1559
  850MPD2     C12535   0.789   0.022  14.562 -0.1566 -0.7152 -0.3821
  850MPD2    C112536   0.745   0.077  14.687  0.0959  0.6292 -0.8418
  850MPD2    C212537   0.842   0.131  14.769 -0.3293 -0.1896 -0.5651
  850MPD2    C312538   0.973   0.123  14.728 -0.2464  0.1552 -0.8821
  850MPD2    C412539   1.010   0.075  14.606 -0.4986  0.4160 -0.0078
  850MPD2    C512540   0.919   0.024  14.521  0.2818  0.5552  0.3170
  850MPD2     H12541   0.820   0.161  14.871 -1.8085 -1.3592 -0.5551
  850MPD2    H112542   1.113   0.075  14.572 -0.3457  1.7473  0.4747
  850MPD2    H212543   0.724   4.716  14.486 -2.8410  0.1633  1.4362
  850MPD2    H312544   0.939   4.729  14.419 -0.0284  0.3478  0.3157
  850MPD2     N12545   1.076   0.155  14.820 -0.1731 -0.0300  0.2110
  850MPD2    H512546   1.172   0.138  14.792 -0.6738 -1.0916 -0.8547
  850MPD2    N112547   0.616   0.058  14.724 -0.2555  0.0287  0.5266
  850MPD2    H712548   0.554   4.731  14.674  0.6518 -0.6030  0.1881
  851MPD2     C12549   0.750   4.353  15.244  1.1882 -0.8853 -0.1083
  851MPD2    C112550   0.660   4.324  15.143  0.7536  0.2394 -0.1081
  851MPD2    C212551   0.664   4.200  15.082 -0.6364 -0.7556  0.0906
  851MPD2    C312552   0.759   4.107  15.123  0.9398  0.2117  0.4939
  851MPD2    C412553   0.851   4.137  15.222 -0.2297  0.0499  0.6957
  851MPD2    C512554   0.846   4.261  15.281 -0.0049  0.6758 -0.3768
  851MPD2     H12555   0.583   4.168  15.018 -0.1642  1.6427 -1.6673
  851MPD2    H112556   0.929   4.072  15.258  0.4347  0.3373 -0.2332
  851MPD2    H212557   0.747   4.445  15.301 -0.4815 -0.6029 -0.6575
  851MPD2    H312558   0.933   4.286  15.341 -0.0158 -1.0217  0.3549
  851MPD2     N12559   0.747   3.981  15.059 -0.0159 -0.5206 -0.5175
  851MPD2    H512560   0.667   3.971  14.997 -1.2130 -0.4398  1.0108
  851MPD2    N112561   0.569   4.430  15.122 -0.5653 -0.0809  0.4994
  851MPD2    H712562   0.585   4.516  15.174 -1.6808 -0.6908  1.8699
  852MPD2     C12563   0.974   3.778   9.743  0.1294 -0.4800 -0.2756
  852MPD2    C112564   0.910   3.688   9.830  0.2069 -0.1142 -0.4290
  852MPD2    C212565   0.974   3.568   9.860 -0.4014  0.3996 -0.0281
  852MPD2    C312566   1.108   3.545   9.832  0.5706 -0.2243  0.3049
  852MPD2    C412567   1.176   3.637   9.749 -0.0223 -0.0988  0.2375
  852MPD2    C512568   1.098   3.744   9.709 -0.5376 -0.2441  0.1728
  852MPD2     H12569   0.922   3.503   9.931  0.6888 -2.1675 -1.5925
  852MPD2    H112570   1.275   3.617   9.708 -0.2881  2.7132 -1.7542
  852MPD2    H212571   0.936   3.877   9.720 -2.7691 -1.7991 -1.2546
  852MPD2    H312572   1.143   3.811   9.636 -1.4054 -1.2750 -1.3176
  852MPD2     N12573   1.165   3.422   9.870 -0.5089  0.0724 -0.1465
  852MPD2    H512574   1.102   3.356   9.915 -2.5028  1.6914 -0.5503
  852MPD2    N112575   0.786   3.704   9.885  0.6849 -0.2048  0.1216
  852MPD2    H712576   0.752   3.624   9.938  1.0774  0.3455  1.2130
  853MPD2     C12577   2.343   1.288  12.134 -0.0342 -0.5691  0.0195
  853MPD2    C112578   2.346   1.423  12.164  0.0471  0.0961 -0.0202
  853MPD2    C212579   2.403   1.510  12.070  0.7639 -0.1826 -0.8222
  853MPD2    C312580   2.473   1.462  11.959 -0.7416 -0.2534 -0.1915
  853MPD2    C412581   2.480   1.329  11.937 -0.0068  0.1165 -0.2870
  853MPD2    C512582   2.406   1.250  12.021  0.0531 -0.1012  0.1114
  853MPD2     H12583   2.393   1.617  12.088  0.5840 -0.3249 -0.0538
  853MPD2    H112584   2.537   1.285  11.856  0.9862  0.5322  0.1798
  853MPD2    H212585   2.303   1.211  12.198 -1.8471  1.2909  1.1446
  853MPD2    H312586   2.423   1.143  12.012 -0.3768 -0.1116 -0.5509
  853MPD2     N12587   2.549   1.541  11.875  0.5454  0.0002 -0.9021
  853MPD2    H512588   2.603   1.493  11.803  0.1694 -1.9016  0.0737
  853MPD2    N112589   2.273   1.463  12.278 -0.3300  0.1022  0.1632
  853MPD2    H712590   2.215   1.391  12.320 -1.7968  1.5826  0.6764
  854MPD2     C12591   3.115   1.768  13.045 -0.4274 -0.0016  0.1888
  854MPD2    C112592   3.214   1.863  13.007 -0.7908 -0.0167 -0.3981
  854MPD2    C212593   3.344   1.838  13.046 -0.1657  0.3704  0.7495
  854MPD2    C312594   3.374   1.720  13.115 -0.5665 -0.2528 -0.3634
  854MPD2    C412595   3.278   1.624  13.128 -0.2361 -0.6819 -0.1079
  854MPD2    C512596   3.144   1.644  13.093 -0.2668  0.4945  0.3584
  854MPD2     H12597   3.416   1.918  13.033  1.6523 -1.4505 -0.2350
  854MPD2    H112598   3.305   1.528  13.171 -1.1059 -1.7771 -2.0117
  854MPD2    H212599   3.012   1.799  13.027  0.1116  1.7778  0.1781
  854MPD2    H312600   3.066   1.573  13.119  1.5059 -1.3861  0.5697
  854MPD2     N12601   3.505   1.690  13.159 -0.2520  0.6338  0.2907
  854MPD2    H512602   3.509   1.608  13.218  0.7511  0.2320 -0.3335
  854MPD2    N112603   3.170   1.968  12.932  0.5301 -0.3976  0.0094
  854MPD2    H712604   3.078   1.963  12.890  2.2476 -0.4927 -3.7546
  855MPD2     C12605   3.612   1.253  13.793 -0.0426 -0.9800  0.4251
  855MPD2    C112606   3.737   1.268  13.738 -0.2012 -0.1351 -0.0615
  855MPD2    C212607   3.765   1.383  13.669 -0.2914 -0.2264  0.1656
  855MPD2    C312608   3.674   1.489  13.666  0.6882  0.6084 -0.3707
  855MPD2    C412609   3.553   1.478  13.711 -0.3599 -0.0878  0.2494
  855MPD2    C512610   3.522   1.363  13.779 -0.9967 -0.1517  0.4197
  855MPD2     H12611   3.857   1.383  13.611 -0.6290 -0.8391 -0.3685
  855MPD2    H112612   3.477   1.553  13.697 -1.0463 -0.9862 -0.9238
  855MPD2    H212613   3.573   1.169  13.849  0.1233 -1.1771  0.2433
  855MPD2    H312614   3.428   1.349  13.831 -1.8563 -1.0575 -1.3608
  855MPD2     N12615   3.706   1.603  13.580 -0.6119  0.8588  0.0546
  855MPD2    H512616   3.630   1.664  13.554 -1.9480 -0.9020 -0.1977
  855MPD2    N112617   3.830   1.164  13.747 -0.1292  0.4424  0.2495
  855MPD2    H712618   3.906   1.166  13.680  0.8034  2.4405  1.3754
  856MPD2     C12619   1.867   2.636  13.831 -0.4865 -0.5152  0.5227
  856MPD2    C112620   1.859   2.766  13.872 -0.3799 -0.6220  0.7650
  856MPD2    C212621   1.730   2.817  13.894 -0.2386  0.0680  0.0989
  856MPD2    C312622   1.614   2.739  13.863 -0.1170 -0.3863 -0.3695
  856MPD2    C412623   1.632   2.621  13.799  0.2044  0.2729 -0.3565
  856MPD2    C512624   1.751   2.559  13.796 -0.1396 -0.4452  0.1626
  856MPD2     H12625   1.713   2.921  13.918 -1.9377 -0.1854 -0.0241
  856MPD2    H112626   1.550   2.551  13.787  1.7210 -1.2005 -2.1235
  856MPD2    H212627   1.966   2.590  13.828 -0.3556 -0.2365  0.5377
  856MPD2    H312628   1.754   2.454  13.767  2.4605  0.2337 -2.1180
  856MPD2     N12629   1.488   2.796  13.866 -0.5110 -0.0936  1.3027
  856MPD2    H512630   1.410   2.759  13.813  1.5015  1.1592 -2.4829
  856MPD2    N112631   1.964   2.854  13.902 -0.2315  0.6940 -0.1265
  856MPD2    H712632   1.938   2.947  13.931 -0.7654  0.2386  0.8596
  857MPD2     C12633   3.504   0.608  12.260 -1.0750 -0.3988 -0.0290
  857MPD2    C112634   3.466   0.519  12.357  0.5763 -0.4126  0.0782
  857MPD2    C212635   3.445   0.567  12.488 -0.0452  0.0061 -0.5534
  857MPD2    C312636   3.470   0.698  12.522 -0.3342 -0.4357  0.1231
  857MPD2    C412637   3.510   0.785  12.424 -0.2575  0.2970  0.3982
  857MPD2    C512638   3.522   0.738  12.297  0.7343 -0.0278 -0.0085
  857MPD2     H12639   3.433   0.496  12.570  0.7967 -1.0090 -1.3067
  857MPD2    H112640   3.535   0.887  12.451 -0.4553  0.1386  1.1875
  857MPD2    H212641   3.520   0.587  12.155  2.7114 -2.1530  0.9080
  857MPD2    H312642   3.561   0.807  12.223  1.7776 -3.4240 -2.6567
  857MPD2     N12643   3.455   0.734  12.657 -0.8887  0.0199  0.0049
  857MPD2    H512644   3.429   0.665  12.727 -0.5285  0.0094  0.1336
  857MPD2    N112645   3.463   0.383  12.318 -0.4174  0.2709  0.1824
  857MPD2    H712646   3.493   0.358  12.224 -0.1081  0.0689  0.3359
  858MPD2     C12647   3.794   4.542  16.187 -0.4303 -0.9663 -0.8786
  858MPD2    C112648   3.772   4.431  16.262 -0.6446 -1.0650  0.5350
  858MPD2    C212649   3.721   4.448  16.396 -0.7387  0.5037 -0.3421
  858MPD2    C312650   3.696   4.583  16.435  0.1515 -0.4350  0.7801
  858MPD2    C412651   3.720   4.691  16.346  0.0147 -0.4336 -0.0352
  858MPD2    C512652   3.782   4.669  16.230  0.2625 -0.4261  0.2790
  858MPD2     H12653   3.716   4.361  16.461 -0.2403  0.4998 -0.3088
  858MPD2    H112654   3.701   0.059  16.371 -0.7744  0.0154 -2.4116
  858MPD2    H212655   3.843   4.514  16.094  0.7594  0.0836 -0.5595
  858MPD2    H312656   3.807   0.019  16.169  3.0020 -0.3044  1.5629
  858MPD2     N12657   3.679   4.616  16.566 -0.3641 -0.0816 -0.3000
  858MPD2    H512658   3.647   4.710  16.588 -1.5205 -0.6832  0.5948
  858MPD2    N112659   3.812   4.304  16.208 -0.6760  0.3355  0.3409
  858MPD2    H712660   3.872   4.307  16.127  0.3112  1.8896  1.1308
  859MPD2     C12661   2.494   1.461  15.953 -0.1888 -0.4418  0.2927
  859MPD2    C112662   2.610   1.451  15.882 -0.0433  0.2449 -0.2850
  859MPD2    C212663   2.677   1.332  15.862 -0.0617 -0.0836  0.5071
  859MPD2    C312664   2.637   1.211  15.914 -0.3457  0.8770 -0.5488
  859MPD2    C412665   2.522   1.225  16.002  0.3114  0.1826 -0.2157
  859MPD2    C512666   2.451   1.345  16.019  0.2250  0.3108 -0.3662
  859MPD2     H12667   2.767   1.327  15.801  0.6814 -1.6238  1.7238
  859MPD2    H112668   2.475   1.148  16.062  0.7440  0.2890  0.2693
  859MPD2    H212669   2.434   1.551  15.964  1.6428  0.9945 -1.4478
  859MPD2    H312670   2.359   1.348  16.076  0.7804 -1.3877  0.6290
  859MPD2     N12671   2.696   1.083  15.903 -0.1625 -0.2654 -0.3647
  859MPD2    H512672   2.650   1.009  15.954  0.5599 -0.5646 -0.1391
  859MPD2    N112673   2.652   1.570  15.822 -0.1970  0.2324 -0.0135
  859MPD2    H712674   2.584   1.645  15.828  0.0942  0.4232  0.8401
  860MPD2     C12675   0.230   1.409  11.817  0.1082 -0.1743 -0.0357
  860MPD2    C112676   0.196   1.540  11.846  0.0748 -0.6451 -0.1146
  860MPD2    C212677   0.082   1.562  11.923 -0.1280  0.1296  0.0190
  860MPD2    C312678   0.008   1.457  11.973 -0.0496  0.1884 -1.1591
  860MPD2    C412679   0.039   1.328  11.941 -0.3281 -0.0935  0.0150
  860MPD2    C512680   0.151   1.310  11.868  0.2444  0.5996  0.4953
  860MPD2     H12681   0.046   1.662  11.941 -4.1716 -1.1808 -0.7036
  860MPD2    H112682   4.734   1.238  11.984 -0.0135 -0.1319  0.2338
  860MPD2    H212683   0.318   1.377  11.762  1.2213  1.6643  0.6701
  860MPD2    H312684   0.181   1.208  11.845 -0.6931  0.5985 -0.7505
  860MPD2     N12685   4.645   1.488  12.075 -0.0117 -1.2050  0.4468
  860MPD2    H512686   4.635   1.588  12.087 -0.7477 -1.3770  1.3062
  860MPD2    N112687   0.290   1.645  11.825  0.3896 -0.4334 -0.5433
  860MPD2    H712688   0.267   1.732  11.873  2.0756 -0.0096 -0.4979
  861MPD2     C12689   3.888   0.013  10.787  0.0317 -0.1136  0.5782
  861MPD2    C112690   3.769   0.065  10.840  0.2598  0.0231 -0.2094
  861MPD2    C212691   3.690   0.147  10.761  0.2451 -0.7308 -0.1397
  861MPD2    C312692   3.732   0.178  10.633  1.0304  0.3557  0.7124
  861MPD2    C412693   3.853   0.135  10.585  0.1505  0.2916  0.5397
  861MPD2    C512694   3.923   0.052  10.664  0.2905  0.6215 -0.4317
  861MPD2     H12695   3.597   0.176  10.810 -0.0070  0.8811 -1.5855
  861MPD2    H112696   3.893   0.158  10.487 -1.7866  0.4806 -0.2034
  861MPD2    H212697   3.958   4.680  10.832  0.6657 -0.1903 -0.5305
  861MPD2    H312698   4.021   0.012  10.639  0.2291 -0.5370  1.1640
  861MPD2     N12699   3.652   0.264  10.547 -0.1774  0.1558 -0.0501
  861MPD2    H512700   3.684   0.277  10.451  0.2305 -2.5826 -0.3053
  861MPD2    N112701   3.733   0.041  10.977  0.1616 -0.5083 -0.5167
  861MPD2    H712702   3.647   0.084  11.010  0.7776  3.0621 -3.5005
  862MPD2     C12703   3.227   0.116  10.036  0.1468 -0.6570  0.0913
  862MPD2    C112704   3.357   0.100  10.095  0.0945 -0.3751  0.0668
  862MPD2    C212705   3.391   4.714  10.135 -0.0395  0.1931 -0.1260
  862MPD2    C312706   3.306   4.607  10.126  0.2384  0.0176  0.7278
  862MPD2    C412707   3.183   4.619  10.064  0.2250 -0.8152  0.0754
  862MPD2    C512708   3.150   0.005  10.014 -0.0690  0.2073  0.5305
  862MPD2     H12709   3.482   4.708  10.194 -0.1054  0.5776  0.0167
  862MPD2    H112710   3.111   4.539  10.055 -0.2713 -0.3363 -0.2171
  862MPD2    H212711   3.186   0.212  10.007  0.2970 -0.8884 -0.8648
  862MPD2    H312712   3.052   0.014   9.969  1.0492  0.1413 -1.8752
  862MPD2     N12713   3.325   4.491  10.201 -0.3215  0.5922  0.5089
  862MPD2    H512714   3.243   4.432  10.215  1.5896 -1.9889  0.7610
  862MPD2    N112715   3.437   0.207  10.138 -0.3965 -0.7136 -0.1746
  862MPD2    H712716   3.531   0.190  10.170 -2.0414 -0.2973  4.8444
  863MPD2     C12717   2.158   2.973  16.598  0.4175  0.4166  0.4897
  863MPD2    C112718   2.195   3.102  16.615 -0.1729  0.2448 -0.1305
  863MPD2    C212719   2.284   3.131  16.721 -0.2573 -0.7994  0.4703
  863MPD2    C312720   2.341   3.034  16.796 -0.0496  0.2128  0.4297
  863MPD2    C412721   2.317   2.907  16.765 -0.0407  0.0315 -0.1529
  863MPD2    C512722   2.228   2.876  16.666 -0.6845 -0.3219 -0.2155
  863MPD2     H12723   2.318   3.232  16.739  1.2644 -1.6244  2.1916
  863MPD2    H112724   2.369   2.829  16.819 -2.6673 -1.5129  0.1753
  863MPD2    H212725   2.084   2.954  16.521  0.3657  0.8094  0.4382
  863MPD2    H312726   2.199   2.775  16.639  0.3850  0.2824 -3.6627
  863MPD2     N12727   2.437   3.050  16.898  0.2580  0.5313  0.2007
  863MPD2    H512728   2.470   2.970  16.951  0.4799  1.5545  1.6041
  863MPD2    N112729   2.140   3.198  16.527  0.3325 -0.1518  0.0423
  863MPD2    H712730   2.095   3.164  16.443  0.2003 -0.3870  0.2100
  864MPD2     C12731   2.589   4.331  17.371  0.5024  0.7365 -0.0625
  864MPD2    C112732   2.684   4.285  17.290  0.0774  0.5889 -0.2586
  864MPD2    C212733   2.764   4.366  17.220 -0.8712 -0.4244 -0.1191
  864MPD2    C312734   2.756   4.502  17.233 -0.2676 -0.4150  0.7980
  864MPD2    C412735   2.663   4.553  17.319  0.0613 -0.0521 -0.3097
  864MPD2    C512736   2.577   4.465  17.387  0.2812 -0.0520  1.5613
  864MPD2     H12737   2.832   4.325  17.146  2.4048  1.1408  2.0455
  864MPD2    H112738   2.642   4.659  17.335 -0.1099  0.0247 -1.0212
  864MPD2    H212739   2.518   4.270  17.426 -1.0844  1.4854 -1.2648
  864MPD2    H312740   2.501   4.504  17.454 -0.9488 -0.9765  0.6952
  864MPD2     N12741   2.845   4.597  17.164  0.6670 -0.5108  0.3316
  864MPD2    H512742   2.825   4.696  17.175 -0.1832 -1.0041  3.3768
  864MPD2    N112743   2.684   4.144  17.264  0.4982  0.0221  0.8723
  864MPD2    H712744   2.607   4.096  17.310  0.3039 -1.0315 -0.5371
  865MPD2     C12745   3.007   0.173  16.316 -0.1128  0.0340 -0.2591
  865MPD2    C112746   2.979   0.047  16.365  0.8502  0.3075  0.2727
  865MPD2    C212747   2.942   0.046  16.499  0.5762 -0.8868 -0.5605
  865MPD2    C312748   2.953   0.155  16.582  1.1236 -0.2540  0.2876
  865MPD2    C412749   2.978   0.282  16.526  0.1766  0.5201  0.2060
  865MPD2    C512750   3.001   0.287  16.385  0.1269  0.5450 -0.1745
  865MPD2     H12751   2.925   4.686  16.546  1.8385 -0.8070  0.0500
  865MPD2    H112752   2.991   0.372  16.585  0.6975  1.3675 -1.1989
  865MPD2    H212753   3.039   0.188  16.213 -0.2841 -0.3078 -0.3638
  865MPD2    H312754   3.021   0.387  16.348 -0.4036  0.9185  0.5169
  865MPD2     N12755   2.938   0.134  16.719  0.6798  0.7351 -0.6716
  865MPD2    H512756   2.941   0.036  16.748 -1.5695  0.7843 -0.2800
  865MPD2    N112757   2.987   4.670  16.283  0.7662  0.2998 -0.0291
  865MPD2    H712758   3.034   4.690  16.195  0.9532  0.6272  0.1476
  866MPD2     C12759   4.304   4.619  11.094  0.2063  0.4928 -0.0071
  866MPD2    C112760   4.364   4.700  10.999 -0.3343  0.4888  0.0019
  866MPD2    C212761   4.297   0.081  10.963  0.8484 -0.1856 -0.2108
  866MPD2    C312762   4.173   0.113  11.013  0.2049  0.0624  0.0559
  866MPD2    C412763   4.116   0.027  11.102 -0.8484 -0.2258 -0.8974
  866MPD2    C512764   4.180   4.651  11.145 -0.9915 -0.2713  0.1621
  866MPD2     H12765   4.334   0.145  10.884  0.0177  0.3907 -0.1284
  866MPD2    H112766   4.019   0.046  11.146 -0.1368 -2.4673  1.7005
  866MPD2    H212767   4.362   4.538  11.136  0.0474  0.2490 -0.2544
  866MPD2    H312768   4.143   4.585  11.223  2.5774 -0.0376  2.0574
  866MPD2     N12769   4.088   0.220  10.979  0.5949  0.0127  0.0697
  866MPD2    H512770   3.997   0.220  11.024  1.6088  0.6431  2.1113
  866MPD2    N112771   4.500   4.669  10.966  0.4537  1.1941  0.0011
  866MPD2    H712772   4.546   4.594  11.016  0.3530 -0.5325 -2.4523
  867MPD2     C12773   1.657   4.290  16.230 -0.6178  0.1708 -0.4290
  867MPD2    C112774   1.743   4.305  16.339 -0.5653 -0.2176  0.6480
  867MPD2    C212775   1.725   4.427  16.410  0.5114 -0.1757  0.3050
  867MPD2    C312776   1.633   4.522  16.370 -0.1297  0.1185  0.8058
  867MPD2    C412777   1.551   4.498  16.266  0.5299 -0.6694 -0.0795
  867MPD2    C512778   1.560   4.377  16.199  0.2007 -0.4219 -0.2227
  867MPD2     H12779   1.784   4.455  16.496  2.8590 -1.0504 -1.0167
  867MPD2    H112780   1.478   4.573  16.240  1.3873  0.5740  1.0718
  867MPD2    H212781   1.657   4.197  16.175 -2.5371  0.0778 -0.2843
  867MPD2    H312782   1.503   4.352  16.110 -0.2444 -0.3972  0.0576
  867MPD2     N12783   1.607   4.644  16.435 -0.0616  0.5223 -0.0218
  867MPD2    H512784   1.542   4.705  16.386  0.8227 -1.0008 -3.0850
  867MPD2    N112785   1.854   4.218  16.371 -0.2994 -0.2182  0.0714
  867MPD2    H712786   1.861   4.136  16.311 -1.2401  0.5006 -1.0159
  868MPD2     C12787   3.668   3.858  12.818  0.1252 -0.2325 -0.2295
  868MPD2    C112788   3.655   3.724  12.816 -0.3966  0.4103  0.0436
  868MPD2    C212789   3.553   3.675  12.891  0.6297 -0.0181  0.0863
  868MPD2    C312790   3.454   3.751  12.955 -0.3822  0.3273  0.5409
  868MPD2    C412791   3.469   3.889  12.950  0.1431 -0.0682 -0.0912
  868MPD2    C512792   3.579   3.939  12.878 -0.5908 -0.7621 -0.2181
  868MPD2     H12793   3.544   3.567  12.899  1.3976 -0.0302  0.8321
  868MPD2    H112794   3.406   3.965  12.997  0.7704  0.5535 -0.2594
  868MPD2    H212795   3.739   3.906  12.752  2.5853 -1.8938  1.2069
  868MPD2    H312796   3.588   4.045  12.854  1.2281 -1.0807 -0.9834
  868MPD2     N12797   3.344   3.680  13.012 -0.9987  0.6478  0.4508
  868MPD2    H512798   3.353   3.579  13.008  0.6329  0.7064  2.8146
  868MPD2    N112799   3.746   3.650  12.734 -0.2463  0.5398 -0.1099
  868MPD2    H712800   3.812   3.708  12.682 -2.8734  2.2937 -1.4805
  869MPD2     C12801   4.405   1.422  17.684  0.1500  0.2630 -0.3336
  869MPD2    C112802   4.331   1.436   0.063 -0.1200 -0.0092 -0.1416
  869MPD2    C212803   4.396   1.486   0.179 -0.6745 -0.0946 -0.2629
  869MPD2    C312804   4.533   1.512   0.172  0.2451 -0.5648 -0.3189
  869MPD2    C412805   4.606   1.492   0.052 -0.4467 -0.2367  0.2532
  869MPD2    C512806   4.536   1.454  17.678 -0.4435  0.4575 -0.1227
  869MPD2     H12807   4.336   1.517   0.263  0.2250  4.0384 -1.1371
  869MPD2    H112808   4.696   1.550   0.039 -0.9745  0.3382 -0.8554
  869MPD2    H212809   4.374   1.384  17.587  2.1782  0.2935 -0.9989
  869MPD2    H312810   4.589   1.441  17.584 -1.7512 -2.5665 -0.4523
  869MPD2     N12811   4.596   1.588   0.275 -0.3648  0.9108 -0.4292
  869MPD2    H512812   4.695   1.610   0.271 -0.0515 -0.2403  0.8161
  869MPD2    N112813   4.195   1.397   0.067  0.1090  0.0297 -0.1449
  869MPD2    H712814   4.155   1.391  17.715  0.4148 -0.3406 -0.2527
  870MPD2     C12815   0.069   0.639   1.392  0.4744  0.9915 -0.0714
  870MPD2    C112816   4.722   0.559   1.318 -0.2498  0.4694 -0.2743
  870MPD2    C212817   4.595   0.612   1.293 -0.4169  0.2574 -0.4531
  870MPD2    C312818   4.547   0.730   1.351  0.1247  0.2467 -0.4260
  870MPD2    C412819   4.633   0.797   1.435  0.0798  0.2934 -0.2775
  870MPD2    C512820   0.027   0.749   1.457 -0.2575 -0.2584  0.0042
  870MPD2     H12821   4.523   0.547   1.245  1.3132 -1.8148 -0.2999
  870MPD2    H112822   4.607   0.890   1.484  0.6428 -0.6376  1.8002
  870MPD2    H212823   0.169   0.598   1.398 -0.4647 -1.2609  0.0261
  870MPD2    H312824   0.092   0.804   1.524 -0.2630 -0.3806  0.1112
  870MPD2     N12825   4.410   0.764   1.341 -0.0978  0.3988 -0.2183
  870MPD2    H512826   4.355   0.726   1.265 -1.6255  1.5226  0.3346
  870MPD2    N112827   0.031   0.430   1.283 -0.7517  0.2606 -0.0327
  870MPD2    H712828   0.120   0.402   1.324 -0.8139  0.3961  0.1946
  871MPD2     C12829   0.361   0.255  16.351 -0.3401  0.0244  0.1588
  871MPD2    C112830   0.280   0.181  16.432  0.8562 -0.4560 -0.8195
  871MPD2    C212831   0.248   0.054  16.393 -0.2559  0.3352 -0.0803
  871MPD2    C312832   0.303   0.004  16.275  0.2140  0.3275  0.4271
  871MPD2    C412833   0.368   0.086  16.186  0.3745 -0.3452 -0.8152
  871MPD2    C512834   0.401   0.211  16.229  0.5331  0.2652 -0.1236
  871MPD2     H12835   0.200   4.728  16.469 -0.0747 -1.1521 -1.1789
  871MPD2    H112836   0.400   0.051  16.089  1.5536 -1.0745 -0.1547
  871MPD2    H212837   0.397   0.354  16.378 -0.5522  0.5570 -1.5638
  871MPD2    H312838   0.471   0.272  16.173  1.0496 -0.3954 -0.1973
  871MPD2     N12839   0.296   4.601  16.266 -0.0841  0.1976 -0.5329
  871MPD2    H512840   0.242   4.564  16.343  0.3320  0.2872 -0.1929
  871MPD2    N112841   0.224   0.244  16.543  0.5365  0.4553  0.0895
  871MPD2    H712842   0.265   0.336  16.557 -0.1017  0.7852 -0.2396
  872MPD2     C12843   1.412   2.334  13.208  0.1698  0.2161 -0.6219
  872MPD2    C112844   1.519   2.315  13.294 -0.0380  0.0862  0.3471
  872MPD2    C212845   1.491   2.307  13.434  0.0791 -0.3791  0.4180
  872MPD2    C312846   1.362   2.296  13.482 -0.5457  0.3751  0.4472
  872MPD2    C412847   1.261   2.304  13.388  0.3265 -0.4422 -0.6545
  872MPD2    C512848   1.284   2.330  13.257  0.5881  0.8338 -0.3872
  872MPD2     H12849   1.572   2.306  13.506 -0.2183 -0.5397  0.7513
  872MPD2    H112850   1.158   2.287  13.416  0.1725  0.4365 -0.6948
  872MPD2    H212851   1.424   2.346  13.101  1.0363 -1.0604 -0.6699
  872MPD2    H312852   1.201   2.337  13.188  1.0281 -0.8191 -1.0850
  872MPD2     N12853   1.331   2.293  13.625  0.3054  0.3902 -0.8685
  872MPD2    H512854   1.403   2.262  13.689  0.3529 -0.8670 -1.5142
  872MPD2    N112855   1.657   2.316  13.244 -0.0266  0.4881 -0.2361
  872MPD2    H712856   1.733   2.311  13.311  0.3750 -0.5756 -0.7679
  873MPD2     C12857   2.878   2.411   0.493 -0.5022 -0.0106  0.3835
  873MPD2    C112858   2.872   2.321   0.599  0.1478 -0.1861 -0.2474
  873MPD2    C212859   2.888   2.183   0.584 -0.8842  0.3862 -0.5628
  873MPD2    C312860   2.901   2.130   0.451 -0.0159  0.5451 -0.1591
  873MPD2    C412861   2.898   2.218   0.342  0.6103  0.1350  0.2304
  873MPD2    C512862   2.901   2.354   0.364 -0.3592  0.0317 -0.2952
  873MPD2     H12863   2.879   2.115   0.668  0.7483  1.2008  0.2741
  873MPD2    H112864   2.889   2.193   0.237 -2.9501  1.6249  0.1613
  873MPD2    H212865   2.874   2.517   0.515 -2.2538 -0.1186  0.5477
  873MPD2    H312866   2.914   2.424   0.282 -1.2313 -0.7056 -1.0673
  873MPD2     N12867   2.893   1.989   0.424 -0.3481  0.2297  0.5402
  873MPD2    H512868   2.863   1.960   0.331  0.7301 -2.1587  0.9524
  873MPD2    N112869   2.867   2.373   0.725 -0.2613  0.4891 -0.4498
  873MPD2    H712870   2.853   2.473   0.734 -0.0983  0.4489  0.2818
  874MPD2     C12871   3.117   2.431  16.249  0.0261 -0.1271 -0.4579
  874MPD2    C112872   3.116   2.441  16.379  0.1670 -0.0686  0.2424
  874MPD2    C212873   3.195   2.537  16.441  0.0186  0.3923 -0.1168
  874MPD2    C312874   3.264   2.629  16.361  0.4663  0.2133 -0.1129
  874MPD2    C412875   3.263   2.620  16.224  0.0387  0.1775  0.6415
  874MPD2    C512876   3.198   2.506  16.176  0.0891  0.3960 -0.1206
  874MPD2     H12877   3.191   2.561  16.546 -1.1763 -0.2227 -0.0209
  874MPD2    H112878   3.304   2.691  16.154 -0.3197 -1.4584 -1.2143
  874MPD2    H212879   3.058   2.357  16.195  0.0878  0.1843 -0.9576
  874MPD2    H312880   3.179   2.501  16.070  0.3014  0.1561 -0.1466
  874MPD2     N12881   3.336   2.740  16.419 -0.6378  0.6163 -0.1424
  874MPD2    H512882   3.332   2.747  16.520 -1.1626 -0.9732 -0.0536
  874MPD2    N112883   3.022   2.365  16.450 -0.3054  0.2510 -0.1564
  874MPD2    H712884   2.983   2.285  16.400 -0.4279 -0.3732  0.9360
  875MPD2     C12885   4.246   0.486  14.473  0.2167 -0.6567 -0.0634
  875MPD2    C112886   4.134   0.553  14.530  0.9801 -0.4018 -0.3369
  875MPD2    C212887   4.142   0.627  14.652 -0.0544  0.1553 -0.3554
  875MPD2    C312888   4.260   0.647  14.712 -0.0210 -0.1994  0.1541
  875MPD2    C412889   4.371   0.597  14.648 -0.0725  0.4526  0.0898
  875MPD2    C512890   4.363   0.508  14.541  0.3713 -0.2829  0.4571
  875MPD2     H12891   4.050   0.672  14.689 -0.1770 -0.6638  0.3379
  875MPD2    H112892   4.466   0.610  14.698 -0.5093 -1.1899  1.3525
  875MPD2    H212893   4.232   0.427  14.383  0.7860 -1.4221  0.3459
  875MPD2    H312894   4.454   0.473  14.494 -0.3249 -2.1097  0.4795
  875MPD2     N12895   4.278   0.723  14.831  0.8340  0.5367 -0.4281
  875MPD2    H512896   4.375   0.742  14.857 -0.1881  1.6383  2.5225
  875MPD2    N112897   4.007   0.555  14.473 -0.0665 -0.2370  0.0178
  875MPD2    H712898   3.945   0.629  14.506 -0.7414 -1.4151  1.3536
  876MPD2     C12899   2.569   1.952  16.047 -0.2900 -0.3608  0.4019
  876MPD2    C112900   2.698   1.941  15.999 -0.0152  0.1602 -0.5817
  876MPD2    C212901   2.776   1.839  16.047  0.0435 -0.2375  0.2545
  876MPD2    C312902   2.713   1.743  16.130 -0.5149  0.1232 -0.3563
  876MPD2    C412903   2.584   1.748  16.158 -0.4626 -0.5418  0.0056
  876MPD2    C512904   2.512   1.859  16.129 -0.2648  0.3562  0.4219
  876MPD2     H12905   2.880   1.827  16.021  0.4174  0.6783  1.3131
  876MPD2    H112906   2.536   1.672  16.218 -1.1534  0.5526  0.8450
  876MPD2    H212907   2.512   2.041  16.021 -1.5507  0.0700  4.6457
  876MPD2    H312908   2.409   1.871  16.160 -1.3000 -1.4727 -2.2286
  876MPD2     N12909   2.799   1.632  16.161 -0.0547  0.3022  0.1474
  876MPD2    H512910   2.888   1.628  16.112  0.3726  1.6419  0.8169
  876MPD2    N112911   2.742   2.040  15.914  0.0570 -0.3507 -0.2656
  876MPD2    H712912   2.681   2.109  15.872  0.4841  0.1649 -0.0320
  877MPD2     C12913   2.629   2.352  15.224 -0.1110  0.0732 -0.2359
  877MPD2    C112914   2.762   2.337  15.237 -0.5452 -0.0023  0.4806
  877MPD2    C212915   2.846   2.369  15.129 -0.5225 -0.1310  0.4104
  877MPD2    C312916   2.796   2.402  15.002 -0.2310  0.3464 -0.7093
  877MPD2    C412917   2.655   2.406  14.989  0.1708 -1.1177 -0.2459
  877MPD2    C512918   2.580   2.386  15.100 -0.5954  0.0131  0.3604
  877MPD2     H12919   2.952   2.356  15.148 -0.1385 -1.0533 -2.3555
  877MPD2    H112920   2.601   2.405  14.894 -1.8169 -0.2878  0.8678
  877MPD2    H212921   2.560   2.338  15.307  0.7226 -4.0047 -0.2293
  877MPD2    H312922   2.472   2.386  15.097 -0.6394  0.2070  2.1802
  877MPD2     N12923   2.879   2.428  14.893  0.0012  0.4029  0.2429
  877MPD2    H512924   2.843   2.446  14.800 -1.6559 -2.1969  0.3864
  877MPD2    N112925   2.823   2.301  15.359 -0.2769  0.0375 -0.2449
  877MPD2    H712926   2.924   2.309  15.362 -0.5365  2.0580  2.2626
  878MPD2     C12927   1.924   1.629  13.222 -0.4715 -0.3748  0.1747
  878MPD2    C112928   2.055   1.664  13.209  0.1558 -0.3458  0.9806
  878MPD2    C212929   2.133   1.662  13.316  0.0054  0.5324  0.5860
  878MPD2    C312930   2.078   1.651  13.444  0.5104 -0.1524  0.2589
  878MPD2    C412931   1.939   1.650  13.459  0.4753 -0.0994 -0.6508
  878MPD2    C512932   1.861   1.629  13.351  0.1896 -0.6047  0.0172
  878MPD2     H12933   2.236   1.696  13.312  0.6966 -1.9163 -2.5334
  878MPD2    H112934   1.896   1.627  13.556 -3.7922 -1.8703 -2.9251
  878MPD2    H212935   1.864   1.616  13.132  0.3958 -0.9683 -0.3263
  878MPD2    H312936   1.756   1.606  13.353 -0.6753  3.2644 -2.2940
  878MPD2     N12937   2.171   1.664  13.551 -0.0568  0.0973  0.8965
  878MPD2    H512938   2.267   1.664  13.519 -0.5963 -0.3293 -0.7088
  878MPD2    N112939   2.115   1.696  13.087 -0.1743 -0.0960 -0.1163
  878MPD2    H712940   2.209   1.735  13.084 -1.3893  2.7067 -1.7032
  879MPD2     C12941   2.812   3.225  16.771 -0.1444 -0.7421 -1.0053
  879MPD2    C112942   2.849   3.120  16.848  0.9580  0.1173 -0.2178
  879MPD2    C212943   2.786   3.003  16.829 -0.6645  0.5620  0.5558
  879MPD2    C312944   2.698   2.982  16.721  1.0479  0.6780 -0.2133
  879MPD2    C412945   2.652   3.090  16.647 -0.4644 -0.7920 -0.1674
  879MPD2    C512946   2.720   3.208  16.673 -0.0918  0.4227  0.1654
  879MPD2     H12947   2.821   2.916  16.883 -0.6605  1.3211  1.7875
  879MPD2    H112948   2.585   3.076  16.563 -0.3701 -0.1770 -0.3436
  879MPD2    H212949   2.856   3.324  16.779 -1.4908 -0.3317  1.0299
  879MPD2    H312950   2.708   3.286  16.599 -0.3683 -0.3332 -0.5847
  879MPD2     N12951   2.651   2.859  16.674  0.4554 -0.3359  0.5095
  879MPD2    H512952   2.586   2.864  16.597 -1.5254 -0.0858  2.1872
  879MPD2    N112953   2.958   3.131  16.936  0.0419  0.7071 -0.4584
  879MPD2    H712954   3.013   3.216  16.929  0.6379  0.4313  0.8492
  880MPD2     C12955   3.934   4.620   0.419 -0.4632  0.3867  0.3033
  880MPD2    C112956   4.025   4.720   0.443 -0.4496  0.3749  0.2122
  880MPD2    C212957   4.142   4.686   0.506  0.6384 -0.6156 -0.0427
  880MPD2    C312958   4.169   4.554   0.544  0.5460  0.3366 -1.1182
  880MPD2    C412959   4.079   4.461   0.508 -0.1232 -0.5361  0.0923
  880MPD2    C512960   3.961   4.494   0.455  0.1433 -0.5120  0.3192
  880MPD2     H12961   4.200   0.030   0.551 -0.5015 -0.7704  1.7278
  880MPD2    H112962   4.094   4.357   0.536  2.5775  0.4967  2.4365
  880MPD2    H212963   3.845   4.650   0.364  0.3920  0.8427 -0.8500
  880MPD2    H312964   3.877   4.425   0.449 -0.7758  0.7246 -0.8117
  880MPD2     N12965   4.296   4.528   0.603  0.3160  0.1490  0.5883
  880MPD2    H512966   4.357   4.607   0.620 -3.0288  3.1323 -1.3678
  880MPD2    N112967   3.987   0.114   0.402 -0.6582 -0.3390  0.5671
  880MPD2    H712968   3.888   0.134   0.396 -0.2507  0.3485 -3.3699
  881MPD2     C12969   4.285   1.055  17.716  0.0288  0.0141 -0.6784
  881MPD2    C112970   4.204   0.962  17.656  0.1555 -0.4481 -0.9495
  881MPD2    C212971   4.150   0.867  17.738 -0.1372 -0.4501 -0.2668
  881MPD2    C312972   4.159   0.875   0.138  0.8937 -0.3137  0.1933
  881MPD2    C412973   4.224   0.986   0.191  0.5914 -0.9415 -0.1988
  881MPD2    C512974   4.288   1.077   0.110 -0.1816 -0.0887  0.2805
  881MPD2     H12975   4.095   0.782  17.698 -1.6077  0.9074 -1.1136
  881MPD2    H112976   4.229   1.024   0.292 -0.4063  0.7415 -0.7762
  881MPD2    H212977   4.335   1.127  17.652 -0.1185 -2.2338 -3.3382
  881MPD2    H312978   4.332   1.166   0.154 -0.1050  0.8013 -1.5972
  881MPD2     N12979   4.103   0.776   0.232 -0.9819  0.6374  0.6862
  881MPD2    H512980   4.119   0.799   0.330  1.2037  1.8262  0.0437
  881MPD2    N112981   4.233   0.948  17.517 -0.2829 -0.3474  0.2186
  881MPD2    H712982   4.299   1.015  17.479 -0.9983 -0.4451 -1.1652
  882MPD2     C12983   2.996   2.098  14.200 -1.0632  0.3330 -0.3794
  882MPD2    C112984   2.949   2.222  14.244  1.3384  0.9229  0.2034
  882MPD2    C212985   2.838   2.282  14.183 -0.5743  0.3616 -0.1545
  882MPD2    C312986   2.788   2.225  14.068  0.1519  0.0890 -0.0226
  882MPD2    C412987   2.838   2.097  14.031  0.1741  1.3408 -0.5086
  882MPD2    C512988   2.934   2.032  14.098 -0.6742 -0.3336 -0.0898
  882MPD2     H12989   2.796   2.375  14.221 -1.4756  0.2537 -0.8664
  882MPD2    H112990   2.785   2.043  13.954  0.4325  0.0356  0.2313
  882MPD2    H212991   3.081   2.049  14.246 -0.0090  1.4873 -1.0941
  882MPD2    H312992   2.964   1.932  14.068  0.9621  0.1651 -0.0936
  882MPD2     N12993   2.679   2.281  13.992 -0.0820 -0.7389  0.1796
  882MPD2    H512994   2.630   2.215  13.933 -0.3460  0.0467 -0.4820
  882MPD2    N112995   2.992   2.269  14.367  0.3330 -0.2584  0.2025
  882MPD2    H712996   3.048   2.205  14.422  1.6078  0.3085 -0.4080
  883MPD2     C12997   4.612   2.350  15.999 -0.1496 -0.7623  0.1806
  883MPD2    C112998   0.003   2.400  15.966  0.4138 -0.2796  0.6833
  883MPD2    C212999   0.090   2.432  16.065 -0.2735 -0.0214  0.1345
  883MPD2    C313000   0.066   2.411  16.202 -0.2566 -0.4304  0.0337
  883MPD2    C413001   4.683   2.348  16.237  0.2004 -0.4089  0.2439
  883MPD2    C513002   4.593   2.317  16.133 -0.6948 -0.5155  0.0200
  883MPD2     H13003   0.183   2.478  16.036 -0.4398  0.1631 -0.0988
  883MPD2    H113004   4.649   2.327  16.338 -0.9397 -0.8647 -0.2348
  883MPD2    H213005   4.538   2.314  15.928  1.5223 -0.3186 -1.7907
  883MPD2    H313006   4.504   2.259  16.154 -0.5504 -0.9327 -0.5165
  883MPD2     N13007   0.173   2.431  16.287 -0.5423 -0.5219  0.1744
  883MPD2    H513008   0.263   2.453  16.246  0.9022 -0.4016  3.3631
  883MPD2    N113009   0.043   2.425  15.832 -0.3541 -0.0133 -0.1590
  883MPD2    H713010   0.139   2.457  15.825  0.2648 -1.9686 -0.5356
  884MPD2     C13011   2.288   3.225  15.093 -0.0815 -0.2878  0.3411
  884MPD2    C113012   2.236   3.274  14.970 -0.2367 -1.0610  0.1890
  884MPD2    C213013   2.100   3.296  14.964 -0.0724 -0.0396 -0.0933
  884MPD2    C313014   2.009   3.260  15.066 -0.4595 -0.6919  0.5093
  884MPD2    C413015   2.064   3.215  15.180  0.4205 -0.1835 -0.3420
  884MPD2    C513016   2.200   3.199  15.196  0.4759  0.5861 -0.6308
  884MPD2     H13017   2.060   3.330  14.869 -2.0507  1.2379  1.2107
  884MPD2    H113018   2.012   3.191  15.273 -0.2438 -1.7855 -1.1385
  884MPD2    H213019   2.395   3.222  15.115 -0.3452 -0.9306  1.5317
  884MPD2    H313020   2.244   3.159  15.286  0.9516 -1.0455 -1.5895
  884MPD2     N13021   1.868   3.269  15.044  0.7153  0.2195  0.5017
  884MPD2    H513022   1.845   3.290  14.947 -1.3056  1.0229  1.1450
  884MPD2    N113023   2.313   3.304  14.854 -0.1707 -0.2209  0.7526
  884MPD2    H713024   2.278   3.361  14.778  0.7028 -0.6998 -0.0119
  885MPD2     C13025   4.627   3.924   0.446 -0.2618 -0.2602  0.0035
  885MPD2    C113026   4.718   3.831   0.396  0.2715  0.1338  0.5537
  885MPD2    C213027   4.716   3.806   0.259  0.5698 -0.4535 -0.0135
  885MPD2    C313028   4.621   3.865   0.174 -0.1799  0.7884 -0.4771
  885MPD2    C413029   4.542   3.960   0.231  0.3519 -0.0117  0.0482
  885MPD2    C513030   4.552   3.990   0.362  0.2997  0.1650 -0.0015
  885MPD2     H13031   0.044   3.736   0.207 -1.4888 -2.0054 -0.4558
  885MPD2    H113032   4.462   4.007   0.174 -1.2146 -2.6370  0.0807
  885MPD2    H213033   4.632   3.957   0.548  3.0212  0.7354 -0.4843
  885MPD2    H313034   4.494   4.070   0.407 -1.1699 -0.3729 -0.9357
  885MPD2     N13035   4.617   3.825   0.040 -0.0367  0.1836 -0.4190
  885MPD2    H513036   4.680   3.752   0.009 -0.0480 -0.1842  0.4513
  885MPD2    N113037   0.063   3.767   0.484 -0.1270 -0.0950 -0.7605
  885MPD2    H713038   0.056   3.793   0.582 -1.3603 -0.9380 -0.6390
  886MPD2     C13039   1.516   1.704  15.159 -0.2377 -0.0087 -0.2386
  886MPD2    C113040   1.654   1.714  15.192  0.1321  0.0917 -0.6829
  886MPD2    C213041   1.714   1.836  15.154 -0.5890 -0.2773  0.0484
  886MPD2    C313042   1.641   1.943  15.110 -0.1595 -0.3178  0.1387
  886MPD2    C413043   1.513   1.929  15.071 -0.6542  0.8339 -0.1354
  886MPD2    C513044   1.453   1.812  15.101 -0.3304 -0.0836  0.6834
  886MPD2     H13045   1.819   1.855  15.173 -0.9129  1.3559  0.1872
  886MPD2    H113046   1.452   2.015  15.046 -0.4595  1.1381  0.4425
  886MPD2    H213047   1.453   1.619  15.182 -1.3334  1.2876  1.5641
  886MPD2    H313048   1.347   1.813  15.079  0.1005 -3.0639 -1.4989
  886MPD2     N13049   1.696   2.076  15.110 -0.0635 -0.1447  0.2819
  886MPD2    H513050   1.641   2.153  15.072 -1.2950 -1.5735 -0.8282
  886MPD2    N113051   1.726   1.600  15.245  0.3532  0.1354  0.3511
  886MPD2    H713052   1.825   1.614  15.263  0.4850 -1.5529  0.9437
  887MPD2     C13053   2.197   1.661  15.792 -0.2717  0.1304  0.0221
  887MPD2    C113054   2.163   1.681  15.659 -0.2604 -0.0351  0.2531
  887MPD2    C213055   2.208   1.797  15.598 -0.1901  0.3728 -0.6357
  887MPD2    C313056   2.292   1.887  15.655 -0.3716 -0.3516 -0.1281
  887MPD2    C413057   2.324   1.859  15.787 -0.2671 -0.1598  0.4619
  887MPD2    C513058   2.276   1.746  15.852  0.1196  0.3411 -0.4661
  887MPD2     H13059   2.181   1.827  15.497 -0.2168  1.2733 -0.3628
  887MPD2    H113060   2.385   1.931  15.840 -1.1793  0.9744 -0.0415
  887MPD2    H213061   2.165   1.574  15.848  2.2362 -0.5932  0.3309
  887MPD2    H313062   2.302   1.740  15.957  0.2545  2.5425 -0.3635
  887MPD2     N13063   2.327   2.006  15.585 -0.6812 -0.0357  0.2022
  887MPD2    H513064   2.270   2.027  15.504  1.1821  0.1830 -1.0457
  887MPD2    N113065   2.074   1.596  15.589 -0.6823  0.6899  0.4904
  887MPD2    H713066   2.075   1.608  15.489  1.6074 -1.1773  0.2851
  888MPD2     C13067   3.884   1.943  14.677 -0.6916 -0.2145  0.3251
  888MPD2    C113068   3.856   1.999  14.799 -0.2695 -0.2841  0.5854
  888MPD2    C213069   3.892   2.128  14.817 -0.4463 -0.6333  1.0024
  888MPD2    C313070   3.941   2.202  14.712  0.8070  0.8008  0.3671
  888MPD2    C413071   3.955   2.153  14.590 -0.3824 -0.6518 -0.4003
  888MPD2    C513072   3.931   2.020  14.570  0.3107 -0.1369 -0.4607
  888MPD2     H13073   3.870   2.179  14.910  0.9253  0.9062  0.4724
  888MPD2    H113074   3.987   2.213  14.505  1.0277  0.1709  0.7105
  888MPD2    H213075   3.846   1.844  14.656 -2.0135  0.9797 -2.9938
  888MPD2    H313076   3.933   1.978  14.471  1.1657  1.8668 -1.2839
  888MPD2     N13077   3.965   2.342  14.734 -0.0476 -0.0977  0.6512
  888MPD2    H513078   3.937   2.375  14.825  1.6941  0.3436  1.0278
  888MPD2    N113079   3.809   1.922  14.904 -0.4782  0.1467 -0.1897
  888MPD2    H713080   3.795   1.968  14.994  0.2450 -0.4958  0.2534
  889MPD2     C13081   3.018   1.152  13.269 -1.1001  0.4283 -0.2963
  889MPD2    C113082   3.145   1.200  13.233 -0.5179  0.1609  0.6626
  889MPD2    C213083   3.184   1.319  13.293 -0.1676 -0.1695  0.0309
  889MPD2    C313084   3.106   1.391  13.384 -0.3052 -0.2275  0.2923
  889MPD2    C413085   2.975   1.349  13.391  0.0251 -0.5559  0.0096
  889MPD2    C513086   2.931   1.232  13.341 -0.5412  0.8257 -0.7502
  889MPD2     H13087   3.290   1.337  13.305  0.0636  0.1404 -2.4628
  889MPD2    H113088   2.901   1.405  13.447  1.2799 -0.0267  1.1331
  889MPD2    H213089   2.972   1.064  13.225 -1.1435  0.1352  0.3371
  889MPD2    H313090   2.829   1.198  13.352  0.1617 -1.2841 -0.7818
  889MPD2     N13091   3.144   1.512  13.441  0.0952 -0.5709 -0.1946
  889MPD2    H513092   3.236   1.547  13.418 -0.1104 -0.2057 -0.4591
  889MPD2    N113093   3.241   1.124  13.166 -0.4388 -0.5785  0.1364
  889MPD2    H713094   3.335   1.160  13.160 -0.2071 -1.4366 -1.3243
  890MPD2     C13095   2.857   2.930  14.254 -0.5836 -0.2004 -0.0611
  890MPD2    C113096   2.974   3.001  14.283 -0.2646  0.0794 -0.3734
  890MPD2    C213097   3.025   2.975  14.411 -0.1803 -0.6678 -0.0472
  890MPD2    C313098   2.969   2.881  14.498  0.2091  0.0286  0.0532
  890MPD2    C413099   2.851   2.818  14.468 -0.3547  0.4172 -0.2907
  890MPD2    C513100   2.799   2.844  14.341 -0.0823 -0.5900 -0.9828
  890MPD2     H13101   3.117   3.027  14.435 -1.1811  1.6183 -1.1810
  890MPD2    H113102   2.786   2.761  14.533 -1.2458  0.1046 -1.4560
  890MPD2    H213103   2.797   2.953  14.167  1.6720 -0.5805 -1.7151
  890MPD2    H313104   2.699   2.808  14.321 -0.5879 -0.6422  1.6348
  890MPD2     N13105   3.038   2.865  14.620 -0.3073  0.1569 -0.7097
  890MPD2    H513106   3.122   2.921  14.627 -0.2016 -0.2268  1.0131
  890MPD2    N113107   3.008   3.102  14.187 -0.5230  0.0983  0.5102
  890MPD2    H713108   2.944   3.123  14.111 -0.0236 -1.3993 -0.3239
  891MPD2     C13109   0.680   1.351  16.729 -0.5368 -0.2269 -0.0956
  891MPD2    C113110   0.665   1.487  16.711 -0.7688  0.1108  0.0307
  891MPD2    C213111   0.764   1.573  16.758 -0.5183  0.4574  0.0907
  891MPD2    C313112   0.885   1.533  16.804  0.3059 -0.8833 -0.4946
  891MPD2    C413113   0.895   1.400  16.825  0.4615  0.2899 -0.7006
  891MPD2    C513114   0.796   1.314  16.794  0.2774 -0.3806  0.1852
  891MPD2     H13115   0.758   1.682  16.757 -0.7293  0.4306 -1.3487
  891MPD2    H113116   0.979   1.368  16.886 -0.5171  0.1154  0.5356
  891MPD2    H213117   0.602   1.285  16.693 -0.9441 -1.5432  3.1629
  891MPD2    H313118   0.805   1.211  16.825  0.2208 -0.2345  0.6785
  891MPD2     N13119   0.974   1.625  16.864  0.4346 -0.0553  0.1842
  891MPD2    H513120   0.948   1.723  16.860  0.5725  0.0643  2.2094
  891MPD2    N113121   0.555   1.543  16.640  0.1571  0.3994  0.5301
  891MPD2    H713122   0.488   1.475  16.604 -0.5333  1.2772  0.1492
  892MPD2     C13123   2.250   2.638  14.732  0.2659  0.8741  0.0795
  892MPD2    C113124   2.160   2.667  14.634 -0.0911  0.1393 -0.0017
  892MPD2    C213125   2.191   2.656  14.506 -0.2247 -0.4041 -0.4244
  892MPD2    C313126   2.319   2.611  14.462 -0.0785 -0.1068 -0.5177
  892MPD2    C413127   2.407   2.585  14.560  0.2431  0.7467  0.0028
  892MPD2    C513128   2.375   2.598  14.695  0.6422 -0.1742 -0.4856
  892MPD2     H13129   2.117   2.683  14.431 -0.3528 -0.8754 -0.4685
  892MPD2    H113130   2.498   2.529  14.540 -2.2227 -3.2447  0.0522
  892MPD2    H213131   2.237   2.652  14.839  0.6988 -1.1695  0.4059
  892MPD2    H313132   2.448   2.574  14.773 -1.3202 -3.0936  0.4426
  892MPD2     N13133   2.359   2.596  14.321 -0.3646  1.0715 -1.0319
  892MPD2    H513134   2.444   2.542  14.312 -0.5117  0.6955 -0.1663
  892MPD2    N113135   2.023   2.714  14.654 -0.3768  0.0345 -0.3956
  892MPD2    H713136   1.966   2.713  14.569  0.0923 -1.3474 -0.6893
  893MPD2     C13137   3.154   1.157   1.057  0.0611 -0.8231  0.1404
  893MPD2    C113138   3.227   1.149   1.175 -1.0723 -0.8198  0.8414
  893MPD2    C213139   3.173   1.156   1.300 -0.4973  0.5284  0.3381
  893MPD2    C313140   3.034   1.139   1.315  0.0387 -0.0784 -0.7184
  893MPD2    C413141   2.964   1.147   1.196  0.2966 -0.0536 -0.6935
  893MPD2    C513142   3.021   1.156   1.073  0.1700  0.4656 -0.1464
  893MPD2     H13143   3.233   1.142   1.389  0.5285 -2.2396 -0.7960
  893MPD2    H113144   2.856   1.139   1.195  0.2054  1.0734  1.1831
  893MPD2    H213145   3.195   1.167   0.957 -1.6558  0.7189 -0.4107
  893MPD2    H313146   2.963   1.157   0.982  2.8889 -1.8945 -1.9350
  893MPD2     N13147   2.963   1.134   1.434  0.4165 -0.0184  0.9406
  893MPD2    H513148   2.862   1.146   1.429  0.6665  2.0851  0.8184
  893MPD2    N113149   3.365   1.136   1.153 -0.5341  0.4261  0.3156
  893MPD2    H713150   3.387   1.126   1.055  1.3361 -1.4651  0.9359
  894MPD2     C13151   1.772   3.313   0.665 -0.0366  0.0525  0.1321
  894MPD2    C113152   1.768   3.359   0.798 -0.6039  0.2827  0.2497
  894MPD2    C213153   1.797   3.493   0.820  0.0597 -0.4442 -0.1549
  894MPD2    C313154   1.833   3.573   0.714 -0.9014  0.1364  0.1073
  894MPD2    C413155   1.823   3.534   0.583 -0.2002 -0.6365 -1.2902
  894MPD2    C513156   1.796   3.402   0.564 -0.0343  0.1806  0.4807
  894MPD2     H13157   1.794   3.541   0.917  0.3749 -0.3508 -0.1923
  894MPD2    H113158   1.833   3.608   0.504  1.1679  2.0645  1.4237
  894MPD2    H213159   1.748   3.209   0.646  1.5048 -0.2134 -0.3746
  894MPD2    H313160   1.777   3.362   0.465  1.8101  0.8413 -0.1453
  894MPD2     N13161   1.850   3.708   0.746 -0.2590 -0.2496  0.3912
  894MPD2    H513162   1.860   3.716   0.847  2.6519 -1.3083  0.1718
  894MPD2    N113163   1.713   3.276   0.905  0.1486 -0.1600 -0.0016
  894MPD2    H713164   1.701   3.321   0.995  1.1049  1.5613 -0.7446
  895MPD2     C13165   0.804   2.074  13.749  0.3550 -1.0643  0.1905
  895MPD2    C113166   0.793   2.036  13.614  0.3585  0.0478 -0.3408
  895MPD2    C213167   0.903   1.985  13.549 -0.2337  0.4033  0.1551
  895MPD2    C313168   1.032   2.005  13.595 -0.0485 -0.4562  0.9079
  895MPD2    C413169   1.043   2.033  13.726  0.6433  0.1054 -0.4319
  895MPD2    C513170   0.934   2.068  13.806 -0.3211 -0.5545 -0.6733
  895MPD2     H13171   0.882   1.956  13.447  2.2520  0.5319 -0.3903
  895MPD2    H113172   1.144   2.038  13.765  1.4062 -0.4598 -2.3304
  895MPD2    H213173   0.718   2.098  13.811 -0.3359 -4.3277  0.4636
  895MPD2    H313174   0.941   2.068  13.914  0.6476 -2.3809 -0.7347
  895MPD2     N13175   1.138   1.963  13.510  0.0647 -0.4714 -0.2237
  895MPD2    H513176   1.109   1.930  13.418 -2.3916  0.2952  0.2756
  895MPD2    N113177   0.670   2.027  13.544 -0.5535 -0.3249 -0.4969
  895MPD2    H713178   0.666   1.976  13.456  0.2221 -1.2590  0.0056
  896MPD2     C13179   3.449   4.612   1.311  0.6942  0.0363  0.6102
  896MPD2    C113180   3.438   4.512   1.211  0.4934  0.8475  0.4453
  896MPD2    C213181   3.319   4.443   1.199  0.0146 -0.8425 -0.7548
  896MPD2    C313182   3.213   4.485   1.286 -0.2173  0.2003 -0.1374
  896MPD2    C413183   3.230   4.588   1.381 -0.0821  0.2503 -0.3872
  896MPD2    C513184   3.350   4.643   1.395 -0.5591 -1.0570  0.3470
  896MPD2     H13185   3.304   4.360   1.132 -2.4262  0.1708 -1.4731
  896MPD2    H113186   3.156   4.619   1.452  0.5139  0.6096  0.0785
  896MPD2    H213187   3.545   4.662   1.317  0.7715  0.1903 -2.2197
  896MPD2    H313188   3.348   4.728   1.462  0.0387 -1.9001  1.4360
  896MPD2     N13189   3.089   4.428   1.262 -0.4640 -0.0158  0.0543
  896MPD2    H513190   3.088   4.353   1.194 -0.3794 -0.3529  0.4276
  896MPD2    N113191   3.556   4.485   1.134 -0.5383  0.3822  0.0298
  896MPD2    H713192   3.625   4.560   1.124 -0.1147  0.1207  0.9660
  897MPD2     C13193   4.563   0.832  10.546  0.0251  0.2500 -0.1304
  897MPD2    C113194   4.541   0.946  10.473  0.6100 -0.6567 -0.3323
  897MPD2    C213195   4.444   1.027  10.524 -1.0318  0.2057  0.0021
  897MPD2    C313196   4.373   1.019  10.642  0.3784  0.1591 -0.6327
  897MPD2    C413197   4.399   0.909  10.716  0.2017 -0.2741 -0.0483
  897MPD2    C513198   4.498   0.822  10.668  1.2355 -0.1530  0.3181
  897MPD2     H13199   4.438   1.116  10.462 -0.8845  0.5147  0.4318
  897MPD2    H113200   4.358   0.885  10.813 -0.8581 -0.8184 -0.6344
  897MPD2    H213201   4.647   0.768  10.520 -2.4218 -2.5176 -1.3063
  897MPD2    H313202   4.521   0.734  10.727  0.1852  0.5052  1.7044
  897MPD2     N13203   4.261   1.104  10.670  0.2413 -0.1444  0.1948
  897MPD2    H513204   4.236   1.169  10.597  1.3442  0.2883  0.2048
  897MPD2    N113205   4.629   0.969  10.358 -0.2453  0.1310  0.3763
  897MPD2    H713206   4.701   0.900  10.342  1.7128  2.2374  0.1807
  898MPD2     C13207   1.374   2.064  17.638 -0.7300 -0.3111 -0.0214
  898MPD2    C113208   1.500   2.115  17.600 -0.0186 -0.5274  0.4539
  898MPD2    C213209   1.506   2.246  17.548  0.1032  0.2548  0.0243
  898MPD2    C313210   1.389   2.314  17.524  0.2062 -0.0439 -1.0242
  898MPD2    C413211   1.265   2.262  17.568 -0.5386  0.2449  0.2491
  898MPD2    C513212   1.263   2.142  17.633  0.4912  0.5123 -0.1365
  898MPD2     H13213   1.603   2.283  17.520  0.0520 -1.1094 -1.9581
  898MPD2    H113214   1.171   2.311  17.548  0.1529  1.2855 -0.4468
  898MPD2    H213215   1.368   1.967  17.686  2.6449 -1.1417 -1.3120
  898MPD2    H313216   1.167   2.112  17.672  1.1184 -0.3892  0.7057
  898MPD2     N13217   1.405   2.437  17.458  0.0667  0.4309  0.6262
  898MPD2    H513218   1.496   2.464  17.421 -0.0444 -1.1271 -0.7902
  898MPD2    N113219   1.617   2.035  17.598 -0.0589 -0.0299  0.3352
  898MPD2    H713220   1.697   2.077  17.552 -0.0886 -0.7507 -0.3814
  899MPD2     C13221   2.472   2.587  17.281  0.5930  0.2525  0.2633
  899MPD2    C113222   2.486   2.699  17.362 -0.5324 -0.0515 -0.0454
  899MPD2    C213223   2.454   2.699  17.497  0.2800 -0.1067 -0.7802
  899MPD2    C313224   2.416   2.579  17.560  0.6630  0.2360  0.0448
  899MPD2    C413225   2.407   2.464  17.484  0.1116  0.1984 -0.4137
  899MPD2    C513226   2.434   2.468  17.350 -0.6759  0.1160 -0.0664
  899MPD2     H13227   2.460   2.791  17.554  0.7302  1.3088 -3.1225
  899MPD2    H113228   2.361   2.375  17.527 -0.4034 -0.3627 -2.1119
  899MPD2    H213229   2.478   2.577  17.173  0.2750  0.1250  0.2551
  899MPD2    H313230   2.415   2.383  17.285 -0.7637  0.4911 -0.5318
  899MPD2     N13231   2.357   2.571  17.689  0.1952 -0.4584 -0.5941
  899MPD2    H513232   2.316   2.484  17.719 -1.7306  0.0920 -1.6138
  899MPD2    N113233   2.534   2.811  17.291  0.5545  0.4865 -0.1993
  899MPD2    H713234   2.543   2.795  17.191 -0.7694  0.7412 -0.3569
  900MPD2     C13235   2.713   4.218  12.317  0.5787 -0.6334  0.3093
  900MPD2    C113236   2.611   4.161  12.393  0.3635 -0.0431 -0.3486
  900MPD2    C213237   2.482   4.206  12.365  0.3587 -0.0716  0.0830
  900MPD2    C313238   2.458   4.287  12.252 -0.5053  0.4106  0.6674
  900MPD2    C413239   2.563   4.339  12.172 -0.2294 -0.2037 -0.0683
  900MPD2    C513240   2.684   4.300  12.209  0.0432  0.4010  0.5269
  900MPD2     H13241   2.393   4.182  12.423  1.7079 -1.2551  1.6614
  900MPD2    H113242   2.544   4.392  12.079  3.2685  0.2116 -0.5425
  900MPD2    H213243   2.815   4.196  12.345  1.1350 -0.3468 -1.4606
  900MPD2    H313244   2.770   4.340  12.157  0.3729 -1.1640 -0.1322
  900MPD2     N13245   2.322   4.312  12.225  0.3856 -0.1578 -0.2299
  900MPD2    H513246   2.248   4.270  12.280 -1.0229 -0.2320 -2.1592
  900MPD2    N113247   2.639   4.060  12.485  0.4694 -0.0029  0.1223
  900MPD2    H713248   2.732   4.020  12.482  1.1807  1.6427  0.5076
  901MPD2     C13249   2.131   3.115  12.557  0.4910  0.2860  0.3683
  901MPD2    C113250   2.254   3.085  12.497  0.0869 -0.5479  0.6774
  901MPD2    C213251   2.351   3.178  12.499  0.2910  0.1151 -0.5062
  901MPD2    C313252   2.331   3.301  12.553 -0.6359  0.4547 -0.3302
  901MPD2    C413253   2.209   3.332  12.613 -0.3213 -0.2911  0.8247
  901MPD2    C513254   2.104   3.242  12.612  0.3517 -0.2477 -0.8793
  901MPD2     H13255   2.450   3.153  12.463  0.0031  0.1497 -1.3357
  901MPD2    H113256   2.182   3.430  12.653 -1.5370 -0.8288  1.3448
  901MPD2    H213257   2.050   3.043  12.558  1.1596 -0.4505  1.1452
  901MPD2    H313258   2.004   3.264  12.650  1.4654  0.6444  1.5403
  901MPD2     N13259   2.433   3.401  12.535  0.5821  0.0389 -0.3063
  901MPD2    H513260   2.528   3.367  12.528  1.0326  1.2974 -0.2595
  901MPD2    N113261   2.264   2.950  12.452 -0.6486 -0.5313  0.3360
  901MPD2    H713262   2.191   2.889  12.487 -1.9083  0.0120 -1.3638
  902MPD2     C13263   1.595   1.980  12.914 -0.0017 -0.0103  0.6247
  902MPD2    C113264   1.528   2.030  12.804  0.2889 -0.1257  0.3924
  902MPD2    C213265   1.527   1.942  12.696 -0.4378 -0.4505  0.0183
  902MPD2    C313266   1.566   1.811  12.702 -0.0860 -0.3807 -0.2146
  902MPD2    C413267   1.625   1.768  12.817  0.4474  0.3268  0.2723
  902MPD2    C513268   1.640   1.856  12.921 -0.2862  0.6521 -1.1863
  902MPD2     H13269   1.482   1.971  12.602  2.3710 -0.0536 -1.1958
  902MPD2    H113270   1.679   1.674  12.822 -0.5835 -0.3781 -2.0490
  902MPD2    H213271   1.619   2.046  12.997  1.2844 -0.7479  0.8272
  902MPD2    H313272   1.699   1.824  13.007 -1.3754  0.6311 -0.4531
  902MPD2     N13273   1.550   1.724  12.594 -0.3297 -0.3511 -0.0797
  902MPD2    H513274   1.515   1.770  12.510  0.3267 -2.4100 -1.4927
  902MPD2    N113275   1.492   2.166  12.800 -0.2055 -0.1619 -0.4893
  902MPD2    H713276   1.524   2.231  12.871  2.1015  2.1910 -3.6975
  903MPD2     C13277   1.336   1.717  11.787  0.2309 -0.4344  0.1330
  903MPD2    C113278   1.293   1.685  11.913  0.1687 -0.7018 -0.0750
  903MPD2    C213279   1.161   1.702  11.940  0.1068 -0.7818  0.1486
  903MPD2    C313280   1.071   1.737  11.843  0.0809  0.1526 -0.2898
  903MPD2    C413281   1.117   1.780  11.722 -0.1426 -0.8755 -0.1411
  903MPD2    C513282   1.248   1.755  11.688  0.1628 -0.0481 -0.2113
  903MPD2     H13283   1.108   1.681  12.032 -0.7104 -0.9763 -0.3609
  903MPD2    H113284   1.055   1.822  11.645 -2.7198 -0.3907  2.1957
  903MPD2    H213285   1.442   1.713  11.766  0.1520  0.5510 -0.4095
  903MPD2    H313286   1.290   1.782  11.592 -0.9360 -0.5753 -0.8490
  903MPD2     N13287   0.929   1.735  11.869  0.0617  0.4070  0.0596
  903MPD2    H513288   0.893   1.713  11.961  3.2613 -1.3768  0.8802
  903MPD2    N113289   1.393   1.658  12.012  0.3807  0.5152 -0.0600
  903MPD2    H713290   1.490   1.647  11.983  1.6530  2.8871  3.3410
  904MPD2     C13291   1.105   1.568  13.716 -0.0616  0.8544 -0.3581
  904MPD2    C113292   1.105   1.459  13.802 -0.5119 -0.8181 -0.1543
  904MPD2    C213293   1.197   1.446  13.907  0.1138 -0.3655 -0.5129
  904MPD2    C313294   1.291   1.539  13.926  0.0862 -0.0185 -0.1104
  904MPD2    C413295   1.288   1.654  13.846 -0.2546  0.6579 -0.0665
  904MPD2    C513296   1.192   1.670  13.737 -0.2601 -0.5111  0.0700
  904MPD2     H13297   1.200   1.357  13.968  2.2981 -0.3532 -0.6074
  904MPD2    H113298   1.351   1.737  13.872 -0.2196  1.1781 -1.8337
  904MPD2    H213299   1.041   1.584  13.629 -1.9800 -0.3584  0.8329
  904MPD2    H313300   1.188   1.762  13.680  1.0037  1.1312  2.6249
  904MPD2     N13301   1.381   1.527  14.036  0.3363  0.0569 -0.5375
  904MPD2    H513302   1.359   1.449  14.097 -1.1791  0.2685 -0.8076
  904MPD2    N113303   1.023   1.344  13.786  0.1682  0.2931 -0.1766
  904MPD2    H713304   1.058   1.261  13.832 -0.3781 -0.1927 -0.6187
  905MPD2     C13305   0.791   1.485  13.087  1.1398  0.3678  0.0199
  905MPD2    C113306   0.802   1.574  13.195  1.0535 -0.4471  0.3197
  905MPD2    C213307   0.909   1.663  13.198 -0.2896  0.0061 -0.1194
  905MPD2    C313308   0.994   1.674  13.083 -0.4459  0.5468 -0.1573
  905MPD2    C413309   0.977   1.586  12.981  0.0784 -0.7678  0.1381
  905MPD2    C513310   0.877   1.498  12.983 -0.0866 -0.0002 -0.3313
  905MPD2     H13311   0.920   1.737  13.276 -0.6104  0.3561 -0.4041
  905MPD2    H113312   1.046   1.583  12.898 -0.5234 -1.6356 -0.3275
  905MPD2    H213313   0.721   1.402  13.080  1.2827  0.2357  0.1384
  905MPD2    H313314   0.870   1.429  12.899  1.9258 -1.8852  1.0432
  905MPD2     N13315   1.113   1.754  13.087 -0.1292  0.0239 -0.1506
  905MPD2    H513316   1.178   1.730  13.013 -0.6335 -0.4215 -0.4564
  905MPD2    N113317   0.726   1.550  13.306 -0.6068 -0.1632 -0.2221
  905MPD2    H713318   0.683   1.459  13.318 -1.1179  0.2325  0.9708
  906MPD2     C13319   3.257   1.576  11.009  0.0437 -0.5131  1.0150
  906MPD2    C113320   3.270   1.454  10.946  0.7186  0.6953  0.0295
  906MPD2    C213321   3.264   1.339  11.020 -0.5523  0.0072  0.7388
  906MPD2    C313322   3.242   1.351  11.156 -0.1944 -0.5111 -0.4161
  906MPD2    C413323   3.233   1.466  11.220  0.3282  0.5003  0.5676
  906MPD2    C513324   3.241   1.583  11.145 -0.2151  0.0775  0.5953
  906MPD2     H13325   3.266   1.246  10.963  0.4557  1.1310 -1.0690
  906MPD2    H113326   3.199   1.479  11.323  0.1712  0.5727  0.5071
  906MPD2    H213327   3.245   1.665  10.949  2.7622 -1.7990 -1.4625
  906MPD2    H313328   3.226   1.678  11.196  0.1200  0.2245  0.4226
  906MPD2     N13329   3.214   1.241  11.241  0.3306  0.4772 -0.0435
  906MPD2    H513330   3.169   1.264  11.329  4.1061 -0.4804  2.1234
  906MPD2    N113331   3.275   1.440  10.801 -0.3380  0.1329  0.8814
  906MPD2    H713332   3.274   1.345  10.767  1.4807  0.5843 -0.4158
  907MPD2     C13333   1.806   0.783  15.864 -0.3888  0.1410 -0.3554
  907MPD2    C113334   1.843   0.663  15.811  0.0894 -0.2609  0.5475
  907MPD2    C213335   1.929   0.588  15.897  0.8176 -0.1315  0.0383
  907MPD2    C313336   1.969   0.628  16.026  0.5352 -0.0085  0.7490
  907MPD2    C413337   1.927   0.751  16.071  0.7715  0.2477 -0.1862
  907MPD2    C513338   1.841   0.821  15.992 -0.2003  0.0660  0.4599
  907MPD2     H13339   1.961   0.491  15.859 -0.4461 -1.2267  1.7774
  907MPD2    H113340   1.938   0.792  16.171 -1.6823 -2.0202  1.0299
  907MPD2    H213341   1.766   0.867  15.808 -0.4421  1.6547  1.9578
  907MPD2    H313342   1.798   0.915  16.024 -1.1196 -0.0736 -0.3318
  907MPD2     N13343   2.047   0.549  16.106 -0.2037 -0.5790 -0.1696
  907MPD2    H513344   2.051   0.451  16.082  1.6261 -0.0450 -2.1375
  907MPD2    N113345   1.813   0.623  15.677  0.0682  0.9153 -0.2264
  907MPD2    H713346   1.845   0.533  15.641 -0.9956  0.5280 -0.2053
  908MPD2     C13347   4.375   1.503   9.556 -0.3510 -0.2061 -0.4199
  908MPD2    C113348   4.376   1.366   9.565 -0.0163  0.7305  0.7273
  908MPD2    C213349   4.467   1.306   9.654 -0.3484 -0.2350  0.5407
  908MPD2    C313350   4.536   1.379   9.751  0.1234 -0.3241 -0.3061
  908MPD2    C413351   4.536   1.516   9.736 -0.2832  0.5088  1.0085
  908MPD2    C513352   4.461   1.576   9.647  0.7066  0.2900 -0.5040
  908MPD2     H13353   4.480   1.198   9.658  0.7749 -0.0783  1.2366
  908MPD2    H113354   4.586   1.581   9.807 -0.8673 -0.1208  2.0041
  908MPD2    H213355   4.315   1.553   9.481  0.2751  0.2126 -0.6465
  908MPD2    H313356   4.462   1.684   9.641 -0.9952  0.2935 -0.6134
  908MPD2     N13357   4.615   1.316   9.852 -0.0625 -0.2957 -1.1105
  908MPD2    H513358   4.618   1.215   9.853  2.8731 -0.2069 -1.0310
  908MPD2    N113359   4.300   1.293   9.468  0.7292 -0.5895  0.4804
  908MPD2    H713360   4.237   1.347   9.409  2.4144 -0.3915 -1.1394
  909MPD2     C13361   4.664   4.036  12.171  0.6997  0.6577  0.6206
  909MPD2    C113362   4.617   4.073  12.046  0.0605  0.0876 -0.1079
  909MPD2    C213363   4.485   4.117  12.036 -1.0177 -0.2069  0.0800
  909MPD2    C313364   4.400   4.115  12.148  0.3533  0.4681  0.4141
  909MPD2    C413365   4.451   4.096  12.277  0.8796  0.3016 -0.2339
  909MPD2    C513366   4.584   4.052  12.282 -0.0096 -0.1191 -0.0727
  909MPD2     H13367   4.449   4.145  11.938 -1.3662 -0.5587  0.1065
  909MPD2    H113368   4.389   4.093  12.367  1.0860  3.8646  0.0224
  909MPD2    H213369   0.036   4.025  12.184  1.2848  0.2239 -4.7159
  909MPD2    H313370   4.620   4.041  12.383 -0.0623 -0.8247 -0.1336
  909MPD2     N13371   4.266   4.149  12.130 -0.4229 -0.3061 -0.3420
  909MPD2    H513372   4.236   4.148  12.033  1.9514  0.8272 -1.0782
  909MPD2    N113373   4.698   4.094  11.934 -0.5773  0.4382 -0.1711
  909MPD2    H713374   4.660   4.150  11.859 -0.5354  1.0758  0.2807
  910MPD2     C13375   0.991   1.116  15.922 -1.1812 -0.2551 -0.2910
  910MPD2    C113376   1.098   1.089  15.839 -0.1243 -0.0085 -0.1334
  910MPD2    C213377   1.099   1.162  15.724 -0.2599 -0.4219 -0.2704
  910MPD2    C313378   0.995   1.247  15.691  0.1564 -0.3994  0.6459
  910MPD2    C413379   0.886   1.262  15.774 -0.3842 -0.2212 -0.1697
  910MPD2    C513380   0.883   1.190  15.883 -0.2049  0.6438 -0.0546
  910MPD2     H13381   1.180   1.142  15.656 -0.2398 -1.8274  0.1724
  910MPD2    H113382   0.800   1.327  15.762 -1.5231 -1.5330  0.8628
  910MPD2    H213383   0.969   1.072  16.019  0.6903  0.4878  0.4623
  910MPD2    H313384   0.804   1.202  15.956  1.2788  1.0697  1.4874
  910MPD2     N13385   0.998   1.312  15.564  0.1174 -0.3860  0.0112
  910MPD2    H513386   0.916   1.366  15.536 -0.7039 -0.7725  1.6836
  910MPD2    N113387   1.204   1.007  15.876 -0.9378 -0.4707  0.0086
  910MPD2    H713388   1.264   0.977  15.799 -0.2322  0.9382  0.0176
  911MPD2     C13389   3.854   1.782  15.904  0.1731  0.2361 -0.3190
  911MPD2    C113390   3.882   1.808  16.037  0.8604  0.0448 -0.4812
  911MPD2    C213391   3.862   1.932  16.082  0.7105 -0.4782  0.3959
  911MPD2    C313392   3.823   2.037  15.999 -0.2628  0.5863 -0.2038
  911MPD2    C413393   3.814   2.022  15.866 -0.5523  0.2753  0.0920
  911MPD2    C513394   3.822   1.889  15.818 -0.2399 -0.5523  0.4002
  911MPD2     H13395   3.889   1.962  16.182  0.3257  2.2808 -0.3080
  911MPD2    H113396   3.791   2.104  15.799 -0.6649  0.4174  0.3078
  911MPD2    H213397   3.868   1.685  15.858  0.9685 -0.0530  0.5264
  911MPD2    H313398   3.804   1.879  15.711  1.2146 -2.0629  0.2929
  911MPD2     N13399   3.814   2.178  16.048  0.7131  0.1509 -0.2114
  911MPD2    H513400   3.804   2.255  15.983 -0.1712  0.1338 -0.0969
  911MPD2    N113401   3.947   1.698  16.102  0.0443 -0.7956  0.4693
  911MPD2    H713402   3.963   1.621  16.039 -0.9103  0.0249 -0.7659
  912MPD2     C13403   3.546   2.187  15.665  0.4269 -0.1872 -0.8850
  912MPD2    C113404   3.504   2.185  15.798  0.0641 -0.0223  0.0754
  912MPD2    C213405   3.466   2.069  15.857 -0.0103 -0.1230  0.4571
  912MPD2    C313406   3.484   1.946  15.793  0.4658 -0.0002 -0.1552
  912MPD2    C413407   3.511   1.944  15.664 -0.6639  0.3430 -0.0434
  912MPD2    C513408   3.530   2.061  15.599 -0.9373 -0.2681 -0.0106
  912MPD2     H13409   3.440   2.062  15.962  4.2365  2.8022  1.7248
  912MPD2    H113410   3.513   1.853  15.607 -1.9865 -0.6345  1.4809
  912MPD2    H213411   3.572   2.271  15.601 -3.0137  1.7081  0.2414
  912MPD2    H313412   3.543   2.045  15.492  0.9088 -1.2907  0.3739
  912MPD2     N13413   3.478   1.832  15.873  0.6429 -0.6170  0.4815
  912MPD2    H513414   3.429   1.839  15.961 -2.2374  1.5580 -1.3135
  912MPD2    N113415   3.512   2.307  15.871  0.2246 -0.3090  0.5420
  912MPD2    H713416   3.561   2.387  15.831  0.0378 -0.8355 -0.7580
  913MPD2     C13417   0.033   2.928  10.579 -0.7187  0.6832  0.7093
  913MPD2    C113418   4.719   2.901  10.452  0.2610  0.2442 -1.2652
  913MPD2    C213419   4.698   3.009  10.369 -0.9650 -0.0664 -0.3953
  913MPD2    C313420   4.712   3.143  10.411 -0.0785 -0.0473  0.1438
  913MPD2    C413421   0.023   3.168  10.539  0.0895  0.9467 -0.0869
  913MPD2    C513422   0.058   3.062  10.620 -0.3656 -0.2467 -0.0472
  913MPD2     H13423   4.665   2.978  10.271 -3.7740  3.1114 -0.4453
  913MPD2    H113424   0.062   3.264  10.569  0.5366  0.5651  0.5501
  913MPD2    H213425   0.045   2.858  10.660 -0.2092  0.0993  0.1210
  913MPD2    H313426   0.087   3.075  10.723 -0.5019 -0.7202  0.0529
  913MPD2     N13427   4.706   3.251  10.321 -0.6313  0.6584 -0.1769
  913MPD2    H513428   4.724   3.342  10.362  0.9026  1.0363 -1.6899
  913MPD2    N113429   4.697   2.765  10.413 -0.0637  1.1224  0.1590
  913MPD2    H713430   0.008   2.693  10.467  0.1468 -1.3305 -3.2901
  914MPD2     C13431   2.246   3.379  11.889  0.5567  0.0885  0.2325
  914MPD2    C113432   2.336   3.352  11.994 -0.4959  0.5477  1.0035
  914MPD2    C213433   2.338   3.225  12.050  0.3088 -0.0222 -0.5800
  914MPD2    C313434   2.263   3.125  11.993  0.3054  0.8718 -0.6275
  914MPD2    C413435   2.174   3.144  11.885 -0.4387 -0.8127  0.6915
  914MPD2    C513436   2.168   3.278  11.838  0.4231  0.3717  0.0586
  914MPD2     H13437   2.414   3.186  12.117  0.9137  1.0665 -0.6476
  914MPD2    H113438   2.105   3.074  11.839  0.4291 -0.6051 -0.9212
  914MPD2    H213439   2.235   3.474  11.839 -0.7697 -0.1711  0.0320
  914MPD2    H313440   2.108   3.300  11.751  1.1696  0.7978 -0.3455
  914MPD2     N13441   2.285   2.992  12.042  0.4171 -0.2421 -0.1544
  914MPD2    H513442   2.341   2.992  12.126  1.0517 -0.4734 -0.5777
  914MPD2    N113443   2.410   3.465  12.028  0.2328 -0.5440  0.3433
  914MPD2    H713444   2.399   3.549  11.972  3.0997 -1.2374 -1.2328
  915MPD2     C13445   0.264   2.947  15.360 -0.0385 -0.2184  0.0965
  915MPD2    C113446   0.153   3.029  15.350 -0.7902  0.6789  0.2996
  915MPD2    C213447   0.113   3.110  15.458 -0.1925 -0.2744  0.4437
  915MPD2    C313448   0.184   3.103  15.576 -0.1067 -0.4535  0.1242
  915MPD2    C413449   0.294   3.019  15.584  0.8987 -0.2125 -0.1295
  915MPD2    C513450   0.337   2.952  15.469  0.7814 -0.7036  0.1342
  915MPD2     H13451   0.028   3.177  15.460 -0.7081 -0.8345 -2.8782
  915MPD2    H113452   0.345   3.013  15.679 -0.5017 -3.6379  0.4410
  915MPD2    H213453   0.299   2.894  15.272 -2.8128 -1.2568 -0.3797
  915MPD2    H313454   0.428   2.895  15.467  1.0176 -0.3565  1.5960
  915MPD2     N13455   0.131   3.173  15.680  0.1894 -0.2598 -1.0905
  915MPD2    H513456   0.044   3.219  15.656 -0.6095 -0.7453  0.7846
  915MPD2    N113457   0.064   3.014  15.243 -0.1810 -0.4047  0.4590
  915MPD2    H713458   0.086   2.929  15.191 -1.2687  0.7741 -1.9124
  916MPD2     C13459   3.195   1.526  15.703 -0.1453 -0.5450 -0.1392
  916MPD2    C113460   3.207   1.417  15.791 -0.1831 -0.3382 -0.3651
  916MPD2    C213461   3.313   1.327  15.772 -0.6062  0.2718 -0.2501
  916MPD2    C313462   3.391   1.334  15.654  0.1324  0.4141 -0.4259
  916MPD2    C413463   3.366   1.437  15.561  0.6635  0.3254  0.1027
  916MPD2    C513464   3.271   1.532  15.587 -0.4215 -0.3075 -0.0162
  916MPD2     H13465   3.345   1.251  15.843 -0.2788  0.9925  0.3667
  916MPD2    H113466   3.421   1.461  15.470  1.4131  1.1031  0.7606
  916MPD2    H213467   3.128   1.608  15.725 -0.5424 -0.9140  0.0439
  916MPD2    H313468   3.266   1.615  15.516 -1.0723 -0.2842  0.0541
  916MPD2     N13469   3.499   1.244  15.641 -0.3711  0.4162 -0.7620
  916MPD2    H513470   3.529   1.191  15.722 -1.2859  3.3323  1.4705
  916MPD2    N113471   3.113   1.401  15.889  0.5645 -0.7427  0.1661
  916MPD2    H713472   3.036   1.466  15.897  2.2815  1.5567 -2.0341
  917MPD2     C13473   3.310   3.020  11.136  0.0310 -0.2097  0.6863
  917MPD2    C113474   3.405   3.093  11.220  0.1743 -0.2644 -0.2671
  917MPD2    C213475   3.506   3.170  11.156 -1.3423 -0.0554  0.5915
  917MPD2    C313476   3.502   3.186  11.016 -0.6853 -0.1966  0.1464
  917MPD2    C413477   3.398   3.134  10.945 -0.5447  0.4900 -0.4907
  917MPD2    C513478   3.303   3.053  11.008 -0.5612 -0.1517 -0.4762
  917MPD2     H13479   3.589   3.214  11.210 -0.3018 -0.7694 -0.4129
  917MPD2    H113480   3.394   3.152  10.838 -1.6361  1.3999 -0.2955
  917MPD2    H213481   3.229   2.958  11.173 -0.7396  0.3322 -0.0783
  917MPD2    H313482   3.234   3.014  10.934 -1.3222 -0.7012  0.5446
  917MPD2     N13483   3.599   3.260  10.941  0.0016  0.1075 -0.3565
  917MPD2    H513484   3.586   3.271  10.841 -0.1874 -0.7262 -0.4297
  917MPD2    N113485   3.399   3.077  11.363  0.2121  0.2900  0.2092
  917MPD2    H713486   3.330   3.012  11.398  2.1677 -0.2163  3.1215
  918MPD2     C13487   3.882   3.630  12.058 -0.3184 -0.2265 -0.2056
  918MPD2    C113488   3.906   3.593  11.926  0.1463 -0.0637 -0.6849
  918MPD2    C213489   3.814   3.515  11.853  1.1883 -0.6743 -0.3655
  918MPD2    C313490   3.700   3.464  11.925 -1.2463 -0.3771 -0.6263
  918MPD2    C413491   3.684   3.503  12.060 -0.5583  0.0088  0.4746
  918MPD2    C513492   3.776   3.580  12.125  0.4146 -0.1226  0.1665
  918MPD2     H13493   3.839   3.495  11.750 -2.0998 -3.8742 -0.5327
  918MPD2    H113494   3.592   3.486  12.116 -0.4567 -1.0203  0.3351
  918MPD2    H213495   3.957   3.685  12.113 -0.2590 -0.9041  0.3804
  918MPD2    H313496   3.764   3.617  12.226 -0.3123 -0.4495  0.1947
  918MPD2     N13497   3.610   3.381  11.855 -0.5130 -0.0886 -0.3521
  918MPD2    H513498   3.625   3.363  11.756  0.4872 -2.1009  0.1487
  918MPD2    N113499   4.025   3.636  11.874 -0.2014  0.2592  0.0790
  918MPD2    H713500   4.068   3.710  11.928  0.7955 -1.6304  1.8507
  919MPD2     C13501   0.006   2.336  11.637  0.1267 -0.8016  0.1229
  919MPD2    C113502   4.688   2.218  11.592 -0.9874  0.4380 -0.7021
  919MPD2    C213503   4.682   2.192  11.457 -0.3181 -0.2129  0.1304
  919MPD2    C313504   0.015   2.276  11.378 -0.1393 -0.0729 -0.1266
  919MPD2    C413505   0.072   2.395  11.416 -0.2980 -0.5645 -0.4773
  919MPD2    C513506   0.058   2.422  11.545 -0.4705 -0.0666  0.2011
  919MPD2     H13507   4.634   2.103  11.419  0.1105 -0.0539 -0.7738
  919MPD2    H113508   0.135   2.457  11.355 -0.1474  1.5999  1.8852
  919MPD2    H213509   0.003   2.364  11.742 -3.0485 -0.2376 -0.1172
  919MPD2    H313510   0.114   2.508  11.581 -3.2484  1.0314  1.8820
  919MPD2     N13511   0.019   2.252  11.238 -0.1739  0.0671  0.4317
  919MPD2    H513512   0.041   2.334  11.182  3.0926 -1.5983 -0.7271
  919MPD2    N113513   4.625   2.119  11.676 -0.1212 -0.6325 -0.2478
  919MPD2    H713514   4.579   2.042  11.627  2.9961 -1.6843 -1.4962
  920MPD2     C13515   4.273   2.585  10.509 -0.1061  0.0293 -0.5360
  920MPD2    C113516   4.248   2.451  10.521  0.3538 -0.4166  0.1412
  920MPD2    C213517   4.331   2.367  10.596  0.2690 -0.1270 -0.4427
  920MPD2    C313518   4.451   2.415  10.632  0.2665  0.5420 -0.0437
  920MPD2    C413519   4.483   2.544  10.613 -0.1683 -0.4535  0.4781
  920MPD2    C513520   4.393   2.633  10.563  0.6676  0.1412 -0.8137
  920MPD2     H13521   4.302   2.263  10.605 -0.2243  0.1912  1.5380
  920MPD2    H113522   4.578   2.592  10.633 -1.0572  1.6213 -0.1959
  920MPD2    H213523   4.216   2.650  10.444 -1.5437  0.5011  1.2166
  920MPD2    H313524   4.430   2.735  10.554 -1.1495  0.7402 -1.6777
  920MPD2     N13525   4.545   2.325  10.684 -0.3120 -0.1953 -0.1381
  920MPD2    H513526   4.529   2.227  10.664 -1.7492  0.2537 -1.1974
  920MPD2    N113527   4.124   2.399  10.483  0.4350 -0.7911 -0.2846
  920MPD2    H713528   4.099   2.302  10.499  0.3222 -0.4707  1.4716
  921MPD2     C13529   4.663   1.789  16.706 -0.0994  0.1274 -0.3097
  921MPD2    C113530   4.668   1.669  16.638 -0.3371 -0.3540  0.1337
  921MPD2    C213531   4.551   1.600  16.602 -0.7581 -0.4166  0.2711
  921MPD2    C313532   4.430   1.669  16.620 -0.5526 -0.1027  0.2403
  921MPD2    C413533   4.428   1.794  16.686  0.5249  0.2272 -0.5560
  921MPD2    C513534   4.545   1.846  16.731 -0.4188 -0.3760  0.3469
  921MPD2     H13535   4.549   1.504  16.550  0.1410  0.1356 -0.7788
  921MPD2    H113536   4.334   1.843  16.709  0.0679 -0.6720 -0.5073
  921MPD2    H213537   0.013   1.853  16.725  0.5520 -0.7645 -0.2675
  921MPD2    H313538   4.543   1.946  16.773 -2.5262  0.6195 -2.1155
  921MPD2     N13539   4.302   1.616  16.575 -0.3380  0.0794 -0.9344
  921MPD2    H513540   4.227   1.683  16.567  0.3699  0.7157 -2.3171
  921MPD2    N113541   0.060   1.632  16.596  0.5860 -0.3515  0.0730
  921MPD2    H713542   0.138   1.687  16.630  1.9853 -1.1441 -1.8388
  922MPD2     C13543   0.406   4.087  17.075 -0.0176 -0.1987  0.4366
  922MPD2    C113544   0.359   4.215  17.064  0.7887 -0.1461  0.2374
  922MPD2    C213545   0.225   4.234  17.092  0.9506  1.0760  0.1746
  922MPD2    C313546   0.137   4.129  17.117  0.2085  0.4071  0.7302
  922MPD2    C413547   0.192   4.005  17.134 -0.3082  0.1472  0.1744
  922MPD2    C513548   0.325   3.990  17.125 -0.4704 -0.5851 -0.1508
  922MPD2     H13549   0.184   4.330  17.066 -1.4609 -0.0614 -0.2035
  922MPD2    H113550   0.147   3.913  17.168 -0.6141  0.6454  1.1002
  922MPD2    H213551   0.514   4.071  17.072  0.1686  1.1259  0.2078
  922MPD2    H313552   0.367   3.891  17.135  1.9039  0.1495 -2.8125
  922MPD2     N13553   0.001   4.149  17.116 -0.6296  0.3934  0.7318
  922MPD2    H513554   4.695   4.238  17.088  1.7516  2.6693  4.5584
  922MPD2    N113555   0.438   4.322  17.023 -0.5034 -0.3085 -0.1542
  922MPD2    H713556   0.403   4.417  17.015 -2.1887 -0.5840  3.8803
  923MPD2     C13557   2.092   1.204   8.839  0.1102 -0.5295  0.2193
  923MPD2    C113558   2.145   1.321   8.878 -0.6145  0.1528 -0.3520
  923MPD2    C213559   2.265   1.323   8.951  0.5345 -1.0679  0.0569
  923MPD2    C313560   2.331   1.208   8.977  0.0919  0.3042 -0.2300
  923MPD2    C413561   2.276   1.090   8.947 -0.1974 -0.4596  0.0409
  923MPD2    C513562   2.159   1.086   8.880 -0.1171  0.5489  0.3389
  923MPD2     H13563   2.307   1.415   8.989 -0.4176 -0.9595  0.8473
  923MPD2    H113564   2.326   0.995   8.964  1.3040  0.9639  3.5727
  923MPD2    H213565   2.011   1.192   8.768 -1.5799 -2.0818  2.3942
  923MPD2    H313566   2.116   0.992   8.846 -0.8252  0.6315  1.0048
  923MPD2     N13567   2.458   1.207   9.038  0.6490 -0.1667  0.6171
  923MPD2    H513568   2.513   1.122   9.030  0.3229 -0.5778  2.6708
  923MPD2    N113569   2.071   1.443   8.840  0.5940  0.9184 -0.2039
  923MPD2    H713570   1.983   1.431   8.791  1.5387 -2.0108 -1.2361
  924MPD2     C13571   2.389   4.564  15.845 -0.4120  0.3302 -0.3498
  924MPD2    C113572   2.312   4.544  15.955 -0.4917  1.0762  0.2131
  924MPD2    C213573   2.306   4.648  16.048  0.7707  1.1344  0.3303
  924MPD2    C313574   2.362   0.037  16.030 -0.0903  0.3483  0.3557
  924MPD2    C413575   2.425   0.060  15.913  0.5666 -0.2512  0.0170
  924MPD2    C513576   2.444   4.688  15.828 -0.7339 -0.8079 -0.3503
  924MPD2     H13577   2.264   4.627  16.146  0.0291  0.0921 -0.2119
  924MPD2    H113578   2.453   0.160  15.883  1.4060 -0.8213 -1.1210
  924MPD2    H213579   2.403   4.486  15.771  0.0539 -1.2635  1.4429
  924MPD2    H313580   2.505   4.705  15.740 -0.5430 -1.4910 -0.3485
  924MPD2     N13581   2.340   0.147  16.120  0.3251  0.0097 -0.6127
  924MPD2    H513582   2.367   0.238  16.085 -0.6429  0.1156 -1.0829
  924MPD2    N113583   2.263   4.417  15.979  0.3658  0.1939 -0.2731
  924MPD2    H713584   2.307   4.339  15.932  3.1578  2.0774 -0.7859
  925MPD2     C13585   1.482   2.200  14.405  0.1997  0.5880  0.6152
  925MPD2    C113586   1.348   2.221  14.389 -0.0643 -0.1987  0.2522
  925MPD2    C213587   1.257   2.214  14.492  0.0930  0.4989  0.2943
  925MPD2    C313588   1.305   2.207  14.622  0.1720 -0.4136 -0.2265
  925MPD2    C413589   1.437   2.190  14.634 -0.3270  0.1909  0.0786
  925MPD2    C513590   1.529   2.187  14.533  0.7793  0.4934 -0.0398
  925MPD2     H13591   1.153   2.238  14.476  0.9803  2.9689 -1.8154
  925MPD2    H113592   1.483   2.170  14.731  0.5575 -0.8220 -0.5433
  925MPD2    H213593   1.553   2.204  14.324 -1.6462 -0.2261 -1.0519
  925MPD2    H313594   1.636   2.173  14.548  0.5472 -0.6405  0.6102
  925MPD2     N13595   1.228   2.205  14.738 -0.6565  0.5455  0.1008
  925MPD2    H513596   1.269   2.197  14.831 -1.4681 -2.1803  0.2463
  925MPD2    N113597   1.285   2.246  14.261 -0.0473  0.8774  0.2519
  925MPD2    H713598   1.185   2.261  14.258 -0.1428  0.0662 -0.8744
  926MPD2     C13599   0.093   0.897  13.066  0.4675  0.5354  0.3689
  926MPD2    C113600   0.009   0.854  12.967 -0.0481  0.3585  0.2709
  926MPD2    C213601   0.051   0.861  12.834  0.4680  0.4334  0.0017
  926MPD2    C313602   0.189   0.874  12.808  0.1412 -0.5955 -0.1848
  926MPD2    C413603   0.277   0.905  12.909  0.7970  0.1726 -0.3376
  926MPD2    C513604   0.227   0.917  13.036 -0.2594  0.1080 -0.3783
  926MPD2     H13605   4.728   0.830  12.748  1.5246 -1.5067 -0.0371
  926MPD2    H113606   0.383   0.920  12.889  0.5338 -1.1544 -2.7077
  926MPD2    H213607   0.062   0.898  13.170  0.1349 -2.8475  0.3264
  926MPD2    H313608   0.302   0.933  13.113  1.0553  0.4083 -1.7202
  926MPD2     N13609   0.248   0.872  12.679  0.8172 -0.6781  0.2390
  926MPD2    H513610   0.349   0.885  12.684  0.5746  0.4819  1.9870
  926MPD2    N113611   4.609   0.815  12.991  0.2209 -0.1836  0.5589
  926MPD2    H713612   4.555   0.781  12.911  1.3386 -0.9523  0.1350
  927MPD2     C13613   3.610   2.889  17.583 -0.7262 -0.3353  0.9744
  927MPD2    C113614   3.704   2.875  17.682  0.3804  0.0498  0.0522
  927MPD2    C213615   3.836   2.904  17.649 -0.5803 -0.4339  0.7040
  927MPD2    C313616   3.872   2.934  17.522 -0.9901  0.6297  0.3567
  927MPD2    C413617   3.776   2.929  17.429  0.2246  0.0985 -0.3794
  927MPD2    C513618   3.642   2.914  17.453  0.3162 -0.2875 -0.4751
  927MPD2     H13619   3.911   2.903  17.727 -0.2531  0.6940  0.4097
  927MPD2    H113620   3.810   2.936  17.326 -0.9832  1.0387 -0.7228
  927MPD2    H213621   3.508   2.871  17.613 -0.7936 -1.0781  0.3158
  927MPD2    H313622   3.567   2.918  17.374 -0.0887  0.2996 -0.0666
  927MPD2     N13623   4.009   2.935  17.476  0.2092  0.5083 -0.1801
  927MPD2    H513624   4.019   2.939  17.375 -1.0488  1.8126 -0.2491
  927MPD2    N113625   3.663   2.831   0.065 -0.4679  0.3521  0.1496
  927MPD2    H713626   3.563   2.813   0.074  0.1368 -3.2217 -0.4425
  928MPD2     C13627   2.087   1.145   1.233  0.0474  0.4379  0.5692
  928MPD2    C113628   2.099   1.286   1.227  0.3182 -0.2842  0.0761
  928MPD2    C213629   2.146   1.350   1.109 -0.7155 -0.7087 -0.0775
  928MPD2    C313630   2.183   1.279   0.996 -0.1347 -0.8500 -0.4227
  928MPD2    C413631   2.171   1.142   1.006 -0.4198 -0.0632 -0.0675
  928MPD2    C513632   2.131   1.081   1.119  0.4625 -0.1107 -0.5973
  928MPD2     H13633   2.146   1.458   1.102  0.2194 -0.6152  1.2564
  928MPD2    H113634   2.178   1.073   0.922 -1.9160 -1.2840  0.8192
  928MPD2    H213635   2.045   1.096   1.320 -3.2732  1.5885 -0.3874
  928MPD2    H313636   2.106   0.976   1.111  0.1854 -0.1099  0.3229
  928MPD2     N13637   2.233   1.342   0.878  0.2187  0.4637  0.0962
  928MPD2    H513638   2.256   1.275   0.806 -0.6384 -1.5778  1.7411
  928MPD2    N113639   2.067   1.361   1.338  0.5024 -0.1208  0.1388
  928MPD2    H713640   2.054   1.304   1.420 -0.1472 -0.3020 -0.0907
  929MPD2     C13641   2.843   1.298   9.833 -0.3509 -0.1620 -0.2934
  929MPD2    C113642   2.707   1.293   9.824  1.1941 -0.2576 -0.1330
  929MPD2    C213643   2.636   1.398   9.773  0.2771 -0.8353 -0.4349
  929MPD2    C313644   2.700   1.514   9.729 -0.4378  0.3811  0.1955
  929MPD2    C413645   2.834   1.515   9.738  0.3206  0.1826  0.0187
  929MPD2    C513646   2.903   1.407   9.779  0.6444 -0.6529 -0.2152
  929MPD2     H13647   2.528   1.400   9.786  0.4375 -2.4853  1.2776
  929MPD2    H113648   2.892   1.602   9.708  0.5992  0.8478  2.4956
  929MPD2    H213649   2.903   1.216   9.871 -1.3458  0.5307  2.7810
  929MPD2    H313650   3.010   1.426   9.779  1.0742 -3.0735 -0.8164
  929MPD2     N13651   2.627   1.629   9.679 -0.3394  0.0594  0.6183
  929MPD2    H513652   2.678   1.708   9.642 -0.6309 -0.7123 -1.4144
  929MPD2    N113653   2.646   1.175   9.883  0.0587 -0.1752  0.4300
  929MPD2    H713654   2.704   1.105   9.928  2.4574  1.7437  0.2949
  930MPD2     C13655   3.922   3.097  13.537  0.4417  0.1281 -0.0611
  930MPD2    C113656   4.056   3.129  13.558 -0.2781 -0.3229 -0.3716
  930MPD2    C213657   4.134   3.172  13.449  0.1444 -0.2571  0.2264
  930MPD2    C313658   4.076   3.178  13.328 -0.6409  0.4012 -0.2744
  930MPD2    C413659   3.948   3.141  13.306 -0.2514  0.3834  0.6933
  930MPD2    C513660   3.865   3.108  13.411 -0.5470 -0.1054 -0.5792
  930MPD2     H13661   4.234   3.208  13.471 -1.0792  2.7849  0.7912
  930MPD2    H113662   3.920   3.151  13.202 -0.9072  3.2956  1.1429
  930MPD2    H213663   3.855   3.058  13.613  0.7950 -0.9353 -0.2977
  930MPD2    H313664   3.760   3.088  13.390 -0.3731 -1.6528  0.0191
  930MPD2     N13665   4.140   3.228  13.213  0.3582  0.0957 -0.4601
  930MPD2    H513666   4.080   3.257  13.136 -1.1710  1.0883  1.1194
  930MPD2    N113667   4.093   3.124  13.698 -0.2409 -0.0769 -0.3739
  930MPD2    H713668   4.015   3.121  13.763 -0.9459 -1.0167 -1.2595
  931MPD2     C13669   4.116   2.556   0.656  1.0215  0.5076  0.5826
  931MPD2    C113670   3.985   2.529   0.697  0.0878  0.5554  0.0482
  931MPD2    C213671   3.955   2.438   0.800 -0.1510  0.7204  0.0685
  931MPD2    C313672   4.054   2.378   0.870 -0.4216  0.6697  0.4031
  931MPD2    C413673   4.181   2.395   0.819  0.3024 -0.0751 -0.1620
  931MPD2    C513674   4.214   2.482   0.714  0.1968  0.8019 -0.3819
  931MPD2     H13675   3.852   2.424   0.830 -0.3653  1.0216 -0.5350
  931MPD2    H113676   4.261   2.341   0.868 -2.3743 -2.8833  1.0984
  931MPD2    H213677   4.129   2.619   0.569  0.5027  0.0139  0.1535
  931MPD2    H313678   4.313   2.511   0.682  0.6266  0.5543  0.7055
  931MPD2     N13679   4.040   2.294   0.979 -0.6272  0.3167 -0.0597
  931MPD2    H513680   4.125   2.252   1.015 -1.0342 -1.7218 -1.4940
  931MPD2    N113681   3.894   2.583   0.606 -0.0683  0.3499  0.3079
  931MPD2    H713682   3.925   2.661   0.549 -1.5670 -0.6399 -1.8856
  932MPD2     C13683   1.077   2.045  11.301  1.2867 -0.4212  0.7646
  932MPD2    C113684   1.210   2.069  11.348  0.2275  0.3019 -0.0147
  932MPD2    C213685   1.304   1.966  11.348  0.3176  0.6802 -0.0067
  932MPD2    C313686   1.267   1.834  11.315 -0.2172  1.0196  0.3093
  932MPD2    C413687   1.140   1.811  11.260  0.5158  0.0293  0.2703
  932MPD2    C513688   1.048   1.914  11.254 -0.1891  0.3836  0.0892
  932MPD2     H13689   1.402   1.988  11.388 -0.4463 -0.2762  2.4076
  932MPD2    H113690   1.108   1.714  11.224 -1.1942  0.7714 -0.1917
  932MPD2    H213691   1.001   2.122  11.309  0.3524 -0.9408 -3.1542
  932MPD2    H313692   0.949   1.898  11.212 -0.5432 -0.2366  1.1560
  932MPD2     N13693   1.372   1.738  11.336  0.7095 -0.6497  0.7754
  932MPD2    H513694   1.458   1.774  11.374  1.0618  0.4456 -1.0531
  932MPD2    N113695   1.249   2.194  11.393  0.3011 -0.5308 -0.5428
  932MPD2    H713696   1.330   2.210  11.453  0.7504  0.3679 -1.3866
  933MPD2     C13697   1.831   2.106   1.718 -0.8414 -0.2904  0.8121
  933MPD2    C113698   1.825   2.026   1.612 -0.7873 -0.6073 -0.5466
  933MPD2    C213699   1.731   2.054   1.509  0.0634  0.8572  0.1541
  933MPD2    C313700   1.657   2.172   1.511 -0.0297  0.0964 -0.1990
  933MPD2    C413701   1.664   2.259   1.619  0.1841 -0.0649 -0.1975
  933MPD2    C513702   1.750   2.220   1.722 -0.1299  0.2706  0.7541
  933MPD2     H13703   1.726   1.983   1.427  1.7707  0.7766  0.1054
  933MPD2    H113704   1.617   2.357   1.623  3.6821  1.5418  1.1819
  933MPD2    H213705   1.888   2.082   1.807 -0.5920 -0.5743  0.5767
  933MPD2    H313706   1.755   2.284   1.809 -0.5582  0.9997  0.2465
  933MPD2     N13707   1.583   2.209   1.396 -0.1967 -0.0218  0.4705
  933MPD2    H513708   1.605   2.156   1.312  0.3812  0.3347  0.3961
  933MPD2    N113709   1.907   1.915   1.581 -0.1861  0.4182  0.2923
  933MPD2    H713710   1.878   1.851   1.507  1.1196  1.3454 -1.0121
  934MPD2     C13711   3.111   4.341   1.725  0.4761 -0.2549  0.5379
  934MPD2    C113712   3.183   4.289   1.617  0.4106  0.3619  0.8251
  934MPD2    C213713   3.132   4.190   1.536 -0.0141  0.7434 -0.2873
  934MPD2    C313714   3.009   4.133   1.565  0.6681  0.5638 -0.9364
  934MPD2    C413715   2.936   4.190   1.666  0.5249  0.0536 -0.1679
  934MPD2    C513716   2.984   4.298   1.743 -0.3423  0.5214  0.1732
  934MPD2     H13717   3.202   4.157   1.461  0.8516  1.3783  0.2365
  934MPD2    H113718   2.845   4.140   1.698 -0.6831  2.1825 -0.2806
  934MPD2    H213719   3.155   4.418   1.786 -0.8115  1.3108 -0.5037
  934MPD2    H313720   2.926   4.346   1.820 -0.7321  1.2620 -0.5837
  934MPD2     N13721   2.953   4.028   1.495 -0.0155 -0.1777  0.3214
  934MPD2    H513722   2.860   3.993   1.515 -0.9059  1.7883 -0.3642
  934MPD2    N113723   3.312   4.328   1.591 -0.0249  0.4772 -0.6378
  934MPD2    H713724   3.359   4.288   1.510  0.5437  0.5881 -0.3628
  935MPD2     C13725   3.234   3.124   1.262 -0.1033  0.1296 -0.4938
  935MPD2    C113726   3.138   3.142   1.162  0.2226  0.4113 -0.1480
  935MPD2    C213727   3.087   3.270   1.163 -0.2871 -0.6507 -0.0142
  935MPD2    C313728   3.123   3.366   1.259 -0.2255 -0.2541 -0.3058
  935MPD2    C413729   3.214   3.338   1.360  0.0379  0.1225  0.0843
  935MPD2    C513730   3.271   3.216   1.361  0.1413 -0.2607 -0.3587
  935MPD2     H13731   3.022   3.290   1.078  0.7580  1.1842 -0.3684
  935MPD2    H113732   3.236   3.410   1.438 -1.0794 -0.8323  1.2835
  935MPD2    H213733   3.273   3.023   1.273 -1.5215 -0.1520  1.8766
  935MPD2    H313734   3.334   3.187   1.444 -0.1449 -0.9008 -0.3618
  935MPD2     N13735   3.064   3.495   1.261 -0.0821  0.4412 -0.3555
  935MPD2    H513736   3.082   3.552   1.343  0.2121  1.0142 -0.8167
  935MPD2    N113737   3.095   3.051   1.061 -0.1494  0.2490  0.1068
  935MPD2    H713738   3.029   3.093   0.996  0.8172  1.2966 -0.1981
  936MPD2     C13739   1.934   0.474  12.400 -0.2275 -0.6715 -0.2476
  936MPD2    C113740   1.935   0.504  12.532  0.7239 -0.2766 -0.6027
  936MPD2    C213741   1.978   0.630  12.568  0.0030  0.5043 -0.1664
  936MPD2    C313742   2.003   0.729  12.483  0.1589 -0.1001 -0.3906
  936MPD2    C413743   2.006   0.696  12.350 -0.6696  0.4097  0.5111
  936MPD2    C513744   1.974   0.567  12.312  0.5692 -0.4492 -0.3048
  936MPD2     H13745   1.991   0.653  12.673  0.9752  0.3423 -0.2490
  936MPD2    H113746   2.043   0.766  12.276  3.5424  1.5653  3.7134
  936MPD2    H213747   1.915   0.373  12.365 -0.2268 -0.8113  0.1555
  936MPD2    H313748   1.971   0.543  12.206  0.6079  0.7420 -0.5748
  936MPD2     N13749   2.039   0.857  12.526 -0.0901 -0.1976  0.1818
  936MPD2    H513750   2.061   0.922  12.451 -1.6857  0.5522  0.3594
  936MPD2    N113751   1.936   0.416  12.642  0.0767  0.5344 -0.2180
  936MPD2    H713752   1.932   0.468  12.729 -1.0982  0.7632 -0.4072
  937MPD2     C13753   4.578   1.437  11.662  0.2145  0.3539  0.0073
  937MPD2    C113754   4.546   1.549  11.594 -0.3060  0.1960 -0.4483
  937MPD2    C213755   4.616   1.559  11.482  0.3026 -0.2296  0.6631
  937MPD2    C313756   4.698   1.469  11.426 -0.0659  0.1761 -0.1454
  937MPD2    C413757   4.714   1.343  11.490 -0.3762 -0.3866  0.1493
  937MPD2    C513758   4.654   1.335  11.612 -0.1573 -0.2695  0.2290
  937MPD2     H13759   4.611   1.659  11.439 -1.4788 -0.3187  0.6824
  937MPD2    H113760   0.035   1.259  11.454 -2.8852 -2.2613  0.5664
  937MPD2    H213761   4.535   1.418  11.760  1.2079  0.8696  0.5390
  937MPD2    H313762   4.657   1.246  11.675  1.0355 -1.1336 -1.0518
  937MPD2     N13763   0.023   1.506  11.304  0.2752 -0.3513 -0.1816
  937MPD2    H513764   0.016   1.603  11.276 -3.2416 -0.0090  1.8918
  937MPD2    N113765   4.510   1.669  11.658  0.2818 -0.0345  0.9956
  937MPD2    H713766   4.526   1.757  11.609 -1.4707 -0.9638 -1.2721
  938MPD2     C13767   2.053   3.504   0.193  0.1215  0.1243 -0.6053
  938MPD2    C113768   2.105   3.568   0.310  0.0836  0.1969  0.1331
  938MPD2    C213769   2.116   3.493   0.429 -0.7336 -0.1452  0.1740
  938MPD2    C313770   2.091   3.356   0.427  0.2047 -0.7583  0.1919
  938MPD2    C413771   2.045   3.293   0.313 -0.0995  0.1113 -0.6175
  938MPD2    C513772   2.026   3.369   0.200  0.2536  0.2965 -0.4983
  938MPD2     H13773   2.140   3.553   0.517 -1.3179  0.5588 -0.1418
  938MPD2    H113774   2.030   3.186   0.315 -1.3565  0.3417  1.9973
  938MPD2    H213775   2.020   3.555   0.103  0.0538  1.0548 -0.0496
  938MPD2    H313776   1.970   3.320   0.121 -0.4061  0.6312 -0.2335
  938MPD2     N13777   2.104   3.269   0.540 -1.0427 -0.0004  1.0934
  938MPD2    H513778   2.090   3.170   0.519 -0.6623 -0.1548  1.5829
  938MPD2    N113779   2.137   3.706   0.320 -0.2061 -0.2729  0.0298
  938MPD2    H713780   2.194   3.730   0.400 -0.3831 -0.7912  0.3124
  939MPD2     C13781   2.992   4.675   0.499 -0.1955  0.0505 -0.9019
  939MPD2    C113782   3.096   4.608   0.558 -0.2632  0.1003  0.6329
  939MPD2    C213783   3.152   4.497   0.491  0.1571 -0.5218  0.2869
  939MPD2    C313784   3.121   4.451   0.365  0.0177 -0.1536 -0.6999
  939MPD2    C413785   3.016   4.517   0.309 -0.2117 -0.1063  0.0742
  939MPD2    C513786   2.953   4.623   0.375 -0.0812 -0.4837  0.2781
  939MPD2     H13787   3.243   4.457   0.535  0.9243  1.1470  0.2012
  939MPD2    H113788   2.979   4.493   0.210  2.1553 -0.6077 -0.6829
  939MPD2    H213789   2.943   0.024   0.545  0.2991 -0.5367  0.7118
  939MPD2    H313790   2.868   4.663   0.321 -1.7168 -2.8284  1.1200
  939MPD2     N13791   3.187   4.331   0.309  0.0241  0.1968  0.6223
  939MPD2    H513792   3.263   4.291   0.362  0.4051  0.9338  0.6319
  939MPD2    N113793   3.145   4.659   0.685 -0.8716  0.3931  1.3298
  939MPD2    H713794   3.095   0.001   0.727 -1.7102  1.0057 -0.8314
  940MPD2     C13795   2.723   0.683  13.796  0.1933 -0.1229  0.1364
  940MPD2    C113796   2.611   0.663  13.710  0.2198  1.0942 -0.9430
  940MPD2    C213797   2.637   0.652  13.573 -0.7948 -0.3138  0.5830
  940MPD2    C313798   2.764   0.681  13.520  1.0051  0.0864 -1.1281
  940MPD2    C413799   2.872   0.698  13.603  0.1618 -0.0918 -0.3283
  940MPD2    C513800   2.853   0.691  13.741  0.2925 -0.5010 -0.0357
  940MPD2     H13801   2.558   0.635  13.500  0.1878  2.2754 -1.0727
  940MPD2    H113802   2.969   0.723  13.562  0.8826 -1.7896  0.3299
  940MPD2    H213803   2.722   0.685  13.904  1.9759 -0.6212  0.1723
  940MPD2    H313804   2.933   0.713  13.811 -0.0305 -0.9129  0.4638
  940MPD2     N13805   2.781   0.695  13.385  0.4032 -0.0955  0.3516
  940MPD2    H513806   2.873   0.733  13.364  1.0082 -1.0279  1.3334
  940MPD2    N113807   2.480   0.656  13.763  0.7021  0.2538  0.0239
  940MPD2    H713808   2.410   0.654  13.689  2.9306  1.7815 -2.1230
  941MPD2     C13809   1.198   0.052   9.961 -0.1331 -0.9541 -0.1405
  941MPD2    C113810   1.293   4.700  10.011 -0.5447 -0.7339 -0.3468
  941MPD2    C213811   1.255   4.592  10.085 -0.5972 -0.2637  0.4853
  941MPD2    C313812   1.120   4.561  10.097 -0.3309 -0.0717  0.2266
  941MPD2    C413813   1.027   4.639  10.031 -0.4403 -0.1770  0.5201
  941MPD2    C513814   1.063   0.023   9.975  0.1560 -0.2686  0.3786
  941MPD2     H13815   1.333   4.532  10.131  0.9034  1.3513  0.0440
  941MPD2    H113816   0.922   4.612  10.037 -0.2153 -1.5620 -1.4854
  941MPD2    H213817   1.221   0.149   9.918 -1.0073 -0.5411  0.3299
  941MPD2    H313818   0.982   0.092   9.953  0.7191  0.4745  0.6377
  941MPD2     N13819   1.072   4.448  10.159  1.0106  0.2196  0.0339
  941MPD2    H513820   0.973   4.432  10.176  0.8940 -0.1662 -1.0196
  941MPD2    N113821   1.426   0.003  10.016 -0.7897  0.2041 -0.0165
  941MPD2    H713822   1.482   4.711  10.096 -0.0827  1.2467 -0.1567
  942MPD2     C13823   0.793   1.991   9.113  0.3963 -0.6157 -0.3923
  942MPD2    C113824   0.901   1.955   9.192 -0.8691 -0.1698 -0.0863
  942MPD2    C213825   1.014   1.902   9.128 -0.0634  0.4019 -0.3026
  942MPD2    C313826   1.014   1.889   8.989 -0.0762 -0.3929 -0.3123
  942MPD2    C413827   0.904   1.923   8.911  0.1525  0.1520  0.0814
  942MPD2    C513828   0.796   1.971   8.981 -0.2650 -0.2476  0.8031
  942MPD2     H13829   1.103   1.886   9.187 -2.0191 -3.5633  1.5500
  942MPD2    H113830   0.908   1.918   8.803 -0.9220  0.3261  0.0401
  942MPD2    H213831   0.699   2.019   9.159 -0.2225  0.1705 -2.1503
  942MPD2    H313832   0.706   2.002   8.928 -0.0133 -0.8330  0.0474
  942MPD2     N13833   1.136   1.841   8.938 -0.4117  0.1927  0.2916
  942MPD2    H513834   1.197   1.808   9.013  1.8339  0.8397 -1.2414
  942MPD2    N113835   0.890   1.959   9.337  0.6300 -0.6349  0.2411
  942MPD2    H713836   0.955   1.904   9.392  0.5420  1.4577  2.4364
  943MPD2     C13837   0.766   0.154  10.162  0.0620  0.6251  0.5077
  943MPD2    C113838   0.757   0.030  10.227  0.1405 -0.0846  0.2713
  943MPD2    C213839   0.859   4.721  10.313 -0.7475 -0.4598 -0.2736
  943MPD2    C313840   0.976   0.056  10.330  0.3355 -0.7254  0.3361
  943MPD2    C413841   0.983   0.179  10.267  0.6096  0.3094  0.0644
  943MPD2    C513842   0.876   0.232  10.193  0.5375  0.4993  0.5569
  943MPD2     H13843   0.851   4.627  10.367 -0.0957  0.1436  0.8698
  943MPD2    H113844   1.068   0.246  10.275  0.0498  0.8251  1.7582
  943MPD2    H213845   0.680   0.195  10.110 -1.3739 -2.2809  0.5739
  943MPD2    H313846   0.880   0.330  10.145  0.5237 -1.0720 -2.6338
  943MPD2     N13847   1.084   0.006  10.409 -0.0428 -0.0682  0.3569
  943MPD2    H513848   1.168   0.063  10.407 -0.3974  0.4853  1.6490
  943MPD2    N113849   0.650   4.688  10.199 -0.2227  0.0649  0.7005
  943MPD2    H713850   0.572   4.732  10.151 -0.1732  0.9640  1.4447
  944MPD2     C13851   0.860   2.689  11.145  0.7960 -0.0718 -0.2121
  944MPD2    C113852   0.860   2.795  11.057 -0.5910 -0.2577  0.0809
  944MPD2    C213853   0.807   2.918  11.092 -0.6392 -0.0563  0.2992
  944MPD2    C313854   0.726   2.922  11.200 -0.2485 -0.5820 -0.4765
  944MPD2    C413855   0.707   2.807  11.275  0.6473 -0.5163 -0.2674
  944MPD2    C513856   0.778   2.693  11.248  1.0042 -0.2147 -0.6003
  944MPD2     H13857   0.832   3.003  11.030  0.7940 -2.3638 -2.2784
  944MPD2    H113858   0.648   2.811  11.366  2.3466  2.0329  0.6921
  944MPD2    H213859   0.918   2.600  11.126  0.5186 -0.5774  1.2628
  944MPD2    H313860   0.769   2.608  11.315 -1.4112  0.7728  0.3022
  944MPD2     N13861   0.671   3.045  11.247 -0.4272 -0.4332  0.4626
  944MPD2    H513862   0.687   3.127  11.188  0.6807 -0.7687  0.2915
  944MPD2    N113863   0.918   2.771  10.936 -0.0276  0.0170  0.7019
  944MPD2    H713864   0.951   2.678  10.914 -1.7660 -0.3088 -0.5443
    1TMC1    C113865   2.611   4.416  13.950  0.4938  0.2962 -0.2376
    1TMC1    C213866   2.563   4.539  13.921  0.0144 -0.0729 -0.0015
    1TMC1    C313867   2.447   4.553  13.846  0.2487 -0.0812  0.0036
    1TMC1    C413868   2.550   4.301  13.899  0.4888 -0.1792  0.2736
    1TMC1    C513869   2.432   4.317  13.828 -0.7589 -0.3547  0.1178
    1TMC1    C613870   2.373   4.444  13.801 -0.2019  1.7313 -0.9513
    1TMC1     C13871   2.729   4.392  14.035 -0.0130  0.0334 -0.3133
    1TMC1     O13872   2.782   4.284  14.021  0.9049  0.3911  0.0900
    1TMC1     H13873   2.636   4.618  13.939  0.5087  0.2649 -3.5973
    1TMC1    H113874   2.588   4.203  13.924 -1.3425 -0.9077  0.1923
    1TMC1    H213875   2.287   4.459  13.737 -0.7976  0.0186 -0.5462
    1TMC1    C713876   2.363   4.194  13.815 -0.2189  0.4987 -0.2536
    1TMC1    C813877   2.393   4.680  13.842  0.4846  0.1923 -0.0473
    1TMC1    O113878   2.375   4.107  13.896  0.5075 -0.5718  0.1038
    1TMC1    O213879   2.277   4.705  13.878  0.8467 -0.1694 -0.1014
    1TMC1    O313880   2.248   4.230  13.760 -0.0595 -0.4942 -0.1407
    1TMC1    H313881   2.261   4.276  13.674  0.7284 -0.6054 -0.0835
    1TMC1    O513882   2.499   0.027  13.821  0.2650 -0.6203 -0.3753
    1TMC1    H513883   2.571   4.710  13.781 -0.1888 -1.8870  0.4619
    2MPD2     C13884   3.087   4.544  14.372  0.9512 -0.1659 -0.5315
    2MPD2    C113885   3.003   4.650  14.356  0.4860 -0.0243 -0.5700
    2MPD2    C213886   2.905   4.634  14.264  0.6555  0.0325 -0.5322
    2MPD2    C313887   2.892   4.521  14.188 -0.2992  0.2010 -0.5340
    2MPD2    C413888   2.972   4.408  14.207 -0.5443  0.5423  0.4340
    2MPD2    C513889   3.077   4.431  14.293  0.1147 -0.0199 -0.3872
    2MPD2     H13890   2.827   4.709  14.256  1.1830  0.7734  1.3295
    2MPD2    H113891   2.964   4.314  14.156 -0.6406 -0.5995  2.5371
    2MPD2    H213892   3.163   4.561  14.447  0.9601  1.2785 -0.8813
    2MPD2    H313893   3.143   4.346  14.308 -0.2292 -0.5147 -1.6993
    2MPD2     N13894   2.775   4.503  14.105 -0.2697 -0.3884 -0.5963
    2MPD2    H513895   2.716   4.586  14.101 -1.9052 -1.5673 -1.1378
    2MPD2    N113896   3.019   0.025  14.442  0.0202  0.3237  0.1401
    2MPD2    H713897   3.101   0.022  14.502  1.3358  0.6583 -1.6454
    3TMC2    C113898   2.982   0.232  14.544  0.2044 -0.5217 -0.4472
    3TMC2    C213899   3.100   0.225  14.609 -0.2183  0.2165  0.1188
    3TMC2    C313900   3.128   0.327  14.703  0.5443  0.0789 -0.0030
    3TMC2    C413901   2.896   0.331  14.561  0.1718  0.5295 -0.0674
    3TMC2    C513902   2.919   0.423  14.658  0.5397  0.5892  0.4536
    3TMC2    C613903   3.038   0.427  14.728 -0.2350  0.2031 -0.3779
    3TMC2     C13904   2.942   0.135  14.442 -0.0129  0.6252  0.2014
    3TMC2     O13905   2.836   0.157  14.377  0.6864 -0.1918 -0.5134
    3TMC2     H13906   3.174   0.147  14.593 -2.3822 -1.7913 -0.1934
    3TMC2    H113907   2.812   0.355  14.497  1.9717  0.1102 -2.5943
    3TMC2    H213908   3.052   0.500  14.807 -0.7442  0.6215 -0.6708
    3TMC2    C713909   2.859   0.553  14.637 -0.0603 -0.7197 -0.5501
    3TMC2    C813910   3.251   0.313  14.776 -0.5859 -0.7688 -0.5277
    3TMC2    O113911   2.860   0.635  14.729  0.0113 -0.4036  0.2189
    3TMC2    O213912   3.321   0.216  14.791 -0.2238  0.0979  0.6455
    3TMC2    O513913   3.262   0.423  14.862 -0.3760  0.2417 -0.2996
    3TMC2    H513914   3.240   0.509  14.821  0.5543  1.0425  0.9011
    4TMC2    C113915   2.865   1.015  13.755 -0.2666 -0.3504 -0.4634
    4TMC2    C213916   2.991   1.027  13.696 -0.3410 -0.8993 -0.1695
    4TMC2    C313917   3.104   1.002  13.776  0.3973 -0.3803 -0.6216
    4TMC2    C413918   2.847   0.976  13.887 -0.2379  0.3157  0.4571
    4TMC2    C513919   2.958   0.953  13.958  0.2961 -0.0914 -0.0285
    4TMC2    C613920   3.085   0.965  13.908  0.4208  0.1286  0.4418
    4TMC2     C13921   2.757   1.031  13.670  0.0618  0.1879  0.1236
    4TMC2     O13922   2.782   1.037  13.550  0.2468 -0.1294 -0.0134
    4TMC2     H13923   2.999   1.032  13.588  1.1483  0.7157  0.0301
    4TMC2    H113924   2.751   0.953  13.933 -2.4507 -0.4115 -4.4820
    4TMC2    H213925   3.170   0.941  13.971  0.1969 -0.9444  0.3412
    4TMC2    C713926   2.945   0.889  14.089 -0.5161 -0.0925 -0.1654
    4TMC2    C813927   3.233   1.061  13.745 -0.5921 -0.9245  0.0387
    4TMC2    O113928   3.041   0.822  14.127 -0.1219 -0.0868  0.1481
    4TMC2    O213929   3.297   1.104  13.842  0.2770  0.2721  0.3471
    4TMC2    O513930   3.215   1.128  13.629  0.2417 -0.1807  0.3453
    4TMC2    H513931   3.200   1.063  13.557 -1.2124  2.6231 -1.8849
    5MPD2     C13932   2.253   0.937  13.583  0.0211  0.9990  0.5551
    5MPD2    C113933   2.272   0.977  13.713  0.2331  0.1530 -0.4772
    5MPD2    C213934   2.405   0.998  13.754 -0.4627 -0.1373 -0.4339
    5MPD2    C313935   2.510   0.992  13.674 -0.1877 -0.2896  0.3005
    5MPD2    C413936   2.493   0.967  13.540 -0.7513 -0.0811 -0.1050
    5MPD2    C513937   2.364   0.940  13.495 -0.5158 -0.5882 -0.3441
    5MPD2     H13938   2.419   1.037  13.854 -3.8655 -0.9746  0.3840
    5MPD2    H113939   2.575   0.962  13.469  0.3215 -1.3100  1.2144
    5MPD2    H213940   2.151   0.916  13.553  0.5539 -2.0714  0.8783
    5MPD2    H313941   2.342   0.931  13.390 -0.7803  0.8428 -0.4168
    5MPD2     N13942   2.636   1.018  13.735 -0.3332 -0.1817 -0.0619
    5MPD2    H513943   2.642   1.031  13.835 -0.4913  0.2197 -0.1071
    5MPD2    N113944   2.163   0.997  13.796  0.1392  0.0531  0.0196
    5MPD2    H713945   2.077   0.996  13.742  1.5022  1.9663 -2.2063
    6MPD1     C13946   0.587   0.459  13.455 -0.0282  0.7291  0.0078
    6MPD1    C113947   0.643   0.502  13.335 -0.0389  0.0312  0.4748
    6MPD1    C213948   0.767   0.558  13.341 -0.3870  0.1806 -0.1552
    6MPD1    C313949   0.828   0.591  13.458  0.5437 -0.3618  0.0365
    6MPD1    C413950   0.768   0.544  13.574 -0.1812 -0.7193  0.0941
    6MPD1    C513951   0.650   0.475  13.576  0.0028  0.3385  0.7220
    6MPD1     H13952   0.810   0.581  13.244 -2.8698  1.0839 -1.0604
    6MPD1    H113953   0.819   0.543  13.670 -1.5649  1.0636  0.8288
    6MPD1    H213954   0.493   0.406  13.464 -0.1848  1.0143  0.0346
    6MPD1    H313955   0.611   0.438  13.670 -5.0686 -1.2085 -1.9849
    6MPD1     N13956   0.958   0.646  13.472 -0.2594  0.0288 -0.7221
    6MPD1    H513957   0.996   0.671  13.563 -0.5131  0.2481 -0.6779
    6MPD1    N113958   0.571   0.484  13.213  0.6828 -0.1110 -0.4768
    6MPD1    H613959   0.600   0.519  13.122  3.1961 -2.5723 -0.6521
    6MPD1    H713960   0.471   0.493  13.224  0.7163 -1.2122  0.8314
    7MPD2     C13961   1.579   0.537  13.908 -0.1266 -0.0548  0.2113
    7MPD2    C113962   1.548   0.659  13.844  0.3217  0.2285 -0.2353
    7MPD2    C213963   1.595   0.773  13.906  0.5183  0.0274  0.3765
    7MPD2    C313964   1.669   0.773  14.021  0.2070 -0.5621  0.0760
    7MPD2    C413965   1.700   0.657  14.080  0.2811 -0.0944  0.0382
    7MPD2    C513966   1.651   0.541  14.025 -0.3928 -0.5629  0.4726
    7MPD2     H13967   1.578   0.870  13.859  1.0788 -0.3017 -0.5001
    7MPD2    H113968   1.761   0.640  14.168 -3.5349  1.0108  2.8929
    7MPD2    H213969   1.539   0.444  13.872  1.5757  0.1073 -2.1413
    7MPD2    H313970   1.682   0.451  14.076  1.0604 -0.6238 -0.5157
    7MPD2     N13971   1.720   0.899  14.066 -0.4383 -0.0856  0.2991
    7MPD2    H513972   1.692   0.976  14.006  1.0111 -1.0722 -1.6273
    7MPD2    N113973   1.478   0.674  13.713 -0.6546  0.0280  1.0927
    7MPD2    H713974   1.467   0.769  13.681  1.4546  0.3381  1.2959
    8TMC3    C113975   1.879   1.039  14.134 -0.1141 -0.3396 -0.3479
    8TMC3    C213976   2.008   1.015  14.093 -0.4816 -0.0020 -0.9417
    8TMC3    C313977   2.039   1.061  13.972 -0.1585 -0.0466  0.3516
    8TMC3    C413978   1.802   1.132  14.072  0.7072 -0.0578 -0.2742
    8TMC3    C513979   1.849   1.195  13.957 -0.1181  0.9690 -0.2672
    8TMC3    C613980   1.965   1.150  13.900 -0.4671 -0.6525  0.9431
    8TMC3     C13981   1.815   0.917  14.168 -0.0796 -0.2490  0.0613
    8TMC3     O13982   1.867   0.842  14.254  0.2550  0.5859 -0.0368
    8TMC3     H13983   2.066   0.939  14.144  0.2963  0.2469 -1.4609
    8TMC3    H113984   1.702   1.156  14.105  0.4971 -0.1945 -0.8037
    8TMC3    H213985   1.999   1.177  13.801  1.1833  1.6559  2.1291
    8TMC3    C713986   1.742   1.181  13.861 -0.7130 -0.1798  0.2912
    8TMC3    C813987   2.163   1.014  13.929 -0.7552  0.0016 -0.8769
    8TMC3    O113988   1.655   1.099  13.890  0.5204  0.4750 -0.3343
    8TMC3    O213989   2.258   0.994  14.008  0.1448  0.2695 -0.6133
    9TMC3    C113990   1.171   0.697  13.403 -0.3807 -0.0250  0.1581
    9TMC3    C213991   1.236   0.798  13.343  0.6516 -0.0928 -0.0449
    9TMC3    C313992   1.363   0.818  13.381  0.4716 -0.2673  0.3685
    9TMC3    C413993   1.221   0.619  13.501 -0.1968  0.4145  0.4431
    9TMC3    C513994   1.354   0.641  13.534 -0.7019 -0.3970  0.1683
    9TMC3    C613995   1.422   0.746  13.480 -0.2729  0.2220 -0.1696
    9TMC3     C13996   1.036   0.677  13.362 -0.3696  0.5039  0.0004
    9TMC3     O13997   0.991   0.725  13.256 -0.1951  0.4485 -0.6341
    9TMC3     H13998   1.183   0.857  13.269 -0.8486  0.1185  1.1883
    9TMC3    H113999   1.166   0.536  13.544  2.6148 -1.8061 -0.2172
    9TMC3    H214000   1.527   0.759  13.504 -0.1864  0.3068 -0.5994
    9TMC3    C714001   1.408   0.573  13.645 -0.7305  0.2580 -0.1228
    9TMC3    C814002   1.416   0.949  13.351 -0.3033 -0.4038 -0.5111
    9TMC3    O114003   1.369   0.460  13.671  0.1091 -0.1869 -0.3638
    9TMC3    O214004   1.402   1.015  13.246 -0.4112 -0.0214 -0.0167
   10MPD2     C14005   1.741   1.313  13.509 -0.5825 -0.4082  0.4212
   10MPD2    C114006   1.708   1.225  13.618  0.1872  0.5559 -0.8626
   10MPD2    C214007   1.613   1.128  13.595  0.3663  0.1236 -0.0086
   10MPD2    C314008   1.569   1.097  13.465  0.5133  0.3333 -0.7384
   10MPD2    C414009   1.600   1.191  13.368  0.5200  0.5092  0.0624
   10MPD2    C514010   1.688   1.298  13.387 -0.3521 -0.8825  0.3544
   10MPD2     H14011   1.588   1.058  13.673 -1.7408  1.8435  0.8285
   10MPD2    H114012   1.573   1.168  13.265 -1.6674 -0.9736  0.9794
   10MPD2    H214013   1.818   1.388  13.522  0.5571 -1.6712  0.9652
   10MPD2    H314014   1.706   1.359  13.299 -1.2010  0.9056  1.4212
   10MPD2     N14015   1.483   0.987  13.456 -0.2479 -0.6157  0.1129
   10MPD2    H514016   1.453   0.938  13.540 -0.1771 -0.3770  0.2787
   10MPD2    N114017   1.771   1.248  13.745  0.3412  0.0732 -0.3610
   10MPD2    H714018   1.837   1.325  13.746  0.3978  0.0226 -0.1388
   11MPD2     C14019   2.732   0.798  14.543 -0.6983  0.6546  0.5360
   11MPD2    C114020   2.805   0.712  14.460 -1.1746  0.2724 -0.0375
   11MPD2    C214021   2.836   0.753  14.331 -0.7255 -0.3918 -0.4701
   11MPD2    C314022   2.783   0.869  14.273  0.0397  0.0575 -0.0083
   11MPD2    C414023   2.699   0.940  14.353 -1.3594 -0.0977  0.7454
   11MPD2    C514024   2.677   0.913  14.483  0.1318 -0.8013  0.5434
   11MPD2     H14025   2.911   0.697  14.277  0.9839  2.3857 -0.9433
   11MPD2    H114026   2.665   1.034  14.312  1.4219 -0.6216 -2.7517
   11MPD2    H214027   2.711   0.775  14.647  1.8507 -2.0879  0.4542
   11MPD2    H314028   2.597   0.974  14.525 -1.8104 -3.4825  0.7493
   11MPD2     N14029   2.831   0.925  14.155  0.6730  0.6492 -0.7935
   11MPD2    H514030   2.778   0.997  14.108  0.8945  1.4500  0.1887
   11MPD2    N114031   2.855   0.586  14.505  0.5219 -0.1241  0.2135
   11MPD2    H714032   2.893   0.528  14.431  0.4658  1.9294 -1.4077
    1MPD1     C14033   4.683   1.843  17.621  0.0643  0.0005 -0.3447
    1MPD1    C114034   0.023   1.961  17.638 -0.6127 -0.3264  0.3711
    1MPD1    C214035   0.070   2.023  17.522  0.1376 -0.1927  1.5177
    1MPD1    C314036   0.027   1.971  17.400 -0.1898  0.0332  0.8940
    1MPD1    C414037   4.687   1.858  17.388  0.3255  0.3199  0.4680
    1MPD1    C514038   4.644   1.789  17.499  0.1801 -0.1687  0.0347
    1MPD1     H14039   0.134   2.110  17.532  0.9187 -0.7404  1.2252
    1MPD1    H114040   4.657   1.825  17.289  0.8060 -0.4599  0.5826
    1MPD1    H214041   4.658   1.778  17.704  3.3890 -1.9219 -0.8575
    1MPD1    H314042   4.586   1.697  17.499  1.2907 -0.8608 -1.5208
    1MPD1     N14043   0.068   2.012  17.278  0.2894 -0.0365  0.1365
    1MPD1    H514044   0.040   1.953  17.200 -0.1968  0.6428 -0.1964
    1MPD1    N114045   0.076   1.984   0.022 -0.1188 -0.4697 -0.0629
    1MPD1    H614046   0.001   1.978   0.092  0.4867 -2.4125  0.3909
    1MPD1    H714047   0.106   2.081   0.033 -2.0150  0.4000 -2.4321
    2MPD1     C14048   1.002   2.393  17.224  0.5878 -0.1383  0.3513
    2MPD1    C114049   0.901   2.411  17.313 -0.6293  0.0284 -0.3900
    2MPD1    C214050   0.774   2.371  17.279  0.4647  0.5019 -0.3899
    2MPD1    C314051   0.744   2.299  17.171 -1.3525  0.3995  0.6814
    2MPD1    C414052   0.851   2.274  17.085  0.2906 -0.1537 -0.2258
    2MPD1    C514053   0.978   2.317  17.111  0.4401  0.4214  0.8407
    2MPD1     H14054   0.693   2.410  17.339  0.6748 -0.6347  0.6422
    2MPD1    H114055   0.830   2.222  16.992 -1.4391 -0.1896  0.1864
    2MPD1    H214056   1.102   2.435  17.233  0.1066  1.3847 -1.3696
    2MPD1    H314057   1.057   2.291  17.041  0.1232  3.0591 -0.4974
    2MPD1     N14058   0.603   2.261  17.145 -0.3907  0.3856  0.1528
    2MPD1    H514059   0.534   2.294  17.212 -1.9783 -0.7787 -0.8945
    2MPD1    N114060   0.924   2.496  17.427 -0.5230 -0.4982  0.0005
    2MPD1    H614061   1.023   2.516  17.441 -0.6905 -1.3038  2.3745
    2MPD1    H714062   0.877   2.473  17.515 -0.9019  0.2174 -0.0163
    3TMC3    C114063   0.429   2.154  17.030  0.1499 -0.0153 -1.0012
    3TMC3    C214064   0.380   2.108  16.907  0.0921  0.1381  0.4449
    3TMC3    C314065   0.260   2.058  16.901  0.1673  0.1089  0.4808
    3TMC3    C414066   0.358   2.148  17.144 -0.6518 -0.2331  0.0252
    3TMC3    C514067   0.234   2.093  17.134  0.7069 -0.5053  0.2479
    3TMC3    C614068   0.183   2.056  17.014  0.1112  0.4293 -0.0575
    3TMC3     C14069   0.560   2.206  17.025  0.2974 -1.3483 -0.6506
    3TMC3     O14070   0.610   2.181  16.918 -0.2858  0.7022  0.2589
    3TMC3     H14071   0.433   2.134  16.816  1.7327 -0.3840  1.2416
    3TMC3    H114072   0.394   2.176  17.242  1.3555  0.6912 -0.9774
    3TMC3    H214073   0.078   2.029  17.009 -0.2715  2.1187 -1.0010
    3TMC3    C714074   0.152   2.116  17.251 -1.0906 -0.1139  0.9092
    3TMC3    C814075   0.191   2.055  16.775  0.1705 -0.0710  0.0803
    3TMC3    O114076   0.195   2.202  17.328  0.1793 -0.2724 -0.1647
    3TMC3    O214077   0.072   2.078  16.777  0.1758 -0.4141  1.0126
    4MPD1     C14078   0.148   2.010  16.272 -0.1416  0.3145  0.5703
    4MPD1    C114079   0.285   2.025  16.300 -0.5642 -0.0464  0.3706
    4MPD1    C214080   0.318   2.022  16.440 -0.2415 -0.3601 -0.1509
    4MPD1    C314081   0.223   2.019  16.534  0.2210 -0.2935 -0.3866
    4MPD1    C414082   0.090   2.006  16.507  0.3819 -0.7623 -0.0754
    4MPD1    C514083   0.054   2.003  16.372 -0.4169 -0.4177  0.5230
    4MPD1     H14084   0.417   2.039  16.482  1.2550  0.6207 -4.1201
    4MPD1    H114085   0.015   2.013  16.585  1.6865 -2.5466  1.3406
    4MPD1    H214086   0.113   2.006  16.169  2.9613  0.1513 -0.4665
    4MPD1    H314087   4.687   1.998  16.339 -0.2153 -1.2577  0.0354
    4MPD1     N14088   0.273   2.022  16.667 -0.3107  0.2803  0.0212
    4MPD1    H514089   0.374   2.016  16.680 -0.1906 -0.3180 -1.1549
    4MPD1    N114090   0.387   2.027  16.198  0.1576 -0.1156  0.6525
    4MPD1    H614091   0.479   2.064  16.220 -0.3530  0.9314  1.0289
    4MPD1    H714092   0.417   1.932  16.177 -0.1806  0.0894 -0.7336
    1TCq1    O114093   2.395   1.614  11.495  0.4918  0.3434 -0.8453
    1TCq1    C114094   2.329   1.528  11.572 -0.2073  0.1261  0.9678
    1TCq1    O214095   2.350   1.406  11.597 -0.1137  0.9963 -0.2688
    1TCq1    C214096   2.210   1.597  11.607  0.3940 -0.3496 -0.0813
    1TCq1    C314097   2.146   1.645  11.496 -0.0164 -0.2049  0.5496
    1TCq1    C414098   2.039   1.732  11.515  0.2365  0.3569  0.3254
    1TCq1    C514099   1.996   1.763  11.641  0.2813 -0.5336 -0.1043
    1TCq1    C614100   2.081   1.726  11.744 -0.0904  0.8063 -0.2070
    1TCq1    C714101   2.197   1.651  11.734  0.4882 -0.2073 -0.3082
    1TCq1    C814102   2.043   1.785  11.871  0.4713  0.2080  0.1854
    1TCq1    O414103   1.923   1.807  11.891 -0.3827  0.3272 -0.2560
    1TCq1    C914104   1.942   1.747  11.407  0.0639  0.1854 -0.0145
    1TCq1    O514105   1.962   1.688  11.298  0.1594  0.0143 -0.1871
    1TCq1    O614106   1.844   1.825  11.430  0.3250  0.1858  0.2740
    1TCq1    H114107   2.362   1.705  11.505 -1.2034 -0.3299 -0.4155
    1TCq1    H214108   2.166   1.605  11.397 -0.3356 -2.1575  1.2648
    1TCq1    H314109   1.906   1.822  11.653  1.9836  2.0500 -0.1351
    1TCq1    H414110   2.262   1.616  11.814 -1.9785  1.0803  2.2691
    2MPD1     C14111   2.136   2.063  12.292  0.1609  0.3012  0.0879
    2MPD1    C114112   2.256   2.015  12.250 -0.6092 -0.3867 -0.1202
    2MPD1    C214113   2.260   1.935  12.132  0.5772  0.0787  0.0187
    2MPD1    C314114   2.137   1.899  12.075  0.4400  0.0057  0.0669
    2MPD1    C414115   2.022   1.973  12.110  0.3443 -0.1464  0.9172
    2MPD1    C514116   2.014   2.050  12.223 -0.3686 -0.0767  0.2025
    2MPD1     H14117   2.360   1.909  12.098  1.5791  0.7951  2.4353
    2MPD1    H114118   1.926   1.951  12.064  0.6579  1.5320 -0.5655
    2MPD1    H214119   2.140   2.127  12.380  1.4686  1.2167 -0.6384
    2MPD1    H314120   1.920   2.098  12.248 -1.5755 -1.8353 -0.9409
    2MPD1     N14121   2.149   1.822  11.956 -0.5634  0.3526 -0.2050
    2MPD1    H514122   2.240   1.785  11.931 -0.3078  0.2229  0.9203
    2MPD1    N114123   2.377   2.045  12.312 -0.0086 -0.1786  0.4834
    2MPD1    H614124   2.372   2.092  12.402 -2.4104  0.3734  0.0546
    2MPD1    H714125   2.439   1.966  12.332  1.1446  0.8930  1.1924
    1TMC1    C114126   3.468   4.005   1.728  0.1867  0.1816  0.3046
    1TMC1    C214127   3.480   3.928   1.612 -0.3162  0.3121  0.4851
    1TMC1    C314128   3.373   3.853   1.580  0.8070 -0.0886 -0.0235
    1TMC1    C414129   3.348   4.020   1.796 -0.0348  0.2705  0.3216
    1TMC1    C514130   3.245   3.938   1.758 -0.2470  0.2093  0.0931
    1TMC1    C614131   3.251   3.857   1.647 -0.5906  0.4455 -0.3615
    1TMC1     C14132   3.580   4.096   1.754 -0.3074 -0.8778  0.5526
    1TMC1     O14133   3.548   4.180   1.837 -0.0593  0.3252 -0.0917
    1TMC1     H14134   3.565   3.935   1.544 -1.5824 -0.7953 -1.2289
    1TMC1    H114135   3.333   4.074   1.889 -0.1128  0.7012  0.0559
    1TMC1    H214136   3.172   3.805   1.595 -0.8186 -0.4925  0.9272
    1TMC1    C714137   3.141   3.917   1.860  0.5243 -0.7455 -0.6544
    1TMC1    C814138   3.396   3.752   1.478  0.1620  0.1708  0.2537
    1TMC1    O114139   3.126   3.985   1.957 -0.3370 -0.2705 -0.1976
    1TMC1    O214140   3.491   3.760   1.403 -0.0306 -0.1959  0.2693
    1TMC1    O314141   3.092   3.788   1.839  0.1300  0.3335 -0.4626
    1TMC1    H314142   3.135   3.738   1.766  1.6432  0.3575  0.4150
    1TMC1    O514143   3.319   3.646   1.489 -0.1460 -0.5697  0.1136
    1TMC1    H514144   3.271   3.645   1.574 -0.7292 -0.4678 -0.2185
    2MPD1     C14145   4.060   4.262   1.712 -0.4150 -0.5415 -1.0704
    2MPD1    C114146   4.054   4.136   1.654 -0.0283  0.2195 -0.7520
    2MPD1    C214147   3.930   4.071   1.652 -0.6517  0.1062 -0.4281
    2MPD1    C314148   3.816   4.127   1.703  0.2070 -0.3309  0.3100
    2MPD1    C414149   3.825   4.252   1.762 -0.5390 -0.0481  0.9379
    2MPD1    C514150   3.946   4.315   1.765  0.0904  0.1365 -0.0883
    2MPD1     H14151   3.927   3.980   1.595  2.4098  1.3427 -2.5637
    2MPD1    H114152   3.738   4.299   1.806  0.1329  2.1345 -0.0929
    2MPD1    H214153   4.150   4.321   1.700 -1.0606  0.4104 -1.2725
    2MPD1    H314154   3.947   4.416   1.802  0.0792 -0.2697  1.0212
    2MPD1     N14155   3.698   4.061   1.688 -0.7485  0.0383  0.4364
    2MPD1    H514156   3.699   3.966   1.654  1.4895 -1.0797  3.6256
    2MPD1    N114157   4.169   4.084   1.597 -0.6638 -0.5458 -0.3911
    2MPD1    H614158   4.152   4.014   1.525 -0.8578 -0.3019 -0.5804
    2MPD1    H714159   4.246   4.148   1.574 -2.0456 -0.2958 -4.2362
    1MPD1     C14160   3.288   1.587  12.152 -0.1992 -0.1489  0.1407
    1MPD1    C114161   3.255   1.704  12.088  0.3034 -0.1128  0.0187
    1MPD1    C214162   3.334   1.746  11.978 -0.5677 -0.3495 -0.0655
    1MPD1    C314163   3.451   1.686  11.945 -0.5991  0.1279 -0.0286
    1MPD1    C414164   3.485   1.568  12.005  0.5654  0.2632 -0.5353
    1MPD1    C514165   3.403   1.523  12.105  0.0681  0.2514 -0.2463
    1MPD1     H14166   3.300   1.828  11.916  0.5514 -0.7143 -1.1670
    1MPD1    H114167   3.579   1.518  11.985 -0.8010 -2.5946  0.3006
    1MPD1    H214168   3.244   1.545  12.241 -0.2823  0.6711  0.4816
    1MPD1    H314169   3.441   1.445  12.170 -1.3331 -1.5383 -1.5888
    1MPD1     N14170   3.535   1.750  11.852 -0.1825  0.1015  0.1432
    1MPD1    H514171   3.513   1.847  11.832 -0.9505 -0.4870 -1.8586
    1MPD1    N114172   3.156   1.788  12.143  0.7586  0.2294  0.2195
    1MPD1    H614173   3.075   1.732  12.166  1.0439  0.6053  2.1532
    1MPD1    H714174   3.119   1.858  12.079 -2.3609 -1.1015  0.5968
    2MPD1     C14175   3.113   2.140  11.223  0.5657 -0.7263  0.1920
    2MPD1    C114176   3.018   2.173  11.130 -0.2493 -0.9341 -0.3966
    2MPD1    C214177   3.049   2.139  10.999 -0.3085 -0.2152  0.5810
    2MPD1    C314178   3.162   2.064  10.966 -0.8348  0.4787 -0.0869
    2MPD1    C414179   3.254   2.038  11.070  0.4556  0.3692 -0.0061
    2MPD1    C514180   3.235   2.085  11.196  0.6382  1.1870  0.5473
    2MPD1     H14181   2.989   2.172  10.915  1.7145 -2.7165 -1.8528
    2MPD1    H114182   3.346   1.987  11.045  1.1686  0.9851  1.3393
    2MPD1    H214183   3.105   2.180  11.323 -0.8483  0.2808 -0.3137
    2MPD1    H314184   3.303   2.065  11.278  0.9154 -1.4629 -0.3546
    2MPD1     N14185   3.212   2.033  10.836  0.0886 -0.2866  0.4032
    2MPD1    H514186   3.308   1.999  10.832  0.8389  1.9443 -0.8002
    2MPD1    N114187   2.914   2.264  11.164  0.0979 -0.6324 -0.1216
    2MPD1    H614188   2.824   2.252  11.117 -1.1070 -0.2109  2.0866
    2MPD1    H714189   2.900   2.262  11.265 -1.6323  0.4160 -0.3393
    3MPD1     C14190   2.984   1.447  10.094  0.0732  0.3005 -0.0602
    3MPD1    C114191   2.916   1.478  10.211  0.2430 -0.5918  0.1321
    3MPD1    C214192   2.955   1.607  10.266 -0.1929 -0.2634 -0.9486
    3MPD1    C314193   3.053   1.684  10.216  0.3488  0.8515 -0.3312
    3MPD1    C414194   3.126   1.635  10.109 -0.0767  0.7798 -0.1135
    3MPD1    C514195   3.095   1.512  10.052  0.4817  0.9998 -0.6812
    3MPD1     H14196   2.905   1.643  10.356 -0.1704  0.0965 -1.0825
    3MPD1    H114197   3.208   1.694  10.069 -0.2062  0.8150 -0.3309
    3MPD1    H214198   2.966   1.353  10.043 -1.9618  0.3127  0.6405
    3MPD1    H314199   3.151   1.469   9.970 -1.5605 -1.2565 -0.8710
    3MPD1     N14200   3.089   1.796  10.291 -0.7808  0.3798 -0.2601
    3MPD1    H514201   3.026   1.822  10.365  1.6941  1.8174  1.3479
    3MPD1    N114202   2.818   1.394  10.258  0.4904  0.5888  0.2395
    3MPD1    H614203   2.822   1.411  10.359  0.9021 -2.1188  0.6753
    3MPD1    H714204   2.852   1.299  10.245  1.6988  0.8955  1.1693
    4MPD2     C14205   3.736   2.360  11.412 -0.3858  0.1227  0.2030
    4MPD2    C114206   3.842   2.273  11.437 -0.4700  0.9391  0.4390
    4MPD2    C214207   3.948   2.267  11.348 -0.8041  0.5311  0.5403
    4MPD2    C314208   3.950   2.345  11.232  0.2534  0.1012 -0.5754
    4MPD2    C414209   3.841   2.425  11.200 -0.7208  0.1745  0.8292
    4MPD2    C514210   3.742   2.434  11.293 -0.6640  0.2087 -0.9229
    4MPD2     H14211   4.026   2.196  11.373  0.7915  2.3201  0.6530
    4MPD2    H114212   3.830   2.487  11.112 -0.8147  0.8237  1.3021
    4MPD2    H214213   3.664   2.390  11.488  0.6665  1.9388  0.4839
    4MPD2    H314214   3.672   2.511  11.264 -0.2479  0.4368 -1.3219
    4MPD2     N14215   4.057   2.337  11.140  0.3581  0.7949  0.0092
    4MPD2    H514216   4.055   2.395  11.057 -2.0495  0.5800 -0.0557
    4MPD2    N114217   3.849   2.183  11.542  0.5477  0.1428  0.5753
    4MPD2    H714218   3.933   2.128  11.553  0.0763 -1.0044 -1.5402
    5TMC3    C114219   3.793   2.028  11.702 -1.4531 -0.2831  1.1086
    5TMC3    C214220   3.698   1.932  11.727 -0.6349 -0.1071  0.4536
    5TMC3    C314221   3.739   1.800  11.733 -0.4285  0.1228  0.1164
    5TMC3    C414222   3.925   1.992  11.709 -0.0584 -0.3469  0.1066
    5TMC3    C514223   3.961   1.862  11.695 -0.7049 -0.7206 -0.9510
    5TMC3    C614224   3.866   1.756  11.710 -0.2264  0.1292 -0.2805
    5TMC3     C14225   3.755   2.153  11.640 -0.9667  0.1782 -0.6062
    5TMC3     O14226   3.635   2.188  11.643 -0.0822  0.3044  0.1639
    5TMC3     H14227   3.595   1.964  11.740 -0.1279  1.2753  0.9785
    5TMC3    H114228   4.005   2.065  11.709 -2.0120  1.7910 -2.2476
    5TMC3    H214229   3.892   1.651  11.701 -2.8591 -0.7545  2.2425
    5TMC3    C714230   4.043   1.859  11.580  0.3943 -0.7597  0.5463
    5TMC3    C814231   3.651   1.697  11.806 -0.0378  1.1547 -0.6098
    5TMC3    O114232   4.071   1.970  11.531  0.0563  0.1019  0.2802
    5TMC3    O214233   3.704   1.587  11.817  0.0474  0.1456 -0.1850
    6TMC3    C114234   3.218   2.038  10.607  0.4871 -0.2253  0.0913
    6TMC3    C214235   3.155   1.972  10.498  0.2330 -0.2066 -0.6080
    6TMC3    C314236   3.243   1.957  10.387 -0.0593 -0.3607  0.0902
    6TMC3    C414237   3.352   2.063  10.609  0.6318  0.8630 -0.5670
    6TMC3    C514238   3.428   2.047  10.498 -1.1913 -0.1951  0.8161
    6TMC3    C614239   3.377   2.001  10.380  0.1968 -0.0673  0.6835
    6TMC3     C14240   3.141   2.056  10.723  0.1064 -0.9985 -0.0672
    6TMC3     O14241   3.021   2.074  10.712 -0.0065  0.7010 -0.3317
    6TMC3     H14242   3.056   1.927  10.495 -0.5574  1.5393 -0.6269
    6TMC3    H114243   3.401   2.105  10.696  1.3578  0.1986 -0.6551
    6TMC3    H214244   3.440   1.992  10.293  1.1250 -2.8195  1.6465
    6TMC3    C714245   3.573   2.047  10.522  0.1634 -0.0230  0.1865
    6TMC3    C814246   3.206   1.867  10.276  1.3152  0.2248  0.6338
    6TMC3    O114247   3.611   2.120  10.611 -0.1420 -0.2421  0.5219
    6TMC3    O214248   3.291   1.862  10.191 -0.2509 -0.9821  0.0947
    7MPD2     C14249   4.336   1.655  11.213  0.1077 -0.1146 -0.2608
    7MPD2    C114250   4.281   1.786  11.227 -0.6118 -1.0124  0.8417
    7MPD2    C214251   4.196   1.809  11.334 -0.3237 -0.6270 -0.2662
    7MPD2    C314252   4.157   1.712  11.424  0.5991  0.0804 -0.1024
    7MPD2    C414253   4.200   1.584  11.403  0.1266 -0.4579 -0.5872
    7MPD2    C514254   4.296   1.557  11.304 -0.1396 -0.4403 -0.3002
    7MPD2     H14255   4.158   1.910  11.345 -1.5269 -1.1768  0.7034
    7MPD2    H114256   4.204   1.512  11.484 -1.4667 -1.5148 -1.4569
    7MPD2    H214257   4.406   1.632  11.134 -0.6539 -0.1525 -0.9220
    7MPD2    H314258   4.341   1.459  11.296  0.1582 -0.4385  1.3471
    7MPD2     N14259   4.076   1.732  11.541  0.7267  0.3340  0.5108
    7MPD2    H514260   4.053   1.653  11.600 -2.6775  2.0612  1.4650
    7MPD2    N114261   4.298   1.894  11.137 -1.1184  0.3297 -0.3443
    7MPD2    H714262   4.238   1.972  11.160  1.3360  2.0758  0.1357
    8TMC3    C114263   4.355   2.028  10.954 -0.6962  0.0048 -0.5033
    8TMC3    C214264   4.260   2.015  10.854  0.4526 -0.0222  0.2952
    8TMC3    C314265   4.169   2.113  10.827  0.4873 -0.1346  0.0480
    8TMC3    C414266   4.339   2.140  11.036  0.0888 -0.1647  0.2704
    8TMC3    C514267   4.237   2.230  11.017  0.1625 -0.2280  0.0817
    8TMC3    C614268   4.156   2.224  10.907  0.2698  0.3564 -0.2635
    8TMC3     C14269   4.380   1.902  11.027  0.1190  0.4537 -0.2573
    8TMC3     O14270   4.438   1.811  10.966  0.2442 -0.6625 -0.2119
    8TMC3     H14271   4.272   1.924  10.796  0.0636  0.5989 -0.7669
    8TMC3    H114272   4.407   2.163  11.116 -0.6399  0.7921  0.6097
    8TMC3    H214273   4.069   2.288  10.899  0.0299  0.1036  0.3778
    8TMC3    C714274   4.168   2.251  11.148 -0.0788  0.4541 -0.8250
    8TMC3    C814275   4.066   2.099  10.725 -0.6222  0.6493 -0.3989
    8TMC3    O114276   4.187   2.161  11.227 -0.7321  0.5112 -0.6688
    8TMC3    O214277   4.004   2.198  10.698  0.0834  0.0429 -0.0245
    9MPD2     C14278   4.012   1.815  10.493 -0.0877  0.4661 -0.5965
    9MPD2    C114279   3.985   1.930  10.557  0.4528  0.2699  0.1094
    9MPD2    C214280   3.858   1.986  10.534 -0.4742  0.0568  0.6791
    9MPD2    C314281   3.768   1.919  10.451 -0.0285 -0.3568  0.0572
    9MPD2    C414282   3.815   1.808  10.373 -0.1338 -0.7653  0.0671
    9MPD2    C514283   3.940   1.759  10.394 -0.1934 -0.3698  0.4280
    9MPD2     H14284   3.830   2.080  10.581  1.8145 -0.1470  2.5089
    9MPD2    H114285   3.739   1.755  10.318  1.4507 -3.4953  0.4994
    9MPD2    H214286   4.113   1.778  10.512 -0.9375 -1.1795  0.6857
    9MPD2    H314287   3.969   1.662  10.355  0.2855 -0.6275  1.4184
    9MPD2     N14288   3.634   1.954  10.442  0.1664  0.5441 -0.6070
    9MPD2    H514289   3.573   1.902  10.380 -0.6119  2.2737 -1.2872
    9MPD2    N114290   4.076   1.984  10.655  0.2403 -0.3326 -0.1696
    9MPD2    H714291   4.159   1.927  10.671 -0.0195 -0.4861  0.6659
    1MPD1     C14292   3.293   1.521  16.705 -0.7992 -0.3943  0.0449
    1MPD1    C114293   3.238   1.527  16.586 -0.1111  0.4335  0.4996
    1MPD1    C214294   3.238   1.405  16.513 -0.3646 -0.3857  0.2243
    1MPD1    C314295   3.295   1.288  16.560  0.0115 -0.4608  1.2266
    1MPD1    C414296   3.359   1.298  16.682 -1.1328 -0.5299  0.1112
    1MPD1    C514297   3.341   1.408  16.760 -0.7275  0.1735 -0.2906
    1MPD1     H14298   3.188   1.398  16.417 -0.3993  0.5333  0.1826
    1MPD1    H114299   3.418   1.211  16.708  0.8357  0.9057  0.4553
    1MPD1    H214300   3.281   1.605  16.772  0.6513  0.0352 -0.2399
    1MPD1    H314301   3.375   1.414  16.863 -1.2591 -2.2392  0.0414
    1MPD1     N14302   3.297   1.163  16.501 -0.5658 -0.2798 -0.2016
    1MPD1    H514303   3.333   1.085  16.556  1.4116  0.1029 -0.9250
    1MPD1    N114304   3.168   1.643  16.540 -0.2952  0.3487  0.2635
    1MPD1    H614305   3.192   1.734  16.581  1.2182  0.6931 -1.3422
    1MPD1    H714306   3.163   1.649  16.439 -1.5550  1.2070  0.3725
    2TMC2    C114307   3.201   0.861  16.141 -0.3829  0.3721  0.3219
    2TMC2    C214308   3.149   0.761  16.224 -0.4492 -0.4848 -0.1631
    2TMC2    C314309   3.157   0.786  16.357  0.3045 -0.0096 -0.4363
    2TMC2    C414310   3.251   0.979  16.195 -0.5782 -0.5344  0.2861
    2TMC2    C514311   3.253   0.997  16.331  0.2273 -0.7235  0.5415
    2TMC2    C614312   3.198   0.902  16.413  0.4579  0.4668 -0.2377
    2TMC2     C14313   3.227   0.815  16.008  0.4163  0.0315 -0.4045
    2TMC2     O14314   3.218   0.693  15.986 -0.6164 -0.1749  0.1515
    2TMC2     H14315   3.116   0.663  16.191  2.7483 -1.2814 -0.9266
    2TMC2    H114316   3.302   1.055  16.138  0.3516 -0.7658  0.7997
    2TMC2    H214317   3.211   0.912  16.520  2.1103  0.6687 -0.4526
    2TMC2    C714318   3.265   1.141  16.370  0.4474  0.1470 -0.1973
    2TMC2    C814319   3.158   0.667  16.438  0.1094 -0.1563 -0.7263
    2TMC2    O114320   3.259   1.232  16.286  0.5732 -0.0536 -0.4222
    2TMC2    O214321   3.190   0.558  16.397  0.2531  0.2016  0.3052
    2TMC2    O514322   3.140   0.703  16.566  0.5291 -0.2543 -0.2671
    2TMC2    H514323   3.074   0.776  16.567 -0.5800 -1.2440 -0.3924
    3MPD1     C14324   3.204   0.878  15.513 -0.1713 -0.3717 -0.0837
    3MPD1    C114325   3.178   1.005  15.560 -0.4345 -0.3301  0.2142
    3MPD1    C214326   3.178   1.007  15.696  0.3554 -0.0376 -0.0823
    3MPD1    C314327   3.224   0.901  15.775  0.4141  0.4459  0.1306
    3MPD1    C414328   3.285   0.792  15.714 -0.4445  0.3197 -0.1832
    3MPD1    C514329   3.257   0.782  15.581 -0.7204  0.2004 -0.3291
    3MPD1     H14330   3.148   1.100  15.744  1.1150 -0.2329  0.7562
    3MPD1    H114331   3.342   0.718  15.769 -2.3482 -1.1519 -0.1732
    3MPD1    H214332   3.192   0.864  15.406 -1.2684 -0.2538  0.0149
    3MPD1    H314333   3.286   0.692  15.527 -0.8318 -1.5306  2.4924
    3MPD1     N14334   3.224   0.922  15.919  0.0326 -0.7188 -0.3855
    3MPD1    H514335   3.207   1.012  15.963  0.8871 -0.5228 -0.4660
    3MPD1    N114336   3.121   1.109  15.481 -0.3094  0.4113 -0.0975
    3MPD1    H614337   3.161   1.121  15.388 -0.0253 -1.3913 -0.1983
    3MPD1    H714338   3.127   1.202  15.523  2.2632  0.0573  0.2980
    1TMC1    C114339   1.183   4.226  12.972  0.8050  0.1056  0.4797
    1TMC1    C214340   1.152   4.291  13.086  0.0621  0.4520  0.1539
    1TMC1    C314341   1.033   4.272  13.141  0.4459  0.1935 -0.6180
    1TMC1    C414342   1.087   4.154  12.902 -0.4416 -0.0580  0.8415
    1TMC1    C514343   0.963   4.152  12.947  0.1688 -0.1732  0.1256
    1TMC1    C614344   0.932   4.208  13.069  0.6855  0.5450 -0.0207
    1TMC1     C14345   1.294   4.278  12.895  0.0797  0.6505  0.0366
    1TMC1     O14346   1.306   4.271  12.776  0.3658 -0.1901  0.0193
    1TMC1     H14347   1.226   4.353  13.136 -0.8427  0.8691  0.9678
    1TMC1    H114348   1.113   4.124  12.801 -0.1006  0.4482  0.7822
    1TMC1    H214349   0.834   4.194  13.114  0.1201 -0.6889 -1.6170
    1TMC1    C714350   0.858   4.181  12.848  0.0222  0.3618 -0.0062
    1TMC1    C814351   1.001   4.347  13.266  1.0433  0.1987 -0.7044
    1TMC1    O114352   0.884   4.230  12.737  0.1604 -0.3198 -0.0179
    1TMC1    O214353   1.062   4.444  13.311 -0.1637 -0.1574 -0.0496
    1TMC1    O314354   0.733   4.155  12.901  0.0263  0.1533  0.2921
    1TMC1    H314355   0.739   4.107  12.986  2.0054 -0.9424 -0.4714
    1TMC1    O514356   0.923   4.253  13.326 -0.0505  0.0244 -0.1998
    1TMC1    H514357   0.928   4.157  13.303 -1.2820 -0.1027  0.0507
    2MPD2     C14358   1.541   4.430  12.819  0.8084  0.5758 -0.3612
    2MPD2    C114359   1.521   4.377  12.942 -0.6001 -0.2563 -0.0486
    2MPD2    C214360   1.623   4.402  13.033 -0.4795  0.4295  0.5766
    2MPD2    C314361   1.743   4.469  13.009 -1.0629  0.6131 -0.0645
    2MPD2    C414362   1.767   4.509  12.876  0.4378  0.0278  0.3643
    2MPD2    C514363   1.662   4.489  12.794  0.7121  0.6118  0.0427
    2MPD2     H14364   1.610   4.364  13.134 -0.7709 -2.1876 -0.4259
    2MPD2    H114365   1.849   4.569  12.839 -1.7915  0.5249 -3.7730
    2MPD2    H214366   1.469   4.427  12.738  0.7871 -0.0744 -0.3181
    2MPD2    H314367   1.679   4.526  12.693 -1.2419 -0.8138 -0.8059
    2MPD2     N14368   1.829   4.507  13.116  0.7753 -0.1625  0.1654
    2MPD2    H514369   1.803   4.454  13.199 -0.6427  1.5368  0.8119
    2MPD2    N114370   1.397   4.315  12.981 -0.6320  0.6017  0.1620
    2MPD2    H714371   1.383   4.292  13.079  0.5915  3.1484  0.9298
    3TCq1    O114372   2.277   0.143  13.313  0.2301 -0.3321  0.2567
    3TCq1    C114373   2.273   0.045  13.406 -0.0943  0.0620  0.1695
    3TCq1    O214374   2.328   0.040  13.516  0.5050 -0.5219  0.4859
    3TCq1    C214375   2.190   4.670  13.358 -0.3518  0.7116  0.2209
    3TCq1    C314376   2.201   4.557  13.430  0.0381 -0.3872 -0.3095
    3TCq1    C414377   2.114   4.456  13.406 -0.6331 -0.4022 -0.3244
    3TCq1    C514378   2.019   4.469  13.310  0.2540  0.1488 -0.7147
    3TCq1    C614379   2.013   4.584  13.238  0.2298  0.2707  0.0629
    3TCq1    C714380   2.094   4.690  13.262  0.2419 -0.4243 -0.1686
    3TCq1    C814381   1.939   4.588  13.112  0.0236  0.3347 -0.1312
    3TCq1    O414382   1.977   4.666  13.023 -0.2874  0.4689 -0.2733
    3TCq1    C914383   2.150   4.331  13.469  0.0217  0.5837 -0.2062
    3TCq1    O514384   2.263   4.325  13.528 -0.0997  0.3024  0.2304
    3TCq1    O614385   2.062   4.239  13.459  0.2446  0.5827 -0.4649
    3TCq1    H114386   2.258   0.113  13.222 -1.1749  0.0398  0.4343
    3TCq1    H214387   2.281   4.543  13.502  1.5032  0.4161 -1.8015
    3TCq1    H314388   1.973   4.378  13.275  2.2645 -2.1562  2.5980
    3TCq1    H414389   2.076   0.048  13.209 -1.1790 -0.2660  0.5889
    1MPD2     C14390   0.775   1.126  14.782  0.5100 -0.4716  0.1826
    1MPD2    C114391   0.682   1.086  14.881  0.2590  0.1977  0.4790
    1MPD2    C214392   0.678   0.960  14.936 -0.5937  0.0261 -0.3632
    1MPD2    C314393   0.779   0.873  14.900  0.8496 -0.3664 -0.8276
    1MPD2    C414394   0.879   0.904  14.810 -0.7468 -0.7570  0.6909
    1MPD2    C514395   0.874   1.028  14.754  1.2279 -0.5588 -1.3165
    1MPD2     H14396   0.604   0.934  15.011  0.5406 -2.5750 -0.1181
    1MPD2    H114397   0.951   0.827  14.784 -0.6789 -0.3211 -0.4086
    1MPD2    H214398   0.765   1.224  14.737  0.6486  0.1880  1.5921
    1MPD2    H314399   0.955   1.051  14.687  1.7407 -0.0823 -0.5367
    1MPD2     N14400   0.776   0.744  14.938  0.0942 -0.5574  0.3894
    1MPD2    H514401   0.854   0.681  14.920  2.1969  2.2879 -0.3623
    1MPD2    N114402   0.566   1.171  14.901 -0.3773  0.5389  0.7875
    1MPD2    H714403   0.550   1.258  14.852 -0.5644 -0.7247 -1.3923
    2TMC3    C114404   0.338   1.215  14.980 -0.5934 -0.3819 -0.3541
    2TMC3    C214405   0.262   1.199  15.083 -0.3969  0.3887  0.2314
    2TMC3    C314406   0.134   1.157  15.080 -0.7485  0.6510  0.7958
    2TMC3    C414407   0.283   1.199  14.856 -0.6198 -0.1900  0.5028
    2TMC3    C514408   0.151   1.167  14.849  0.3147  0.1535  0.3193
    2TMC3    C614409   0.078   1.136  14.959  0.3026  0.9977 -0.8900
    2TMC3     C14410   0.471   1.150  14.999 -0.9823 -0.0507 -1.0809
    2TMC3     O14411   0.474   1.072  15.094  0.5907 -0.0798  0.5130
    2TMC3     H14412   0.300   1.219  15.183 -1.0703  0.6112  0.4443
    2TMC3    H114413   0.352   1.214  14.773 -1.6454  1.3547 -0.0840
    2TMC3    H214414   4.717   1.088  14.960  0.2341  1.1074 -2.4328
    2TMC3    C714415   0.100   1.147  14.711  0.2987 -0.3196 -0.8158
    2TMC3    C814416   0.106   1.044  15.168 -0.6708  0.2507  0.5942
    2TMC3    O114417   4.732   1.082  14.687  0.0139  0.3316  0.4930
    2TMC3    O214418   4.727   1.011  15.183 -0.0667  0.6673 -0.3685
    3TCq1    O114419   0.395   1.959  13.842  0.6047  0.4108 -0.0601
    3TCq1    C114420   0.280   1.893  13.874  1.3030  0.6587  0.0200
    3TCq1    O214421   0.166   1.900  13.824  0.1129  0.1152 -0.0204
    3TCq1    C214422   0.310   1.811  13.990  0.6438 -0.2837 -0.2201
    3TCq1    C314423   0.384   1.870  14.086  0.7609  0.1586 -0.3197
    3TCq1    C414424   0.422   1.784  14.185  0.1818 -0.2234  0.3176
    3TCq1    C514425   0.409   1.652  14.166 -0.4701 -0.1257 -0.2888
    3TCq1    C614426   0.341   1.596  14.062  0.1046 -0.1783  1.1214
    3TCq1    C714427   0.279   1.678  13.977 -0.0566 -0.1721  0.1886
    3TCq1    C814428   0.271   1.472  14.086  0.4438  0.1064  0.0785
    3TCq1    O414429   0.197   1.418  14.003 -0.7693  0.3001 -0.2747
    3TCq1    C914430   0.495   1.837  14.296 -0.2204  0.2661 -0.0956
    3TCq1    O514431   0.553   1.747  14.364 -0.0757  0.6989 -0.4120
    3TCq1    O614432   0.463   1.955  14.333  0.6226  0.3878  0.5023
    3TCq1    H114433   0.480   1.912  13.861  1.1338  1.4209  0.1091
    3TCq1    H214434   0.408   1.975  14.097  2.6482 -0.2556 -0.5160
    3TCq1    H314435   0.456   1.591  14.242 -1.1834 -0.0313  0.2254
    3TCq1    H414436   0.216   1.638  13.898  0.7861  0.7482 -0.9608
    4MPD2     C14437   0.160   1.213  14.210  0.4534  0.0638  0.4200
    4MPD2    C114438   0.220   1.324  14.279  0.2538 -0.5477 -0.4521
    4MPD2    C214439   0.215   1.324  14.415  0.3082  0.1011  0.7509
    4MPD2    C314440   0.155   1.224  14.488  0.2179  0.2409  0.2692
    4MPD2    C414441   0.099   1.117  14.425 -0.6236  0.1183  0.4675
    4MPD2    C514442   0.108   1.112  14.290  0.1081 -1.0012  0.3487
    4MPD2     H14443   0.250   1.408  14.474  1.4529 -0.3515  0.7291
    4MPD2    H114444   0.060   1.028  14.474  0.1842 -1.2983 -1.4218
    4MPD2    H214445   0.160   1.201  14.102 -0.9597  1.8836  0.1992
    4MPD2    H314446   0.091   1.010  14.257  1.2250 -1.1929  0.3488
    4MPD2     N14447   0.169   1.231  14.626 -0.3859 -0.1000 -0.1055
    4MPD2    H514448   0.223   1.308  14.665  0.1384  0.9788 -2.9805
    4MPD2    N114449   0.281   1.442  14.220 -0.2227 -0.6085 -0.5675
    4MPD2    H714450   0.327   1.501  14.288  0.6372 -1.3074 -0.5375
    5TMC2    C114451   0.629   0.452  15.261 -0.2211  0.3066  0.3569
    5TMC2    C214452   0.750   0.467  15.329 -0.2540  0.2167  0.0668
    5TMC2    C314453   0.851   0.539  15.268  0.5829 -0.8728  0.5540
    5TMC2    C414454   0.615   0.506  15.138  0.5113 -0.9761 -0.0918
    5TMC2    C514455   0.720   0.575  15.086 -0.2876  0.0722 -0.1783
    5TMC2    C614456   0.839   0.586  15.147 -0.2257 -1.3102 -0.2782
    5TMC2     C14457   0.520   0.482  15.344 -0.4788 -0.1028  0.3987
    5TMC2     O14458   0.497   0.421  15.450  0.3189  0.1264  0.5934
    5TMC2     H14459   0.748   0.455  15.436  1.7141 -1.1923 -0.0590
    5TMC2    H114460   0.531   0.478  15.077 -0.4589  0.5896  0.5268
    5TMC2    H214461   0.918   0.649  15.109  1.1622 -2.3829  0.8115
    5TMC2    C714462   0.672   0.685  15.006  0.6177 -0.2780 -0.1623
    5TMC2    C814463   0.959   0.599  15.343 -0.4656 -0.2500  0.6353
    5TMC2    O114464   0.555   0.711  15.029 -0.1233  0.2767 -0.1112
    5TMC2    O214465   1.024   0.699  15.315  0.2234  0.1345 -0.6785
    5TMC2    O514466   0.956   0.541  15.465 -0.5067  0.0947 -0.0390
    5TMC2    H514467   0.915   0.453  15.455 -0.8670  0.2976 -0.3523
    6MPD2     C14468   0.133   0.832  15.378 -0.8440  0.0361 -0.0382
    6MPD2    C114469   0.233   0.874  15.300 -0.1333  0.5094  0.0051
    6MPD2    C214470   0.347   0.801  15.292  0.0970  0.4466  1.0297
    6MPD2    C314471   0.364   0.676  15.347  0.3812  0.2418 -0.1345
    6MPD2    C414472   0.269   0.644  15.439 -0.1233  0.2381  0.1217
    6MPD2    C514473   0.156   0.722  15.455 -0.0359 -0.4207  0.0658
    6MPD2     H14474   0.420   0.839  15.221 -0.3430 -0.7292 -0.0356
    6MPD2    H114475   0.279   0.550  15.492 -2.1151 -0.7858 -1.3121
    6MPD2    H214476   0.046   0.893  15.398 -0.5165  1.6307 -3.4851
    6MPD2    H314477   0.080   0.700  15.528 -2.2053 -0.2872 -2.1595
    6MPD2     N14478   0.479   0.607  15.303  0.0090  0.2280  0.0874
    6MPD2    H514479   0.536   0.646  15.229  1.0154 -1.2106  0.0938
    6MPD2    N114480   0.217   0.982  15.211 -0.2440 -0.3871 -1.1147
    6MPD2    H714481   0.303   1.014  15.167  0.3178 -1.6710 -0.9415
  945NH4     N114482   4.568   4.257   9.361  0.3190  0.0146  0.8474
  945NH4     H214483   4.579   4.352   9.320 -1.4723 -0.6272 -1.1484
  945NH4     H314484   4.500   4.201   9.306 -0.1503  0.4630  0.9684
  945NH4     H414485   4.549   4.266   9.463  1.3832 -0.9972  1.1394
  945NH4     H514486   4.663   4.216   9.351  0.3270 -0.0208  1.0760
  946SOD     NA14487   3.951   4.563   3.736 -0.1740  0.0303 -0.0544
  947SOD     NA14488   1.157   0.766  15.487 -0.1150  0.0617 -0.1205
  948SOD     NA14489   4.302   2.269  13.653 -0.0436 -0.5222 -0.0569
  949SOD     NA14490   1.866   3.562  17.069  0.5617 -0.0148 -0.2506
  950SOD     NA14491   3.189   2.623   5.511  0.3329  0.0013 -0.3978
  951SOD     NA14492   3.589   2.759  10.778 -0.0057 -0.0874  0.2577
  952SOD     NA14493   1.441   0.296  12.400 -0.3426 -0.3474 -0.6245
  953SOL     OW14494   2.435   2.287   7.795 -0.4206  0.1537 -0.2266
  953SOL    HW114495   2.404   2.216   7.850 -0.5670 -0.0018 -0.5134
  953SOL    HW214496   2.439   2.357   7.861 -0.9580 -0.3577  0.3523
  954SOL     OW14497   1.053   3.139   1.202 -0.0352  0.8186  0.8471
  954SOL    HW114498   1.003   3.220   1.210 -0.6980  0.2823  2.1556
  954SOL    HW214499   1.030   3.100   1.286 -0.2018 -0.8194  0.0510
  955SOL     OW14500   2.756   2.058   6.313 -0.2145 -0.1180 -0.4808
  955SOL    HW114501   2.850   2.065   6.328 -0.2478 -0.4368 -0.1380
  955SOL    HW214502   2.732   2.147   6.286  0.7530  0.8721  1.9083
  956SOL     OW14503   3.686   2.175   6.188 -0.0916  0.3472 -0.2671
  956SOL    HW114504   3.683   2.143   6.098  1.2122  0.7009 -0.4357
  956SOL    HW214505   3.603   2.133   6.211 -0.1081 -1.2391 -3.1570
  957SOL     OW14506   2.987   2.720   5.555  0.1392 -0.5084  0.0954
  957SOL    HW114507   2.957   2.766   5.633  2.0770 -0.8621  1.0567
  957SOL    HW214508   2.905   2.684   5.522 -0.0344  0.0677 -0.0891
  958SOL     OW14509   3.890   2.217   4.216  0.1775  0.0238  0.3883
  958SOL    HW114510   3.931   2.231   4.302  2.1190  0.2965 -0.5947
  958SOL    HW214511   3.865   2.126   4.229 -0.6937  0.5672  2.6250
  959SOL     OW14512   2.167   4.236   6.292 -0.2891 -0.0447  0.6700
  959SOL    HW114513   2.125   4.293   6.356 -0.1192  0.8325 -0.0019
  959SOL    HW214514   2.182   4.301   6.223  0.5046 -0.9721 -0.0343
  960SOL     OW14515   1.946   3.559   2.568 -0.0972  0.3908  0.6289
  960SOL    HW114516   2.016   3.624   2.576  0.2373  0.1066  0.0737
  960SOL    HW214517   2.000   3.497   2.518 -2.1019 -3.3163  3.0329
  961SOL     OW14518   1.153   3.491   2.070  0.2593  0.0581 -0.2784
  961SOL    HW114519   1.110   3.423   2.122  1.0057 -0.1151  0.1043
  961SOL    HW214520   1.093   3.565   2.064 -1.2733 -1.2214 -0.8875
  962SOL     OW14521   4.120   3.979  16.673 -0.0544  0.4191  0.1612
  962SOL    HW114522   4.079   4.063  16.649  0.8115  0.7700 -0.0840
  962SOL    HW214523   4.042   3.929  16.695  0.6329 -0.8082 -0.2100
  963SOL     OW14524   1.398   0.061   8.182  0.0204 -0.4076 -0.0523
  963SOL    HW114525   1.382   0.017   8.265  1.3717 -1.4545 -0.3391
  963SOL    HW214526   1.368   0.151   8.194 -0.2369 -0.2906 -1.5253
  964SOL     OW14527   3.805   1.469   5.114 -0.2065 -0.4462 -0.2292
  964SOL    HW114528   3.838   1.553   5.145 -0.0297 -0.7296  0.3557
  964SOL    HW214529   3.829   1.463   5.021  2.1909 -0.7235  0.4127
  965SOL     OW14530   3.817   1.145   3.121  0.0528  0.1731  0.3058
  965SOL    HW114531   3.834   1.222   3.175  3.5440 -1.0515  0.9581
  965SOL    HW214532   3.735   1.127   3.168  0.3700 -0.7438  0.5049
  966SOL     OW14533   0.603   4.296   1.234  0.0534 -0.1797  0.2129
  966SOL    HW114534   0.678   4.335   1.279 -2.7952  2.7334  2.3952
  966SOL    HW214535   0.571   4.240   1.304  2.6391 -0.3905  1.2061
  967SOL     OW14536   1.269   2.654   8.670  0.2808  0.3357  0.1663
  967SOL    HW114537   1.356   2.670   8.633  0.2565  1.6918  0.6969
  967SOL    HW214538   1.215   2.669   8.593 -0.2792  1.4435  0.7872
  968SOL     OW14539   2.610   2.883   6.054  0.6680  0.2324 -0.1010
  968SOL    HW114540   2.604   2.956   5.991 -1.9859 -0.7995 -1.0486
  968SOL    HW214541   2.661   2.917   6.127 -1.1257  0.5271  1.0085
  969SOL     OW14542   4.445   4.233   6.327 -0.5993  0.5291  0.3008
  969SOL    HW114543   4.466   4.326   6.321 -1.5022  0.6223 -1.6147
  969SOL    HW214544   4.414   4.215   6.415 -1.7840 -0.8947 -0.4032
  970SOL     OW14545   0.366   3.148   4.725  0.1458  0.0048  0.1719
  970SOL    HW114546   0.448   3.190   4.752 -1.0228  0.9697  2.2345
  970SOL    HW214547   0.301   3.209   4.761  0.2438 -0.1310  0.5868
  971SOL     OW14548   3.003   0.185  14.083 -0.4137 -0.2847  0.4415
  971SOL    HW114549   2.956   0.267  14.099  0.2842  0.3259 -0.6286
  971SOL    HW214550   2.927   0.132  14.061 -0.3790 -0.6375  1.1560
  972SOL     OW14551   0.872   2.962   2.768 -0.0380  0.5960 -0.3604
  972SOL    HW114552   0.856   3.036   2.708 -0.0040 -0.1873 -1.3317
  972SOL    HW214553   0.968   2.962   2.769 -0.0322  2.3718  0.2470
  973SOL     OW14554   4.362   0.749   2.912 -0.0599  0.2209 -0.3453
  973SOL    HW114555   4.363   0.844   2.915 -1.8574  0.1922  1.0531
  973SOL    HW214556   4.268   0.729   2.905 -0.4564  1.6737  0.8003
  974SOL     OW14557   3.656   1.733   7.373  0.0233  0.3921  0.5444
  974SOL    HW114558   3.585   1.775   7.422  2.3857  2.5077  2.1805
  974SOL    HW214559   3.683   1.812   7.327 -1.2484  1.0164  0.8723
  975SOL     OW14560   3.403   3.622  13.759 -0.2610  0.1166  0.1489
  975SOL    HW114561   3.472   3.566  13.796  2.1428  2.1671 -1.2322
  975SOL    HW214562   3.413   3.621  13.664 -2.0934 -1.8544 -0.0379
  976SOL     OW14563   1.589   1.563  17.578  0.2711 -0.4279  0.0642
  976SOL    HW114564   1.577   1.642  17.631  1.4510 -1.7575  2.3406
  976SOL    HW214565   1.655   1.527  17.638  0.3286 -2.1326 -1.0409
  977SOL     OW14566   2.847   0.372   0.928 -0.1173  0.1757 -0.3664
  977SOL    HW114567   2.829   0.465   0.941  0.1563 -0.0185  1.3463
  977SOL    HW214568   2.772   0.348   0.874  0.1823  1.5759 -1.4104
  978SOL     OW14569   4.547   0.680  16.379 -0.0873 -0.2315 -0.6433
  978SOL    HW114570   4.606   0.751  16.356  1.3841 -0.8492  1.2183
  978SOL    HW214571   4.561   0.635  16.296  1.5945 -0.1569 -0.3845
  979SOL     OW14572   0.880   3.347   8.436  0.1362 -0.0676 -0.1159
  979SOL    HW114573   0.862   3.399   8.514  0.6413  1.8082 -1.2661
  979SOL    HW214574   0.795   3.349   8.392 -0.2412  1.5835  0.6927
  980SOL     OW14575   0.452   2.238  15.580 -0.3841 -0.4303  0.0546
  980SOL    HW114576   0.370   2.195  15.554  0.3741 -1.9609  0.2355
  980SOL    HW214577   0.484   2.212  15.666 -0.6762 -0.4047  0.1713
  981SOL     OW14578   2.716   4.202   8.580 -0.1550 -0.0544  0.2659
  981SOL    HW114579   2.708   4.204   8.485  0.6269  0.8038  0.2169
  981SOL    HW214580   2.644   4.142   8.601  0.6380 -0.8123  0.8059
  982SOL     OW14581   3.956   4.569  11.416 -0.4374 -0.4654  0.5918
  982SOL    HW114582   4.034   4.606  11.458 -1.3848  2.0398  0.1375
  982SOL    HW214583   3.902   4.641  11.446 -0.9524 -0.4935 -0.2675
  983SOL     OW14584   4.504   0.165   5.883  0.1979 -0.4240 -0.0384
  983SOL    HW114585   4.478   0.087   5.932 -2.2231  0.0301 -0.5912
  983SOL    HW214586   4.485   0.141   5.793  1.0599 -2.3429  0.3014
  984SOL     OW14587   3.994   3.769   2.345  0.2905 -0.5560  0.0968
  984SOL    HW114588   4.083   3.780   2.378  0.3878  0.5495 -0.4998
  984SOL    HW214589   3.957   3.727   2.422 -2.0548  1.5108  0.1047
  985SOL     OW14590   1.427   3.483   6.772 -0.0771  0.8113  0.7701
  985SOL    HW114591   1.470   3.559   6.813  0.8398  1.3228 -1.1193
  985SOL    HW214592   1.364   3.463   6.840  0.9847  0.1254  1.5450
  986SOL     OW14593   3.737   4.220  12.656 -0.8504  0.2796 -0.0333
  986SOL    HW114594   3.715   4.313  12.655 -3.0098 -0.2577 -2.8946
  986SOL    HW214595   3.832   4.223  12.655 -0.8575  2.1833  3.4901
  987SOL     OW14596   0.398   1.502  15.209 -0.1064  0.5833  0.0084
  987SOL    HW114597   0.397   1.422  15.261 -2.5808  1.6531  1.5752
  987SOL    HW214598   0.490   1.501  15.181  0.0037 -0.5463  0.3906
  988SOL     OW14599   4.009   2.276  11.829 -0.2081  0.4184  0.0789
  988SOL    HW114600   4.046   2.209  11.887 -0.6398  0.7349  0.7115
  988SOL    HW214601   3.927   2.299  11.873  0.6838  0.9781  1.4349
  989SOL     OW14602   2.893   3.179   0.908  0.5323  0.2609  0.8169
  989SOL    HW114603   2.813   3.222   0.938  0.8346 -0.5933  2.8774
  989SOL    HW214604   2.898   3.208   0.817 -1.5141  0.2022  0.6828
  990SOL     OW14605   3.734   0.863   8.721  0.7562  0.1240 -0.3144
  990SOL    HW114606   3.704   0.846   8.632 -1.0007  1.0275  0.1074
  990SOL    HW214607   3.822   0.828   8.708  1.0226  0.8680 -0.5406
  991SOL     OW14608   4.606   3.120   9.798  0.5698  0.0786 -0.9417
  991SOL    HW114609   4.615   3.159   9.711  0.6345  1.3905 -0.3524
  991SOL    HW214610   4.559   3.043   9.767 -0.3080  0.4798 -0.6070
  992SOL     OW14611   0.396   0.725   8.096 -1.0394  0.3159 -0.2688
  992SOL    HW114612   0.353   0.796   8.048 -1.9939  1.2739  1.9999
  992SOL    HW214613   0.394   0.660   8.025  1.1573  0.2285 -0.2539
  993SOL     OW14614   0.057   2.575  11.096  0.0135  0.2840 -0.1263
  993SOL    HW114615   4.726   2.632  11.133 -0.3571  0.1100 -0.5281
  993SOL    HW214616   0.078   2.614  11.011  0.8274 -0.6924 -0.3751
  994SOL     OW14617   4.440   4.189   7.967 -0.1379 -0.3211  0.2792
  994SOL    HW114618   4.473   4.270   7.926  0.9624 -0.4291  0.9355
  994SOL    HW214619   4.513   4.132   7.943 -0.1040 -0.3791  0.5245
  995SOL     OW14620   2.039   2.858  11.685  0.2036  0.7997  0.0929
  995SOL    HW114621   2.045   2.867  11.780 -0.8479 -2.4133  0.4532
  995SOL    HW214622   2.127   2.888  11.664  0.7951 -0.6259  0.5923
  996SOL     OW14623   0.361   0.702   7.835 -0.0253  0.2268  0.2114
  996SOL    HW114624   0.269   0.730   7.831 -0.7240 -2.1008 -0.4810
  996SOL    HW214625   0.379   0.656   7.753  0.8984  0.9559  0.0102
  997SOL     OW14626   0.467   2.843   3.227 -0.2070  0.5841 -0.3093
  997SOL    HW114627   0.428   2.799   3.152  0.5513  0.3694 -0.5838
  997SOL    HW214628   0.447   2.933   3.200 -1.2053  0.9641  1.7484
  998SOL     OW14629   4.589   0.471   8.410 -0.5466 -0.7799 -0.7007
  998SOL    HW114630   4.498   0.477   8.380 -0.4878  0.7132 -0.6161
  998SOL    HW214631   4.622   0.561   8.410 -2.7812  0.0473  2.0206
  999SOL     OW14632   1.180   3.870   0.270  0.1269  0.4058  0.5176
  999SOL    HW114633   1.242   3.811   0.227  0.2963  1.2070 -0.3466
  999SOL    HW214634   1.186   3.842   0.361  0.8587  1.3519  0.7595
 1000SOL     OW14635   4.608   3.137   8.702 -0.4228  0.0422 -0.1706
 1000SOL    HW114636   4.549   3.115   8.629  0.5684 -0.5539 -0.7883
 1000SOL    HW214637   4.591   3.074   8.771  1.6540 -0.8763 -0.5007
 1001SOL     OW14638   1.591   0.442  11.613 -0.4832 -0.0302 -0.2870
 1001SOL    HW114639   1.648   0.453  11.689 -2.0205 -0.6581  0.9480
 1001SOL    HW214640   1.591   0.347  11.600 -3.3766  0.1242 -1.2760
 1002SOL     OW14641   1.010   2.124   6.974  0.8172 -0.4103  0.1522
 1002SOL    HW114642   1.033   2.164   6.890  0.7984 -0.3626  0.1695
 1002SOL    HW214643   1.098   2.116   7.011  1.2885 -1.1694 -1.1480
 1003SOL     OW14644   3.947   2.759   5.576 -0.0931  0.3781 -0.1750
 1003SOL    HW114645   3.904   2.702   5.512  0.1284  1.2337 -1.0811
 1003SOL    HW214646   3.879   2.827   5.580 -0.2756  0.1724  0.2965
 1004SOL     OW14647   2.825   0.364   6.645  0.2022 -0.3544 -0.6225
 1004SOL    HW114648   2.804   0.398   6.731 -2.3045  2.5790 -2.3992
 1004SOL    HW214649   2.850   0.437   6.589  0.4316 -0.1823 -0.2889
 1005SOL     OW14650   4.081   3.137   5.032 -0.1184  0.6258 -0.0703
 1005SOL    HW114651   4.170   3.170   5.040 -0.0950  0.6762 -0.5771
 1005SOL    HW214652   4.086   3.067   4.966 -2.2913  0.3982 -0.0090
 1006SOL     OW14653   2.722   4.431  16.623  0.3497 -0.5844 -0.4102
 1006SOL    HW114654   2.772   4.494  16.571 -0.0267  1.2964  1.4803
 1006SOL    HW214655   2.736   4.348  16.577  1.2414 -1.4187  1.4108
 1007SOL     OW14656   1.573   0.781  12.398 -0.4124 -0.0846  0.4630
 1007SOL    HW114657   1.583   0.749  12.308 -0.3397  0.9327  0.1188
 1007SOL    HW214658   1.477   0.787  12.394 -0.2406  1.8275 -0.4726
 1008SOL     OW14659   1.183   4.445   6.949 -0.4516  0.1786  0.1156
 1008SOL    HW114660   1.240   4.488   7.012 -1.2059 -0.3068  1.1260
 1008SOL    HW214661   1.236   4.441   6.870  1.7631 -1.0506  1.6702
 1009SOL     OW14662   4.219   0.074   4.949  0.6642  0.0570  0.4375
 1009SOL    HW114663   4.147   0.012   4.958 -0.6920  1.2642 -2.3212
 1009SOL    HW214664   4.296   0.033   4.990  2.6848  2.1541 -1.2887
 1010SOL     OW14665   0.213   0.346   5.536  0.1350 -0.1208  0.2027
 1010SOL    HW114666   0.127   0.375   5.505  0.8659  0.7253 -1.0543
 1010SOL    HW214667   0.186   0.302   5.617 -1.6138 -1.7162 -1.2339
 1011SOL     OW14668   4.369   4.497  15.943 -0.1418 -0.2638  0.1278
 1011SOL    HW114669   4.388   4.403  15.944 -2.8784 -0.8267  0.1318
 1011SOL    HW214670   4.296   4.504  16.004 -0.4184  1.2494 -0.3642
 1012SOL     OW14671   2.502   2.280  12.716  0.1040  0.1276  0.1436
 1012SOL    HW114672   2.531   2.313  12.631 -0.5604 -0.9822 -0.5242
 1012SOL    HW214673   2.417   2.236  12.701  0.2441  0.3299 -1.2957
 1013SOL     OW14674   2.449   1.718   4.980  0.4930 -0.4136  0.6738
 1013SOL    HW114675   2.464   1.796   5.033  1.0492  1.8159 -2.7461
 1013SOL    HW214676   2.359   1.696   5.002  0.2841  1.5585  1.8309
 1014SOL     OW14677   2.104   2.186  14.617 -0.1106 -0.6427 -0.2794
 1014SOL    HW114678   2.129   2.217  14.704  2.1791  0.8157 -1.4737
 1014SOL    HW214679   2.168   2.118  14.596  2.6799  1.4928  1.3769
 1015SOL     OW14680   0.272   2.789   4.318  0.3415 -0.2262  0.5480
 1015SOL    HW114681   0.229   2.866   4.282 -1.2859 -0.4689  2.0112
 1015SOL    HW214682   0.361   2.797   4.282  0.0930 -0.4900 -0.1251
 1016SOL     OW14683   3.396   0.072   2.605  0.3315 -0.3625  0.4184
 1016SOL    HW114684   3.435   0.156   2.582 -1.3976  0.5939  0.9771
 1016SOL    HW214685   3.349   0.044   2.527 -0.8403  1.0537  0.6071
 1017SOL     OW14686   4.471   0.689   5.563 -0.6182  0.3049  0.2114
 1017SOL    HW114687   4.493   0.782   5.567  1.4480 -0.1056 -1.6066
 1017SOL    HW214688   4.544   0.654   5.511 -0.9048  1.5594 -1.0269
 1018SOL     OW14689   0.311   4.488   8.793  0.0778  0.2163 -0.3692
 1018SOL    HW114690   0.283   4.431   8.722 -2.2017 -1.3329  1.7606
 1018SOL    HW214691   0.402   4.497   8.764 -0.3834  1.5069 -1.4140
 1019SOL     OW14692   2.789   2.031  13.575 -0.8271 -0.9229  0.2289
 1019SOL    HW114693   2.819   2.074  13.495  1.6805  0.4433  1.8978
 1019SOL    HW214694   2.761   2.106  13.627  1.2413 -0.9894  1.4515
 1020SOL     OW14695   1.094   3.849   3.904  0.0809 -0.0395  0.0360
 1020SOL    HW114696   1.090   3.889   3.991 -0.2569 -2.5094  1.1594
 1020SOL    HW214697   1.032   3.777   3.911 -0.4030  0.6319  3.0109
 1021SOL     OW14698   3.408   4.122   1.354 -0.4358 -0.3326  0.1211
 1021SOL    HW114699   3.461   4.128   1.274  1.2684  0.2482  1.2869
 1021SOL    HW214700   3.322   4.096   1.323 -0.8741 -0.7153  1.6506
 1022SOL     OW14701   1.557   1.179   4.704 -0.2289 -0.4035 -0.1130
 1022SOL    HW114702   1.516   1.225   4.631 -0.2519  1.9643  1.4298
 1022SOL    HW214703   1.513   1.223   4.776 -1.3741 -0.1113 -0.9855
 1023SOL     OW14704   3.731   0.859   4.204  0.1761 -0.8129 -0.2043
 1023SOL    HW114705   3.824   0.874   4.188  0.2351  0.6042  1.4375
 1023SOL    HW214706   3.691   0.935   4.162 -1.1598 -0.4997  1.6151
 1024SOL     OW14707   2.102   2.408   5.872 -0.4470  0.4581 -0.1885
 1024SOL    HW114708   2.163   2.477   5.845  0.4200  0.1022  0.8510
 1024SOL    HW214709   2.159   2.332   5.861 -1.0624 -0.1354  0.6634
 1025SOL     OW14710   0.222   1.259   8.619  0.1973 -0.1689 -0.5624
 1025SOL    HW114711   0.308   1.292   8.593  1.6015 -1.8330  1.9201
 1025SOL    HW214712   0.246   1.167   8.631  0.7916 -0.0353 -0.7096
 1026SOL     OW14713   4.704   1.609   6.792 -0.3355  0.2625  0.2852
 1026SOL    HW114714   4.702   1.520   6.756 -1.9564 -0.2006  1.5436
 1026SOL    HW214715   4.710   1.585   6.884 -1.1682  2.7687  0.9817
 1027SOL     OW14716   3.357   4.227  11.214  0.4622 -0.3830 -0.5310
 1027SOL    HW114717   3.315   4.168  11.276 -0.8757  1.6149  0.4257
 1027SOL    HW214718   3.444   4.187  11.205  1.8095  2.8679 -2.0202
 1028SOL     OW14719   3.623   0.543   2.450  0.3915  0.0996 -0.1003
 1028SOL    HW114720   3.688   0.610   2.473 -3.1361  3.4151  0.3025
 1028SOL    HW214721   3.673   0.501   2.380  0.7587  0.6004 -0.1394
 1029SOL     OW14722   1.357   4.546  17.294  0.1394 -0.1706 -0.2140
 1029SOL    HW114723   1.363   4.472  17.355 -1.1960  0.6418  0.9093
 1029SOL    HW214724   1.268   4.532  17.260 -0.2729  0.8392  0.4504
 1030SOL     OW14725   3.324   4.654   4.519  0.4419  0.3139  0.5227
 1030SOL    HW114726   3.299   4.720   4.455  1.7445  0.5847  0.2970
 1030SOL    HW214727   3.265   4.580   4.502  1.2391  0.2793 -1.9862
 1031SOL     OW14728   2.613   2.960   7.050  0.3860 -0.6330 -0.1434
 1031SOL    HW114729   2.585   2.874   7.081  2.1128 -1.1313  0.0814
 1031SOL    HW214730   2.644   2.943   6.961  0.4844 -1.4570  0.0505
 1032SOL     OW14731   1.804   3.383  14.767  0.0866  0.5329  0.0308
 1032SOL    HW114732   1.729   3.401  14.711 -0.9989 -1.3899  0.8440
 1032SOL    HW214733   1.876   3.415  14.712  1.4019  0.8853  1.9298
 1033SOL     OW14734   3.145   0.250   2.061 -0.1899  0.0916 -0.5086
 1033SOL    HW114735   3.116   0.178   2.007  0.1452 -0.4926  0.0819
 1033SOL    HW214736   3.174   0.320   2.002  0.1240  1.9748  1.8329
 1034SOL     OW14737   1.785   1.045   6.606 -0.3995  0.5236  0.1388
 1034SOL    HW114738   1.857   0.992   6.639 -0.8101 -0.1750 -0.0985
 1034SOL    HW214739   1.794   1.123   6.660  1.2353 -0.4326  1.2204
 1035SOL     OW14740   1.244   4.172  13.492  0.3178 -0.0073  0.0424
 1035SOL    HW114741   1.303   4.104  13.524 -0.2246 -0.6255 -0.2746
 1035SOL    HW214742   1.169   4.153  13.549  1.6477 -1.9644  1.1359
 1036SOL     OW14743   0.511   0.982   6.266  0.1087 -0.1958 -0.5058
 1036SOL    HW114744   0.478   1.070   6.286  1.7023  0.5447 -1.1623
 1036SOL    HW214745   0.492   0.933   6.346 -1.3758 -0.2833 -0.9069
 1037SOL     OW14746   2.339   2.231   7.536  0.0368  0.2294 -0.0561
 1037SOL    HW114747   2.294   2.148   7.551  0.5296  0.0361  0.3480
 1037SOL    HW214748   2.353   2.261   7.626  3.9312  0.9340 -0.9014
 1038SOL     OW14749   3.758   4.439   4.894 -0.3436  0.4849 -0.2269
 1038SOL    HW114750   3.715   4.513   4.937 -0.1264  0.4281  0.0843
 1038SOL    HW214751   3.832   4.428   4.954 -0.0863 -0.7239 -0.7698
 1039SOL     OW14752   3.364   0.281   2.237 -0.7080 -0.2225  0.0388
 1039SOL    HW114753   3.276   0.256   2.208  0.6766 -2.3017 -2.4027
 1039SOL    HW214754   3.406   0.322   2.161 -2.7124  1.2614 -0.2870
 1040SOL     OW14755   4.350   2.479   7.755  0.4009  0.3056  0.0492
 1040SOL    HW114756   4.280   2.530   7.715  1.4597  2.1590  0.5689
 1040SOL    HW214757   4.423   2.495   7.695  0.5595  0.8988  0.3955
 1041SOL     OW14758   2.564   4.136  16.717  0.2975 -0.1327 -0.7811
 1041SOL    HW114759   2.614   4.154  16.796 -1.8341 -2.0464  0.9971
 1041SOL    HW214760   2.490   4.195  16.727  1.2903  1.7580 -4.4857
 1042SOL     OW14761   1.487   2.017   9.307  0.1347  0.8544  0.1949
 1042SOL    HW114762   1.561   2.072   9.332 -0.3712  1.9495 -0.7291
 1042SOL    HW214763   1.513   1.997   9.217 -1.7360 -0.3515 -0.0766
 1043SOL     OW14764   4.322   1.258   7.008 -0.0610  0.3224  0.0688
 1043SOL    HW114765   4.265   1.183   6.993 -0.2787  0.7419 -1.2565
 1043SOL    HW214766   4.323   1.248   7.103  0.2696 -1.4710 -0.1234
 1044SOL     OW14767   1.654   0.623  17.543 -0.4215 -0.0974  0.1487
 1044SOL    HW114768   1.708   0.701  17.554  2.8174 -2.4238  0.5854
 1044SOL    HW214769   1.631   0.618  17.451 -1.4273 -0.5774  0.4256
 1045SOL     OW14770   0.610   2.280   8.913  0.5266  0.5638  0.0047
 1045SOL    HW114771   0.637   2.323   8.994  0.9053 -0.4954  0.4351
 1045SOL    HW214772   0.687   2.298   8.858  0.1402  0.4880 -0.5524
 1046SOL     OW14773   2.651   4.137   4.804  0.3536 -0.0615 -0.3890
 1046SOL    HW114774   2.651   4.209   4.868  1.7767  0.9308 -1.5246
 1046SOL    HW214775   2.557   4.141   4.784  0.6842  2.0141 -1.4811
 1047SOL     OW14776   2.589   3.296  14.285 -0.0518 -0.3606  0.3539
 1047SOL    HW114777   2.498   3.325  14.277  0.1802 -0.6155 -3.3887
 1047SOL    HW214778   2.585   3.201  14.283  1.1789 -0.3990 -0.1246
 1048SOL     OW14779   2.355   2.273   4.770 -0.0935  0.2948 -0.3500
 1048SOL    HW114780   2.347   2.189   4.725 -1.0757  0.4876 -0.5338
 1048SOL    HW214781   2.300   2.261   4.848 -2.1885 -2.6616 -2.2856
 1049SOL     OW14782   3.128   1.519   2.521 -0.4640 -0.3028 -0.8549
 1049SOL    HW114783   3.041   1.558   2.516 -0.1016  0.8875  2.1620
 1049SOL    HW214784   3.182   1.598   2.520  1.4608 -1.6307 -2.0212
 1050SOL     OW14785   4.705   2.825   8.445 -0.4611 -0.9131  0.2171
 1050SOL    HW114786   4.626   2.880   8.439  1.4611  1.8137 -0.1581
 1050SOL    HW214787   4.729   2.832   8.537  1.3748 -0.3601 -0.3154
 1051SOL     OW14788   0.405   4.021   1.646 -0.4432 -0.4957 -0.2702
 1051SOL    HW114789   0.337   4.087   1.631  1.0108  1.0711  0.0848
 1051SOL    HW214790   0.353   3.949   1.683 -1.2260  0.6536  0.8816
 1052SOL     OW14791   2.782   3.916  10.037 -0.6001 -0.2332 -0.3360
 1052SOL    HW114792   2.787   3.979  10.109  0.1743 -0.4815 -0.1760
 1052SOL    HW214793   2.873   3.898  10.015  0.0374  3.0663 -0.4051
 1053SOL     OW14794   4.270   1.644  14.314 -0.7058 -0.1210 -1.3270
 1053SOL    HW114795   4.214   1.591  14.370  2.2720 -1.1183  0.7062
 1053SOL    HW214796   4.250   1.732  14.346 -0.5837 -1.1519  1.5864
 1054SOL     OW14797   0.407   4.353  15.748  0.0594 -0.0709 -0.0467
 1054SOL    HW114798   0.315   4.368  15.767  0.1425  1.9926 -1.3256
 1054SOL    HW214799   0.434   4.429  15.800 -1.8203  1.0604 -0.7284
 1055SOL     OW14800   3.445   0.694  15.239 -0.1412 -0.1690 -0.2144
 1055SOL    HW114801   3.447   0.638  15.316  0.1493  1.6544  1.1155
 1055SOL    HW214802   3.412   0.638  15.169 -1.6208  0.4480 -0.0095
 1056SOL     OW14803   2.969   4.538   7.839 -0.1746 -0.0194 -0.0687
 1056SOL    HW114804   2.944   4.447   7.820 -1.8553  0.9603 -2.6056
 1056SOL    HW214805   2.891   4.555   7.891 -0.2624  1.5682 -0.7113
 1057SOL     OW14806   1.446   2.843   5.158 -0.5626 -0.1340 -0.4362
 1057SOL    HW114807   1.393   2.865   5.236 -2.3163  1.1721 -1.9962
 1057SOL    HW214808   1.428   2.749   5.148  2.0653 -0.5966 -0.6874
 1058SOL     OW14809   3.318   3.879   5.450  0.5005 -0.2285  0.4346
 1058SOL    HW114810   3.293   3.942   5.518 -1.2201 -2.2890  1.6853
 1058SOL    HW214811   3.235   3.862   5.406 -0.1789  0.8535  1.2999
 1059SOL     OW14812   2.286   0.856   6.145  0.0602  0.6644 -0.1126
 1059SOL    HW114813   2.309   0.799   6.218  0.8066  1.5133  0.3239
 1059SOL    HW214814   2.241   0.795   6.087 -0.0157 -0.2658  0.9290
 1060SOL     OW14815   0.662   4.058   1.652 -0.0853 -0.3192  0.0299
 1060SOL    HW114816   0.571   4.034   1.669 -0.1665  0.1982  0.3548
 1060SOL    HW214817   0.659   4.140   1.602 -2.5151 -0.3363  0.1572
 1061SOL     OW14818   0.830   3.751  15.803  0.7968 -0.6404 -0.3682
 1061SOL    HW114819   0.822   3.820  15.737 -1.0446  1.7548  2.3846
 1061SOL    HW214820   0.752   3.766  15.856  1.9925  1.7546  0.7480
 1062SOL     OW14821   1.918   1.302  10.088 -0.1002  0.1024  0.1842
 1062SOL    HW114822   1.969   1.225  10.113 -0.4687  0.2766  1.5091
 1062SOL    HW214823   1.837   1.280  10.135 -0.7702  1.9793 -0.0879
 1063SOL     OW14824   2.969   4.348   3.830  0.2233 -0.2928 -0.3057
 1063SOL    HW114825   3.043   4.392   3.874 -0.0679 -0.8626  0.7585
 1063SOL    HW214826   3.008   4.275   3.781 -2.1122 -1.2929 -0.6464
 1064SOL     OW14827   1.513   0.226   8.605 -0.4519  0.3514 -0.4036
 1064SOL    HW114828   1.432   0.274   8.587  1.2127  2.9910 -0.7965
 1064SOL    HW214829   1.492   0.149   8.552 -2.2299  0.4804  0.1291
 1065SOL     OW14830   4.061   2.620  15.160  0.3338 -0.4401  0.3386
 1065SOL    HW114831   4.116   2.547  15.186 -0.1247 -0.5121  1.0887
 1065SOL    HW214832   4.127   2.689  15.152 -0.3106  0.1445  0.0685
 1066SOL     OW14833   1.682   0.057   2.321 -0.4382  0.4895  0.0826
 1066SOL    HW114834   1.707   0.111   2.246  3.4133  1.6063  2.1693
 1066SOL    HW214835   1.767   0.043   2.362  0.5160  1.2667 -1.6511
 1067SOL     OW14836   0.654   1.535   4.885  0.3428  0.3959 -0.0236
 1067SOL    HW114837   0.627   1.447   4.861  1.2843  1.0415 -3.5051
 1067SOL    HW214838   0.701   1.520   4.967 -2.9962  2.8087  2.3410
 1068SOL     OW14839   2.360   0.466  14.369 -0.4041 -0.3259 -0.9285
 1068SOL    HW114840   2.284   0.414  14.397  0.6651  0.2018  2.8539
 1068SOL    HW214841   2.320   0.553  14.375 -1.3192 -0.8667  0.6897
 1069SOL     OW14842   0.606   2.845   9.746  0.3953 -0.1447  0.4952
 1069SOL    HW114843   0.580   2.831   9.655 -0.8846  1.0051  0.6887
 1069SOL    HW214844   0.528   2.870   9.796 -1.8997  0.2669 -3.3392
 1070SOL     OW14845   1.504   3.414   7.294  0.1750 -0.6843  0.1156
 1070SOL    HW114846   1.488   3.341   7.354 -2.0857 -0.8112 -0.6153
 1070SOL    HW214847   1.574   3.384   7.236 -0.4431 -0.1394 -0.9219
 1071SOL     OW14848   1.502   0.216   0.548 -0.0429 -0.2510  0.2249
 1071SOL    HW114849   1.550   0.237   0.468  1.8889  0.5176  1.5761
 1071SOL    HW214850   1.562   0.162   0.600  0.1826  0.5698  0.8210
 1072SOL     OW14851   3.860   3.596   3.991  0.0224  0.6564 -0.2836
 1072SOL    HW114852   3.879   3.675   4.042 -0.2863  0.9349 -0.5975
 1072SOL    HW214853   3.812   3.633   3.917 -0.8592 -1.1173 -0.5874
 1073SOL     OW14854   2.511   2.779  10.995  0.2193 -0.1715  0.2587
 1073SOL    HW114855   2.449   2.847  11.021 -1.6695 -2.4625  1.7363
 1073SOL    HW214856   2.503   2.717  11.068  3.1484 -0.5605  0.2376
 1074SOL     OW14857   3.306   2.183  10.103  0.2859 -0.5193 -0.3481
 1074SOL    HW114858   3.390   2.207  10.143 -0.8013 -0.1349  1.7129
 1074SOL    HW214859   3.241   2.178  10.173 -0.5611  0.1155 -1.0856
 1075SOL     OW14860   2.851   1.213   5.079  0.0043 -0.0664 -0.1314
 1075SOL    HW114861   2.768   1.180   5.114 -1.5591  2.5937 -1.2852
 1075SOL    HW214862   2.916   1.201   5.148  1.4577  3.4016 -0.8961
 1076SOL     OW14863   0.261   3.033   2.953  0.2572 -0.2699 -0.3714
 1076SOL    HW114864   0.333   3.046   3.014  0.7291 -3.4445 -0.2493
 1076SOL    HW214865   0.303   3.071   2.876  2.0796 -2.3791 -0.3853
 1077SOL     OW14866   2.783   0.126   7.405 -0.1189 -0.7088  0.2621
 1077SOL    HW114867   2.793   0.031   7.403  0.9362 -0.6260  1.5012
 1077SOL    HW214868   2.784   0.133   7.500 -0.9389 -0.2591  0.2406
 1078SOL     OW14869   3.330   0.930   9.439 -0.3434 -0.2475  0.1982
 1078SOL    HW114870   3.276   0.975   9.504 -0.5201 -1.1978  0.7092
 1078SOL    HW214871   3.335   0.993   9.367 -2.0899  1.1836  1.3160
 1079SOL     OW14872   3.444   3.772   2.408 -0.0818 -0.1404 -0.1680
 1079SOL    HW114873   3.393   3.724   2.473 -2.0914  0.1016 -1.5699
 1079SOL    HW214874   3.379   3.788   2.340 -0.6618  1.5453  0.8021
 1080SOL     OW14875   4.522   2.903   2.863 -0.6710 -0.1790 -0.0364
 1080SOL    HW114876   4.612   2.904   2.830 -0.5393  1.0031  0.3650
 1080SOL    HW214877   4.515   2.996   2.885 -2.7642 -0.4146  0.2371
 1081SOL     OW14878   0.679   1.564   7.047  0.0316  0.3857  0.6408
 1081SOL    HW114879   0.774   1.550   7.054  0.3660  1.4332 -1.5988
 1081SOL    HW214880   0.650   1.479   7.080 -1.8467  0.8391  0.1665
 1082SOL     OW14881   3.481   0.387   3.763 -0.1795 -0.7964  0.5513
 1082SOL    HW114882   3.416   0.318   3.747 -0.1885 -0.2235 -1.8702
 1082SOL    HW214883   3.423   0.453   3.801  1.1149  1.4883 -1.4312
 1083SOL     OW14884   0.674   0.840   0.471 -0.0121  0.0799 -0.0218
 1083SOL    HW114885   0.617   0.877   0.403  0.3621  0.6447 -0.0321
 1083SOL    HW214886   0.743   0.801   0.418  1.2109 -0.2712  1.8347
 1084SOL     OW14887   4.061   0.059  10.308  0.1758 -0.1507 -0.4706
 1084SOL    HW114888   3.990   0.047  10.246 -0.2214 -0.7973  0.1154
 1084SOL    HW214889   4.121   4.720  10.297 -0.8900 -0.7603 -2.1454
 1085SOL     OW14890   3.056   0.436   1.323 -0.0704  0.4183 -0.0917
 1085SOL    HW114891   3.060   0.355   1.271 -0.0099  0.0280  0.5215
 1085SOL    HW214892   2.971   0.463   1.290 -0.9202 -1.5297  0.4626
 1086SOL     OW14893   0.679   2.712   6.517  0.2415 -0.3017 -0.7814
 1086SOL    HW114894   0.626   2.636   6.495  0.0426 -0.0241 -1.2650
 1086SOL    HW214895   0.729   2.715   6.435 -0.4632  0.9958 -1.1675
 1087SOL     OW14896   2.613   2.348  13.133  0.1085  0.7446  0.6520
 1087SOL    HW114897   2.593   2.265  13.089  1.0336 -0.6700  2.9143
 1087SOL    HW214898   2.584   2.412  13.068 -2.0426 -1.7890 -0.8847
 1088SOL     OW14899   4.108   3.226   7.261  0.0896 -0.4446 -0.6833
 1088SOL    HW114900   4.160   3.306   7.258 -0.5526 -0.0521 -1.1797
 1088SOL    HW214901   4.125   3.201   7.352 -2.1175  0.6936  0.0306
 1089SOL     OW14902   1.001   4.041   2.969 -0.2034  0.1640  0.2211
 1089SOL    HW114903   0.955   4.069   2.890 -1.4164 -1.4790  0.3324
 1089SOL    HW214904   0.954   3.958   2.983 -0.1353  0.4449  2.1165
 1090SOL     OW14905   4.234   3.884   0.060  0.3580 -0.7626  0.2262
 1090SOL    HW114906   4.186   3.961   0.091 -2.5815 -1.7239 -1.9687
 1090SOL    HW214907   4.296   3.911  17.733  0.2904  0.0364  0.4919
 1091SOL     OW14908   1.632   2.987   2.729  0.1487  0.2168 -0.0041
 1091SOL    HW114909   1.613   3.046   2.656 -0.4801 -1.9509 -1.5829
 1091SOL    HW214910   1.669   3.043   2.797  1.3422 -1.3650  0.6375
 1092SOL     OW14911   1.549   4.136   4.555 -0.0025 -0.1816 -0.1106
 1092SOL    HW114912   1.585   4.174   4.475  0.2887 -0.6955 -0.2232
 1092SOL    HW214913   1.544   4.214   4.611 -0.8501 -0.8005  0.6636
 1093SOL     OW14914   2.940   3.370   3.589  0.9019  0.9026 -0.4262
 1093SOL    HW114915   2.938   3.275   3.582  0.3004  0.8074  1.1726
 1093SOL    HW214916   2.848   3.395   3.575  1.2056  1.6527 -1.0895
 1094SOL     OW14917   4.433   2.420   9.502  0.6923 -0.0248 -0.4127
 1094SOL    HW114918   4.425   2.324   9.508  0.6474  0.0645  1.0922
 1094SOL    HW214919   4.528   2.418   9.495  0.5284 -0.3404 -2.5786
 1095SOL     OW14920   1.580   2.149   6.744  0.0505 -0.3639 -0.5386
 1095SOL    HW114921   1.505   2.089   6.748  0.4297 -0.6921  1.3660
 1095SOL    HW214922   1.552   2.222   6.689  0.3149  1.1637  1.3963
 1096SOL     OW14923   2.596   4.004   9.410  0.2813  0.0522  0.8376
 1096SOL    HW114924   2.541   3.940   9.365  2.2729  0.2151 -1.8276
 1096SOL    HW214925   2.534   4.076   9.424  0.7187  1.0504 -2.3811
 1097SOL     OW14926   2.146   1.794   4.618  0.0624 -0.4400 -0.3603
 1097SOL    HW114927   2.168   1.726   4.554  1.4887  1.5711 -1.9913
 1097SOL    HW214928   2.126   1.867   4.560 -1.1840 -0.7351 -0.3148
 1098SOL     OW14929   2.409   1.329  15.603 -0.4096  0.0727  0.0499
 1098SOL    HW114930   2.374   1.328  15.693 -1.7481 -0.0178 -0.4678
 1098SOL    HW214931   2.431   1.236  15.603 -0.5599  0.0257  1.6489
 1099SOL     OW14932   2.656   0.979   6.002  0.2003  0.1303 -0.4233
 1099SOL    HW114933   2.561   0.986   5.993  0.1061 -1.0280 -0.3226
 1099SOL    HW214934   2.681   0.970   5.910 -0.0054  0.6434 -0.5305
 1100SOL     OW14935   2.666   4.262   5.764 -0.5239  0.2213  0.5641
 1100SOL    HW114936   2.717   4.334   5.802  1.2861 -0.1544 -1.1527
 1100SOL    HW214937   2.615   4.312   5.700 -1.4971 -0.5023  0.7908
 1101SOL     OW14938   2.609   0.614   2.226  0.8458  0.0305 -0.1259
 1101SOL    HW114939   2.676   0.613   2.158  0.3806  1.0325 -0.5914
 1101SOL    HW214940   2.639   0.533   2.268 -1.2810  0.8460  2.9994
 1102SOL     OW14941   0.228   1.324   6.109 -0.2215  0.4281  0.3799
 1102SOL    HW114942   0.146   1.275   6.104  0.3364 -0.3246 -1.5842
 1102SOL    HW214943   0.273   1.287   6.033  0.1249  0.2297  0.6862
 1103SOL     OW14944   0.549   2.316   0.809 -0.5557 -0.2593  0.0909
 1103SOL    HW114945   0.627   2.347   0.763 -1.4239 -0.6659 -1.6344
 1103SOL    HW214946   0.523   2.394   0.858 -1.6019 -0.1305 -0.6684
 1104SOL     OW14947   0.144   1.195   2.871 -0.7080  0.0867 -0.0058
 1104SOL    HW114948   0.132   1.215   2.964  0.0521 -0.3637  0.1921
 1104SOL    HW214949   0.240   1.190   2.876 -0.6929  1.3955  1.1211
 1105SOL     OW14950   0.989   3.609   7.138 -0.4494  0.0757 -0.1039
 1105SOL    HW114951   1.055   3.551   7.177  0.4740  0.4537 -1.0869
 1105SOL    HW214952   1.044   3.684   7.117  0.4827 -0.8262 -0.8832
 1106SOL     OW14953   3.700   4.411   7.779 -0.2012  0.0832  0.4010
 1106SOL    HW114954   3.743   4.497   7.786  0.4634 -0.2197 -0.0371
 1106SOL    HW214955   3.698   4.394   7.874 -0.8949  1.6775  0.6867
 1107SOL     OW14956   1.175   2.699   5.681 -0.2781 -0.2329  0.1575
 1107SOL    HW114957   1.085   2.675   5.700 -0.1000 -0.8134  0.2462
 1107SOL    HW214958   1.185   2.756   5.757  2.9670  1.4753 -1.5116
 1108SOL     OW14959   2.563   0.251  14.056 -0.0735 -0.3956 -0.0720
 1108SOL    HW114960   2.563   0.347  14.051 -1.6234 -0.4894 -1.8144
 1108SOL    HW214961   2.497   0.238  14.123  0.2442  1.0748  0.5356
 1109SOL     OW14962   0.016   2.441   8.230  0.3081 -0.3550  0.1986
 1109SOL    HW114963   4.677   2.386   8.208  1.0700 -1.1976 -0.3094
 1109SOL    HW214964   0.096   2.392   8.211  1.3153  1.4268 -0.1757
 1110SOL     OW14965   4.401   3.477   0.837  0.6880  0.0451 -0.5303
 1110SOL    HW114966   4.429   3.388   0.859 -1.3182 -0.8102 -1.3044
 1110SOL    HW214967   4.449   3.493   0.756 -0.9955  1.3564 -1.2659
 1111SOL     OW14968   3.562   3.296  13.024  0.2505 -0.1859 -0.6833
 1111SOL    HW114969   3.518   3.366  13.074  1.0624 -1.1521  1.4060
 1111SOL    HW214970   3.561   3.328  12.934  0.5267 -0.6899 -0.8625
 1112SOL     OW14971   1.224   2.615   7.987 -0.3898  0.0883  0.0025
 1112SOL    HW114972   1.299   2.597   8.044 -0.5278 -0.1895  0.0977
 1112SOL    HW214973   1.222   2.545   7.922 -0.7739 -1.4168  1.6068
 1113SOL     OW14974   1.109   4.469   9.012 -0.1500 -0.9761 -0.6506
 1113SOL    HW114975   1.179   4.406   9.031 -2.9426 -4.3142 -1.3015
 1113SOL    HW214976   1.056   4.458   9.090 -2.2297  0.1426 -1.9138
 1114SOL     OW14977   2.839   4.102  10.265  0.4586  1.4018 -0.1007
 1114SOL    HW114978   2.907   4.148  10.314  1.9027  0.3553 -1.1404
 1114SOL    HW214979   2.758   4.129  10.307 -0.9699 -0.4814 -1.6458
 1115SOL     OW14980   1.325   0.967  17.610  0.5066  0.0532 -0.2262
 1115SOL    HW114981   1.400   0.960  17.551  0.1919  0.6920 -0.6993
 1115SOL    HW214982   1.333   1.052  17.652 -0.5855  0.5451 -1.0228
 1116SOL     OW14983   0.833   3.794  13.938  0.1263  0.0973 -0.1665
 1116SOL    HW114984   0.882   3.787  14.019  0.2342 -0.1283 -0.2517
 1116SOL    HW214985   0.764   3.728  13.941  0.1020  0.2554  2.1395
 1117SOL     OW14986   0.604   4.166   2.722 -0.2235 -0.2337 -0.1461
 1117SOL    HW114987   0.537   4.098   2.725 -1.3133  0.7924 -1.0724
 1117SOL    HW214988   0.682   4.114   2.703  1.0497  1.3421  0.7134
 1118SOL     OW14989   0.411   4.454   8.405 -0.4617  0.3619  0.2576
 1118SOL    HW114990   0.385   4.386   8.467 -2.0778 -0.3106 -1.1585
 1118SOL    HW214991   0.374   4.533   8.444 -2.6891  0.1173 -1.3968
 1119SOL     OW14992   0.502   2.823   7.890  0.4912  0.0198 -0.2433
 1119SOL    HW114993   0.428   2.866   7.933  0.4678 -0.1168 -0.1459
 1119SOL    HW214994   0.469   2.736   7.869  2.5895 -0.8673  0.0872
 1120SOL     OW14995   4.455   0.264   5.079  0.9331  0.0004 -0.2218
 1120SOL    HW114996   4.483   0.179   5.047  2.3873 -0.3508  1.9620
 1120SOL    HW214997   4.488   0.258   5.169  1.0272  1.5619 -0.1354
 1121SOL     OW14998   4.551   1.575   2.276  0.3151  0.4934  0.3122
 1121SOL    HW114999   4.574   1.560   2.185  0.4794  2.2644  0.0614
 1121SOL    HW215000   4.528   1.668   2.270 -0.8212  0.0890 -1.5325
 1122SOL     OW15001   2.881   3.459   3.843 -0.0373 -0.4196 -0.1289
 1122SOL    HW115002   2.903   3.412   3.763 -2.9836  1.2924 -1.9532
 1122SOL    HW215003   2.955   3.434   3.897 -0.7812 -0.4743  0.8612
 1123SOL     OW15004   2.896   2.794  13.892 -0.1186 -0.0518  0.0033
 1123SOL    HW115005   2.988   2.813  13.914 -0.8421  0.3113  2.7210
 1123SOL    HW215006   2.847   2.871  13.921 -0.1971 -0.0480 -0.1389
 1124SOL     OW15007   3.027   4.076   7.405  0.0758 -0.3293  0.6513
 1124SOL    HW115008   3.043   3.988   7.440  0.3772 -0.6229 -0.2444
 1124SOL    HW215009   2.951   4.054   7.352 -0.1652 -0.3345  0.9981
 1125SOL     OW15010   0.500   0.154  13.876 -0.3163 -0.0600 -0.5033
 1125SOL    HW115011   0.554   0.226  13.907 -0.5864 -0.2410  0.3675
 1125SOL    HW215012   0.474   0.116  13.959 -1.6993 -2.1439 -1.8915
 1126SOL     OW15013   1.616   3.367   7.761 -0.3251  0.3974  0.1314
 1126SOL    HW115014   1.542   3.424   7.784 -1.3395 -1.5898  1.7481
 1126SOL    HW215015   1.663   3.381   7.843  0.0847  0.8377 -0.1760
 1127SOL     OW15016   0.859   3.664   8.489  0.6826  0.0349  0.1868
 1127SOL    HW115017   0.892   3.750   8.515  1.3093 -0.0152 -0.4262
 1127SOL    HW215018   0.857   3.622   8.575 -1.9271  1.6634  0.9219
 1128SOL     OW15019   3.706   0.297   4.681 -0.2170  0.7521 -0.0864
 1128SOL    HW115020   3.650   0.246   4.622 -0.2902  1.5356 -0.7003
 1128SOL    HW215021   3.736   0.233   4.745  1.1174 -1.4854 -2.9692
 1129SOL     OW15022   1.415   2.651   0.358  0.1121  0.3452 -0.4174
 1129SOL    HW115023   1.462   2.719   0.405 -0.0171  0.6482 -0.7235
 1129SOL    HW215024   1.472   2.646   0.281 -0.2447  0.0182 -0.6662
 1130SOL     OW15025   1.226   1.250   4.426  0.4316 -0.3601 -0.3927
 1130SOL    HW115026   1.185   1.327   4.387  0.4289 -0.7446 -1.1545
 1130SOL    HW215027   1.308   1.287   4.460 -1.6982  2.5232  1.5948
 1131SOL     OW15028   0.690   2.871   2.957  0.2408  0.0476 -0.4378
 1131SOL    HW115029   0.760   2.900   2.898  1.7152 -1.8322  0.3851
 1131SOL    HW215030   0.628   2.939   2.933 -0.8931 -0.0668  2.1643
 1132SOL     OW15031   1.835   2.305  13.484 -0.0761  0.6340 -0.3919
 1132SOL    HW115032   1.909   2.321  13.543 -1.4487  3.0903  0.6821
 1132SOL    HW215033   1.801   2.223  13.518 -1.2457  0.5127 -1.8364
 1133SOL     OW15034   2.631   1.313   4.650 -0.1476  0.1918  0.5432
 1133SOL    HW115035   2.692   1.282   4.717  0.2255  2.2979  1.1995
 1133SOL    HW215036   2.601   1.390   4.700  1.2803 -0.4942  2.4344
 1134SOL     OW15037   2.801   4.272   0.204  0.3784 -0.3625 -0.3571
 1134SOL    HW115038   2.733   4.225   0.155  1.2853 -1.3036 -0.7174
 1134SOL    HW215039   2.877   4.279   0.146  0.8924 -2.5819  0.0321
 1135SOL     OW15040   3.580   2.498  17.431  0.9151 -0.7226 -0.0166
 1135SOL    HW115041   3.557   2.406  17.449  0.3770 -0.5164  0.3690
 1135SOL    HW215042   3.515   2.549  17.479  1.4495 -1.7005  1.7347
 1136SOL     OW15043   3.126   0.785   8.491 -0.8768  0.8392 -0.1299
 1136SOL    HW115044   3.146   0.696   8.462  0.5277  0.9921  0.3520
 1136SOL    HW215045   3.195   0.802   8.555 -2.0097 -0.7405  1.5145
 1137SOL     OW15046   2.846   1.555  14.937  0.3320 -0.1406 -0.4006
 1137SOL    HW115047   2.758   1.517  14.927 -0.8066  2.1559  0.9076
 1137SOL    HW215048   2.830   1.644  14.905  0.1202 -0.5883 -1.5550
 1138SOL     OW15049   3.112   3.552   5.453 -0.2401  0.3157 -0.0861
 1138SOL    HW115050   3.155   3.530   5.370  0.9917  0.2215  0.5781
 1138SOL    HW215051   3.090   3.644   5.435 -2.0782 -0.1193  0.0005
 1139SOL     OW15052   0.416   0.403  10.039  0.7842  0.1743 -0.0120
 1139SOL    HW115053   0.468   0.456   9.979  0.8787  0.8409  0.6635
 1139SOL    HW215054   0.427   0.461  10.114  1.4512 -2.0717  1.6263
 1140SOL     OW15055   0.149   4.440   7.044  0.0415 -0.7401  0.6371
 1140SOL    HW115056   0.063   4.418   7.081 -0.0438 -2.4021 -0.5372
 1140SOL    HW215057   0.208   4.423   7.117  0.1574  3.7687  1.5424
 1141SOL     OW15058   0.706   1.661   2.375 -0.3706  0.0356  0.1213
 1141SOL    HW115059   0.725   1.613   2.295 -0.8372 -0.7457  0.4829
 1141SOL    HW215060   0.768   1.627   2.440  0.9227  2.5115  0.2089
 1142SOL     OW15061   2.687   1.674   3.296 -0.3649  0.1488  0.0611
 1142SOL    HW115062   2.688   1.763   3.259  0.6292  0.4083  0.7109
 1142SOL    HW215063   2.779   1.647   3.303 -0.1453  0.8430 -0.1838
 1143SOL     OW15064   3.058   4.728   5.470 -0.3122  0.1010 -0.3705
 1143SOL    HW115065   2.963   4.722   5.461 -0.4240  2.5077 -0.8194
 1143SOL    HW215066   3.073   4.634   5.464  0.4779  0.1828  0.1832
 1144SOL     OW15067   2.614   3.015   4.443  0.2597  0.0410  0.0758
 1144SOL    HW115068   2.602   2.924   4.471 -1.9545  0.8288  1.6844
 1144SOL    HW215069   2.692   3.013   4.388  1.2833 -1.3007  1.5966
 1145SOL     OW15070   2.604   3.447  16.404 -0.5209  0.0193 -0.0275
 1145SOL    HW115071   2.571   3.447  16.494  0.9743  0.1908  0.5085
 1145SOL    HW215072   2.554   3.373  16.370 -0.4380  0.1636 -0.4711
 1146SOL     OW15073   4.246   2.276  13.412 -0.4536 -0.3246  0.1387
 1146SOL    HW115074   4.248   2.204  13.350 -0.2747 -0.7149  0.6025
 1146SOL    HW215075   4.243   2.354  13.356  0.7055  0.4653  1.1611
 1147SOL     OW15076   3.397   0.934   3.087  0.6603 -0.5568 -0.0731
 1147SOL    HW115077   3.366   0.974   3.168  0.2791 -0.6813 -0.1542
 1147SOL    HW215078   3.308   0.921   3.051 -0.0742  1.5982  0.9714
 1148SOL     OW15079   1.615   1.407   4.256 -0.2445  0.4348 -0.4081
 1148SOL    HW115080   1.580   1.471   4.194 -3.3445 -1.0174 -0.1565
 1148SOL    HW215081   1.572   1.323   4.243 -0.0560  0.6524 -2.3509
 1149SOL     OW15082   2.042   3.281   8.579  0.0886  0.5639  0.2341
 1149SOL    HW115083   2.042   3.259   8.486 -0.3881  3.4185 -0.4350
 1149SOL    HW215084   1.957   3.324   8.582 -0.8512 -1.4032  1.5696
 1150SOL     OW15085   0.290   2.197   9.479 -0.1561  1.0175  0.3480
 1150SOL    HW115086   0.357   2.231   9.419  0.3503  0.2328  0.4621
 1150SOL    HW215087   0.210   2.221   9.433 -0.8437 -0.9433  0.5493
 1151SOL     OW15088   4.192   2.304   5.382 -0.2638 -0.0332 -0.0382
 1151SOL    HW115089   4.124   2.294   5.316  0.6328  0.4041 -1.0207
 1151SOL    HW215090   4.190   2.399   5.393  0.5211  0.2422 -2.3461
 1152SOL     OW15091   3.189   3.032   9.198  0.1355  0.8031  0.2147
 1152SOL    HW115092   3.103   3.053   9.163  0.2992  0.7645 -0.2109
 1152SOL    HW215093   3.225   3.016   9.111  2.3688  1.4974  1.0072
 1153SOL     OW15094   4.547   0.792   6.342 -0.0647 -0.1717  0.1108
 1153SOL    HW115095   4.594   0.862   6.387 -1.2878 -0.1367  1.3238
 1153SOL    HW215096   4.620   0.739   6.308  0.0422 -0.6572  1.0904
 1154SOL     OW15097   0.718   1.044   0.227  0.8680  0.0575 -0.6764
 1154SOL    HW115098   0.729   1.087   0.312  0.6611 -0.8189 -0.2033
 1154SOL    HW215099   0.706   1.126   0.179 -0.0301  1.1557  1.4488
 1155SOL     OW15100   1.423   2.836   9.110 -0.2107  0.1717  0.0703
 1155SOL    HW115101   1.380   2.761   9.151 -0.5583 -0.2125 -0.9884
 1155SOL    HW215102   1.501   2.846   9.164 -0.5129  0.8617  0.3736
 1156SOL     OW15103   3.318   2.011   2.622  0.0580 -0.4438  0.4255
 1156SOL    HW115104   3.321   1.940   2.557 -2.5591  0.9802 -1.2557
 1156SOL    HW215105   3.411   2.032   2.630  0.4993 -1.5323 -1.7157
 1157SOL     OW15106   0.297   1.119   4.080  0.3608 -0.1414  0.6600
 1157SOL    HW115107   0.265   1.142   3.993  1.5469 -1.4508 -0.1192
 1157SOL    HW215108   0.225   1.072   4.121  0.4588 -0.3200  0.6290
 1158SOL     OW15109   1.374   4.602  13.644  0.1474 -0.0420  0.1757
 1158SOL    HW115110   1.304   4.551  13.602  0.8354 -1.3886  0.6492
 1158SOL    HW215111   1.455   4.568  13.605 -0.2317 -0.6712 -0.0676
 1159SOL     OW15112   4.512   0.574   8.961  0.0032  0.4274  0.5483
 1159SOL    HW115113   4.431   0.610   8.923  0.5334  0.3326 -0.6833
 1159SOL    HW215114   4.518   0.610   9.050  0.8216 -1.0285  1.0710
 1160SOL     OW15115   4.013   3.710   7.767 -0.1098 -0.7103  0.5450
 1160SOL    HW115116   4.077   3.776   7.741 -1.4561  0.4996  0.2275
 1160SOL    HW215117   4.062   3.658   7.830 -0.0347 -1.0384  0.2139
 1161SOL     OW15118   3.999   4.235   7.484  0.1753 -0.1198  1.2215
 1161SOL    HW115119   4.018   4.325   7.510  0.8781  0.5159 -1.4911
 1161SOL    HW215120   3.913   4.218   7.524 -1.4036  3.8695 -0.5239
 1162SOL     OW15121   3.682   1.329   4.768  0.1938  0.8053  0.0100
 1162SOL    HW115122   3.738   1.398   4.803  1.4975  0.3148 -1.0941
 1162SOL    HW215123   3.742   1.257   4.746 -0.0442  0.6593 -0.1622
 1163SOL     OW15124   2.901   4.308   5.066 -0.3344  0.6971 -0.2777
 1163SOL    HW115125   2.966   4.302   4.996 -1.0537  1.4592 -1.0121
 1163SOL    HW215126   2.820   4.299   5.017 -2.2923  1.2442  2.8443
 1164SOL     OW15127   1.526   1.677   5.884 -0.3278 -0.5995  0.2734
 1164SOL    HW115128   1.461   1.746   5.899  0.6474  0.3632  0.1079
 1164SOL    HW215129   1.469   1.604   5.860  0.9584 -1.8728  1.0805
 1165SOL     OW15130   2.528   0.204   1.910  0.2205 -0.1948 -0.1197
 1165SOL    HW115131   2.441   0.166   1.920  0.6898 -1.8059 -2.0078
 1165SOL    HW215132   2.538   0.267   1.981 -0.5186  2.0190 -1.9671
 1166SOL     OW15133   3.224   1.279   6.833  0.1755 -0.1458  0.4803
 1166SOL    HW115134   3.276   1.240   6.904 -2.8834  1.4425  3.6239
 1166SOL    HW215135   3.143   1.298   6.880 -0.6322 -1.3745 -0.4284
 1167SOL     OW15136   3.920   2.318   5.090  0.3273 -0.2508 -0.3598
 1167SOL    HW115137   3.995   2.259   5.080  0.4169  0.1705 -2.1667
 1167SOL    HW215138   3.866   2.282   5.019  0.2637 -1.4455  0.2960
 1168SOL     OW15139   1.628   4.124   8.446  0.2614 -0.2149  0.4945
 1168SOL    HW115140   1.634   4.214   8.416 -0.4630  0.1627  1.4508
 1168SOL    HW215141   1.669   4.134   8.532 -0.7614  1.1886  0.8117
 1169SOL     OW15142   4.198   0.329   6.740 -0.4361 -0.2786 -0.0337
 1169SOL    HW115143   4.189   0.235   6.724  0.4671 -0.0338 -1.9709
 1169SOL    HW215144   4.147   0.331   6.821  1.7722 -0.1252  1.3464
 1170SOL     OW15145   4.261   3.123   8.931 -0.4474  0.0090 -0.0848
 1170SOL    HW115146   4.170   3.116   8.959 -0.5160  0.9094 -0.0781
 1170SOL    HW215147   4.294   3.034   8.946  1.1172  0.7191  0.6502
 1171SOL     OW15148   0.795   3.140   2.580  0.2730 -0.5198  0.0055
 1171SOL    HW115149   0.810   3.135   2.486  0.3190 -2.1110  0.0932
 1171SOL    HW215150   0.703   3.115   2.584  0.9361 -3.2659 -2.3089
 1172SOL     OW15151   2.721   3.021   5.747  0.1165  0.0026  0.2709
 1172SOL    HW115152   2.693   3.059   5.831 -0.9408 -0.0487 -0.0660
 1172SOL    HW215153   2.711   3.100   5.693  0.5074 -1.4741 -1.9435
 1173SOL     OW15154   4.394   4.098  10.978  0.6415 -0.0708 -0.8287
 1173SOL    HW115155   4.431   4.072  11.063 -0.2806  0.7216 -0.1838
 1173SOL    HW215156   4.309   4.129  11.009  0.6756  1.6557 -2.5275
 1174SOL     OW15157   1.966   4.023  10.540  0.6387 -0.0508  0.4053
 1174SOL    HW115158   1.983   3.929  10.536 -0.3217 -0.1934 -0.2561
 1174SOL    HW215159   1.920   4.029  10.624  0.4335 -1.5420  0.4018
 1175SOL     OW15160   3.823   4.069   6.191  0.3697 -0.1926  0.4414
 1175SOL    HW115161   3.770   4.070   6.271 -0.0096  1.1738  0.1708
 1175SOL    HW215162   3.759   4.053   6.121  1.3513 -1.4441 -0.1738
 1176SOL     OW15163   4.115   3.804   5.726  0.2202 -0.5930 -0.1577
 1176SOL    HW115164   4.078   3.715   5.721  0.5211 -0.6352 -1.5167
 1176SOL    HW215165   4.079   3.826   5.812 -1.3866  1.4359 -1.3611
 1177SOL     OW15166   3.789   2.130  12.785 -0.4377 -0.3169 -0.1936
 1177SOL    HW115167   3.818   2.103  12.872  0.1981  0.6761 -0.0947
 1177SOL    HW215168   3.866   2.171  12.744 -1.5070  0.0439 -1.8648
 1178SOL     OW15169   2.401   0.063   4.842  0.2207  0.0554  0.0371
 1178SOL    HW115170   2.438   0.148   4.865 -1.4952  0.7162  0.3510
 1178SOL    HW215171   2.316   0.081   4.803  1.4432  3.0256 -1.2816
 1179SOL     OW15172   3.833   1.083  12.741 -0.2399  0.9090  0.0708
 1179SOL    HW115173   3.749   1.120  12.767 -1.7370 -1.8600 -0.8523
 1179SOL    HW215174   3.876   1.151  12.690  0.3007  2.0806  2.1124
 1180SOL     OW15175   1.026   1.279   2.961 -0.1702  0.2877  0.1734
 1180SOL    HW115176   0.967   1.346   2.996  1.7242  1.7922  0.4938
 1180SOL    HW215177   0.979   1.201   2.991 -0.3495  0.4924  0.4278
 1181SOL     OW15178   0.631   3.420   4.056 -0.5234 -0.0537  0.1642
 1181SOL    HW115179   0.571   3.422   4.130 -1.7826  0.1049 -0.8576
 1181SOL    HW215180   0.712   3.447   4.098 -1.1981 -1.2554  2.2501
 1182SOL     OW15181   1.695   1.566   7.667  0.4565 -0.0496  0.0800
 1182SOL    HW115182   1.770   1.582   7.610  0.4942  1.1726  0.4599
 1182SOL    HW215183   1.710   1.473   7.682 -2.3085  0.0004  3.1961
 1183SOL     OW15184   2.166   3.320   1.537 -0.2722  0.3745 -0.2419
 1183SOL    HW115185   2.217   3.291   1.461  0.2146  3.1942 -1.0224
 1183SOL    HW215186   2.149   3.239   1.585  1.4644 -0.1989 -0.5898
 1184SOL     OW15187   4.488   1.274   7.375 -0.5184 -0.3005  0.6270
 1184SOL    HW115188   4.420   1.208   7.384  0.0929 -1.3594 -2.5291
 1184SOL    HW215189   4.506   1.310   7.462  0.4022 -0.9859  0.7229
 1185SOL     OW15190   3.046   2.275   7.309 -0.3404  0.0864 -0.2308
 1185SOL    HW115191   3.009   2.310   7.227 -3.8338 -0.5770  1.0527
 1185SOL    HW215192   3.064   2.353   7.363 -1.7802  0.1949  0.1069
 1186SOL     OW15193   4.087   0.202   1.942 -0.0319  0.3783 -0.0402
 1186SOL    HW115194   4.146   0.134   1.974 -0.1226  0.0629 -0.5333
 1186SOL    HW215195   4.067   0.159   1.858  0.5321  0.5506 -0.2602
 1187SOL     OW15196   2.650   4.733   2.382 -0.7424 -0.1159 -0.2471
 1187SOL    HW115197   2.570   4.710   2.335 -1.1868  0.6147  0.1493
 1187SOL    HW215198   2.715   0.013   2.314  1.1573 -0.0782  1.5995
 1188SOL     OW15199   4.373   2.665  12.631  0.3585 -0.5259 -0.3870
 1188SOL    HW115200   4.455   2.666  12.680 -0.6892  0.9644  1.3427
 1188SOL    HW215201   4.378   2.593  12.568  0.8421  0.7284 -1.7492
 1189SOL     OW15202   4.245   2.588   8.495  0.5424 -0.0974 -0.2686
 1189SOL    HW115203   4.329   2.551   8.468  0.6767 -0.6717  0.9086
 1189SOL    HW215204   4.217   2.527   8.564  2.8611  0.2303  0.9312
 1190SOL     OW15205   3.769   4.046   0.603 -0.0540 -0.1410 -0.0167
 1190SOL    HW115206   3.856   4.007   0.613 -1.0058 -1.8206  1.7922
 1190SOL    HW215207   3.738   3.975   0.547 -1.7966  1.9563 -1.6907
 1191SOL     OW15208   1.875   2.776   2.723  0.7092  0.1094 -0.3625
 1191SOL    HW115209   1.817   2.852   2.722  0.5690  0.0394  2.0003
 1191SOL    HW215210   1.899   2.751   2.634  1.4997  1.0640 -0.4216
 1192SOL     OW15211   4.615   2.752   5.811 -0.0736 -0.8082  0.2852
 1192SOL    HW115212   4.566   2.730   5.732 -0.4813  0.5687  0.1660
 1192SOL    HW215213   4.559   2.716   5.880 -0.2611  0.8314  0.9711
 1193SOL     OW15214   1.937   2.954   5.066 -0.1225  0.5622  0.6132
 1193SOL    HW115215   1.934   3.049   5.059 -0.9679  0.2607 -2.9127
 1193SOL    HW215216   1.979   2.951   5.152 -2.5715  1.1143  1.8396
 1194SOL     OW15217   4.333   3.865   2.641 -0.7097 -0.1655  0.1642
 1194SOL    HW115218   4.315   3.930   2.572  0.8796  0.0314 -0.0768
 1194SOL    HW215219   4.268   3.893   2.705  0.1829  0.3965  0.8318
 1195SOL     OW15220   0.844   2.571   2.155  0.0809 -0.4342 -0.9541
 1195SOL    HW115221   0.912   2.582   2.221 -1.7044  1.6774  0.5424
 1195SOL    HW215222   0.784   2.514   2.204  3.4061 -1.6388  1.6526
 1196SOL     OW15223   0.804   0.791   5.139  0.4922 -0.1487  0.4562
 1196SOL    HW115224   0.864   0.832   5.201  3.0416 -1.2637 -1.2702
 1196SOL    HW215225   0.871   0.757   5.080 -0.4617 -0.3499 -0.5170
 1197SOL     OW15226   2.749   3.767   6.509  0.0098  0.2450  0.1596
 1197SOL    HW115227   2.708   3.835   6.455  1.3719  0.1579 -0.9761
 1197SOL    HW215228   2.839   3.762   6.477 -1.2762 -1.4372 -3.1483
 1198SOL     OW15229   2.609   0.003   9.767 -0.7807  0.6718  0.2757
 1198SOL    HW115230   2.664   0.056   9.825 -1.6164  0.6842  1.0503
 1198SOL    HW215231   2.542   4.707   9.828 -1.1508 -1.5677 -1.3011
 1199SOL     OW15232   0.277   1.587   6.039 -0.2873  0.0716 -0.2028
 1199SOL    HW115233   0.244   1.499   6.059 -1.5125  0.3030 -1.1926
 1199SOL    HW215234   0.214   1.651   6.072  0.4076  1.1590 -0.9932
 1200SOL     OW15235   2.527   1.028   0.473  0.2827 -0.1401 -0.2291
 1200SOL    HW115236   2.522   1.104   0.531 -0.5915 -0.0590 -0.4228
 1200SOL    HW215237   2.531   1.075   0.390  0.2747  0.5463  0.1545
 1201SOL     OW15238   0.933   2.318   2.774 -0.1888 -0.4364  0.4828
 1201SOL    HW115239   1.027   2.327   2.794  0.0131  0.0130 -0.6873
 1201SOL    HW215240   0.900   2.253   2.837  1.2311 -0.0284  1.6629
 1202SOL     OW15241   3.102   3.883   4.062 -0.0707 -0.0357  0.4279
 1202SOL    HW115242   3.026   3.825   4.066  0.6533 -0.9450  0.9526
 1202SOL    HW215243   3.131   3.877   4.153  2.7766  1.5473 -0.3900
 1203SOL     OW15244   1.647   4.146   4.273  0.0925  0.4044 -0.0014
 1203SOL    HW115245   1.703   4.091   4.218 -0.7030  1.3866 -1.7977
 1203SOL    HW215246   1.569   4.151   4.219 -0.5734  0.2804  0.9494
 1204SOL     OW15247   0.716   3.532   0.818  0.1572 -0.0460  0.1147
 1204SOL    HW115248   0.692   3.618   0.782  1.1640 -0.3774 -1.3883
 1204SOL    HW215249   0.733   3.560   0.908  0.2066  0.1569  0.0428
 1205SOL     OW15250   2.767   1.802   1.283 -0.8046 -0.3519 -0.0920
 1205SOL    HW115251   2.707   1.729   1.301  0.3329 -0.9758  1.1364
 1205SOL    HW215252   2.728   1.844   1.206 -0.9123  2.2254  1.3870
 1206SOL     OW15253   0.983   1.520   6.218  0.1406  0.6062 -0.3469
 1206SOL    HW115254   0.994   1.426   6.227  0.7302  0.7805  0.7811
 1206SOL    HW215255   1.070   1.555   6.200  0.8752 -0.4311  1.1430
 1207SOL     OW15256   4.698   2.757  16.085  0.2181  0.4355 -0.2102
 1207SOL    HW115257   4.635   2.730  16.018  0.5426  0.5273 -0.5531
 1207SOL    HW215258   4.721   2.848  16.066 -3.0821  0.8004 -2.3882
 1208SOL     OW15259   1.326   4.501   6.665 -0.0582 -0.2859  0.0056
 1208SOL    HW115260   1.410   4.489   6.620  0.5576  0.3492  0.9709
 1208SOL    HW215261   1.281   4.577   6.629 -0.5764 -1.7792 -2.4818
 1209SOL     OW15262   4.303   1.634  10.811  0.5890  0.0435 -0.1743
 1209SOL    HW115263   4.351   1.688  10.873  0.1018  1.0065 -0.6367
 1209SOL    HW215264   4.217   1.644  10.852  0.2256 -0.1110 -0.8900
 1210SOL     OW15265   1.704   3.633   6.288  0.5747 -0.5567  0.3940
 1210SOL    HW115266   1.794   3.609   6.309  0.6346  0.9063  1.8686
 1210SOL    HW215267   1.692   3.722   6.322  0.9705  0.2335 -1.5496
 1211SOL     OW15268   3.141   2.832   3.950 -0.1692 -0.1950 -0.1400
 1211SOL    HW115269   3.199   2.757   3.938 -1.1712 -1.0366  0.2282
 1211SOL    HW215270   3.140   2.869   3.862 -0.8200  0.5884  0.1975
 1212SOL     OW15271   4.052   4.296  15.020  1.0352 -0.3811  0.5763
 1212SOL    HW115272   3.995   4.252  14.957 -0.1569 -1.4642  2.3998
 1212SOL    HW215273   4.127   4.237  15.010  1.9518  1.4430 -3.1182
 1213SOL     OW15274   0.457   1.166   5.701 -0.3464 -0.3677 -0.3567
 1213SOL    HW115275   0.367   1.165   5.668 -0.3491 -0.1863 -0.3545
 1213SOL    HW215276   0.439   1.094   5.762 -0.0282 -0.0930  0.0610
 1214SOL     OW15277   3.519   3.041   5.266  0.1951 -0.2009 -0.3539
 1214SOL    HW115278   3.428   3.070   5.259 -0.2350 -1.2908  0.9415
 1214SOL    HW215279   3.507   2.955   5.304 -1.3036  0.6228  1.0313
 1215SOL     OW15280   4.214   4.169  11.842  0.0699 -0.0356 -0.2073
 1215SOL    HW115281   4.244   4.119  11.766  1.2117  0.7737 -0.2937
 1215SOL    HW215282   4.253   4.254  11.824 -0.2501  0.3837  1.1134
 1216SOL     OW15283   2.731   1.698   8.042  0.3685 -0.3102  0.5177
 1216SOL    HW115284   2.648   1.681   7.998  0.5531 -2.0714  0.8186
 1216SOL    HW215285   2.775   1.616   8.018 -2.6569 -1.6637 -0.4591
 1217SOL     OW15286   1.782   0.577   1.216  0.1951  0.2875  0.4065
 1217SOL    HW115287   1.770   0.492   1.175  0.9228 -0.8162  2.4528
 1217SOL    HW215288   1.712   0.619   1.166  1.2115  0.3202 -1.0025
 1218SOL     OW15289   2.876   4.553   2.471  0.1472  0.3957 -0.7623
 1218SOL    HW115290   2.837   4.578   2.387 -0.7704  0.3682 -0.3517
 1218SOL    HW215291   2.903   4.643   2.491 -2.7102  0.7768  1.4422
 1219SOL     OW15292   0.028   1.612   8.126  0.2106  0.3024  0.1317
 1219SOL    HW115293   0.024   1.600   8.221  1.4498  2.2022  0.4266
 1219SOL    HW215294   4.676   1.651   8.119 -0.7620 -2.2086 -1.9168
 1220SOL     OW15295   3.545   3.027   3.390 -0.6288  0.0059  0.1547
 1220SOL    HW115296   3.613   2.963   3.411 -1.6453 -0.7288  1.1892
 1220SOL    HW215297   3.574   3.111   3.426 -0.6727 -0.1686  0.6053
 1221SOL     OW15298   3.809   2.999   1.934 -0.2938  0.3135  0.5368
 1221SOL    HW115299   3.748   3.026   1.865  1.7468  0.6423 -1.1200
 1221SOL    HW215300   3.871   2.949   1.882  1.0360  1.1934  1.2655
 1222SOL     OW15301   4.344   1.278  14.496 -0.0621  0.7182 -0.6077
 1222SOL    HW115302   4.291   1.235  14.427 -1.2420 -0.3648  0.9739
 1222SOL    HW215303   4.284   1.339  14.539  0.5003  1.0000 -0.2319
 1223SOL     OW15304   1.812   4.547   7.003 -0.1517 -0.1499  0.3204
 1223SOL    HW115305   1.780   4.464   7.037  0.3399 -0.7091 -0.5759
 1223SOL    HW215306   1.808   4.600   7.083  2.3799 -1.1337  1.1238
 1224SOL     OW15307   2.529   0.121   9.165  0.4683 -0.5956  0.3761
 1224SOL    HW115308   2.594   0.140   9.233  0.9758 -0.1989 -0.2188
 1224SOL    HW215309   2.446   0.156   9.198 -0.3050 -0.4167 -1.7751
 1225SOL     OW15310   1.119   2.534  14.630  0.1929 -0.2468  0.2152
 1225SOL    HW115311   1.085   2.445  14.641  1.6007 -0.9672 -1.2170
 1225SOL    HW215312   1.034   2.576  14.622 -0.4704 -1.5195  0.6046
 1226SOL     OW15313   3.376   0.945   8.052  0.6238 -0.2498  0.1432
 1226SOL    HW115314   3.417   1.024   8.087  0.6866 -0.0264 -0.4416
 1226SOL    HW215315   3.402   0.885   8.122 -0.9564  0.9315  1.7254
 1227SOL     OW15316   1.784   3.468   5.145 -0.4069  0.0590  0.5059
 1227SOL    HW115317   1.702   3.516   5.158 -0.4859  0.1614 -0.4246
 1227SOL    HW215318   1.822   3.506   5.066 -1.8188 -0.9424 -0.6426
 1228SOL     OW15319   2.488   0.397  16.017  0.5435  0.3983 -0.2174
 1228SOL    HW115320   2.445   0.464  15.964  2.4784  1.3644 -0.5582
 1228SOL    HW215321   2.579   0.398  15.987  0.8822 -0.2136  0.7567
 1229SOL     OW15322   0.589   1.778   0.008 -0.3937  0.2427 -0.1853
 1229SOL    HW115323   0.598   1.725   0.087 -1.5271  1.1003  0.5158
 1229SOL    HW215324   0.640   1.852   0.042 -1.5071  0.0751  1.8962
 1230SOL     OW15325   3.553   3.720  14.796 -0.2496  0.3851 -0.3118
 1230SOL    HW115326   3.506   3.726  14.713  0.7789  2.8608 -0.7272
 1230SOL    HW215327   3.504   3.783  14.849  1.1299 -0.7334  2.2644
 1231SOL     OW15328   1.129   3.471   8.845 -0.2093 -0.6263 -0.4174
 1231SOL    HW115329   1.214   3.515   8.847  0.3828 -1.8706  1.3889
 1231SOL    HW215330   1.105   3.490   8.935 -0.1792  1.2404 -0.8099
 1232SOL     OW15331   0.575   3.446   4.725 -0.4091  0.1828  0.3127
 1232SOL    HW115332   0.620   3.363   4.708  0.2543  0.2641  1.6651
 1232SOL    HW215333   0.513   3.414   4.790 -0.9276 -2.0323 -1.2569
 1233SOL     OW15334   4.050   1.393   4.342 -0.1313 -0.2155 -0.0968
 1233SOL    HW115335   4.046   1.408   4.437  3.4156  2.8795 -0.4654
 1233SOL    HW215336   4.107   1.317   4.352 -1.7904 -1.2907  1.4030
 1234SOL     OW15337   2.297   4.638  11.586  0.3822 -0.1179 -0.2049
 1234SOL    HW115338   2.335   4.592  11.661  2.0924 -0.1206 -1.0731
 1234SOL    HW215339   2.371   4.697  11.570  0.6590 -0.7500 -1.1847
 1235SOL     OW15340   3.236   1.821   2.182  0.0819  0.2540  0.3024
 1235SOL    HW115341   3.146   1.808   2.213 -0.1171 -0.3082 -0.5285
 1235SOL    HW215342   3.247   1.740   2.133 -0.5745  0.2720  0.1350
 1236SOL     OW15343   1.915   3.814   2.980  0.0754  0.3241 -0.7517
 1236SOL    HW115344   1.876   3.798   3.066  3.3542 -1.3047  0.4347
 1236SOL    HW215345   1.901   3.726   2.944  0.2127  0.5618 -1.3809
 1237SOL     OW15346   3.517   3.892   0.924 -0.5512  0.6452 -0.4705
 1237SOL    HW115347   3.466   3.957   0.973  0.5076  0.8994  0.3088
 1237SOL    HW215348   3.598   3.878   0.973 -0.5280  0.6517 -0.5069
 1238SOL     OW15349   2.379   0.269   8.339 -0.4717  0.0511 -0.3994
 1238SOL    HW115350   2.457   0.216   8.349 -0.2579  0.4843  0.2743
 1238SOL    HW215351   2.415   0.357   8.352 -3.6797  1.1678  1.0344
 1239SOL     OW15352   1.458   1.096   6.949 -0.0339  0.7239 -0.6997
 1239SOL    HW115353   1.411   1.071   7.029  0.2563  0.8017 -0.5052
 1239SOL    HW215354   1.551   1.096   6.972 -0.3488 -2.6753  0.7027
 1240SOL     OW15355   1.008   0.180   4.965  0.4882 -0.6927 -0.2257
 1240SOL    HW115356   1.098   0.208   4.945  0.5863 -0.8079  0.0526
 1240SOL    HW215357   1.014   0.166   5.060 -1.4861  0.7487  0.1020
 1241SOL     OW15358   0.146   2.261   4.129 -0.2633  0.9399  0.5074
 1241SOL    HW115359   0.189   2.248   4.213  1.1500  1.2543 -0.1691
 1241SOL    HW215360   0.079   2.193   4.136  1.6597 -0.9729  0.1469
 1242SOL     OW15361   1.963   1.411   5.836 -0.1262  0.4353 -0.2295
 1242SOL    HW115362   1.926   1.332   5.877  1.7240 -2.1199 -3.5396
 1242SOL    HW215363   1.880   1.456   5.821 -2.0530 -3.4743 -1.2594
 1243SOL     OW15364   1.221   4.467   2.482 -0.2560  0.1737  0.2334
 1243SOL    HW115365   1.313   4.493   2.476 -0.2297  0.1582  0.5562
 1243SOL    HW215366   1.209   4.376   2.456 -1.1963  0.0992  0.9272
 1244SOL     OW15367   2.754   0.285  15.845 -0.1845  0.3401  0.5884
 1244SOL    HW115368   2.752   0.259  15.937 -0.3430 -2.5677 -0.2355
 1244SOL    HW215369   2.848   0.272  15.838 -0.3236 -0.0401 -0.5714
 1245SOL     OW15370   2.978   3.668   3.586  0.1309 -0.4519  0.2597
 1245SOL    HW115371   2.900   3.707   3.627  0.5849 -2.1630  2.7270
 1245SOL    HW215372   2.955   3.576   3.600 -1.4674  0.1276  1.4433
 1246SOL     OW15373   2.591   0.438   0.541 -0.1500  0.1395 -0.3065
 1246SOL    HW115374   2.664   0.442   0.480 -0.4464 -3.4142 -0.8476
 1246SOL    HW215375   2.626   0.388   0.614 -2.2376 -0.3110  0.3991
 1247SOL     OW15376   0.954   4.481   9.241 -0.5337 -0.8636 -0.6152
 1247SOL    HW115377   0.898   4.556   9.263 -0.6870 -0.9064 -0.8595
 1247SOL    HW215378   0.983   4.469   9.332  1.1690  0.5231 -0.9677
 1248SOL     OW15379   0.559   1.131  14.529 -0.4722  0.1056 -0.5264
 1248SOL    HW115380   0.520   1.070  14.591 -0.7784 -0.5221 -1.3413
 1248SOL    HW215381   0.597   1.190  14.594  0.3389 -0.5733 -0.3884
 1249SOL     OW15382   3.736   1.547   8.983 -0.4177 -0.2582  0.1553
 1249SOL    HW115383   3.792   1.546   9.060 -0.1680 -0.8588 -0.0432
 1249SOL    HW215384   3.719   1.454   8.975  2.0010 -0.5776 -1.1148
 1250SOL     OW15385   3.513   4.097   0.720  0.2597  0.0801 -0.3087
 1250SOL    HW115386   3.609   4.099   0.717  0.1949  1.1771 -1.7195
 1250SOL    HW215387   3.505   4.003   0.737  0.2867  0.1249 -0.0484
 1251SOL     OW15388   3.480   3.682  17.579 -0.9108  0.1341 -0.6558
 1251SOL    HW115389   3.544   3.696  17.509 -1.6121 -2.6241 -1.8429
 1251SOL    HW215390   3.416   3.752  17.562 -0.8661 -0.0925 -1.7605
 1252SOL     OW15391   1.119   2.737   8.445 -0.0083  0.2124  0.4243
 1252SOL    HW115392   1.110   2.647   8.413 -1.2985  0.2521  0.6857
 1252SOL    HW215393   1.199   2.766   8.400 -0.0166  0.3945  0.5263
 1253SOL     OW15394   0.910   4.411   3.016 -0.1506 -0.1824 -0.2814
 1253SOL    HW115395   0.875   4.424   3.105  1.2056 -0.7928  0.3435
 1253SOL    HW215396   0.826   4.389   2.976 -0.6321 -1.1619  1.2189
 1254SOL     OW15397   0.496   0.416   6.282  0.4905 -0.0268 -0.0430
 1254SOL    HW115398   0.410   0.414   6.324  0.1130 -2.1412 -0.9352
 1254SOL    HW215399   0.558   0.386   6.348 -0.3654 -1.8793 -0.0824
 1255SOL     OW15400   3.584   4.311   5.786 -0.5148  0.4864  0.0041
 1255SOL    HW115401   3.632   4.261   5.720 -0.2413  2.2285 -1.1097
 1255SOL    HW215402   3.507   4.328   5.732 -1.2244 -2.1451  0.1728
 1256SOL     OW15403   2.200   1.076  15.561 -0.2030 -0.1419  0.3716
 1256SOL    HW115404   2.200   1.136  15.636  2.1103  0.2875  0.0307
 1256SOL    HW215405   2.247   1.000  15.594  1.7711  0.5063 -0.9685
 1257SOL     OW15406   3.838   3.382  11.312  0.0030 -0.1187  0.5017
 1257SOL    HW115407   3.822   3.343  11.226  0.5608  1.3319 -0.2749
 1257SOL    HW215408   3.865   3.311  11.369 -2.4851 -1.6992 -0.3264
 1258SOL     OW15409   2.397   4.717   4.076 -0.0713  0.3956  0.5553
 1258SOL    HW115410   2.454   4.708   4.000 -1.3432 -2.0880 -0.0941
 1258SOL    HW215411   2.314   4.681   4.047 -0.3292  0.3200  1.4032
 1259SOL     OW15412   3.292   2.561   9.195 -0.8687  0.0472 -0.5884
 1259SOL    HW115413   3.201   2.574   9.224 -0.4791  0.9207  0.2513
 1259SOL    HW215414   3.346   2.576   9.273 -2.2165 -2.5932  0.8767
 1260SOL     OW15415   4.386   3.736   0.523  0.3396 -0.1311 -0.7019
 1260SOL    HW115416   4.339   3.807   0.481  1.6334  1.0179 -0.2134
 1260SOL    HW215417   4.330   3.713   0.597  2.8242 -1.3153  0.8251
 1261SOL     OW15418   1.831   0.642   3.901 -0.7721 -0.1559  0.0964
 1261SOL    HW115419   1.775   0.705   3.856 -0.0659  1.1482  1.0441
 1261SOL    HW215420   1.848   0.576   3.834 -2.1242 -0.0233 -0.3801
 1262SOL     OW15421   2.034   1.481   7.375  0.4390  0.3071  0.6182
 1262SOL    HW115422   2.033   1.423   7.451 -0.8062 -0.4901 -0.0104
 1262SOL    HW215423   1.974   1.436   7.316  0.5787  0.7361  0.1531
 1263SOL     OW15424   2.651   3.570   1.447  1.0882  0.0392  0.3741
 1263SOL    HW115425   2.639   3.509   1.520  2.4287 -0.6313  0.0391
 1263SOL    HW215426   2.712   3.637   1.478 -0.5923  0.8442  1.9165
 1264SOL     OW15427   0.527   4.701   9.223  0.0133 -0.1144  0.1118
 1264SOL    HW115428   0.465   4.678   9.153  0.8224  0.3021 -0.7517
 1264SOL    HW215429   0.604   4.707   9.167 -2.0137  1.8533 -2.5097
 1265SOL     OW15430   0.238   3.491  10.448  0.3888 -0.7691 -0.0669
 1265SOL    HW115431   0.312   3.431  10.461 -0.2008 -2.0270 -2.5079
 1265SOL    HW215432   0.286   3.556  10.397 -0.8186  1.2631  1.3888
 1266SOL     OW15433   3.347   4.502  11.204  0.3999  0.1141 -0.2350
 1266SOL    HW115434   3.365   4.408  11.207 -1.6248 -0.3151 -1.4676
 1266SOL    HW215435   3.271   4.514  11.147  1.0189  1.4594 -0.7777
 1267SOL     OW15436   0.022   2.028   4.131  0.1747 -0.4058 -0.0052
 1267SOL    HW115437   0.096   1.970   4.152  0.6511  0.3272  0.3517
 1267SOL    HW215438   0.024   2.032   4.035  1.7952 -1.4382 -0.0145
 1268SOL     OW15439   2.598   0.503  14.177  0.9276 -0.8433  0.1364
 1268SOL    HW115440   2.574   0.572  14.115  0.9106 -0.5980  0.4183
 1268SOL    HW215441   2.509   0.490  14.210  2.5229 -3.7478  3.2730
 1269SOL     OW15442   2.604   2.603  10.801  0.1420  0.9325  0.2468
 1269SOL    HW115443   2.549   2.584  10.724  0.3761  0.1455  0.2769
 1269SOL    HW215444   2.538   2.629  10.866  1.7794  2.6005  1.2231
 1270SOL     OW15445   2.821   2.783  17.486  0.2184  0.3890  0.0480
 1270SOL    HW115446   2.828   2.757  17.394  0.1685 -0.6959  0.3480
 1270SOL    HW215447   2.727   2.800  17.488 -0.2332 -1.8666 -2.0451
 1271SOL     OW15448   0.568   0.101   3.007  0.4091 -0.0451 -0.1847
 1271SOL    HW115449   0.488   0.102   2.955  1.5647  0.5915 -1.9344
 1271SOL    HW215450   0.602   0.188   2.987 -0.7988  0.2445 -0.9963
 1272SOL     OW15451   1.713   4.482   2.443  0.0709  0.3151 -0.2976
 1272SOL    HW115452   1.719   4.393   2.477  0.9965  0.9138  1.1237
 1272SOL    HW215453   1.797   4.486   2.397  1.1797 -0.6612  1.6432
 1273SOL     OW15454   0.242   2.285   5.659 -0.1203  0.0687 -0.1978
 1273SOL    HW115455   0.253   2.337   5.579 -0.4381 -0.4726 -0.5921
 1273SOL    HW215456   0.260   2.196   5.628  1.1111 -0.4853  2.0258
 1274SOL     OW15457   3.506   4.465   4.441  0.2107  0.0083  0.4110
 1274SOL    HW115458   3.590   4.505   4.417 -0.1838 -0.6593 -2.1156
 1274SOL    HW215459   3.447   4.540   4.453 -0.0930  0.0321 -1.1320
 1275SOL     OW15460   0.215   2.616   5.690 -0.1173  0.2359  0.1996
 1275SOL    HW115461   0.288   2.664   5.652  0.1359 -0.9766 -0.8267
 1275SOL    HW215462   0.247   2.526   5.684 -1.4908 -0.1630 -1.1626
 1276SOL     OW15463   1.305   2.438  16.991 -0.1535  0.5498  0.3200
 1276SOL    HW115464   1.341   2.352  16.968  0.3609  0.7135  0.5085
 1276SOL    HW215465   1.218   2.425  16.954 -0.3186  2.9188 -0.1186
 1277SOL     OW15466   0.084   2.026   5.248  0.3732 -0.1789 -0.3531
 1277SOL    HW115467   0.097   1.991   5.337  0.3331 -1.7077 -0.9501
 1277SOL    HW215468   0.173   2.048   5.222  0.8887  0.4520  1.8804
 1278SOL     OW15469   4.116   3.317   8.578  0.2305  0.2594  0.2916
 1278SOL    HW115470   4.147   3.407   8.573  0.4979  0.0647 -1.7345
 1278SOL    HW215471   4.030   3.311   8.619  0.9682 -1.4664  1.5588
 1279SOL     OW15472   0.776   0.489   7.932 -0.6745 -0.1608  0.1180
 1279SOL    HW115473   0.830   0.539   7.994 -0.2660  0.2523 -0.5765
 1279SOL    HW215474   0.728   0.562   7.894  0.1010  0.4466  0.2853
 1280SOL     OW15475   4.681   2.625   2.689  0.0057 -0.6227 -0.4895
 1280SOL    HW115476   4.609   2.586   2.639 -1.1098  0.0219  0.6329
 1280SOL    HW215477   0.009   2.648   2.621  0.1658 -1.2279 -0.5442
 1281SOL     OW15478   2.802   4.690   5.388 -0.1947  0.3372 -0.9270
 1281SOL    HW115479   2.846   4.672   5.305  3.7085 -2.3674  1.7173
 1281SOL    HW215480   2.710   4.697   5.362 -0.4756 -0.8229 -0.2575
 1282SOL     OW15481   4.058   2.996   8.414 -0.0286  0.0019 -0.0853
 1282SOL    HW115482   4.023   2.981   8.502 -2.4511 -0.9219 -1.2028
 1282SOL    HW215483   3.989   2.953   8.363  0.0766 -1.1790  0.7482
 1283SOL     OW15484   4.104   0.065   6.660 -0.3599 -0.1215 -0.1247
 1283SOL    HW115485   4.009   0.068   6.657 -0.4096 -1.7909 -0.2780
 1283SOL    HW215486   4.123   4.711   6.634 -2.3472 -0.7815  0.7566
 1284SOL     OW15487   0.990   2.581   3.437 -0.0289  0.1585 -0.5664
 1284SOL    HW115488   1.044   2.598   3.514 -1.0624  1.6482 -0.1758
 1284SOL    HW215489   1.059   2.586   3.370  0.8845  2.8351  0.5662
 1285SOL     OW15490   4.056   2.696  10.721  0.0576  0.0939 -0.6271
 1285SOL    HW115491   4.005   2.774  10.742  0.9537  0.4861  0.0814
 1285SOL    HW215492   4.049   2.685  10.626  1.9366 -1.2382 -0.6081
 1286SOL     OW15493   2.099   3.415   3.305  0.2780  0.0814 -0.0721
 1286SOL    HW115494   2.023   3.374   3.346 -0.0643  1.3014  0.4920
 1286SOL    HW215495   2.155   3.346   3.269  0.1957  0.9379 -1.8240
 1287SOL     OW15496   0.759   0.909  14.031 -0.5783 -0.2768 -0.2837
 1287SOL    HW115497   0.683   0.851  14.036 -0.9896  0.4158  1.6736
 1287SOL    HW215498   0.713   0.990  14.053 -0.9217 -0.2356 -1.1523
 1288SOL     OW15499   0.778   2.015   8.067 -0.1696  0.0073 -0.1314
 1288SOL    HW115500   0.753   1.933   8.025 -0.6981  1.9213 -3.5936
 1288SOL    HW215501   0.821   2.059   7.994 -0.1499  0.5848  0.2264
 1289SOL     OW15502   1.814   4.715   5.972  0.9166  0.2133 -0.1562
 1289SOL    HW115503   1.883   4.720   6.038  0.8812  3.2409 -0.3241
 1289SOL    HW215504   1.749   4.662   6.018 -0.1464  0.9339 -0.8276
 1290SOL     OW15505   4.118   3.854  10.214  0.1056 -0.2992  0.3228
 1290SOL    HW115506   4.058   3.787  10.180  0.9117  0.0982 -1.8427
 1290SOL    HW215507   4.203   3.812  10.200 -0.2290 -0.6661 -0.5757
 1291SOL     OW15508   0.342   3.537   6.223 -0.2286 -0.2906  0.0710
 1291SOL    HW115509   0.366   3.492   6.305 -2.0426 -0.0209  0.7388
 1291SOL    HW215510   0.328   3.622   6.265 -0.9995  0.2888 -1.3915
 1292SOL     OW15511   0.805   2.682   9.047  0.3295 -0.0974  0.7230
 1292SOL    HW115512   0.839   2.642   8.967 -1.4202 -0.0962 -0.0218
 1292SOL    HW215513   0.750   2.751   9.012  1.8080  1.4588  1.4645
 1293SOL     OW15514   2.620   3.168   4.993 -0.0237  0.3428  0.0653
 1293SOL    HW115515   2.669   3.130   5.066  1.0770 -1.4575 -1.5884
 1293SOL    HW215516   2.643   3.107   4.923 -2.1383  0.0894 -0.4060
 1294SOL     OW15517   0.744   2.951   1.329 -0.2801  0.0268  0.3783
 1294SOL    HW115518   0.796   3.010   1.383  1.1873 -0.3669 -0.6417
 1294SOL    HW215519   0.721   3.008   1.256  2.2283  0.5676  0.0459
 1295SOL     OW15520   0.105   2.835  14.630  0.1862  0.2985 -0.4518
 1295SOL    HW115521   0.197   2.859  14.617 -0.3258  3.7326  2.2888
 1295SOL    HW215522   0.112   2.745  14.663 -1.3610  0.8400  1.3306
 1296SOL     OW15523   1.056   3.377   5.322  0.0977  0.1121  0.1004
 1296SOL    HW115524   1.007   3.334   5.253 -0.8414  0.9789  0.2287
 1296SOL    HW215525   0.987   3.386   5.388 -0.1692  1.0520 -0.3179
 1297SOL     OW15526   3.917   2.576   4.782 -0.1599  0.7405  0.0171
 1297SOL    HW115527   3.965   2.602   4.861 -0.6701  0.9461  0.2609
 1297SOL    HW215528   3.972   2.619   4.717  0.1300 -0.9810 -0.8764
 1298SOL     OW15529   0.704   1.819  14.794  0.2631 -0.3336  0.2671
 1298SOL    HW115530   0.726   1.836  14.703 -2.1320  0.1739 -0.2153
 1298SOL    HW215531   0.634   1.884  14.795  0.1068 -0.5058  0.5949
 1299SOL     OW15532   2.085   2.959  13.484 -0.0366 -0.5553  0.0379
 1299SOL    HW115533   2.166   2.938  13.529  0.5609  0.8490 -0.3789
 1299SOL    HW215534   2.050   2.870  13.484  0.2518 -0.6674 -3.3411
 1300SOL     OW15535   2.702   3.001   4.737 -0.0699 -0.3207  0.3939
 1300SOL    HW115536   2.623   2.974   4.690  1.1838  0.6775 -2.2818
 1300SOL    HW215537   2.705   3.090   4.702  1.3793 -1.9146 -3.5904
 1301SOL     OW15538   2.278   1.235   3.735  0.2603  0.6732  0.4897
 1301SOL    HW115539   2.349   1.288   3.699  1.5406  0.0503  2.1082
 1301SOL    HW215540   2.301   1.250   3.826  0.9271 -0.7875  0.5708
 1302SOL     OW15541   4.690   2.120   8.428  0.1247  0.4128 -0.0339
 1302SOL    HW115542   4.618   2.166   8.385  0.4299 -0.4420 -1.4642
 1302SOL    HW215543   0.029   2.179   8.417  0.3184 -0.1152 -1.5267
 1303SOL     OW15544   4.128   2.814   6.397  0.4931  0.0683 -0.3482
 1303SOL    HW115545   4.214   2.772   6.389  0.5003 -0.4747  2.6116
 1303SOL    HW215546   4.131   2.844   6.488  1.5260 -1.3603  0.0954
 1304SOL     OW15547   3.392   4.287   2.363 -0.1395  0.8936  0.0184
 1304SOL    HW115548   3.430   4.201   2.345  1.4079  1.6203 -0.1962
 1304SOL    HW215549   3.461   4.343   2.327  2.1048 -1.1774  1.0421
 1305SOL     OW15550   2.258   0.139   0.399 -0.1029 -0.1319 -0.2635
 1305SOL    HW115551   2.332   0.082   0.417 -1.9756 -2.5648 -0.2633
 1305SOL    HW215552   2.289   0.191   0.325  0.5543  0.3046  0.3200
 1306SOL     OW15553   1.235   0.186  16.265  0.4343 -0.1269 -0.2036
 1306SOL    HW115554   1.185   0.254  16.219 -1.5624 -0.5489  1.3151
 1306SOL    HW215555   1.247   0.222  16.353 -0.9293 -2.0949  0.7737
 1307SOL     OW15556   1.194   3.278   6.616  0.2556 -0.1206 -0.1124
 1307SOL    HW115557   1.155   3.263   6.530 -2.6213  1.5644  0.9185
 1307SOL    HW215558   1.203   3.373   6.610 -3.8051  0.1778 -1.1690
 1308SOL     OW15559   3.881   2.459   2.692 -0.2287 -0.0682 -1.0147
 1308SOL    HW115560   3.870   2.500   2.607 -1.8604  0.0945 -0.7300
 1308SOL    HW215561   3.842   2.372   2.680  1.7990 -1.4609  2.3131
 1309SOL     OW15562   0.377   0.702  16.886 -0.5485  0.2316 -0.0193
 1309SOL    HW115563   0.456   0.669  16.843  0.5500  2.5503  0.1784
 1309SOL    HW215564   0.347   0.779  16.838 -0.3298 -0.1418 -0.7489
 1310SOL     OW15565   0.604   2.626  10.546 -0.2876 -0.0423  0.0383
 1310SOL    HW115566   0.670   2.565  10.580 -0.3170 -0.4582 -0.6526
 1310SOL    HW215567   0.530   2.610  10.605  0.7926 -1.9673  0.8777
 1311SOL     OW15568   1.018   0.522   8.184 -0.3663  0.0103 -0.6210
 1311SOL    HW115569   1.023   0.616   8.171 -0.8264 -0.0033 -0.9118
 1311SOL    HW215570   1.104   0.495   8.152  0.2849 -1.2830  2.2420
 1312SOL     OW15571   4.335   4.180   5.920 -0.3357  0.2488  0.2580
 1312SOL    HW115572   4.407   4.244   5.923  1.1554 -1.3855 -0.6626
 1312SOL    HW215573   4.324   4.160   5.827  1.4889 -0.6909  0.2445
 1313SOL     OW15574   2.434   3.540   3.603 -0.1433  0.4058 -0.2880
 1313SOL    HW115575   2.392   3.456   3.588 -0.7269  0.4963  0.8866
 1313SOL    HW215576   2.393   3.589   3.674  0.7438  0.0006  0.5026
 1314SOL     OW15577   1.872   1.722   4.490  0.0589  0.0763 -0.7165
 1314SOL    HW115578   1.858   1.794   4.552  0.7345  0.8094 -1.4182
 1314SOL    HW215579   1.953   1.755   4.452  0.1551  0.7581  0.0989
 1315SOL     OW15580   2.978   2.033  14.908  0.2789  0.1610  0.8112
 1315SOL    HW115581   3.009   2.024  14.818 -0.0897  1.3064  0.5636
 1315SOL    HW215582   2.962   2.127  14.915 -0.1591  0.1991 -0.8279
 1316SOL     OW15583   1.776   0.094   6.675 -0.1851 -0.4315 -0.0587
 1316SOL    HW115584   1.809   0.128   6.592  1.7261  0.6020  1.1200
 1316SOL    HW215585   1.817   0.149   6.741 -1.4276  0.3702  0.0448
 1317SOL     OW15586   3.481   0.761  10.936  0.4499  0.3293  0.5413
 1317SOL    HW115587   3.399   0.734  10.977 -0.1293  1.3162  0.0163
 1317SOL    HW215588   3.536   0.753  11.014 -0.3594  0.2720  1.1083
 1318SOL     OW15589   1.010   3.368   8.152 -0.2304 -0.0685  0.4702
 1318SOL    HW115590   0.936   3.420   8.185 -1.3361 -2.1252  1.2086
 1318SOL    HW215591   0.963   3.295   8.111  1.4191 -0.2923 -0.9753
 1319SOL     OW15592   4.442   0.004   4.062 -0.3632 -0.2370 -0.2788
 1319SOL    HW115593   4.380   4.699   4.123  1.1618 -0.8947  0.8402
 1319SOL    HW215594   4.386   0.021   3.987 -0.5535 -0.1357 -0.1135
 1320SOL     OW15595   2.597   3.790   5.279  0.2672 -0.1560 -0.1948
 1320SOL    HW115596   2.680   3.744   5.271  0.4564 -0.2853  2.3002
 1320SOL    HW215597   2.593   3.798   5.375  1.2162 -2.5155  0.0605
 1321SOL     OW15598   1.676   4.378   8.320 -0.2658  0.4235  0.5166
 1321SOL    HW115599   1.733   4.334   8.257  0.1214 -0.3560  1.4008
 1321SOL    HW215600   1.596   4.350   8.277 -0.0454 -1.0019  1.0570
 1322SOL     OW15601   2.513   0.321   5.910 -0.0524 -0.8060  0.1337
 1322SOL    HW115602   2.418   0.317   5.901  0.2967 -1.3207 -3.1617
 1322SOL    HW215603   2.540   0.231   5.896 -0.4905 -1.3265  2.5388
 1323SOL     OW15604   1.186   1.452  10.326 -0.2742 -0.0916 -0.1778
 1323SOL    HW115605   1.237   1.410  10.395 -1.4741 -0.4535  0.4858
 1323SOL    HW215606   1.097   1.456  10.361  0.0770 -1.7371  0.9118
 1324SOL     OW15607   3.749   2.034   1.791  0.1779  0.2080 -0.1183
 1324SOL    HW115608   3.735   2.004   1.701  3.1647  0.5543 -0.7142
 1324SOL    HW215609   3.676   2.095   1.800  0.5972  0.6839  0.0967
 1325SOL     OW15610   4.426   4.141   5.633  0.5561  0.2465 -0.2519
 1325SOL    HW115611   4.438   4.069   5.570  0.5440 -1.3386  1.5511
 1325SOL    HW215612   4.359   4.188   5.583 -0.6591 -0.1741  0.9928
 1326SOL     OW15613   0.156   1.837  14.670 -0.2999  0.1957 -0.1959
 1326SOL    HW115614   0.140   1.743  14.656 -1.1103  0.3651 -0.3662
 1326SOL    HW215615   0.133   1.865  14.582  2.0181  0.6845 -0.6560
 1327SOL     OW15616   1.759   2.588   1.736  0.1869  0.6027  0.3199
 1327SOL    HW115617   1.795   2.675   1.758 -1.0103  1.4589 -1.1466
 1327SOL    HW215618   1.771   2.539   1.818  1.9431  0.1452 -0.2073
 1328SOL     OW15619   0.593   2.277   0.277 -0.1520  0.2787 -0.2733
 1328SOL    HW115620   0.551   2.278   0.363  1.9931  2.5650  0.7247
 1328SOL    HW215621   0.663   2.215   0.295 -0.0195  0.5614  0.1754
 1329SOL     OW15622   4.302   3.123   2.225 -0.5620 -0.2475  0.6082
 1329SOL    HW115623   4.319   3.175   2.147 -3.4668 -2.0477 -1.2382
 1329SOL    HW215624   4.263   3.044   2.188  0.2468  0.5180 -1.8816
 1330SOL     OW15625   1.135   0.210   8.377 -0.0316  0.1108  0.1384
 1330SOL    HW115626   1.153   0.175   8.464 -1.5918  1.8680  1.1912
 1330SOL    HW215627   1.220   0.251   8.363  1.8083 -3.0863  1.9501
 1331SOL     OW15628   1.694   3.542   2.492 -0.4915 -0.0330  0.0944
 1331SOL    HW115629   1.672   3.550   2.400 -0.0011 -0.2285 -0.0411
 1331SOL    HW215630   1.789   3.554   2.503 -0.3250 -1.1672 -0.0300
 1332SOL     OW15631   1.240   3.415   7.506 -0.5382 -0.2551  0.4095
 1332SOL    HW115632   1.306   3.347   7.515 -0.3248 -0.2525 -1.1294
 1332SOL    HW215633   1.160   3.363   7.516 -1.8209  1.3216 -1.6361
 1333SOL     OW15634   0.498   1.687   2.552 -0.1325  0.1588  0.2734
 1333SOL    HW115635   0.591   1.682   2.529 -1.0188 -0.0724 -3.2320
 1333SOL    HW215636   0.483   1.596   2.577  0.4449  0.1397  0.5652
 1334SOL     OW15637   2.354   0.132   7.010 -0.1988 -0.1505  0.6674
 1334SOL    HW115638   2.302   0.196   7.059  0.6825 -1.3916  3.2261
 1334SOL    HW215639   2.437   0.152   7.054  0.5901 -2.0321  0.0102
 1335SOL     OW15640   2.047   2.521   8.581 -0.1971 -0.5187  0.4318
 1335SOL    HW115641   2.007   2.448   8.534  0.6018  0.1748 -1.3378
 1335SOL    HW215642   2.133   2.512   8.539  0.0787 -0.6893  1.0274
 1336SOL     OW15643   3.731   2.072   3.408 -0.0517 -0.4988  0.7372
 1336SOL    HW115644   3.708   2.083   3.500 -1.8539  2.2413 -0.0345
 1336SOL    HW215645   3.787   2.149   3.401 -2.1574  0.8076 -1.6332
 1337SOL     OW15646   2.620   4.593  15.530 -0.3024 -0.4369  0.3886
 1337SOL    HW115647   2.655   4.682  15.527 -0.1215 -0.5802 -1.6503
 1337SOL    HW215648   2.666   4.565  15.610 -0.0997  0.5795  0.6269
 1338SOL     OW15649   0.380   2.039   1.182 -0.2535  0.2445 -0.1094
 1338SOL    HW115650   0.447   2.105   1.197  1.2818 -1.0137 -1.3670
 1338SOL    HW215651   0.424   1.964   1.223 -1.5760 -1.9352 -2.6952
 1339SOL     OW15652   3.224   1.524   8.490 -0.0383 -0.2250  0.0591
 1339SOL    HW115653   3.278   1.582   8.543  2.0028 -0.5917 -1.5980
 1339SOL    HW215654   3.215   1.580   8.413 -1.8905  0.5955  0.8756
 1340SOL     OW15655   0.903   3.297   3.371 -0.0824 -0.0114  0.3980
 1340SOL    HW115656   0.927   3.205   3.371  3.0937  0.8226  4.3938
 1340SOL    HW215657   0.880   3.314   3.462 -0.1996  0.2582  0.3178
 1341SOL     OW15658   0.134   4.220   9.089 -0.2084  0.3480  0.5035
 1341SOL    HW115659   0.133   4.175   9.174 -1.4865  0.7759  0.7228
 1341SOL    HW215660   0.195   4.163   9.042  1.3976  1.2087  1.5093
 1342SOL     OW15661   2.397   4.099   6.216 -0.3939  0.2564  0.2537
 1342SOL    HW115662   2.360   4.025   6.168  0.4512 -1.0521  1.5984
 1342SOL    HW215663   2.327   4.128   6.274 -0.9960 -0.1782 -0.2558
 1343SOL     OW15664   0.511   2.144   5.802  0.2376 -0.7452  0.4540
 1343SOL    HW115665   0.501   2.083   5.729  1.6069 -0.0591 -0.2968
 1343SOL    HW215666   0.426   2.187   5.791 -0.2853 -2.1341 -0.9365
 1344SOL     OW15667   1.454   3.708   2.703  0.1419  0.2252  0.5410
 1344SOL    HW115668   1.473   3.614   2.705  2.1328  0.6542  0.9450
 1344SOL    HW215669   1.374   3.713   2.651  0.8001  0.7863 -0.4066
 1345SOL     OW15670   0.846   0.846   3.106  1.0098  0.9293  0.2461
 1345SOL    HW115671   0.761   0.809   3.131  1.4116  0.7593  1.3439
 1345SOL    HW215672   0.897   0.829   3.185 -0.4039  1.9222  1.3781
 1346SOL     OW15673   1.102   2.836   7.366  0.5128 -0.0798  0.1135
 1346SOL    HW115674   1.100   2.821   7.460 -1.2183  0.6326  0.1909
 1346SOL    HW215675   1.125   2.749   7.333  1.0663  0.0893  0.0527
 1347SOL     OW15676   3.652   1.024   3.360  0.6928  1.0834 -0.1936
 1347SOL    HW115677   3.561   1.025   3.329  0.6475  0.1213 -0.0976
 1347SOL    HW215678   3.644   1.087   3.431 -3.2933 -0.3427  0.6534
 1348SOL     OW15679   0.362   1.966  17.636  0.4266 -0.4467  0.3927
 1348SOL    HW115680   0.279   1.974  17.683  0.2259 -0.3813  0.0262
 1348SOL    HW215681   0.406   2.039  17.679  2.3995 -0.6554 -1.2273
 1349SOL     OW15682   3.904   2.062   6.773  0.3496 -0.2775  0.0706
 1349SOL    HW115683   3.998   2.082   6.766 -0.0527  1.9418  1.2182
 1349SOL    HW215684   3.888   2.010   6.694  0.2302  0.5728 -0.4599
 1350SOL     OW15685   0.902   2.426  13.445 -0.0316  0.0069  0.2283
 1350SOL    HW115686   0.984   2.413  13.493 -0.4464 -0.4834  0.8032
 1350SOL    HW215687   0.921   2.486  13.373 -1.3059  1.4266  1.0793
 1351SOL     OW15688   2.182   3.521   7.250  0.3316  0.0175  0.1101
 1351SOL    HW115689   2.264   3.482   7.280 -0.0938  0.1247  1.4305
 1351SOL    HW215690   2.117   3.465   7.294 -1.3799  1.3885 -0.6810
 1352SOL     OW15691   1.013   4.313   0.624 -0.2305 -0.5929 -0.2973
 1352SOL    HW115692   0.942   4.302   0.561  1.6772 -0.9810 -2.3558
 1352SOL    HW215693   1.023   4.407   0.637 -0.8171 -0.4447 -0.9580
 1353SOL     OW15694   1.245   1.574   9.125  0.2253  0.1243 -0.6754
 1353SOL    HW115695   1.157   1.541   9.140  0.3915 -0.0366 -0.0088
 1353SOL    HW215696   1.263   1.620   9.208  2.7618 -0.5400 -0.8546
 1354SOL     OW15697   3.726   0.962   2.508 -0.0950  0.1562 -0.4819
 1354SOL    HW115698   3.765   0.878   2.532  0.6181  0.1133 -1.7794
 1354SOL    HW215699   3.802   0.996   2.461 -0.0266 -0.6763 -0.9675
 1355SOL     OW15700   2.485   1.078  17.554  0.2580  0.4166 -0.7766
 1355SOL    HW115701   2.539   1.135  17.499 -0.2217 -0.0404 -1.7281
 1355SOL    HW215702   2.558   1.032  17.595  0.2110  1.6071  0.6289
 1356SOL     OW15703   2.778   1.189   7.849  0.5513  0.4258 -0.1139
 1356SOL    HW115704   2.690   1.190   7.810  0.3639  2.7031  0.3300
 1356SOL    HW215705   2.775   1.104   7.893  0.7898  0.3086 -0.3268
 1357SOL     OW15706   4.282   3.327   2.860  0.4339  0.0477 -0.1831
 1357SOL    HW115707   4.224   3.251   2.860  1.4729 -0.7410 -0.8287
 1357SOL    HW215708   4.269   3.361   2.772  2.6084  1.2580 -0.0255
 1358SOL     OW15709   1.383   0.709   7.278  0.3902  0.4700  0.2308
 1358SOL    HW115710   1.360   0.637   7.219  0.9854  1.7674 -1.6222
 1358SOL    HW215711   1.447   0.749   7.219  1.1227  3.6442  3.1706
 1359SOL     OW15712   0.990   4.434   2.632  0.3609 -0.0704 -0.5499
 1359SOL    HW115713   1.046   4.444   2.556  1.2936  0.2162  0.1800
 1359SOL    HW215714   1.044   4.371   2.680 -0.5154  1.1214  2.0069
 1360SOL     OW15715   0.212   4.619  13.253  0.3970  0.3222  0.1721
 1360SOL    HW115716   0.208   4.621  13.157 -0.4217 -2.4995  0.1391
 1360SOL    HW215717   0.297   4.662  13.264 -0.1968  1.6784 -0.5906
 1361SOL     OW15718   1.226   3.811  16.700  0.5333 -0.1921 -0.1736
 1361SOL    HW115719   1.306   3.811  16.648  2.2601  0.3020  2.4651
 1361SOL    HW215720   1.181   3.743  16.650  0.9097 -0.5112 -0.0765
 1362SOL     OW15721   4.660   2.340   6.528  0.0193  0.0109 -0.1340
 1362SOL    HW115722   4.605   2.409   6.492 -1.0019 -0.8017 -0.1140
 1362SOL    HW215723   4.617   2.259   6.501  0.1139 -0.2822  0.5775
 1363SOL     OW15724   0.235   4.681   4.075  0.1966 -0.1829 -0.7125
 1363SOL    HW115725   0.154   4.723   4.105 -0.1259 -0.0325 -1.7881
 1363SOL    HW215726   0.217   4.647   3.987  0.4431 -1.2319 -0.3519
 1364SOL     OW15727   2.325   3.622   8.203 -0.1672 -0.2944 -0.2832
 1364SOL    HW115728   2.292   3.582   8.123  1.3067 -1.4467 -0.3337
 1364SOL    HW215729   2.257   3.688   8.193  0.7708  0.6887 -0.1541
 1365SOL     OW15730   0.218   2.502   6.779 -0.0846 -0.1694  0.0336
 1365SOL    HW115731   0.275   2.432   6.811 -1.3413 -1.6546 -1.0152
 1365SOL    HW215732   0.251   2.584   6.815 -1.0983  1.2765 -2.3243
 1366SOL     OW15733   0.279   3.591   6.750 -0.7387 -0.2702  0.2640
 1366SOL    HW115734   0.194   3.631   6.766  0.2551  0.7619  2.9197
 1366SOL    HW215735   0.337   3.642   6.806 -1.8342  1.1193  0.1146
 1367SOL     OW15736   1.411   1.126   3.224  0.6046  0.7448 -0.5771
 1367SOL    HW115737   1.428   1.190   3.155  1.3810  1.6942  0.4861
 1367SOL    HW215738   1.327   1.161   3.255  0.8735  2.3392 -1.6066
 1368SOL     OW15739   4.272   4.692   2.879 -0.0665  0.7236 -0.1635
 1368SOL    HW115740   4.222   4.660   2.804 -1.7344  1.3754  0.6648
 1368SOL    HW215741   4.360   4.711   2.846 -0.0079  0.5578 -0.1064
 1369SOL     OW15742   2.010   0.548   1.983  0.4863 -0.2289 -0.0829
 1369SOL    HW115743   2.042   0.531   2.072 -0.5524  1.0299  0.5455
 1369SOL    HW215744   1.936   0.607   2.003  0.3350 -0.8784  1.3141
 1370SOL     OW15745   4.495   1.270   5.689  0.0896 -0.5377  0.0008
 1370SOL    HW115746   4.409   1.298   5.719  0.1674  0.0418 -0.3130
 1370SOL    HW215747   4.473   1.198   5.629  0.3321  1.7034 -2.7591
 1371SOL     OW15748   0.587   2.097   4.610  0.4554  0.1207 -0.2664
 1371SOL    HW115749   0.534   2.176   4.605 -2.0959 -1.5664  0.4427
 1371SOL    HW215750   0.669   2.139   4.640  0.5115  1.0558 -1.7255
 1372SOL     OW15751   1.589   0.337   2.144  0.0230  0.1465 -0.2782
 1372SOL    HW115752   1.670   0.336   2.195 -0.7580 -0.1909  0.9461
 1372SOL    HW215753   1.605   0.421   2.101  0.9932  0.7323  1.2295
 1373SOL     OW15754   1.578   4.432  13.467  0.3260 -0.4441 -0.5022
 1373SOL    HW115755   1.671   4.420  13.486  0.2039  1.0266  1.1089
 1373SOL    HW215756   1.536   4.402  13.548 -1.0470 -1.2915 -1.5462
 1374SOL     OW15757   2.869   0.919   3.076 -0.1630 -0.1783 -0.0046
 1374SOL    HW115758   2.814   0.948   3.004 -0.1326  0.5740  0.2764
 1374SOL    HW215759   2.820   0.945   3.154 -1.1178  2.5132 -1.5374
 1375SOL     OW15760   3.702   1.042  17.540 -0.1869  0.3280  0.3692
 1375SOL    HW115761   3.774   1.004  17.489  0.7672  1.5478  0.7952
 1375SOL    HW215762   3.654   0.966  17.571  1.7575 -0.8590  0.4856
 1376SOL     OW15763   4.136   2.485   2.137  0.5573  0.2691 -0.3043
 1376SOL    HW115764   4.162   2.397   2.164 -0.4728 -0.9304 -3.2571
 1376SOL    HW215765   4.080   2.469   2.061 -0.5608  0.4389  0.4832
 1377SOL     OW15766   1.352   2.052   8.747  0.5599 -0.2601 -0.3824
 1377SOL    HW115767   1.374   2.112   8.675  2.2169  1.0519  1.2067
 1377SOL    HW215768   1.313   2.111   8.812  0.0077 -2.2480  1.0807
 1378SOL     OW15769   2.091   3.229   5.841 -0.2626 -0.1604 -0.1362
 1378SOL    HW115770   2.150   3.276   5.899  0.9037 -0.6317 -0.9337
 1378SOL    HW215771   2.110   3.135   5.851  0.8753 -0.0109 -0.8131
 1379SOL     OW15772   1.506   3.396  16.496 -0.4687  0.4893 -0.6139
 1379SOL    HW115773   1.447   3.457  16.540 -1.2962 -0.3875 -0.4967
 1379SOL    HW215774   1.473   3.395  16.406 -0.3945 -2.7173 -0.5916
 1380SOL     OW15775   0.286   1.143   7.874 -0.2742 -0.0895 -0.3082
 1380SOL    HW115776   0.256   1.195   7.949 -1.1594 -0.5976 -0.3084
 1380SOL    HW215777   0.365   1.102   7.908 -1.0064 -0.9739  0.3073
 1381SOL     OW15778   1.778   3.573   2.784  1.0801  0.4756 -0.2010
 1381SOL    HW115779   1.776   3.606   2.694 -0.5106  1.7179  0.2742
 1381SOL    HW215780   1.866   3.536   2.776 -0.1716 -2.0270 -2.1094
 1382SOL     OW15781   3.079   0.652  13.006 -0.1440 -0.3927  0.1741
 1382SOL    HW115782   3.024   0.722  12.969  2.1040  0.9114 -0.6557
 1382SOL    HW215783   3.084   0.586  12.938 -1.0655 -1.2744  0.9600
 1383SOL     OW15784   3.079   0.293   6.245 -0.2307  0.1488  0.7863
 1383SOL    HW115785   3.048   0.344   6.170 -1.3281 -1.6263  0.0266
 1383SOL    HW215786   3.160   0.342   6.259  0.8459 -1.0247 -1.4691
 1384SOL     OW15787   4.111   3.606   3.869 -0.7906  0.0160  0.1308
 1384SOL    HW115788   4.035   3.614   3.926  1.1889  0.2319  2.7161
 1384SOL    HW215789   4.179   3.659   3.910 -0.9340  1.8917 -2.0829
 1385SOL     OW15790   4.635   2.821  11.204  0.0786 -0.4983 -0.5234
 1385SOL    HW115791   4.666   2.834  11.294  1.0534 -0.7229 -0.8252
 1385SOL    HW215792   4.541   2.826  11.222  0.3353  0.6493  0.5082
 1386SOL     OW15793   0.271   1.411   5.486 -0.3187  0.1403 -0.0648
 1386SOL    HW115794   0.243   1.376   5.402 -1.9182  0.0269  0.5115
 1386SOL    HW215795   0.360   1.433   5.458  0.2408 -2.6823 -0.4482
 1387SOL     OW15796   4.715   4.097   8.854 -0.0269  0.3341 -0.4273
 1387SOL    HW115797   4.675   4.151   8.786 -0.0486  2.5767  1.3737
 1387SOL    HW215798   0.037   4.164   8.891  0.6303 -0.9885  0.9410
 1388SOL     OW15799   3.846   0.387   7.103 -0.6590 -0.0969  0.0900
 1388SOL    HW115800   3.819   0.470   7.064 -1.0588 -0.2561  0.0331
 1388SOL    HW215801   3.763   0.354   7.138 -0.8865 -0.4374 -0.7818
 1389SOL     OW15802   2.456   3.163   6.984  0.1717 -0.1913  0.2918
 1389SOL    HW115803   2.362   3.146   6.986 -0.4663  3.2298 -1.4346
 1389SOL    HW215804   2.503   3.084   7.012 -0.4813 -0.5634  0.3182
 1390SOL     OW15805   4.285   1.330   3.940  0.1717  0.0190  0.3375
 1390SOL    HW115806   4.316   1.415   3.908 -0.4216  0.4209  0.8421
 1390SOL    HW215807   4.333   1.325   4.022 -1.2134 -1.1640  1.0722
 1391SOL     OW15808   2.919   3.887   5.581  0.0232 -0.7233  0.2577
 1391SOL    HW115809   2.953   3.971   5.612 -3.4835  0.2369  1.4775
 1391SOL    HW215810   2.826   3.893   5.603  0.2958 -3.1149  2.1773
 1392SOL     OW15811   3.578   3.328  14.879  0.2293 -0.2189  0.3109
 1392SOL    HW115812   3.546   3.353  14.792 -0.1755  2.1602  1.1587
 1392SOL    HW215813   3.557   3.401  14.938 -1.3117 -0.3677 -0.0469
 1393SOL     OW15814   0.504   4.157   9.867  0.5939 -0.2545 -0.3126
 1393SOL    HW115815   0.535   4.156   9.776  1.1822 -1.7044 -0.1097
 1393SOL    HW215816   0.414   4.128   9.849  1.0321 -1.4572 -0.6087
 1394SOL     OW15817   1.132   3.863   7.482 -0.0484 -0.0664  0.2822
 1394SOL    HW115818   1.118   3.780   7.529 -0.1252 -0.2423 -0.0530
 1394SOL    HW215819   1.053   3.912   7.506 -0.6624  0.1582 -2.2262
 1395SOL     OW15820   4.436   1.331   6.715  0.4107 -0.6305 -0.3877
 1395SOL    HW115821   4.413   1.338   6.808  1.7766 -2.9398  0.1322
 1395SOL    HW215822   4.425   1.236   6.704  2.3302 -0.7508 -1.2425
 1396SOL     OW15823   0.991   1.352   0.377  0.1391 -0.0310 -0.2338
 1396SOL    HW115824   0.953   1.280   0.426 -1.0980  0.8197  0.0592
 1396SOL    HW215825   0.936   1.428   0.396  0.5154  0.0685  0.4602
 1397SOL     OW15826   2.298   0.439   4.681 -0.2607  0.5415  0.3258
 1397SOL    HW115827   2.370   0.424   4.743 -0.3044  2.1012  0.7415
 1397SOL    HW215828   2.224   0.434   4.741 -1.4075 -0.3776 -1.1521
 1398SOL     OW15829   0.596   4.017  15.591  0.1504  0.1267 -0.1161
 1398SOL    HW115830   0.601   4.112  15.604 -0.8860  0.2013 -0.2510
 1398SOL    HW215831   0.681   3.981  15.613  0.1540 -0.6953 -1.4494
 1399SOL     OW15832   4.062   0.707   8.439  0.2949  0.8541  0.2283
 1399SOL    HW115833   3.980   0.751   8.461 -0.8551  0.0399 -2.4120
 1399SOL    HW215834   4.097   0.719   8.527 -0.1662  0.6900  0.4298
 1400SOL     OW15835   4.520   0.827   5.923  0.0542 -0.5204  0.3969
 1400SOL    HW115836   4.607   0.788   5.919  0.5659  0.6647 -0.1829
 1400SOL    HW215837   4.458   0.757   5.902  3.3178 -3.2218 -0.1074
 1401SOL     OW15838   4.605   0.782   8.683  0.6161  0.5607  0.5478
 1401SOL    HW115839   4.665   0.744   8.747  3.1251  1.1879 -1.4151
 1401SOL    HW215840   4.572   0.862   8.725  0.0213 -0.3544  1.8056
 1402SOL     OW15841   4.329   1.781   6.394  0.3918 -0.1067  0.3246
 1402SOL    HW115842   4.242   1.811   6.422 -0.1599 -1.1490 -0.2627
 1402SOL    HW215843   4.306   1.694   6.361 -0.1374 -0.9269  2.8611
 1403SOL     OW15844   2.596   2.668   5.766 -0.1861 -0.0689  0.3823
 1403SOL    HW115845   2.664   2.629   5.712 -0.5930 -0.5442  0.2104
 1403SOL    HW215846   2.619   2.761   5.764 -1.6078  0.3446  2.5844
 1404SOL     OW15847   1.216   1.080  10.096 -0.5915 -0.6985 -0.0701
 1404SOL    HW115848   1.199   1.166  10.059 -1.7220 -0.5394  0.8199
 1404SOL    HW215849   1.135   1.032  10.079 -0.9514 -0.2858  0.4726
 1405SOL     OW15850   3.501   3.654  13.512 -0.2453  0.8460 -0.1728
 1405SOL    HW115851   3.494   3.674  13.419  0.1453 -1.7655 -0.7497
 1405SOL    HW215852   3.576   3.707  13.539 -2.5437  2.5535  2.9668
 1406SOL     OW15853   2.679   2.790  12.019 -0.0209 -0.1132 -0.1617
 1406SOL    HW115854   2.667   2.872  11.971 -1.6199 -1.5080 -2.1083
 1406SOL    HW215855   2.668   2.726  11.950  0.4526 -0.9522  0.5453
 1407SOL     OW15856   4.437   2.146   8.667 -0.0326 -0.0499 -0.6412
 1407SOL    HW115857   4.490   2.085   8.616 -1.0473 -1.9521  0.5822
 1407SOL    HW215858   4.442   2.110   8.755  1.6768 -0.9878 -1.1177
 1408SOL     OW15859   3.964   0.031   5.374 -0.3613  0.1267  0.1075
 1408SOL    HW115860   3.896   0.085   5.335  1.2951  1.5882 -0.7459
 1408SOL    HW215861   3.922   4.735   5.455  1.1354  1.0474  1.2451
 1409SOL     OW15862   1.702   1.042   7.042  0.1230  0.4855  0.1130
 1409SOL    HW115863   1.787   1.001   7.030  0.2264  0.4220  1.1012
 1409SOL    HW215864   1.727   1.134   7.041  1.0455  0.2444  1.7149
 1410SOL     OW15865   0.498   3.783   2.824  0.2948  0.2736  0.3313
 1410SOL    HW115866   0.567   3.748   2.768 -2.2609 -1.6952 -1.5666
 1410SOL    HW215867   0.438   3.709   2.821  0.7957 -0.1536  0.8102
 1411SOL     OW15868   1.813   0.743  11.637  0.3072 -0.2409  0.0191
 1411SOL    HW115869   1.795   0.755  11.544  0.8699  1.1077  0.0831
 1411SOL    HW215870   1.724   0.735  11.674 -0.3518 -2.3827 -2.0582
 1412SOL     OW15871   1.888   0.504   5.691  0.1925  0.2456 -0.3423
 1412SOL    HW115872   1.882   0.410   5.707 -1.2772  0.5359  0.7910
 1412SOL    HW215873   1.968   0.510   5.640  1.4268 -2.1198  1.3180
 1413SOL     OW15874   2.126   2.677   3.230  0.0571  0.4790 -0.1123
 1413SOL    HW115875   2.110   2.771   3.221  1.2302  0.6852  0.0595
 1413SOL    HW215876   2.116   2.653   3.138  0.5442  0.1844 -0.0869
 1414SOL     OW15877   2.910   0.593   8.111 -0.0606  0.6875  0.0384
 1414SOL    HW115878   2.925   0.576   8.018 -4.2308 -0.1521 -0.5099
 1414SOL    HW215879   2.975   0.659   8.132 -0.3838  0.3619  2.0830
 1415SOL     OW15880   2.050   2.668  16.265 -0.2752  0.3336  0.2246
 1415SOL    HW115881   2.014   2.696  16.350 -1.2541 -0.2578  0.0053
 1415SOL    HW215882   2.037   2.576  16.287 -1.1224  0.4879  0.4046
 1416SOL     OW15883   0.288   0.699   5.064 -0.5776  0.3667  0.7199
 1416SOL    HW115884   0.378   0.719   5.089 -0.6847 -0.9973  2.1590
 1416SOL    HW215885   0.289   0.715   4.970 -2.7100 -0.5694  0.5519
 1417SOL     OW15886   0.642   1.378   6.073  0.4443  0.2568 -0.1279
 1417SOL    HW115887   0.605   1.361   6.159 -1.4385  0.3746 -0.9246
 1417SOL    HW215888   0.562   1.354   6.027  0.9482 -0.7566 -0.4902
 1418SOL     OW15889   3.795   2.467   6.006 -0.3282 -0.1202  0.0165
 1418SOL    HW115890   3.827   2.552   6.037  0.1744 -1.0483  2.0820
 1418SOL    HW215891   3.745   2.434   6.081 -1.4265 -2.7431 -1.8812
 1419SOL     OW15892   3.276   1.079  14.228  0.0209  0.4133  0.3807
 1419SOL    HW115893   3.300   1.030  14.149  1.8484 -0.4736  1.4841
 1419SOL    HW215894   3.354   1.065  14.282  0.9332  2.2526 -0.4573
 1420SOL     OW15895   0.831   3.903   3.655 -0.2997  0.5246  0.2904
 1420SOL    HW115896   0.923   3.892   3.632 -0.9581 -0.4307 -1.8999
 1420SOL    HW215897   0.826   3.957   3.734 -1.3430 -0.6053  1.0030
 1421SOL     OW15898   1.563   2.230   5.386  0.0041 -0.3525  0.0073
 1421SOL    HW115899   1.617   2.284   5.443  1.6075 -0.8125 -1.0730
 1421SOL    HW215900   1.509   2.187   5.452 -0.7834 -2.8260 -2.2671
 1422SOL     OW15901   0.524   0.039   9.556  0.3831 -0.4276  0.1106
 1422SOL    HW115902   0.534   4.690   9.600 -0.8918 -0.0891  1.0675
 1422SOL    HW215903   0.431   0.043   9.534  0.0569 -1.9205  1.2364
 1423SOL     OW15904   4.456   1.505  16.177  0.2033 -0.6923  0.6990
 1423SOL    HW115905   4.534   1.551  16.209  0.2113 -2.7862  3.7729
 1423SOL    HW215906   4.402   1.581  16.161 -0.5308 -1.2009  0.7712
 1424SOL     OW15907   1.072   4.409   5.188  0.0666 -0.7313  0.2900
 1424SOL    HW115908   1.108   4.333   5.143  0.1044 -1.3835  1.4419
 1424SOL    HW215909   0.980   4.386   5.202 -0.1346 -0.2815 -0.2758
 1425SOL     OW15910   2.852   0.784   8.457  0.2513 -0.7883 -0.0368
 1425SOL    HW115911   2.947   0.791   8.469  0.2454 -0.1801 -0.3131
 1425SOL    HW215912   2.841   0.691   8.477  0.9829 -1.4007 -2.4227
 1426SOL     OW15913   0.907   2.915   3.677  0.4346  0.6329  0.1984
 1426SOL    HW115914   0.964   2.969   3.623 -0.5361  1.1515 -0.3145
 1426SOL    HW215915   0.828   2.904   3.623  1.3478  1.2735 -1.2439
 1427SOL     OW15916   0.206   2.135   4.387 -0.2159  0.2134 -0.2420
 1427SOL    HW115917   0.128   2.151   4.440 -0.0661  1.4478 -0.4052
 1427SOL    HW215918   0.240   2.061   4.437 -2.0719  0.4008  1.2860
 1428SOL     OW15919   1.612   2.070   4.454  0.5247 -0.1034  0.0664
 1428SOL    HW115920   1.622   2.002   4.387 -1.8605 -1.6796  1.2937
 1428SOL    HW215921   1.556   2.027   4.519 -0.9542  1.9260  0.1695
 1429SOL     OW15922   0.314   1.846  12.467 -0.4338  0.3617 -0.5422
 1429SOL    HW115923   0.312   1.799  12.383  1.5547  0.5634 -0.6983
 1429SOL    HW215924   0.409   1.851  12.472 -0.2853 -0.2880 -2.6825
 1430SOL     OW15925   2.512   3.404   9.514  0.1749 -0.0991 -0.3832
 1430SOL    HW115926   2.579   3.472   9.523  0.9502 -1.3104  3.1506
 1430SOL    HW215927   2.469   3.389   9.599 -0.4590  2.8441 -0.1640
 1431SOL     OW15928   1.638   1.147   3.391 -0.8723 -0.0044  0.0031
 1431SOL    HW115929   1.568   1.104   3.342 -0.4104 -1.6513  0.7490
 1431SOL    HW215930   1.599   1.127   3.477 -2.4712  0.5535 -0.6052
 1432SOL     OW15931   3.122   2.500   3.557 -0.1417  0.3162 -0.6964
 1432SOL    HW115932   3.119   2.470   3.648 -0.7538  0.9160 -0.5162
 1432SOL    HW215933   3.215   2.481   3.547 -0.2487 -1.4588  1.6390
 1433SOL     OW15934   0.258   3.764  16.895  0.2566  0.1629  0.0590
 1433SOL    HW115935   0.306   3.764  16.812 -2.9516  1.5206 -1.7880
 1433SOL    HW215936   0.314   3.705  16.946  1.0037  0.3135 -0.5760
 1434SOL     OW15937   3.579   1.180  11.787  0.3261 -0.3044  0.7723
 1434SOL    HW115938   3.572   1.198  11.694 -1.8368  1.3563  1.2378
 1434SOL    HW215939   3.638   1.251  11.814 -1.0135  0.5831  1.3913
 1435SOL     OW15940   0.080   2.924   7.788  0.6586  0.5424 -0.3524
 1435SOL    HW115941   0.081   2.863   7.863 -0.9418  1.5095  0.4564
 1435SOL    HW215942   0.133   2.999   7.815 -1.0247  0.8789  2.0251
 1436SOL     OW15943   1.462   0.491   3.320  0.4884  0.1089  0.5940
 1436SOL    HW115944   1.482   0.406   3.281  1.8010  0.4940  0.4296
 1436SOL    HW215945   1.474   0.549   3.245 -2.2673  0.0167  0.0707
 1437SOL     OW15946   1.978   0.499   7.510  0.0334  0.3635 -0.4145
 1437SOL    HW115947   2.017   0.432   7.567  2.1227  0.3248 -1.8838
 1437SOL    HW215948   1.919   0.438   7.466  1.3097 -1.8271  0.9404
 1438SOL     OW15949   1.193   3.167   8.745  0.0846 -0.2702 -0.2911
 1438SOL    HW115950   1.239   3.155   8.662  0.2263 -0.0007 -0.2504
 1438SOL    HW215951   1.223   3.257   8.753  0.4645 -0.4232  0.0140
 1439SOL     OW15952   2.846   0.410   0.467 -0.3325  0.3284 -0.9220
 1439SOL    HW115953   2.884   0.491   0.432  2.7075 -0.5203  0.4202
 1439SOL    HW215954   2.894   0.346   0.415 -0.2884 -0.7258  0.4225
 1440SOL     OW15955   2.137   4.488   5.572  0.1284 -0.1867  0.7306
 1440SOL    HW115956   2.180   4.559   5.524 -0.1472 -1.5086 -1.4873
 1440SOL    HW215957   2.058   4.482   5.518  0.3138 -0.0601  0.4467
 1441SOL     OW15958   0.444   1.203   9.346  0.2319 -0.3038 -0.1543
 1441SOL    HW115959   0.458   1.246   9.430 -0.7019  0.8332 -0.5760
 1441SOL    HW215960   0.396   1.125   9.372 -1.5755  0.4665 -1.1046
 1442SOL     OW15961   2.848   3.998   4.915  0.1714 -0.7695 -0.4582
 1442SOL    HW115962   2.911   3.997   4.842  0.4578 -1.3503 -0.2068
 1442SOL    HW215963   2.766   4.028   4.877 -1.0186 -1.0974  1.8685
 1443SOL     OW15964   2.423   0.467   1.511  0.3366  0.0188 -0.3778
 1443SOL    HW115965   2.330   0.449   1.524  0.1690  2.1252  1.3884
 1443SOL    HW215966   2.456   0.407   1.577 -2.3931 -1.2128 -0.1295
 1444SOL     OW15967   4.379   2.212  15.701  0.1954  0.0851  0.3796
 1444SOL    HW115968   4.418   2.296  15.726  0.1121 -0.2035  1.4760
 1444SOL    HW215969   4.409   2.206  15.611  0.0582 -0.1987  0.3515
 1445SOL     OW15970   2.980   3.156   9.066 -0.0376  0.1320  0.1071
 1445SOL    HW115971   2.902   3.179   9.116  0.6810  1.8163  0.4753
 1445SOL    HW215972   3.020   3.241   9.046 -0.3922  0.2801  0.0254
 1446SOL     OW15973   3.097   3.664   2.773 -0.2273 -0.0062 -0.0470
 1446SOL    HW115974   3.053   3.669   2.857  0.0726  2.4771 -0.0359
 1446SOL    HW215975   3.129   3.754   2.777 -1.3278  0.4010 -0.3744
 1447SOL     OW15976   4.673   2.375   9.974  0.8416 -0.1344  0.4480
 1447SOL    HW115977   0.013   2.318   9.961 -0.0823 -1.3965  0.5717
 1447SOL    HW215978   4.621   2.300  10.005 -0.1445  0.4537  0.2132
 1448SOL     OW15979   0.172   2.232   2.621 -0.1441  0.0039 -0.2973
 1448SOL    HW115980   0.182   2.176   2.544  0.4667  0.9570 -0.9183
 1448SOL    HW215981   0.084   2.265   2.604 -0.4114 -0.5016  0.1241
 1449SOL     OW15982   0.246   3.541  15.108 -0.0871  0.0697  0.0124
 1449SOL    HW115983   0.201   3.580  15.033  0.7743 -0.4758 -0.7874
 1449SOL    HW215984   0.248   3.608  15.176  2.4214  0.1144 -0.1224
 1450SOL     OW15985   3.830   1.166   2.867 -0.1410 -0.0146 -0.3787
 1450SOL    HW115986   3.895   1.097   2.850 -0.0238  0.3239 -1.3245
 1450SOL    HW215987   3.828   1.169   2.962 -0.6675 -1.5188 -0.3342
 1451SOL     OW15988   2.359   4.724  12.038 -0.6297  0.4191  0.1642
 1451SOL    HW115989   2.363   4.632  12.011  0.6703  1.7224 -4.0611
 1451SOL    HW215990   2.415   0.031  11.972  1.1326 -1.2014  0.6196
 1452SOL     OW15991   1.199   0.114   7.144 -0.4631  0.0836 -0.6495
 1452SOL    HW115992   1.253   0.068   7.079 -2.9922 -1.7285 -1.4819
 1452SOL    HW215993   1.120   0.136   7.094 -0.0702  0.3981 -1.1255
 1453SOL     OW15994   0.853   0.202   2.749 -0.0178  0.2487 -0.2101
 1453SOL    HW115995   0.852   0.210   2.654 -0.5171  1.3151 -0.1158
 1453SOL    HW215996   0.861   0.112   2.781  0.5222  1.0355  1.8874
 1454SOL     OW15997   0.279   4.366   9.737  0.0777  0.0374  0.3363
 1454SOL    HW115998   0.297   4.272   9.729 -1.4806 -0.2114 -0.2252
 1454SOL    HW215999   0.218   4.379   9.665 -0.1439  0.6500  0.6329
 1455SOL     OW16000   1.153   0.711  13.999  0.2043 -0.1504 -0.2190
 1455SOL    HW116001   1.166   0.626  13.956  0.3825  0.2916 -1.0259
 1455SOL    HW216002   1.090   0.684  14.067 -0.4262 -1.3761 -1.2886
 1456SOL     OW16003   0.530   1.469  17.500  0.5879 -0.6017  0.1833
 1456SOL    HW116004   0.496   1.417  17.572 -1.4035 -3.0057 -2.4974
 1456SOL    HW216005   0.624   1.478  17.516  0.7707 -0.0162 -1.1963
 1457SOL     OW16006   1.814   0.638   6.993  0.0706  0.9819 -0.3682
 1457SOL    HW116007   1.848   0.720   6.957 -1.3777  1.6975 -0.1250
 1457SOL    HW216008   1.753   0.602   6.929  0.3250 -0.4626  0.2111
 1458SOL     OW16009   3.859   2.998   6.473 -0.1856  0.3568  0.5755
 1458SOL    HW116010   3.880   3.091   6.472  0.4547  0.1903 -1.2049
 1458SOL    HW216011   3.921   2.963   6.536  0.9064  0.5476 -0.3898
 1459SOL     OW16012   1.280   3.408   7.007 -0.7420 -0.3189 -0.3846
 1459SOL    HW116013   1.207   3.451   6.962 -0.1957  2.1876  1.1387
 1459SOL    HW216014   1.274   3.447   7.094  4.2136 -1.3944  0.4058
 1460SOL     OW16015   2.048   0.017   0.147 -0.3165  0.3547  0.1133
 1460SOL    HW116016   2.016   0.105   0.165  2.4799  1.3623  0.1989
 1460SOL    HW216017   2.048   4.713   0.234  0.4784 -0.8292 -0.4329
 1461SOL     OW16018   0.277   1.884   3.754  0.2349 -0.2015  0.1847
 1461SOL    HW116019   0.362   1.859   3.718 -0.2196 -1.4161 -0.0479
 1461SOL    HW216020   0.228   1.903   3.674 -1.8890  1.5655  1.8902
 1462SOL     OW16021   2.339   0.827   1.787  0.3308 -0.1304  0.0969
 1462SOL    HW116022   2.338   0.843   1.693 -1.4837  1.9466  0.4696
 1462SOL    HW216023   2.263   0.770   1.793  0.5275 -0.3077  0.9876
 1463SOL     OW16024   2.767   4.605   3.050  0.1295 -0.1656 -0.2590
 1463SOL    HW116025   2.802   4.532   3.100 -2.8839 -2.3118 -1.2420
 1463SOL    HW216026   2.692   4.626   3.105 -0.4845 -0.9371 -0.7944
 1464SOL     OW16027   4.667   1.283   0.943  0.2997 -0.0620 -0.3868
 1464SOL    HW116028   4.572   1.292   0.937  0.4933  1.3165 -1.5910
 1464SOL    HW216029   4.693   1.362   0.895  3.4529 -0.3640  0.8273
 1465SOL     OW16030   1.087   0.818  11.277 -1.1735  0.0106  0.0840
 1465SOL    HW116031   1.027   0.768  11.333 -0.1697  0.0540  1.1832
 1465SOL    HW216032   1.117   0.742  11.227 -2.8558  0.2619 -1.3214
 1466SOL     OW16033   1.463   2.466  14.871  0.6972 -0.0501  0.2588
 1466SOL    HW116034   1.432   2.392  14.925 -0.3432 -0.3542 -0.7618
 1466SOL    HW216035   1.540   2.426  14.832  1.7472  2.5515 -0.3149
 1467SOL     OW16036   2.792   1.034  12.625 -0.2594 -0.5256  0.0089
 1467SOL    HW116037   2.859   1.025  12.693  0.5883  0.8036 -0.6618
 1467SOL    HW216038   2.827   1.118  12.597 -1.4089 -0.1741 -0.3766
 1468SOL     OW16039   0.979   3.838   5.175 -0.4823  0.2312  0.1278
 1468SOL    HW116040   0.947   3.816   5.087 -2.7428 -1.3464  1.3483
 1468SOL    HW216041   0.898   3.868   5.216  0.3033  3.8084 -0.9485
 1469SOL     OW16042   2.647   2.039  14.300  0.3369  0.2255  0.2787
 1469SOL    HW116043   2.701   2.091  14.241  1.6393 -3.5344 -1.8304
 1469SOL    HW216044   2.583   1.998  14.241  0.8230  0.9392 -0.7346
 1470SOL     OW16045   0.266   0.482   2.493  0.7808 -0.1586 -0.7229
 1470SOL    HW116046   0.349   0.517   2.525  0.2113 -0.4199  1.0758
 1470SOL    HW216047   0.224   0.462   2.577  0.9441  0.1909 -0.5594
 1471SOL     OW16048   0.348   3.493   1.909  0.3436  0.0858 -0.1374
 1471SOL    HW116049   0.428   3.455   1.872  0.8580  1.7552 -0.7329
 1471SOL    HW216050   0.288   3.418   1.907  0.0024  0.3781 -0.9910
 1472SOL     OW16051   1.939   3.355   7.343  0.1285 -0.0749  0.1160
 1472SOL    HW116052   1.886   3.328   7.417  1.3310 -2.3038  0.1938
 1472SOL    HW216053   1.883   3.356   7.265 -1.3418 -0.4972  1.1795
 1473SOL     OW16054   2.224   3.128   4.681  0.0254 -0.3102 -0.3827
 1473SOL    HW116055   2.282   3.052   4.692 -0.5187 -0.8348 -1.1552
 1473SOL    HW216056   2.143   3.082   4.662  0.3399  0.2588 -3.0604
 1474SOL     OW16057   0.941   0.974  10.036  0.7555 -0.0893 -0.1945
 1474SOL    HW116058   0.879   1.008   9.972  1.8813  0.7698 -0.8296
 1474SOL    HW216059   0.906   1.005  10.119  0.6190  0.3208 -0.4099
 1475SOL     OW16060   0.715   4.336   7.057 -0.2122  0.1130  0.2570
 1475SOL    HW116061   0.694   4.357   6.965 -1.5292 -0.5962  0.4011
 1475SOL    HW216062   0.737   4.243   7.054 -0.6890  0.1195 -3.5677
 1476SOL     OW16063   1.268   3.506  11.091  0.0125  0.0026  0.2879
 1476SOL    HW116064   1.332   3.529  11.159  0.7879  1.7810 -1.0299
 1476SOL    HW216065   1.226   3.591  11.076  0.5966  0.6066  1.9804
 1477SOL     OW16066   3.796   4.494   3.104 -0.6232  0.1194 -0.4216
 1477SOL    HW116067   3.792   4.579   3.148  0.2096 -0.1249  0.1357
 1477SOL    HW216068   3.832   4.522   3.019  0.2111 -1.6536 -0.6552
 1478SOL     OW16069   4.651   2.312   3.608 -0.1831 -0.3990 -0.3821
 1478SOL    HW116070   0.005   2.298   3.577 -0.8623 -3.3326 -1.0019
 1478SOL    HW216071   4.619   2.362   3.533 -0.1548 -1.0339 -0.8095
 1479SOL     OW16072   1.068   1.423   8.403  0.2709  0.2475 -0.5439
 1479SOL    HW116073   1.144   1.365   8.408  1.7222  2.1336 -1.1688
 1479SOL    HW216074   1.015   1.391   8.330 -2.2079 -1.5346  2.0306
 1480SOL     OW16075   3.694   1.071  12.442 -0.2367 -0.0863  0.4441
 1480SOL    HW116076   3.640   1.015  12.499 -2.1224  1.3306  0.0575
 1480SOL    HW216077   3.784   1.042  12.454  0.0092  1.2574  1.7995
 1481SOL     OW16078   4.476   2.993   3.363  0.5846 -0.1423  0.2251
 1481SOL    HW116079   4.564   3.030   3.369  0.9671 -1.0164 -0.1521
 1481SOL    HW216080   4.436   3.070   3.322  1.6229  0.0118 -0.4838
 1482SOL     OW16081   2.903   2.838   6.237  0.0690  0.2627  0.2753
 1482SOL    HW116082   2.828   2.894   6.257  1.1023  1.0879  1.8809
 1482SOL    HW216083   2.953   2.905   6.190 -1.5388  1.8271  0.7933
 1483SOL     OW16084   3.780   0.301   5.070 -0.3055  0.6445  0.3891
 1483SOL    HW116085   3.777   0.236   5.000  1.9469 -1.1098  1.9326
 1483SOL    HW216086   3.874   0.319   5.068 -0.0827 -0.6853 -1.8144
 1484SOL     OW16087   2.885   0.086   2.945 -0.0688  0.0732  0.5216
 1484SOL    HW116088   2.816   0.022   2.962  1.0806 -1.3377 -0.1539
 1484SOL    HW216089   2.949   0.029   2.902 -0.1868 -1.1594  1.9344
 1485SOL     OW16090   0.245   3.888   8.159 -0.6905 -0.0288  0.2014
 1485SOL    HW116091   0.169   3.918   8.209 -0.6733 -0.1609  0.3042
 1485SOL    HW216092   0.319   3.904   8.217  0.6588 -2.4954 -0.8384
 1486SOL     OW16093   3.324   1.021   1.768  0.0407 -0.1412  0.2200
 1486SOL    HW116094   3.260   1.076   1.722 -0.5659 -0.0398  1.1688
 1486SOL    HW216095   3.367   0.981   1.693  0.4054  0.9061 -0.1280
 1487SOL     OW16096   1.961   1.649   8.060  0.2929 -0.4028  0.4155
 1487SOL    HW116097   1.982   1.575   8.003 -0.4895  0.5019 -1.0361
 1487SOL    HW216098   1.912   1.707   8.003  1.4049  0.8909  0.7514
 1488SOL     OW16099   2.968   1.097   5.340 -0.1460 -0.7255  0.4443
 1488SOL    HW116100   2.955   1.047   5.259 -2.2293  0.7208 -0.1326
 1488SOL    HW216101   3.046   1.052   5.370  1.5722  1.1300 -1.2480
 1489SOL     OW16102   4.527   3.033   8.415 -0.0136 -0.5158 -0.3377
 1489SOL    HW116103   4.476   3.114   8.418  0.1844 -0.3116 -2.0901
 1489SOL    HW216104   4.459   2.971   8.440 -2.3092  1.8196 -0.8333
 1490SOL     OW16105   2.841   0.607   2.851  0.6773  0.4926 -0.5388
 1490SOL    HW116106   2.836   0.599   2.946 -0.0368 -3.3417 -0.9074
 1490SOL    HW216107   2.778   0.540   2.824  0.1931  0.0987  1.5460
 1491SOL     OW16108   0.104   0.574  10.480 -0.1108  0.2462  0.2821
 1491SOL    HW116109   0.049   0.517  10.533  0.4260 -0.0994  0.4690
 1491SOL    HW216110   0.146   0.507  10.426  0.2082 -1.1504  2.2349
 1492SOL     OW16111   3.260   3.491   4.321  0.0773  0.2705  0.4579
 1492SOL    HW116112   3.203   3.567   4.325  0.3243  0.3131  2.7532
 1492SOL    HW216113   3.322   3.497   4.394  1.2952  0.8276 -0.6267
 1493SOL     OW16114   0.735   1.758  11.180  0.6893 -0.1884  0.2424
 1493SOL    HW116115   0.799   1.737  11.112  3.4278  0.8147  2.5184
 1493SOL    HW216116   0.766   1.705  11.253 -2.1223 -1.0602  0.8086
 1494SOL     OW16117   0.502   4.566  15.861  0.2166 -0.0695 -0.3666
 1494SOL    HW116118   0.512   4.658  15.835 -0.6345  0.2227  0.3329
 1494SOL    HW216119   0.476   4.583  15.952  0.6488  2.6337 -0.7273
 1495SOL     OW16120   0.493   0.850   6.925  0.9631 -0.0652 -0.6959
 1495SOL    HW116121   0.476   0.813   7.012  1.3037  0.8172 -0.2605
 1495SOL    HW216122   0.413   0.901   6.913  0.5457 -0.6844 -0.5550
 1496SOL     OW16123   2.109   3.044  13.220 -0.2246  0.1632 -0.4523
 1496SOL    HW116124   2.074   2.998  13.296 -0.3255  3.5453  1.5084
 1496SOL    HW216125   2.186   3.084  13.261 -0.8983  0.6412  0.3369
 1497SOL     OW16126   1.347   0.426   0.417 -0.2032 -0.0412 -0.9093
 1497SOL    HW116127   1.396   0.354   0.457 -1.8482 -1.0845 -0.7847
 1497SOL    HW216128   1.291   0.379   0.355  0.8335  0.5853 -2.3126
 1498SOL     OW16129   4.611   2.281   4.030 -0.0821 -0.2666 -0.2180
 1498SOL    HW116130   4.574   2.222   4.096 -1.4315 -0.2045 -0.9124
 1498SOL    HW216131   4.554   2.276   3.953  0.9928  2.4708 -1.2050
 1499SOL     OW16132   0.618   3.448   8.361  0.1931 -0.5058  0.2705
 1499SOL    HW116133   0.613   3.431   8.267  1.1430 -1.3645  0.3672
 1499SOL    HW216134   0.621   3.543   8.362 -1.3126 -0.4361 -1.5166
 1500SOL     OW16135   0.513   0.485   3.797  0.2825  0.2266 -0.0513
 1500SOL    HW116136   0.597   0.439   3.796 -0.1174 -0.4999 -0.2111
 1500SOL    HW216137   0.523   0.566   3.847 -1.4874 -0.0429  0.7341
 1501SOL     OW16138   4.645   3.294   4.218 -0.1724  0.4012  0.0468
 1501SOL    HW116139   4.616   3.385   4.209 -2.5233 -0.1912  1.7899
 1501SOL    HW216140   4.603   3.254   4.142  3.3596  0.0702 -1.7154
 1502SOL     OW16141   3.909   3.329   4.942 -0.1363 -0.1065 -0.2821
 1502SOL    HW116142   3.940   3.312   4.853  0.7601 -0.1275  0.0269
 1502SOL    HW216143   3.972   3.271   4.985  0.6298 -0.9556 -2.5436
 1503SOL     OW16144   1.911   1.891  10.368  0.1786  0.6939  0.6323
 1503SOL    HW116145   1.953   1.935  10.442 -0.8554  2.7436  0.0244
 1503SOL    HW216146   1.889   1.807  10.409  0.3188 -0.7517 -2.2446
 1504SOL     OW16147   0.992   4.408   8.780 -0.1371  0.2105 -0.1993
 1504SOL    HW116148   1.071   4.362   8.751  0.1745 -1.1451  2.7526
 1504SOL    HW216149   1.018   4.451   8.861  1.2096  0.3771 -0.7185
 1505SOL     OW16150   3.923   2.611   3.956  0.1265  0.1867  0.2573
 1505SOL    HW116151   3.886   2.527   3.928 -1.0780  1.0288 -0.6596
 1505SOL    HW216152   3.884   2.627   4.042  1.3886 -1.6282  1.1544
 1506SOL     OW16153   0.766   4.724   5.529  0.6348  0.5025 -1.0364
 1506SOL    HW116154   0.800   4.685   5.449  0.4634  0.2655 -0.9936
 1506SOL    HW216155   0.844   0.000   5.583  0.3995 -1.2522 -0.2910
 1507SOL     OW16156   4.679   2.825   1.996 -0.0918 -0.5079 -0.0507
 1507SOL    HW116157   4.639   2.883   1.931  1.4398  0.3578 -0.2097
 1507SOL    HW216158   0.018   2.789   1.948  0.1032  1.7198 -1.4219
 1508SOL     OW16159   1.020   0.581  14.906 -0.5532 -0.0037  0.6571
 1508SOL    HW116160   1.098   0.623  14.943  1.0923 -1.6450 -0.9553
 1508SOL    HW216161   1.060   0.527  14.838  0.3153  0.2890  0.9429
 1509SOL     OW16162   0.438   2.165   0.063 -0.4981  0.3034 -0.4107
 1509SOL    HW116163   0.461   2.223   0.136 -0.5891 -0.5966  0.3327
 1509SOL    HW216164   0.345   2.177   0.042  0.2604  2.2798 -2.7502
 1510SOL     OW16165   1.868   2.043  14.577 -0.3167 -0.1538  0.2116
 1510SOL    HW116166   1.950   2.093  14.571 -0.2960 -0.0815  1.0269
 1510SOL    HW216167   1.848   2.011  14.489  0.9734 -2.9269  0.9086
 1511SOL     OW16168   3.756   2.332   2.266  0.5288  0.0850  0.1052
 1511SOL    HW116169   3.817   2.300   2.199 -0.1763 -0.8739 -0.0835
 1511SOL    HW216170   3.713   2.249   2.286  0.5339  0.1850  0.5443
 1512SOL     OW16171   3.201   4.547   6.252 -0.2259  0.4805 -0.2976
 1512SOL    HW116172   3.120   4.573   6.295  1.1112  0.6051  2.1909
 1512SOL    HW216173   3.257   4.595   6.314 -1.2507 -0.9498  1.7429
 1513SOL     OW16174   0.694   0.889  17.087 -0.7148  0.1707 -0.1785
 1513SOL    HW116175   0.733   0.884  17.174 -0.1937  0.4983 -0.3919
 1513SOL    HW216176   0.671   0.797  17.080 -2.0451  0.3930  1.2766
 1514SOL     OW16177   1.352   1.590   0.853 -0.0533 -0.6106  0.6353
 1514SOL    HW116178   1.266   1.630   0.844  0.7900  0.8837 -0.8139
 1514SOL    HW216179   1.325   1.499   0.861 -0.4451 -0.5652 -0.2382
 1515SOL     OW16180   3.732   3.980   8.976  0.4639  0.1043  0.3948
 1515SOL    HW116181   3.823   3.993   8.948  0.3406 -0.4593 -0.2859
 1515SOL    HW216182   3.706   4.071   8.987 -2.5089 -0.6679 -0.2438
 1516SOL     OW16183   4.008   0.805   8.719 -0.0859  0.5040 -0.3965
 1516SOL    HW116184   4.048   0.882   8.759  0.7731 -1.1531  1.9387
 1516SOL    HW216185   3.995   0.752   8.798 -0.2271  0.0487 -0.7240
 1517SOL     OW16186   2.476   1.390   5.165  0.3868 -0.0775  0.3613
 1517SOL    HW116187   2.530   1.467   5.181 -0.0390  0.2742  0.1110
 1517SOL    HW216188   2.541   1.322   5.185 -0.0512  0.1563  2.5194
 1518SOL     OW16189   0.579   4.310  15.545  0.0008 -0.1711  0.2941
 1518SOL    HW116190   0.520   4.348  15.610  0.2028 -2.6824  1.9153
 1518SOL    HW216191   0.596   4.379  15.480 -0.2831 -1.9249 -1.6409
 1519SOL     OW16192   0.408   2.564   3.724 -0.0900 -0.0035 -0.0646
 1519SOL    HW116193   0.471   2.633   3.746 -0.0100 -0.1058  0.0331
 1519SOL    HW216194   0.425   2.505   3.798  0.0235  0.3095  0.1581
 1520SOL     OW16195   3.696   2.090   5.280  0.3823  0.4904 -0.0456
 1520SOL    HW116196   3.688   1.995   5.286  0.3169  0.4751 -0.3991
 1520SOL    HW216197   3.610   2.111   5.315  0.7305  3.3639 -0.8757
 1521SOL     OW16198   3.195   2.248   8.581 -0.2075 -0.4420  0.0364
 1521SOL    HW116199   3.157   2.187   8.517 -0.8714  0.5142 -0.4882
 1521SOL    HW216200   3.205   2.328   8.529  1.8075  0.1394  1.3195
 1522SOL     OW16201   0.606   1.899   3.235 -0.2575 -0.1164 -0.4574
 1522SOL    HW116202   0.531   1.943   3.193 -1.2213  1.7054  3.1000
 1522SOL    HW216203   0.662   1.976   3.241  1.4802 -1.4725  0.4516
 1523SOL     OW16204   0.317   2.315   1.117 -0.3940  0.3804  0.3203
 1523SOL    HW116205   0.314   2.220   1.131 -2.1067 -0.2193 -4.0551
 1523SOL    HW216206   0.397   2.337   1.166  0.5331  0.8971 -1.4251
 1524SOL     OW16207   2.947   3.094   3.536 -0.1978  0.4587 -0.1147
 1524SOL    HW116208   3.000   3.079   3.458  0.0569 -2.3060  0.6043
 1524SOL    HW216209   2.868   3.044   3.520 -0.5848  0.3757  2.0068
 1525SOL     OW16210   3.498   2.552  13.106  0.2820 -0.2191 -0.1486
 1525SOL    HW116211   3.564   2.484  13.122 -2.5522 -2.5791  1.6552
 1525SOL    HW216212   3.545   2.633  13.088  1.3640 -0.6605  0.6867
 1526SOL     OW16213   3.233   1.030   5.371 -0.4037  0.1728  0.0520
 1526SOL    HW116214   3.268   1.038   5.282  3.8951  1.0982  1.7852
 1526SOL    HW216215   3.255   0.940   5.396 -1.0634  0.0173  0.0607
 1527SOL     OW16216   0.441   2.254   3.332  0.6172  0.1891 -0.0544
 1527SOL    HW116217   0.424   2.335   3.379  0.8695  0.7436 -0.9063
 1527SOL    HW216218   0.476   2.298   3.255 -1.1870 -0.1251 -1.0712
 1528SOL     OW16219   3.993   4.585   9.022 -0.6093 -0.0961 -0.0518
 1528SOL    HW116220   3.964   4.657   9.078  1.2911  0.2654  0.4567
 1528SOL    HW216221   3.949   4.509   9.059  0.2286 -1.0677 -1.0550
 1529SOL     OW16222   2.727   4.601   6.885 -0.3060  0.2913  0.2653
 1529SOL    HW116223   2.672   4.643   6.817 -0.1484  1.5995  0.9448
 1529SOL    HW216224   2.657   4.570   6.942  1.2406 -1.1808  1.3345
 1530SOL     OW16225   3.150   3.824  14.221  0.1255  0.0439 -0.0464
 1530SOL    HW116226   3.245   3.827  14.223  0.1442 -0.7388  0.1862
 1530SOL    HW216227   3.111   3.886  14.159  0.8076  0.6202  0.1093
 1531SOL     OW16228   1.859   3.872   2.526  0.4718 -0.2273 -0.2899
 1531SOL    HW116229   1.915   3.832   2.459 -0.8151  0.9086 -2.0536
 1531SOL    HW216230   1.896   3.960   2.538 -0.2687  0.2635 -1.5153
 1532SOL     OW16231   2.163   0.866   2.373  0.2982 -0.0782  0.2960
 1532SOL    HW116232   2.123   0.833   2.453  2.4823 -1.2940  0.8989
 1532SOL    HW216233   2.246   0.818   2.364  0.1688  0.1050 -1.9811
 1533SOL     OW16234   1.645   2.849   6.125  0.0205  0.0114 -0.3548
 1533SOL    HW116235   1.579   2.865   6.192 -0.1356 -0.3530 -0.4222
 1533SOL    HW216236   1.620   2.911   6.056 -1.3243  0.7142  0.7859
 1534SOL     OW16237   2.601   3.814   2.935 -0.6604 -0.3149 -0.2430
 1534SOL    HW116238   2.599   3.720   2.957 -2.0311  0.3254  2.3431
 1534SOL    HW216239   2.510   3.839   2.949 -0.9616 -2.9720  2.5948
 1535SOL     OW16240   0.347   1.422   8.938  0.2616 -0.0407 -0.2639
 1535SOL    HW116241   0.259   1.433   8.975  0.0304  0.5659 -0.9825
 1535SOL    HW216242   0.324   1.337   8.901  1.2672 -0.4935  0.1602
 1536SOL     OW16243   3.690   3.600   1.808  0.2204 -0.4040 -0.0831
 1536SOL    HW116244   3.600   3.566   1.805 -0.1365  0.6501 -1.5737
 1536SOL    HW216245   3.679   3.672   1.870 -2.2680 -0.9281  0.1063
 1537SOL     OW16246   2.946   1.227   7.242 -0.4734  0.4301 -0.3498
 1537SOL    HW116247   3.031   1.240   7.285 -0.3878  2.4557 -1.1338
 1537SOL    HW216248   2.897   1.266   7.315 -0.5362  0.0936 -0.2164
 1538SOL     OW16249   0.183   1.281   1.033  0.1741 -0.2584 -0.1432
 1538SOL    HW116250   0.094   1.279   0.997  0.7992 -1.8587 -1.6128
 1538SOL    HW216251   0.220   1.207   0.985  2.0195  1.0727 -0.7611
 1539SOL     OW16252   3.768   0.105   2.588  0.4587 -0.0536  0.6238
 1539SOL    HW116253   3.703   0.170   2.562  0.1304 -0.4314  0.4885
 1539SOL    HW216254   3.837   0.159   2.624  1.9433 -2.1023  0.8656
 1540SOL     OW16255   2.913   3.367   0.126 -0.2374 -0.3029  0.0971
 1540SOL    HW116256   2.903   3.434   0.058  0.6399  0.1915  0.4542
 1540SOL    HW216257   2.879   3.286   0.089 -1.5123 -0.8686  2.4888
 1541SOL     OW16258   0.431   4.112   7.040 -0.8198 -0.3711 -0.2899
 1541SOL    HW116259   0.517   4.151   7.028 -1.4601  1.3316  0.6129
 1541SOL    HW216260   0.422   4.122   7.135 -0.4645  0.4449 -0.3436
 1542SOL     OW16261   1.213   0.755   5.070 -0.2290  0.0474 -0.1920
 1542SOL    HW116262   1.220   0.803   5.153  1.5502  0.9403 -0.8697
 1542SOL    HW216263   1.118   0.747   5.068 -0.0458 -2.6144  1.8439
 1543SOL     OW16264   1.130   3.846   7.189 -0.2854 -0.7100 -0.0888
 1543SOL    HW116265   1.223   3.838   7.169 -0.5245  0.1375 -1.5460
 1543SOL    HW216266   1.135   3.858   7.284 -2.1397 -2.6338  0.2409
 1544SOL     OW16267   2.978   3.683   9.290  0.0609  0.0528  0.2553
 1544SOL    HW116268   2.933   3.765   9.268 -0.7003 -0.4801 -0.1896
 1544SOL    HW216269   2.948   3.625   9.219  0.4285  1.6168 -1.1941
 1545SOL     OW16270   3.317   1.735   2.578  0.2893 -0.4038  0.1633
 1545SOL    HW116271   3.375   1.766   2.509 -1.1394 -2.5799 -2.0320
 1545SOL    HW216272   3.382   1.698   2.638 -1.0205 -0.9898  1.2359
 1546SOL     OW16273   3.341   2.859   3.701 -0.2359 -0.4988  0.0289
 1546SOL    HW116274   3.345   2.799   3.627 -0.6794 -0.6286  0.1088
 1546SOL    HW216275   3.399   2.824   3.769  0.0527  0.5693  0.3268
 1547SOL     OW16276   2.606   4.714   0.224 -0.0017 -0.2495 -0.2938
 1547SOL    HW116277   2.586   0.072   0.216  0.6952 -0.1204 -0.4886
 1547SOL    HW216278   2.535   4.679   0.170  2.9662  0.1790 -4.4561
 1548SOL     OW16279   4.527   0.681  13.505 -0.0944  0.1674  0.8008
 1548SOL    HW116280   4.561   0.745  13.443  0.4247 -0.9309 -0.0610
 1548SOL    HW216281   4.545   0.721  13.590  0.9032 -1.1803  1.2173
 1549SOL     OW16282   3.468   0.279   5.675 -0.0448 -0.2807 -0.3544
 1549SOL    HW116283   3.476   0.314   5.586 -0.4741  1.0443  0.1199
 1549SOL    HW216284   3.381   0.304   5.707  0.3817  0.7396  0.0141
 1550SOL     OW16285   3.084   1.185  17.585  0.0496  0.0677  0.1772
 1550SOL    HW116286   3.092   1.131  17.663  4.4689 -1.2750 -1.2454
 1550SOL    HW216287   2.988   1.195  17.582  0.1533  1.0185 -0.0941
 1551SOL     OW16288   4.400   0.349   0.427 -0.0565 -0.2657  0.5449
 1551SOL    HW116289   4.324   0.292   0.413  0.6254 -1.6166  2.2961
 1551SOL    HW216290   4.429   0.352   0.336  1.0401  0.6819  0.9186
 1552SOL     OW16291   4.285   1.779   8.677  0.2392  0.4078 -0.1852
 1552SOL    HW116292   4.213   1.717   8.663  0.8249 -0.2411 -0.3353
 1552SOL    HW216293   4.233   1.858   8.691  1.7775  0.9941  2.3054
 1553SOL     OW16294   1.703   0.705   5.730 -0.1394 -0.2109  0.4245
 1553SOL    HW116295   1.746   0.620   5.718  0.1836 -0.2366  1.6947
 1553SOL    HW216296   1.687   0.703   5.825  1.6238 -0.5872  0.7183
 1554SOL     OW16297   0.711   2.984  16.260  0.0863 -0.0348 -0.2106
 1554SOL    HW116298   0.717   2.892  16.233  0.7085 -0.6766  2.1124
 1554SOL    HW216299   0.765   3.022  16.191  1.0790 -1.9488 -0.4998
 1555SOL     OW16300   1.669   3.216  13.891 -0.3383 -0.2704  0.5622
 1555SOL    HW116301   1.639   3.140  13.942 -0.3330 -0.3603  0.4303
 1555SOL    HW216302   1.736   3.174  13.837  0.7426  1.4193  0.5723
 1556SOL     OW16303   2.109   4.700  17.351  0.1038 -0.2157 -0.0345
 1556SOL    HW116304   2.040   4.721  17.288  1.2200  0.7692 -0.9410
 1556SOL    HW216305   2.148   4.626  17.304  0.0014  0.4433 -1.1502
 1557SOL     OW16306   0.682   2.440  14.654 -0.6393 -0.5476  0.0700
 1557SOL    HW116307   0.624   2.364  14.663 -0.0081 -1.1250 -0.7174
 1557SOL    HW216308   0.695   2.428  14.560 -1.6468 -0.4354 -0.0889
 1558SOL     OW16309   4.593   0.304   4.521  0.5715 -0.6178  0.1894
 1558SOL    HW116310   4.625   0.216   4.500 -1.2955 -1.2123 -0.1963
 1558SOL    HW216311   4.669   0.334   4.570 -0.7631  1.3619  1.0181
 1559SOL     OW16312   0.118   1.901   4.722 -0.0793 -0.7819  0.0200
 1559SOL    HW116313   0.105   1.986   4.765  0.5150 -0.5235 -0.3136
 1559SOL    HW216314   0.157   1.868   4.803 -1.9610  1.0218  1.6629
 1560SOL     OW16315   1.268   1.863   8.101  0.9212 -0.0116  0.0956
 1560SOL    HW116316   1.231   1.778   8.124 -0.3777  0.3133 -0.8214
 1560SOL    HW216317   1.199   1.888   8.040  0.8531  1.1864  0.6665
 1561SOL     OW16318   0.503   3.079  15.101  0.4415  0.4796  0.2311
 1561SOL    HW116319   0.540   3.056  15.187  1.0759 -0.4528 -0.2948
 1561SOL    HW216320   0.436   3.144  15.123  0.9440  0.7234  1.0533
 1562SOL     OW16321   2.530   2.729   7.150  0.2288  0.0922 -0.0525
 1562SOL    HW116322   2.573   2.650   7.117  0.6484  0.6256 -0.8052
 1562SOL    HW216323   2.440   2.700   7.163  0.2590  0.6556  1.3341
 1563SOL     OW16324   0.347   3.013   8.544 -0.4329  0.2393  0.3035
 1563SOL    HW116325   0.422   2.954   8.555 -1.2245 -0.7571  0.3144
 1563SOL    HW216326   0.379   3.098   8.576  0.5948  0.3483 -1.0134
 1564SOL     OW16327   0.472   1.429   0.062  0.1204 -0.0425 -0.1856
 1564SOL    HW116328   0.455   1.433   0.156  3.0085 -0.1538  0.3586
 1564SOL    HW216329   0.474   1.524   0.052 -0.4160 -0.1536 -1.4063
 1565SOL     OW16330   1.482   0.195  14.080 -0.6085 -0.1494  0.7607
 1565SOL    HW116331   1.520   0.179  13.994 -2.0406  2.0202 -0.2687
 1565SOL    HW216332   1.449   0.285  14.072 -0.5831 -0.1202  0.9919
 1566SOL     OW16333   4.324   0.261   5.549  0.2689 -0.1504 -0.4656
 1566SOL    HW116334   4.383   0.189   5.572 -0.9290 -0.6980  0.9400
 1566SOL    HW216335   4.299   0.229   5.462  1.6425  2.1661 -1.6971
 1567SOL     OW16336   4.437   2.745  16.771  0.1969 -0.2128 -0.3744
 1567SOL    HW116337   4.412   2.658  16.802 -3.7063  0.8595 -0.4895
 1567SOL    HW216338   4.480   2.718  16.690  0.6723  0.2932 -0.2908
 1568SOL     OW16339   2.781   2.097   5.514  0.3118  0.1677 -0.6229
 1568SOL    HW116340   2.864   2.140   5.536  0.4851 -1.2923  1.5786
 1568SOL    HW216341   2.766   2.038   5.588 -0.1062  2.5634  1.1978
 1569SOL     OW16342   2.229   0.164   9.009 -0.0999  0.1830 -0.2605
 1569SOL    HW116343   2.278   0.245   8.995  2.7675 -1.4125  0.5641
 1569SOL    HW216344   2.248   0.124   8.924 -2.6217  0.9709 -1.1922
 1570SOL     OW16345   3.418   1.307   8.444  0.1961 -0.9544 -0.3304
 1570SOL    HW116346   3.486   1.360   8.402 -0.5390 -1.1578 -1.7934
 1570SOL    HW216347   3.363   1.371   8.488  1.2247  1.6279 -2.8452
 1571SOL     OW16348   3.015   2.300   2.660 -0.4462  0.5607 -0.1211
 1571SOL    HW116349   3.013   2.296   2.564 -1.2533  0.7171 -0.1136
 1571SOL    HW216350   2.936   2.254   2.690 -1.0526  1.4384 -0.3879
 1572SOL     OW16351   3.060   3.218  16.065  0.2431  0.3263 -0.2820
 1572SOL    HW116352   3.064   3.307  16.101  1.0476  0.9722 -1.9647
 1572SOL    HW216353   3.120   3.165  16.117  1.4530  0.6928 -1.2882
 1573SOL     OW16354   4.596   3.927  14.993  0.2167 -0.1713  0.2170
 1573SOL    HW116355   4.513   3.962  14.961 -0.0293  0.4560  1.5135
 1573SOL    HW216356   4.572   3.874  15.070 -0.8864 -0.1999 -0.1475
 1574SOL     OW16357   1.419   0.857   0.795  0.3131  0.1403  0.1162
 1574SOL    HW116358   1.468   0.939   0.801  1.9945 -1.0084  2.0464
 1574SOL    HW216359   1.335   0.876   0.836  0.5212 -2.4477  1.7568
 1575SOL     OW16360   3.689   0.464   9.164 -0.1784  0.4694  0.4769
 1575SOL    HW116361   3.723   0.412   9.091  0.7271 -1.2038  2.1119
 1575SOL    HW216362   3.599   0.475   9.135 -0.3087  1.9711  1.4131
 1576SOL     OW16363   2.758   1.001   5.512  0.3476 -0.4697  0.0535
 1576SOL    HW116364   2.711   1.080   5.487  0.7942  0.1411  1.1767
 1576SOL    HW216365   2.840   1.021   5.467  0.8589 -0.2581  1.0839
 1577SOL     OW16366   3.459   1.164   1.943 -0.2629 -0.6085 -0.4364
 1577SOL    HW116367   3.525   1.201   1.885  0.0569  1.3269  1.1763
 1577SOL    HW216368   3.405   1.117   1.879 -0.6067  0.9443 -1.2893
 1578SOL     OW16369   0.958   3.628   3.952  0.1854 -0.5356  0.1455
 1578SOL    HW116370   0.933   3.583   4.032 -0.6511 -0.4925 -0.0990
 1578SOL    HW216371   0.996   3.557   3.900 -1.2122 -2.0370  1.1830
 1579SOL     OW16372   3.430   0.190   7.906 -0.9158  0.1154 -0.7045
 1579SOL    HW116373   3.402   0.138   7.830 -0.8171  1.2887 -1.5523
 1579SOL    HW216374   3.525   0.180   7.904 -1.0774 -1.8273  1.3791
 1580SOL     OW16375   3.784   4.626   3.576  0.3777 -0.1773 -0.6870
 1580SOL    HW116376   3.741   4.708   3.602 -1.6974 -1.9960  1.7270
 1580SOL    HW216377   3.763   4.622   3.483 -0.2115  1.1185 -0.5974
 1581SOL     OW16378   3.582   2.271   0.605 -0.3605  0.4367  0.1786
 1581SOL    HW116379   3.636   2.333   0.654  1.8312 -0.9183 -0.5293
 1581SOL    HW216380   3.521   2.336   0.569  1.2993  2.2426  0.5911
 1582SOL     OW16381   0.554   4.634   2.147 -0.7187  0.5564 -0.2374
 1582SOL    HW116382   0.531   4.575   2.075  1.4738 -1.8332  1.0123
 1582SOL    HW216383   0.624   4.584   2.190  0.3419  3.0694  0.9329
 1583SOL     OW16384   2.206   2.878   7.873 -1.0676  0.4219 -0.0396
 1583SOL    HW116385   2.279   2.851   7.928 -1.1573  0.9892  0.3555
 1583SOL    HW216386   2.214   2.973   7.861 -0.7405  0.4031  0.0431
 1584SOL     OW16387   0.593   1.861   4.952  0.4354 -0.4740  0.3300
 1584SOL    HW116388   0.520   1.822   4.904  1.7133 -2.3565 -0.0492
 1584SOL    HW216389   0.582   1.821   5.038 -2.1690  0.8777  0.6416
 1585SOL     OW16390   3.948   2.856  10.425  0.6494 -0.0667  0.0770
 1585SOL    HW116391   4.016   2.918  10.451  0.5731 -0.6618  1.6644
 1585SOL    HW216392   3.994   2.772  10.428  2.5281  0.9338 -0.4863
 1586SOL     OW16393   1.719   3.201   3.693 -0.2587  0.0801  0.2326
 1586SOL    HW116394   1.738   3.185   3.786  0.9234 -1.7976 -0.3368
 1586SOL    HW216395   1.747   3.122   3.648  0.5664  0.7968 -0.5138
 1587SOL     OW16396   0.982   4.659   7.303 -0.7070 -0.4991  0.1693
 1587SOL    HW116397   0.910   4.708   7.262 -2.2513 -1.6200  1.5575
 1587SOL    HW216398   1.044   4.730   7.317 -0.0548 -1.0562  0.1184
 1588SOL     OW16399   3.881   0.945   5.456 -0.2120  0.1967 -0.3444
 1588SOL    HW116400   3.795   0.912   5.429 -0.3494 -0.3560  0.7662
 1588SOL    HW216401   3.926   0.861   5.466 -0.7873 -0.0737  0.0027
 1589SOL     OW16402   1.846   2.295   4.360 -0.3843  0.1722 -0.3166
 1589SOL    HW116403   1.891   2.333   4.285 -3.0876  0.7331 -1.6060
 1589SOL    HW216404   1.753   2.313   4.347 -0.0671  0.8321 -1.6861
 1590SOL     OW16405   2.371   0.757   6.559  0.2349 -0.0193 -0.2287
 1590SOL    HW116406   2.278   0.740   6.568  0.1170  1.4622  1.6418
 1590SOL    HW216407   2.405   0.668   6.566 -0.6779 -0.2101  1.9675
 1591SOL     OW16408   0.876   1.650   4.251 -0.0209 -0.0595 -0.0224
 1591SOL    HW116409   0.815   1.677   4.182  1.7973  1.9795 -0.8372
 1591SOL    HW216410   0.934   1.588   4.206  0.8283  1.7511 -1.4026
 1592SOL     OW16411   1.286   2.049   9.514 -0.2763 -0.3585  0.4052
 1592SOL    HW116412   1.341   2.024   9.440 -0.4325  0.7102 -0.0707
 1592SOL    HW216413   1.297   2.144   9.511  1.9079 -0.6023  0.9930
 1593SOL     OW16414   2.263   0.373   2.371  0.0216  0.2315 -0.0022
 1593SOL    HW116415   2.272   0.357   2.465 -0.8118 -1.4613 -0.1928
 1593SOL    HW216416   2.233   0.285   2.347  1.0524  0.1050 -0.8093
 1594SOL     OW16417   0.548   1.329   9.565  0.2978 -0.6731 -0.3301
 1594SOL    HW116418   0.573   1.370   9.648  0.5232  0.7812 -1.1171
 1594SOL    HW216419   0.615   1.373   9.513 -0.6278  0.9635 -0.1098
 1595SOL     OW16420   0.616   1.359   2.285 -1.0992 -0.0729  0.3903
 1595SOL    HW116421   0.558   1.429   2.315 -1.4187  0.4039 -1.3651
 1595SOL    HW216422   0.668   1.331   2.360  2.5133  1.5614 -1.4790
 1596SOL     OW16423   2.911   3.790  10.849 -0.4170  0.5810 -0.5958
 1596SOL    HW116424   3.000   3.780  10.815 -0.9112 -0.5905 -1.5599
 1596SOL    HW216425   2.938   3.816  10.937 -0.6384 -0.2250 -0.2901
 1597SOL     OW16426   0.933   4.068   1.692  0.1076  0.0833 -0.0068
 1597SOL    HW116427   0.989   3.991   1.681  0.6393  0.6166 -1.0063
 1597SOL    HW216428   0.848   4.035   1.663  1.2971 -2.2779 -0.8541
 1598SOL     OW16429   0.000   0.486   2.684  0.0264  0.1285 -0.1815
 1598SOL    HW116430   4.644   0.461   2.691 -0.0298 -0.1068 -1.8555
 1598SOL    HW216431   0.008   0.535   2.602 -2.8616 -1.8417 -1.6008
 1599SOL     OW16432   0.714   1.201  12.059  0.5640 -0.1214 -0.3225
 1599SOL    HW116433   0.795   1.236  12.097 -0.0846 -2.8536  3.5864
 1599SOL    HW216434   0.662   1.278  12.040  0.6541 -0.1434 -0.6498
 1600SOL     OW16435   0.638   2.532   1.392  0.0740 -0.6574  0.0273
 1600SOL    HW116436   0.696   2.607   1.408 -0.5888 -0.1492  0.0077
 1600SOL    HW216437   0.697   2.477   1.340 -0.6238 -0.3553 -1.0670
 1601SOL     OW16438   0.293   2.176   1.704 -0.0238 -0.1289  0.0395
 1601SOL    HW116439   0.244   2.197   1.625  1.7483  0.7776 -0.8104
 1601SOL    HW216440   0.253   2.096   1.736  3.0326 -2.3506 -1.6605
 1602SOL     OW16441   3.394   1.119   5.112 -0.3108  0.1998 -0.3761
 1602SOL    HW116442   3.477   1.164   5.101 -0.4598  0.1920 -1.5533
 1602SOL    HW216443   3.417   1.034   5.074  0.8503  0.1319  0.4872
 1603SOL     OW16444   3.585   4.209   8.628 -0.4575  0.1417 -0.1374
 1603SOL    HW116445   3.559   4.122   8.596  0.1674  0.0569 -0.4221
 1603SOL    HW216446   3.629   4.248   8.552  0.0350 -2.0612 -0.9841
 1604SOL     OW16447   0.483   3.941   8.297  0.0996  0.5560 -0.2029
 1604SOL    HW116448   0.523   3.965   8.214  0.0348 -2.0626 -0.9733
 1604SOL    HW216449   0.561   3.937   8.353  1.2231  2.9675 -1.5753
 1605SOL     OW16450   2.289   3.136   7.849 -0.1368  0.3072 -0.6036
 1605SOL    HW116451   2.372   3.132   7.897  1.3567 -0.7816 -3.2320
 1605SOL    HW216452   2.229   3.183   7.906 -0.3704 -0.4083 -0.2619
 1606SOL     OW16453   0.041   1.731   2.670  0.0892  0.1541 -0.3111
 1606SOL    HW116454   4.690   1.696   2.651  1.0193 -2.1183 -0.3579
 1606SOL    HW216455   0.014   1.795   2.736  0.6273 -1.2485  1.2623
 1607SOL     OW16456   0.830   3.033   4.232  0.2339  0.2628 -0.0030
 1607SOL    HW116457   0.827   3.005   4.141  0.8565  2.0481 -0.5580
 1607SOL    HW216458   0.789   2.957   4.274  1.7829 -0.6602 -0.1414
 1608SOL     OW16459   1.532   3.782   1.215  0.4546  0.0774 -0.5542
 1608SOL    HW116460   1.470   3.848   1.246  2.0778  0.8202  1.1015
 1608SOL    HW216461   1.517   3.701   1.264 -3.1868  0.4214 -1.1210
 1609SOL     OW16462   2.345   4.715   1.754  0.2021 -0.5018 -0.5614
 1609SOL    HW116463   2.289   0.029   1.693 -0.4823 -0.0855  0.4045
 1609SOL    HW216464   2.429   4.710   1.709  0.7520  0.4365  0.3660
 1610SOL     OW16465   4.366   2.353   1.800 -0.5721  0.2886 -0.0369
 1610SOL    HW116466   4.399   2.289   1.863 -0.6925 -0.8745 -1.1528
 1610SOL    HW216467   4.406   2.431   1.837 -1.9446  0.8085  0.3661
 1611SOL     OW16468   2.416   3.637   8.480  0.1762  0.1023  0.3261
 1611SOL    HW116469   2.506   3.665   8.468 -0.1296  0.6128 -0.8025
 1611SOL    HW216470   2.388   3.627   8.389 -1.8753 -0.0771  0.9811
 1612SOL     OW16471   3.294   2.443   8.933 -0.0135 -0.4171  0.0085
 1612SOL    HW116472   3.304   2.491   9.015  0.2922 -0.4208 -0.0253
 1612SOL    HW216473   3.199   2.445   8.924  0.3352  0.2680 -3.6845
 1613SOL     OW16474   0.122   3.902  14.964  0.4690 -0.0851 -0.5630
 1613SOL    HW116475   0.042   3.943  14.996 -1.3235 -3.3765 -0.9007
 1613SOL    HW216476   0.075   3.820  14.947  0.4165 -0.4880  1.4496
 1614SOL     OW16477   4.536   4.394   5.475  0.5968  0.1589  0.1935
 1614SOL    HW116478   4.619   4.346   5.474  0.3979 -0.2132  0.9354
 1614SOL    HW216479   4.469   4.328   5.455  0.0469  0.9474 -0.5492
 1615SOL     OW16480   2.895   4.362   6.909  0.4405 -0.3883 -0.1272
 1615SOL    HW116481   2.899   4.339   6.816  1.2805 -0.6973 -0.0076
 1615SOL    HW216482   2.836   4.438   6.905 -0.2178 -0.9291 -0.8618
 1616SOL     OW16483   1.877   0.319   2.543 -0.8353 -0.3580  0.1015
 1616SOL    HW116484   1.803   0.364   2.583 -0.3206  0.2283  0.4017
 1616SOL    HW216485   1.833   0.246   2.500  0.7657 -0.1674 -1.8894
 1617SOL     OW16486   0.635   3.197   9.242  0.5683  0.1945 -0.9789
 1617SOL    HW116487   0.676   3.280   9.263  0.8394 -0.9752  3.0548
 1617SOL    HW216488   0.550   3.232   9.215 -0.6900 -4.3212 -3.0080
 1618SOL     OW16489   2.145   2.928   6.549  0.0177  0.1966 -0.0544
 1618SOL    HW116490   2.098   2.947   6.630  0.1628 -1.2916  0.3779
 1618SOL    HW216491   2.123   2.835   6.541 -1.6559  0.6093 -0.1218
 1619SOL     OW16492   3.643   1.025   7.790  0.3593 -0.3308  0.0808
 1619SOL    HW116493   3.618   1.040   7.881 -0.9503 -3.5592  0.2800
 1619SOL    HW216494   3.701   0.949   7.791  0.6100 -0.1332  0.3392
 1620SOL     OW16495   0.564   2.231   5.425  0.3890 -0.4769 -0.3423
 1620SOL    HW116496   0.652   2.235   5.462  0.4799 -1.5716 -0.4335
 1620SOL    HW216497   0.518   2.171   5.484 -1.6613  4.0731  2.7324
 1621SOL     OW16498   2.392   2.801   3.086  0.0530  0.2948 -0.1519
 1621SOL    HW116499   2.370   2.796   2.992  1.9704  1.2698 -0.6348
 1621SOL    HW216500   2.404   2.707   3.103 -3.6335  0.1112  1.5344
 1622SOL     OW16501   4.109   2.285   8.389  0.1014  0.3641  0.1716
 1622SOL    HW116502   4.094   2.235   8.469 -0.4024  0.6614  0.2616
 1622SOL    HW216503   4.178   2.232   8.347 -1.5903 -1.2893 -0.5018
 1623SOL     OW16504   4.520   3.461   5.403 -0.2229 -0.1123 -0.0753
 1623SOL    HW116505   4.531   3.456   5.498 -0.5041  0.4497 -0.0099
 1623SOL    HW216506   4.487   3.550   5.389  0.4617  0.3409  1.2655
 1624SOL     OW16507   1.089   4.675   3.314  0.0109 -0.4059 -0.3765
 1624SOL    HW116508   1.087   4.579   3.323  1.7907 -0.4148 -0.0728
 1624SOL    HW216509   0.995   4.685   3.302  0.0486 -1.9457 -2.0598
 1625SOL     OW16510   0.749   4.465   2.533  0.0162  0.3786 -0.6847
 1625SOL    HW116511   0.820   4.430   2.586 -0.8992 -0.6549 -0.1408
 1625SOL    HW216512   0.684   4.483   2.602  1.3203  3.5599 -0.2723
 1626SOL     OW16513   1.418   0.948  15.651  0.0887  0.3457  0.4118
 1626SOL    HW116514   1.491   0.889  15.667  0.8874  1.5365  1.1365
 1626SOL    HW216515   1.459   1.027  15.614 -0.8677  0.5801 -0.1759
 1627SOL     OW16516   0.250   4.174   5.773  0.4478  0.0495 -0.2628
 1627SOL    HW116517   0.284   4.118   5.843  0.0691  1.9246  1.4103
 1627SOL    HW216518   0.159   4.146   5.757  0.8010 -0.6721 -1.0155
 1628SOL     OW16519   3.650   3.173  15.236 -0.2975  0.3806  0.1234
 1628SOL    HW116520   3.694   3.257  15.226 -1.0110  0.5766 -1.4586
 1628SOL    HW216521   3.639   3.137  15.148 -0.4093  0.6832  0.0135
 1629SOL     OW16522   1.407   4.629   5.933 -0.0080 -0.1724 -0.0223
 1629SOL    HW116523   1.392   4.724   5.941 -1.6095 -0.4824  0.6297
 1629SOL    HW216524   1.326   4.584   5.956  0.2222  0.3919  1.9064
 1630SOL     OW16525   3.914   2.976   1.629  0.0473 -0.0141  0.6102
 1630SOL    HW116526   3.953   3.007   1.547  0.7271 -0.8083  0.6418
 1630SOL    HW216527   3.916   3.062   1.670 -0.9533  1.0332 -1.4758
 1631SOL     OW16528   2.846   4.541  16.822  0.3778  0.2341  0.1371
 1631SOL    HW116529   2.908   4.469  16.826 -0.3385 -0.5072 -1.8312
 1631SOL    HW216530   2.776   4.506  16.766  1.0933 -1.0190  0.0367
 1632SOL     OW16531   4.514   4.509   7.713 -0.0862  0.0942 -0.4286
 1632SOL    HW116532   4.533   4.498   7.619  0.8819 -0.6551 -0.1431
 1632SOL    HW216533   4.598   4.550   7.733 -0.0522 -1.1484  1.9304
 1633SOL     OW16534   1.229   4.487   4.339  0.0158 -0.2013 -0.7616
 1633SOL    HW116535   1.183   4.568   4.317 -2.9169 -1.2623  1.5238
 1633SOL    HW216536   1.318   4.522   4.347 -0.4119  1.0388 -1.4243
 1634SOL     OW16537   0.294   3.179  10.825  0.4999 -0.4783 -0.2474
 1634SOL    HW116538   0.356   3.197  10.895 -0.8443  0.5934  0.6732
 1634SOL    HW216539   0.287   3.265  10.783 -1.8484 -1.4181 -1.8094
 1635SOL     OW16540   1.218   4.320  15.271  0.1964  0.2566  0.1237
 1635SOL    HW116541   1.180   4.237  15.242 -0.7605 -0.3717  3.1701
 1635SOL    HW216542   1.303   4.316  15.228 -0.0645 -1.6959 -0.2113
 1636SOL     OW16543   3.642   2.107   6.553 -0.4019 -0.4792  0.1213
 1636SOL    HW116544   3.707   2.076   6.491 -0.0662 -1.1522  0.8108
 1636SOL    HW216545   3.695   2.126   6.631  1.1194  1.3253 -1.3578
 1637SOL     OW16546   3.852   2.885   8.057  0.5789  0.3448  0.1009
 1637SOL    HW116547   3.910   2.822   8.099 -1.7255 -1.7136  0.1740
 1637SOL    HW216548   3.889   2.886   7.969 -0.8092 -2.2024 -0.4862
 1638SOL     OW16549   2.482   1.591   4.302  0.3008 -0.8438 -0.1737
 1638SOL    HW116550   2.514   1.641   4.378 -1.0308  0.5959 -0.5765
 1638SOL    HW216551   2.472   1.507   4.346 -0.8128  1.0533  3.1785
 1639SOL     OW16552   4.369   0.844   0.698  0.1558 -0.1340 -0.1529
 1639SOL    HW116553   4.286   0.802   0.675 -0.4183  1.9336 -1.7750
 1639SOL    HW216554   4.423   0.812   0.625 -0.4477 -1.3676 -0.0666
 1640SOL     OW16555   2.583   4.032   2.716  0.5274 -0.2474 -0.1014
 1640SOL    HW116556   2.603   3.957   2.772  1.9112 -0.4318 -0.8310
 1640SOL    HW216557   2.665   4.027   2.667  0.1742  3.7621 -1.1615
 1641SOL     OW16558   2.012   0.390  15.612 -0.1770  0.2305  0.7355
 1641SOL    HW116559   2.007   0.295  15.602  2.6311  0.1854 -0.3434
 1641SOL    HW216560   2.083   0.407  15.551 -1.2919  0.2613 -0.5535
 1642SOL     OW16561   2.318   3.873  15.628  0.2550  0.0013  0.3125
 1642SOL    HW116562   2.278   3.819  15.561  0.9536 -1.0097  0.6979
 1642SOL    HW216563   2.412   3.878  15.608  0.2628  0.7839  0.5524
 1643SOL     OW16564   1.543   0.154   4.600 -0.7034  0.4463 -0.1091
 1643SOL    HW116565   1.491   0.076   4.620  0.2717 -0.3771 -0.7874
 1643SOL    HW216566   1.474   0.217   4.619 -1.4880 -0.9237  1.6796
 1644SOL     OW16567   1.474   0.875   3.495  0.4786  0.1430 -0.3801
 1644SOL    HW116568   1.432   0.901   3.577 -0.5608  1.5606 -1.3522
 1644SOL    HW216569   1.532   0.803   3.519 -0.4974 -0.5224 -0.0423
 1645SOL     OW16570   2.624   1.685   7.346  0.2390 -0.2243  0.1970
 1645SOL    HW116571   2.594   1.730   7.267  0.2197 -0.6652 -0.0486
 1645SOL    HW216572   2.713   1.658   7.324 -0.0417 -2.0427  1.3311
 1646SOL     OW16573   3.138   0.747  17.585  0.1878 -0.3110  0.1364
 1646SOL    HW116574   3.170   0.657  17.589  0.2525 -0.2623  0.6506
 1646SOL    HW216575   3.159   0.778  17.673  0.7014  1.9479 -0.7926
 1647SOL     OW16576   1.042   2.417  15.079 -0.2416 -0.4112  0.6293
 1647SOL    HW116577   1.115   2.478  15.073 -1.0966  0.5499 -0.0535
 1647SOL    HW216578   1.088   2.358  15.139  0.7862 -1.7756 -1.4932
 1648SOL     OW16579   2.600   4.046  15.602  0.0445 -0.2491  0.2276
 1648SOL    HW116580   2.585   4.140  15.595  2.8782  0.1395 -0.8409
 1648SOL    HW216581   2.560   4.032  15.688 -0.7299  1.3255  0.1242
 1649SOL     OW16582   1.500   2.398   4.936 -0.2003  0.4655  0.1165
 1649SOL    HW116583   1.443   2.387   4.859 -0.2070 -0.1550  0.2066
 1649SOL    HW216584   1.567   2.332   4.917  0.7440  1.8845 -1.4994
 1650SOL     OW16585   1.687   3.369  10.717  0.1316  0.2617 -0.1380
 1650SOL    HW116586   1.725   3.368  10.630 -2.1429 -1.7891 -1.0992
 1650SOL    HW216587   1.763   3.389  10.771  0.3240 -3.4684  0.9616
 1651SOL     OW16588   2.290   2.619   3.815  0.2423 -0.1807  0.4084
 1651SOL    HW116589   2.302   2.630   3.909  0.7955  0.6692  0.2431
 1651SOL    HW216590   2.349   2.680   3.770  0.7409  0.6680  2.2282
 1652SOL     OW16591   3.677   0.163   0.331 -0.2590  0.3177  0.1116
 1652SOL    HW116592   3.619   0.233   0.301 -0.3729  0.1016 -0.1800
 1652SOL    HW216593   3.635   0.146   0.415 -0.0820  2.0000  0.5406
 1653SOL     OW16594   1.817   1.695  10.160  0.6673 -0.5508 -0.4338
 1653SOL    HW116595   1.765   1.645  10.224  0.9728  1.0110  1.0319
 1653SOL    HW216596   1.871   1.743  10.222 -3.2017  3.0077  0.2106
 1654SOL     OW16597   0.602   3.322   3.256  0.4447  0.5920 -0.3801
 1654SOL    HW116598   0.674   3.304   3.316 -1.2079 -0.6562  1.2598
 1654SOL    HW216599   0.545   3.382   3.304  1.2184  1.3341 -0.3893
 1655SOL     OW16600   0.989   0.254   0.711 -0.0886  0.3640  0.1852
 1655SOL    HW116601   0.947   0.337   0.687  0.3835  0.6447  0.3370
 1655SOL    HW216602   0.945   0.192   0.653 -0.4557  1.2335 -0.4765
 1656SOL     OW16603   4.503   0.802   7.246  0.0052 -0.0422 -0.0062
 1656SOL    HW116604   4.593   0.829   7.229 -0.2001  0.2705 -0.6036
 1656SOL    HW216605   4.499   0.715   7.206 -1.3502 -0.3038  0.7135
 1657SOL     OW16606   2.804   1.009   4.442 -0.4480  0.0346  0.0175
 1657SOL    HW116607   2.840   0.945   4.380 -2.1249 -1.0877  0.2023
 1657SOL    HW216608   2.715   0.978   4.456 -0.4896  0.2301  0.1788
 1658SOL     OW16609   2.965   1.221   7.632 -0.0728 -0.2801  0.0993
 1658SOL    HW116610   2.914   1.198   7.710  2.3786 -0.5397  1.6054
 1658SOL    HW216611   3.018   1.143   7.617  0.6338 -0.3220  2.9448
 1659SOL     OW16612   2.162   2.856   4.319 -0.1394  0.2472 -0.8798
 1659SOL    HW116613   2.105   2.780   4.312 -0.0182  0.2166 -1.5806
 1659SOL    HW216614   2.219   2.828   4.391 -1.0444  3.4797  1.1087
 1660SOL     OW16615   3.353   4.353   4.865  0.7815  0.1069  0.9419
 1660SOL    HW116616   3.381   4.443   4.881  1.0732  0.2029 -0.0853
 1660SOL    HW216617   3.389   4.329   4.780 -2.4281  0.7261 -0.6133
 1661SOL     OW16618   3.263   0.594  13.184 -0.3262  0.0562 -0.3731
 1661SOL    HW116619   3.206   0.613  13.110  1.0085  1.3449 -1.0835
 1661SOL    HW216620   3.299   0.518  13.140  2.7755  0.4213  1.4773
 1662SOL     OW16621   1.651   0.068   9.030 -0.3433  0.1654  0.8965
 1662SOL    HW116622   1.698   4.726   9.000 -1.2594  0.4149 -1.1228
 1662SOL    HW216623   1.561   0.050   9.004  0.7682 -1.4621 -1.8551
 1663SOL     OW16624   3.054   4.052   2.217 -0.2176 -0.4269  0.6462
 1663SOL    HW116625   3.070   4.146   2.229 -0.2357 -0.6501  2.4476
 1663SOL    HW216626   3.070   4.046   2.123 -0.6334 -0.7844  0.5985
 1664SOL     OW16627   4.055   1.618   8.694  0.1240  0.3495 -0.1860
 1664SOL    HW116628   4.045   1.577   8.608  1.7249  3.2815 -1.7863
 1664SOL    HW216629   3.965   1.640   8.716 -0.6426 -2.3209 -0.5853
 1665SOL     OW16630   0.341   4.288   3.854 -0.0221  0.0035  0.2764
 1665SOL    HW116631   0.294   4.205   3.842 -0.8145  0.5693 -0.5284
 1665SOL    HW216632   0.335   4.315   3.763  0.6225 -0.5210  0.0765
 1666SOL     OW16633   4.056   1.488  12.550 -0.3468  0.0749  0.1998
 1666SOL    HW116634   4.030   1.558  12.491 -0.3958  0.3331  0.5311
 1666SOL    HW216635   3.972   1.491  12.595 -0.9602  1.6619 -1.0848
 1667SOL     OW16636   2.141   0.749   3.657 -0.1379 -0.4580 -0.2755
 1667SOL    HW116637   2.065   0.804   3.677  1.3786  2.2192 -1.8722
 1667SOL    HW216638   2.202   0.794   3.716  1.6488 -2.2180 -0.7962
 1668SOL     OW16639   2.518   3.686  11.825  0.2314  0.0971 -0.1057
 1668SOL    HW116640   2.570   3.726  11.755  0.5767 -1.2880 -0.6383
 1668SOL    HW216641   2.433   3.702  11.784 -0.4844 -0.0476  1.3345
 1669SOL     OW16642   3.428   0.492  16.283 -0.2889 -0.0033  0.6589
 1669SOL    HW116643   3.370   0.468  16.211  1.8563  0.0616 -1.1069
 1669SOL    HW216644   3.363   0.488  16.353 -2.7379 -0.8300 -1.6712
 1670SOL     OW16645   2.260   4.652   5.194 -0.4366 -0.0004  0.3045
 1670SOL    HW116646   2.172   4.648   5.156 -0.3607 -1.9108  0.3200
 1670SOL    HW216647   2.308   4.602   5.127  2.4861  1.1816  1.5328
 1671SOL     OW16648   1.437   4.071   1.879  0.0380  0.2910 -0.3521
 1671SOL    HW116649   1.530   4.058   1.863  0.5305  2.2243  0.8971
 1671SOL    HW216650   1.443   4.135   1.951 -1.5695 -1.1692  1.1007
 1672SOL     OW16651   4.320   2.383  16.672 -0.0891 -0.2451  0.0532
 1672SOL    HW116652   4.249   2.358  16.731 -1.5775 -0.2693 -1.7418
 1672SOL    HW216653   4.389   2.382  16.738 -0.4272 -1.2973  0.3840
 1673SOL     OW16654   2.105   1.244  15.177 -0.2301  0.1931 -0.4218
 1673SOL    HW116655   2.191   1.205  15.162 -0.6703 -0.5712 -0.9531
 1673SOL    HW216656   2.136   1.295  15.252  0.2505 -1.1723  0.2952
 1674SOL     OW16657   3.970   2.019   7.614 -0.3617  0.8578  0.3196
 1674SOL    HW116658   3.952   1.975   7.531  0.1853 -1.3660  1.3648
 1674SOL    HW216659   4.060   2.047   7.600 -1.2444  2.4509 -2.0752
 1675SOL     OW16660   1.829   3.893   6.995  0.5837  0.2074  0.1066
 1675SOL    HW116661   1.912   3.866   6.955 -0.5098  0.6373 -2.4810
 1675SOL    HW216662   1.775   3.924   6.922 -0.2131 -0.7554  0.2894
 1676SOL     OW16663   2.829   0.607   1.694  0.4333 -0.1845  0.3731
 1676SOL    HW116664   2.759   0.623   1.757  1.1396  0.6990  0.9442
 1676SOL    HW216665   2.791   0.531   1.649 -1.4156  0.9492  0.0560
 1677SOL     OW16666   4.507   0.989  14.772  0.9320 -0.3046 -0.3283
 1677SOL    HW116667   4.532   0.904  14.809 -0.0435 -1.0950 -1.4725
 1677SOL    HW216668   4.589   1.032  14.749  1.7404 -2.1077 -0.7671
 1678SOL     OW16669   0.546   0.597   0.532 -0.4863  0.1562  0.3746
 1678SOL    HW116670   0.599   0.676   0.523  0.2474 -0.5336 -1.4772
 1678SOL    HW216671   0.512   0.613   0.620  0.3940 -0.1781  0.7795
 1679SOL     OW16672   2.739   3.908  13.925 -0.4462 -0.3076 -0.1599
 1679SOL    HW116673   2.800   3.856  13.977  0.1264  0.6519  0.1206
 1679SOL    HW216674   2.670   3.923  13.990  0.0203  0.2411  0.2027
 1680SOL     OW16675   0.639   2.422   7.427  0.7758  0.1889  0.3247
 1680SOL    HW116676   0.652   2.469   7.344  1.4055  0.7562  0.7445
 1680SOL    HW216677   0.566   2.469   7.466 -0.4955  2.0918 -4.3262
 1681SOL     OW16678   4.582   1.774  12.964  0.7863 -0.0131  0.1905
 1681SOL    HW116679   4.580   1.736  12.876  0.7142  0.5604 -0.0581
 1681SOL    HW216680   4.664   1.823  12.971  0.9756 -0.2953 -0.0584
 1682SOL     OW16681   1.612   2.566   4.125 -0.0652 -0.3369 -0.4498
 1682SOL    HW116682   1.581   2.486   4.166  0.5020 -0.7475 -0.8346
 1682SOL    HW216683   1.568   2.569   4.040 -1.8306  0.9187  0.5028
 1683SOL     OW16684   3.194   3.738   4.985 -0.1874  0.2020 -0.0548
 1683SOL    HW116685   3.180   3.744   4.890  0.9633  1.3363 -0.1511
 1683SOL    HW216686   3.284   3.770   4.988 -0.6604  1.6878 -1.5182
 1684SOL     OW16687   4.116   4.383   2.317 -0.3218 -0.4058  0.2031
 1684SOL    HW116688   4.075   4.342   2.241 -0.4581 -1.4872  0.8598
 1684SOL    HW216689   4.048   4.358   2.380 -0.8860 -0.8224 -0.5711
 1685SOL     OW16690   2.453   2.844   5.391  0.0066 -0.0286  0.2193
 1685SOL    HW116691   2.428   2.777   5.328 -0.7039  1.1949 -0.8041
 1685SOL    HW216692   2.372   2.844   5.441 -1.1509  2.5237 -1.6935
 1686SOL     OW16693   2.340   3.611  14.228  0.4322  0.2869 -0.1224
 1686SOL    HW116694   2.323   3.517  14.233  0.4573  0.3461  0.9535
 1686SOL    HW216695   2.404   3.606  14.157  3.3706 -0.6456  2.6202
 1687SOL     OW16696   0.701   0.905   7.996 -0.0296  0.2680  0.6530
 1687SOL    HW116697   0.688   0.840   7.927 -1.4781  0.6049  0.5922
 1687SOL    HW216698   0.762   0.860   8.054  0.4589  2.2624  1.7021
 1688SOL     OW16699   1.458   1.978  13.885  0.2990  0.5118 -0.2644
 1688SOL    HW116700   1.388   1.964  13.948  2.1337  1.0670  1.9148
 1688SOL    HW216701   1.411   1.971  13.802  0.4832 -0.0382 -0.3216
 1689SOL     OW16702   2.579   3.776  11.326 -0.1764 -0.3409 -0.5758
 1689SOL    HW116703   2.636   3.852  11.337  0.0203 -0.3492 -1.5145
 1689SOL    HW216704   2.647   3.720  11.290 -1.0131 -0.9544 -1.2133
 1690SOL     OW16705   1.593   3.167  13.391  0.2081  0.2819 -0.3986
 1690SOL    HW116706   1.687   3.155  13.405  0.0364 -1.1251 -0.4019
 1690SOL    HW216707   1.553   3.097  13.444  2.1818 -0.1699  0.5017
 1691SOL     OW16708   4.643   4.675  16.398  0.3479 -0.3115 -0.4535
 1691SOL    HW116709   4.656   0.029  16.432 -2.8714 -1.8348  4.8834
 1691SOL    HW216710   4.554   4.692  16.368  0.2021 -1.1406 -0.4699
 1692SOL     OW16711   3.787   3.876   4.593  0.5421 -0.0086  0.1829
 1692SOL    HW116712   3.878   3.857   4.613  1.0808  2.4506 -0.0192
 1692SOL    HW216713   3.747   3.790   4.582  0.7749 -0.1774  0.6377
 1693SOL     OW16714   3.603   2.718   6.810  0.7271  0.1406 -0.3116
 1693SOL    HW116715   3.569   2.714   6.720  0.2830 -1.0118 -0.0992
 1693SOL    HW216716   3.651   2.635   6.819  0.7367  0.2566  0.6983
 1694SOL     OW16717   0.341   2.413   5.440 -0.2305 -0.0597 -0.5840
 1694SOL    HW116718   0.435   2.394   5.448 -0.1672  0.1424 -0.8392
 1694SOL    HW216719   0.334   2.430   5.346  0.2607 -0.1190 -0.6330
 1695SOL     OW16720   0.563   1.079   1.496  0.2602 -0.1024  0.2672
 1695SOL    HW116721   0.476   1.048   1.472 -0.2462 -0.1466  2.2051
 1695SOL    HW216722   0.608   0.994   1.502  1.4179  0.5871  1.3524
 1696SOL     OW16723   1.162   3.644   3.159  0.1925 -0.2294  0.1694
 1696SOL    HW116724   1.142   3.555   3.130 -1.5109  0.1839  0.0846
 1696SOL    HW216725   1.091   3.659   3.222 -0.1310  0.8286 -0.4392
 1697SOL     OW16726   2.993   3.787   6.426  0.1521  0.3415  0.7456
 1697SOL    HW116727   3.023   3.825   6.343 -1.4014  0.3479  0.1836
 1697SOL    HW216728   3.062   3.820   6.483  0.5041  0.3825  0.3006
 1698SOL     OW16729   4.714   2.123  12.299  0.7644 -0.4592  0.3756
 1698SOL    HW116730   0.005   2.103  12.209 -1.2703 -0.8833 -0.1246
 1698SOL    HW216731   4.694   2.041  12.343 -1.2334  0.4665  1.1555
 1699SOL     OW16732   0.761   0.569   2.675 -0.3994  0.0884  0.4884
 1699SOL    HW116733   0.822   0.545   2.746  0.9847  0.5619 -0.5550
 1699SOL    HW216734   0.718   0.640   2.723 -0.2750  0.4621  0.0376
 1700SOL     OW16735   2.018   1.019   8.141 -0.3390 -0.3441 -0.0816
 1700SOL    HW116736   2.004   1.037   8.049 -2.3368  2.1035  0.6995
 1700SOL    HW216737   1.955   0.948   8.153  1.9546 -2.5620 -1.0024
 1701SOL     OW16738   3.471   4.292   4.637 -0.2481  0.3740  0.2188
 1701SOL    HW116739   3.495   4.349   4.564  0.4340  0.3441  0.4237
 1701SOL    HW216740   3.558   4.255   4.653 -1.0696 -1.3131  0.8343
 1702SOL     OW16741   1.494   4.183   7.153 -0.2742  0.0637  0.1989
 1702SOL    HW116742   1.510   4.169   7.059 -2.3388 -1.8543  0.1346
 1702SOL    HW216743   1.500   4.093   7.185 -0.6713  0.8495  2.4669
 1703SOL     OW16744   1.961   2.736   4.548  0.2489 -0.0313  0.5604
 1703SOL    HW116745   2.000   2.656   4.513 -0.0074  0.6733 -1.3419
 1703SOL    HW216746   1.937   2.696   4.632 -2.2035  2.0607  0.8425
 1704SOL     OW16747   4.457   2.741   5.556  0.0008 -0.6459  0.1240
 1704SOL    HW116748   4.468   2.743   5.461  0.3003  0.8128  0.1974
 1704SOL    HW216749   4.361   2.744   5.560 -0.0241 -0.0586 -0.9714
 1705SOL     OW16750   3.142   0.594   2.872  0.1383 -0.7991 -0.4775
 1705SOL    HW116751   3.058   0.629   2.843  0.3607 -0.4144 -0.6569
 1705SOL    HW216752   3.212   0.637   2.823 -2.8087  2.2133 -2.0822
 1706SOL     OW16753   3.754   3.653   3.230 -0.2654  0.1926  0.6239
 1706SOL    HW116754   3.674   3.603   3.214 -1.2293  1.9044  0.0945
 1706SOL    HW216755   3.794   3.620   3.311  0.2679  0.2683  0.3963
 1707SOL     OW16756   4.540   1.106   5.083 -0.6421  0.4034  0.5222
 1707SOL    HW116757   4.479   1.049   5.130  0.4469 -0.6177  0.7001
 1707SOL    HW216758   4.623   1.057   5.091 -1.5510 -1.0348  1.3172
 1708SOL     OW16759   0.636   2.364  11.367 -0.5632  0.0710 -0.1722
 1708SOL    HW116760   0.716   2.362  11.419  0.4657  1.1446 -1.7005
 1708SOL    HW216761   0.633   2.275  11.331 -0.2162 -0.1251  0.2839
 1709SOL     OW16762   3.267   0.482   6.293  0.8043  0.3117  0.0449
 1709SOL    HW116763   3.349   0.531   6.288  2.2563 -2.2540 -1.2570
 1709SOL    HW216764   3.207   0.549   6.326 -2.2748 -2.2310 -0.3530
 1710SOL     OW16765   3.494   4.620   3.008 -0.0265 -0.1081  0.3892
 1710SOL    HW116766   3.573   4.666   2.979  1.4321 -2.7204  0.3082
 1710SOL    HW216767   3.442   4.628   2.927  1.0107 -0.3751 -0.2995
 1711SOL     OW16768   4.195   0.813   4.354  0.0209 -0.1475  0.3123
 1711SOL    HW116769   4.212   0.719   4.346 -0.9524 -0.3830  1.0127
 1711SOL    HW216770   4.283   0.836   4.384  0.4189 -3.8615  2.0291
 1712SOL     OW16771   4.506   0.164   3.389  0.4739 -0.1095 -0.0620
 1712SOL    HW116772   4.482   0.256   3.399 -0.7584 -0.3536 -0.8498
 1712SOL    HW216773   4.542   0.162   3.300  0.3145 -1.2302 -0.0938
 1713SOL     OW16774   3.420   1.062   8.547  0.0051 -0.0437  0.2565
 1713SOL    HW116775   3.509   1.085   8.573  0.3401 -1.4847  0.3945
 1713SOL    HW216776   3.390   1.149   8.522  1.0369  0.4605  0.8082
 1714SOL     OW16777   0.233   1.452   8.397 -1.0507  0.3540  0.2714
 1714SOL    HW116778   0.247   1.495   8.482 -2.2356  1.2652  0.0243
 1714SOL    HW216779   0.308   1.492   8.353 -0.3163 -2.6234 -1.1177
 1715SOL     OW16780   4.498   2.631   3.748  0.3116 -0.3495  0.1982
 1715SOL    HW116781   4.500   2.636   3.843  1.4388  3.3668 -0.0214
 1715SOL    HW216782   4.469   2.719   3.724  1.2207 -0.3642 -0.9614
 1716SOL     OW16783   2.311   0.889  12.307  0.0453 -0.5180 -0.4339
 1716SOL    HW116784   2.354   0.858  12.386 -0.6008 -2.7159 -0.9548
 1716SOL    HW216785   2.377   0.953  12.278 -0.3512 -0.7690 -1.9180
 1717SOL     OW16786   2.419   0.940  16.768 -0.0563 -0.5448  0.3063
 1717SOL    HW116787   2.374   0.857  16.781 -0.7733 -0.5612 -2.2264
 1717SOL    HW216788   2.408   0.955  16.674  2.2690 -2.0838 -0.1881
 1718SOL     OW16789   3.176   3.366  12.233  0.0994 -0.2724  0.4089
 1718SOL    HW116790   3.145   3.404  12.150  3.3810  2.9614  0.6898
 1718SOL    HW216791   3.174   3.272  12.220 -0.6893 -0.4055  1.4491
 1719SOL     OW16792   1.821   3.533   8.783  0.2848 -0.0731 -0.0983
 1719SOL    HW116793   1.732   3.546   8.815  1.0377 -0.1695  1.9918
 1719SOL    HW216794   1.804   3.471   8.712 -1.3420 -0.7680  0.9150
 1720SOL     OW16795   3.889   0.789  12.645 -0.2288  0.2605 -0.1731
 1720SOL    HW116796   3.849   0.875  12.632 -0.3665  0.0837 -0.8933
 1720SOL    HW216797   3.966   0.787  12.589  0.1068 -0.1780  0.3093
 1721SOL     OW16798   2.753   2.156   2.614 -0.0049 -0.1409  0.1397
 1721SOL    HW116799   2.762   2.252   2.610  1.1553 -0.2236  0.6119
 1721SOL    HW216800   2.700   2.144   2.535 -0.5979 -0.7966  0.6411
 1722SOL     OW16801   4.698   0.922   1.905  0.7387 -0.3305  0.0882
 1722SOL    HW116802   4.635   0.978   1.861 -0.9384 -0.6480  2.1107
 1722SOL    HW216803   4.699   0.854   1.838  1.5588 -1.4407  1.2250
 1723SOL     OW16804   0.760   2.117  16.721  0.2428 -0.1033  0.0376
 1723SOL    HW116805   0.725   2.150  16.804  0.7417  2.0849 -0.6161
 1723SOL    HW216806   0.678   2.104  16.673  2.0109 -1.4474 -2.6657
 1724SOL     OW16807   2.828   3.732   1.594  0.2857 -0.2659 -0.2562
 1724SOL    HW116808   2.793   3.670   1.658  0.6437 -0.9320 -0.7044
 1724SOL    HW216809   2.905   3.679   1.575  0.7772  0.7231 -1.0036
 1725SOL     OW16810   2.530   2.678  15.269 -0.3508 -0.6444  0.1721
 1725SOL    HW116811   2.490   2.621  15.203 -0.2029 -0.3327 -0.1862
 1725SOL    HW216812   2.477   2.757  15.274  2.0305  0.9526  0.4795
 1726SOL     OW16813   2.180   2.856   9.301 -0.6541  0.0408  0.4191
 1726SOL    HW116814   2.114   2.799   9.341  1.0890 -0.6463  2.3362
 1726SOL    HW216815   2.243   2.793   9.266 -1.2146 -1.2833  1.8022
 1727SOL     OW16816   0.439   0.447   9.608 -0.2765  0.2764  0.4959
 1727SOL    HW116817   0.437   0.540   9.586  2.0965  0.2595  0.2482
 1727SOL    HW216818   0.345   0.434   9.594 -0.0204 -0.0684 -0.8523
 1728SOL     OW16819   1.570   1.731   2.269 -0.1223  0.4186  0.0694
 1728SOL    HW116820   1.664   1.744   2.281  0.3388 -2.2016 -0.7253
 1728SOL    HW216821   1.548   1.807   2.215  1.4121  0.5552 -0.3703
 1729SOL     OW16822   0.011   2.698   4.335  0.3760  0.6853 -0.2859
 1729SOL    HW116823   0.020   2.608   4.366  1.1141  0.8078 -0.1360
 1729SOL    HW216824   0.103   2.712   4.314  0.9052 -2.5583 -0.1510
 1730SOL     OW16825   3.987   1.128  14.233  0.1162 -0.5124 -0.1624
 1730SOL    HW116826   3.976   1.052  14.290 -1.4149 -1.0205 -1.1141
 1730SOL    HW216827   4.080   1.150  14.241  0.4138 -1.8991  0.0966
 1731SOL     OW16828   2.841   1.807  14.871 -0.2761 -0.1593  0.5728
 1731SOL    HW116829   2.892   1.884  14.895 -0.3587 -0.2804  1.1264
 1731SOL    HW216830   2.883   1.794  14.785 -2.4510  3.4954 -1.0298
 1732SOL     OW16831   0.384   2.973   1.837 -0.1844 -0.0988  0.1164
 1732SOL    HW116832   0.402   2.890   1.793 -1.3243 -0.1619 -0.2438
 1732SOL    HW216833   0.290   2.986   1.821 -0.6405 -0.2645  2.6432
 1733SOL     OW16834   4.060   4.297   6.008 -0.2484  0.3081  0.2284
 1733SOL    HW116835   4.100   4.222   6.052 -0.4825 -1.0822 -1.8981
 1733SOL    HW216836   3.976   4.313   6.051 -1.5921  1.6047 -2.8715
 1734SOL     OW16837   1.148   2.501   6.381 -0.6992 -0.1391  0.4220
 1734SOL    HW116838   1.119   2.576   6.434 -0.6421 -0.0684  0.3532
 1734SOL    HW216839   1.066   2.452   6.372 -1.5828  1.2736  0.7829
 1735SOL     OW16840   0.354   3.049  16.127 -0.5603 -0.1572  0.0472
 1735SOL    HW116841   0.321   3.096  16.051 -0.6472 -1.1606 -0.5271
 1735SOL    HW216842   0.379   3.125  16.181 -1.7840  0.9410 -0.9299
 1736SOL     OW16843   0.288   1.243   0.249 -0.4201  0.2853  0.1205
 1736SOL    HW116844   0.276   1.229   0.155  1.8889  2.4338 -0.5009
 1736SOL    HW216845   0.262   1.153   0.266  0.3442  0.2308  0.9508
 1737SOL     OW16846   3.741   3.572  14.969  0.1148 -0.4585 -0.2155
 1737SOL    HW116847   3.682   3.579  14.894 -0.2364 -1.2776 -0.0173
 1737SOL    HW216848   3.768   3.664  14.977 -0.8075 -0.0737 -1.6143
 1738SOL     OW16849   3.185   1.079   4.503  0.4311  0.3618  0.3013
 1738SOL    HW116850   3.243   1.155   4.501 -0.6710  1.2221  1.2213
 1738SOL    HW216851   3.188   1.072   4.598  1.3107 -1.0850  0.1698
 1739SOL     OW16852   2.248   1.075   8.307  0.4464  0.3728 -0.4751
 1739SOL    HW116853   2.172   1.039   8.262  0.1780  1.2163 -0.6984
 1739SOL    HW216854   2.301   0.995   8.302  2.2249  1.7767 -4.0270
 1740SOL     OW16855   2.962   4.468  12.065  0.6229  0.1311 -0.2007
 1740SOL    HW116856   2.955   4.459  11.970 -0.3145 -0.7299 -0.0585
 1740SOL    HW216857   3.044   4.517  12.072  0.8202 -0.2508  0.1607
 1741SOL     OW16858   3.276   3.450   3.206 -0.0494  0.6445 -0.1360
 1741SOL    HW116859   3.324   3.387   3.260 -0.5415  1.0046  0.7186
 1741SOL    HW216860   3.189   3.422   3.234  0.6632 -0.2625  1.1842
 1742SOL     OW16861   4.101   1.132   3.011  0.3256 -0.1857 -0.1378
 1742SOL    HW116862   4.042   1.058   2.997 -0.9431  0.7752  0.1850
 1742SOL    HW216863   4.090   1.147   3.105  2.4740 -0.9779  0.2584
 1743SOL     OW16864   1.392   3.126   3.438 -0.0744  0.1268 -0.5210
 1743SOL    HW116865   1.402   3.150   3.346 -0.5391  1.6841 -0.1746
 1743SOL    HW216866   1.351   3.040   3.433  0.4379 -0.0610 -1.4027
 1744SOL     OW16867   1.826   4.709   3.703 -0.0596  0.5241 -0.0338
 1744SOL    HW116868   1.747   4.655   3.702  1.0488 -1.0951 -0.1875
 1744SOL    HW216869   1.894   4.644   3.686 -0.4411  0.1057  0.0383
 1745SOL     OW16870   2.618   0.198  11.351  0.4313  0.4615  0.0983
 1745SOL    HW116871   2.667   0.204  11.269 -0.6293  0.2376 -0.5508
 1745SOL    HW216872   2.532   0.223  11.318 -0.0932  2.0963  2.7119
 1746SOL     OW16873   1.461   4.305  13.703 -0.5140  0.1854 -1.2613
 1746SOL    HW116874   1.471   4.270  13.792 -1.5772 -1.3511 -1.7420
 1746SOL    HW216875   1.454   4.224  13.653  0.4987  0.8029 -2.4036
 1747SOL     OW16876   1.955   0.339  11.250 -0.3018 -0.0528  0.8568
 1747SOL    HW116877   1.883   0.387  11.291  0.0949  2.3880 -1.3172
 1747SOL    HW216878   1.902   0.315  11.174 -0.5144 -0.4154  1.1213
 1748SOL     OW16879   1.433   0.279   3.883  0.0139  0.2010  0.1984
 1748SOL    HW116880   1.501   0.226   3.842 -1.3221 -0.6677 -0.8740
 1748SOL    HW216881   1.492   0.352   3.900  1.2422 -0.2625 -2.1561
 1749SOL     OW16882   2.335   1.175   5.630 -0.4348 -0.2827 -0.4938
 1749SOL    HW116883   2.245   1.178   5.661 -0.2681  0.5384 -0.0720
 1749SOL    HW216884   2.377   1.130   5.703 -2.0735  1.1663  1.3529
 1750SOL     OW16885   2.768   2.548   3.156 -0.0510  0.5857 -0.3601
 1750SOL    HW116886   2.850   2.574   3.198  0.7592 -4.1734  0.9710
 1750SOL    HW216887   2.704   2.589   3.213  0.5658  0.3187  0.5171
 1751SOL     OW16888   0.205   0.202   1.709 -0.6712  0.3191  0.0099
 1751SOL    HW116889   0.129   0.197   1.767 -0.1160 -1.0754  0.6238
 1751SOL    HW216890   0.222   0.109   1.695  2.7688  0.8102  1.0470
 1752SOL     OW16891   1.328   1.823   2.684 -0.5556 -0.1934 -0.5467
 1752SOL    HW116892   1.297   1.744   2.728 -2.8177 -0.7329 -3.1455
 1752SOL    HW216893   1.319   1.791   2.594 -1.5916 -1.5673  0.0453
 1753SOL     OW16894   4.169   0.605   2.415  0.0714 -0.7955 -0.1502
 1753SOL    HW116895   4.245   0.547   2.409 -0.5504 -1.4256 -1.8626
 1753SOL    HW216896   4.154   0.623   2.323 -0.7457  0.4624  0.2202
 1754SOL     OW16897   0.315   1.608   6.356 -0.3251  0.2506 -0.0261
 1754SOL    HW116898   0.329   1.633   6.265 -1.0662 -0.4411 -0.3197
 1754SOL    HW216899   0.406   1.593   6.383  0.3856  2.3263 -1.2737
 1755SOL     OW16900   4.441   4.131   7.082  0.3819  0.1710 -0.0670
 1755SOL    HW116901   4.441   4.052   7.028  0.6894  0.4504 -0.4776
 1755SOL    HW216902   4.527   4.127   7.122 -0.4771  1.3775  1.9086
 1756SOL     OW16903   0.720   2.129   4.969  0.4785 -0.0713  0.1832
 1756SOL    HW116904   0.673   2.049   4.946  2.3047 -0.2015 -3.1155
 1756SOL    HW216905   0.648   2.187   4.992  1.3510  0.7466  0.8305
 1757SOL     OW16906   2.238   1.716   1.955 -0.0828  0.1783 -0.1660
 1757SOL    HW116907   2.152   1.750   1.978  0.6175  1.3205  0.7449
 1757SOL    HW216908   2.285   1.796   1.980  0.3136 -0.6744  1.8270
 1758SOL     OW16909   2.609   3.925   2.399  0.2666 -0.0852  0.3754
 1758SOL    HW116910   2.668   3.861   2.359 -0.9355 -2.0088  1.7393
 1758SOL    HW216911   2.655   3.947   2.480  1.6169 -0.8892 -0.1688
 1759SOL     OW16912   1.694   3.408   4.146 -0.4832 -0.6912  0.2938
 1759SOL    HW116913   1.637   3.366   4.210 -0.6999  0.6542  0.9828
 1759SOL    HW216914   1.644   3.389   4.067 -1.8672 -0.8013  1.1966
 1760SOL     OW16915   1.166   1.049   1.624  0.3120 -0.4748  0.1351
 1760SOL    HW116916   1.155   0.990   1.699 -3.0791  1.6719  1.3007
 1760SOL    HW216917   1.096   1.034   1.562  0.7457  0.9846 -0.7153
 1761SOL     OW16918   2.347   0.301   0.905 -0.0916  0.2429 -0.4918
 1761SOL    HW116919   2.328   0.221   0.954  0.6100  0.2671 -0.1822
 1761SOL    HW216920   2.302   0.280   0.823 -0.7192 -0.5435  0.0598
 1762SOL     OW16921   3.484   0.340  17.341  0.9365  0.3361 -0.1059
 1762SOL    HW116922   3.490   0.326  17.436 -1.4899 -1.4761 -0.2421
 1762SOL    HW216923   3.453   0.252  17.321  2.1377  0.1298 -1.0334
 1763SOL     OW16924   4.340   2.628   7.150 -0.2206  0.5309  0.2762
 1763SOL    HW116925   4.420   2.665   7.113 -1.1023  2.1980  0.0463
 1763SOL    HW216926   4.387   2.576   7.215  0.1293  0.3214 -0.1456
 1764SOL     OW16927   0.046   0.748   4.260 -0.1734 -0.3897 -0.5659
 1764SOL    HW116928   0.132   0.706   4.265 -0.6213 -1.5001 -2.0594
 1764SOL    HW216929   0.036   0.746   4.164  2.4006  3.0538 -0.8967
 1765SOL     OW16930   4.669   4.481   4.008  0.1697 -0.1266 -0.3325
 1765SOL    HW116931   4.576   4.503   4.001 -0.0672 -0.7719  0.9027
 1765SOL    HW216932   4.702   4.506   3.921  0.5738 -1.3747 -0.5325
 1766SOL     OW16933   3.983   1.180   6.660  0.3250  0.0226  0.4135
 1766SOL    HW116934   4.015   1.227   6.582 -2.1869  0.7974 -0.1460
 1766SOL    HW216935   3.929   1.111   6.622 -1.6568  2.5356 -1.2988
 1767SOL     OW16936   2.501   2.736  13.108  0.2399  0.2660 -0.3344
 1767SOL    HW116937   2.536   2.654  13.074  0.4114 -0.0302  0.5783
 1767SOL    HW216938   2.408   2.717  13.120  1.0143 -1.7033  2.5692
 1768SOL     OW16939   3.409   0.768   6.266 -0.2102  0.0359 -0.6864
 1768SOL    HW116940   3.410   0.798   6.175 -2.4287  0.4813 -0.5492
 1768SOL    HW216941   3.314   0.768   6.278 -0.2206 -0.6361 -0.7585
 1769SOL     OW16942   1.021   2.124   8.429  0.1859  0.0123 -0.8049
 1769SOL    HW116943   0.963   2.061   8.472  1.2402  0.5050  1.3520
 1769SOL    HW216944   1.025   2.068   8.352 -1.2824 -0.2861 -0.6728
 1770SOL     OW16945   0.096   3.644  13.682  0.1131 -0.4093  0.4041
 1770SOL    HW116946   0.057   3.590  13.613 -0.0223 -1.4667  1.3056
 1770SOL    HW216947   0.136   3.576  13.736  0.2240  0.4274  1.3621
 1771SOL     OW16948   4.121   4.498  16.079 -0.5151 -0.3079  0.8064
 1771SOL    HW116949   4.141   4.536  16.165 -0.4953 -1.5120  1.3464
 1771SOL    HW216950   4.084   4.575  16.036 -1.9801 -1.8155 -0.6585
 1772SOL     OW16951   0.696   1.975   8.660 -0.6932  0.0226 -0.1040
 1772SOL    HW116952   0.754   1.938   8.593  0.1699  1.8610 -0.3599
 1772SOL    HW216953   0.669   1.889   8.694 -0.2687  0.6033  1.6608
 1773SOL     OW16954   4.486   1.346   7.620  0.2473 -0.2196  0.2331
 1773SOL    HW116955   4.544   1.417   7.649 -1.1054  0.2020  1.8732
 1773SOL    HW216956   4.467   1.309   7.706  1.2114 -0.6662  0.2483
 1774SOL     OW16957   3.695   4.187   7.037 -0.2067 -0.6475  0.6191
 1774SOL    HW116958   3.787   4.162   7.041  0.0840  0.3214  0.0792
 1774SOL    HW216959   3.698   4.260   7.100  0.6383 -0.6533  0.5742
 1775SOL     OW16960   1.449   0.051   4.108 -0.1772  0.2043 -0.1209
 1775SOL    HW116961   1.483   0.065   4.196 -1.0874  1.2943  0.0573
 1775SOL    HW216962   1.455   0.138   4.069  2.2062  1.2699  2.7001
 1776SOL     OW16963   4.482   4.477   5.043  0.5708 -0.7211  0.7531
 1776SOL    HW116964   4.404   4.474   4.986  0.6638  1.5865  0.5242
 1776SOL    HW216965   4.436   4.532   5.106 -1.5057 -0.3983 -1.0109
 1777SOL     OW16966   2.340   1.021   7.915  0.2189  0.3695  0.5382
 1777SOL    HW116967   2.386   1.011   7.998  2.2042 -1.5421 -0.8139
 1777SOL    HW216968   2.411   1.055   7.860 -1.3568 -2.1360 -3.0776
 1778SOL     OW16969   2.550   4.063  13.015  0.4146 -0.6081 -0.3010
 1778SOL    HW116970   2.496   4.057  13.094 -0.2218  1.8301 -0.5504
 1778SOL    HW216971   2.527   4.142  12.966  0.7434  0.8878  1.9513
 1779SOL     OW16972   0.109   0.327   2.298 -0.1349  0.3031 -0.4735
 1779SOL    HW116973   0.018   0.326   2.329  0.1186  0.2179  0.2640
 1779SOL    HW216974   0.157   0.346   2.379 -0.7269 -0.3362  0.0251
 1780SOL     OW16975   2.614   0.575   8.885 -0.4040  0.0899  0.4191
 1780SOL    HW116976   2.611   0.644   8.951 -0.0489  0.7270 -0.2307
 1780SOL    HW216977   2.705   0.549   8.901  0.4758  0.8897 -3.1312
 1781SOL     OW16978   4.652   1.805  12.062 -0.0338 -0.5653  0.3168
 1781SOL    HW116979   4.586   1.865  12.097  2.5127  0.5397  3.2814
 1781SOL    HW216980   4.720   1.859  12.023 -0.7917  1.3551  1.6196
 1782SOL     OW16981   1.101   1.828  14.796  0.3969  0.3654  0.3125
 1782SOL    HW116982   1.114   1.770  14.871  1.7647 -1.6722 -1.5000
 1782SOL    HW216983   1.193   1.835  14.772 -0.0072  0.3130 -1.2789
 1783SOL     OW16984   2.240   0.265   0.645  0.4850  0.4108 -0.0949
 1783SOL    HW116985   2.224   0.231   0.557  0.2664 -0.0874  0.1363
 1783SOL    HW216986   2.237   0.356   0.616  0.7323  0.5907  0.4463
 1784SOL     OW16987   1.057   0.289  12.316  0.0165  0.0345 -0.5138
 1784SOL    HW116988   1.139   0.278  12.267 -0.9996 -0.8053 -2.0201
 1784SOL    HW216989   1.079   0.279  12.408  0.7737  2.0391 -0.4701
 1785SOL     OW16990   4.639   0.258   0.535  0.0378 -0.0324 -0.5079
 1785SOL    HW116991   4.562   0.264   0.479 -2.1927 -5.7474  1.9397
 1785SOL    HW216992   4.642   0.348   0.567 -0.4096 -0.8753  1.8933
 1786SOL     OW16993   2.791   2.230  13.344 -0.0106  0.1801  0.2492
 1786SOL    HW116994   2.739   2.297  13.301  0.4150  2.4178  3.2141
 1786SOL    HW216995   2.861   2.213  13.282 -1.2060 -0.4794 -0.9130
 1787SOL     OW16996   1.689   1.454   5.967  0.5694  0.0865  0.2607
 1787SOL    HW116997   1.715   1.401   6.042  1.2945 -0.9000 -0.6884
 1787SOL    HW216998   1.682   1.543   6.002 -2.1908 -0.3418  0.7925
 1788SOL     OW16999   2.921   2.501   6.748 -0.1469 -0.2837 -0.0204
 1788SOL    HW117000   2.917   2.450   6.668 -2.3897  1.0634 -0.7379
 1788SOL    HW217001   3.014   2.523   6.758 -0.1169 -1.1246  1.6150
 1789SOL     OW17002   1.030   3.072   3.279 -0.2268  0.0569  0.3804
 1789SOL    HW117003   1.033   2.976   3.280  0.5104  0.0881  1.2066
 1789SOL    HW217004   1.031   3.090   3.185  0.2150  1.0531  0.5839
 1790SOL     OW17005   3.986   0.653  11.180 -0.8809 -0.4043 -0.3662
 1790SOL    HW117006   4.035   0.717  11.128 -0.3600  1.7678  2.8299
 1790SOL    HW217007   3.904   0.657  11.131 -2.3397 -0.1647  2.1136
 1791SOL     OW17008   0.016   1.615   9.332  1.0495  0.4031  0.0137
 1791SOL    HW117009   4.715   1.695   9.295  0.1632 -0.6646 -1.4174
 1791SOL    HW217010   0.052   1.639   9.418  0.5326 -2.2283  0.9772
 1792SOL     OW17011   3.077   3.033   3.317  0.3791  0.0690 -0.1416
 1792SOL    HW117012   3.072   3.044   3.222  2.6359  0.3401 -0.2300
 1792SOL    HW217013   3.037   2.946   3.327 -2.4156  1.5928  2.0414
 1793SOL     OW17014   1.453   0.155  12.581 -0.1832  0.1451  0.5444
 1793SOL    HW117015   1.431   0.066  12.605  0.0789 -0.1699 -0.3647
 1793SOL    HW217016   1.460   0.186  12.671  1.7417 -0.4379  0.5868
 1794SOL     OW17017   3.051   1.129  16.768 -0.0864 -0.3825 -0.0996
 1794SOL    HW117018   3.003   1.198  16.722 -2.6738 -2.7837 -1.0213
 1794SOL    HW217019   3.062   1.183  16.847 -0.6424 -0.9063  0.3402
 1795SOL     OW17020   1.795   0.486   8.789 -0.4362 -0.2181  0.0887
 1795SOL    HW117021   1.732   0.513   8.722 -0.3711 -1.4665 -0.4684
 1795SOL    HW217022   1.784   0.391   8.791  0.2826 -0.2745  1.6886
 1796SOL     OW17023   0.576   4.457  10.857  0.1025 -0.2407  0.5814
 1796SOL    HW117024   0.640   4.496  10.798 -0.2462  0.5453  0.7299
 1796SOL    HW217025   0.628   4.381  10.882  0.3901  0.0237  0.7876
 1797SOL     OW17026   2.669   0.627   0.883 -0.2045 -0.5507 -0.3201
 1797SOL    HW117027   2.636   0.691   0.821  0.9042  0.4210  0.1016
 1797SOL    HW217028   2.636   0.549   0.837 -1.7697 -0.2828  0.3543
 1798SOL     OW17029   4.295   2.118   8.286  0.0434 -0.0811 -0.0184
 1798SOL    HW117030   4.295   2.073   8.202 -1.4692  1.8176 -1.0575
 1798SOL    HW217031   4.305   2.044   8.346 -3.5603 -1.7965 -1.5131
 1799SOL     OW17032   4.293   1.892   3.542  0.4779  0.0311  0.3280
 1799SOL    HW117033   4.301   1.982   3.576 -0.0320  0.3984 -0.5185
 1799SOL    HW217034   4.256   1.914   3.457  2.2415 -1.7198 -0.8940
 1800SOL     OW17035   0.003   2.341   2.064 -0.4370 -0.7979 -0.1505
 1800SOL    HW117036   0.024   2.410   2.127 -2.9595 -0.5252  0.4159
 1800SOL    HW217037   0.068   2.370   2.000 -1.9982  2.0303 -0.4457
 1801SOL     OW17038   1.289   2.843   8.176  0.2374  0.1020  0.1334
 1801SOL    HW117039   1.343   2.880   8.107 -0.3498 -1.4199 -1.1326
 1801SOL    HW217040   1.263   2.765   8.127  1.8961 -0.0276 -0.5189
 1802SOL     OW17041   0.717   0.025   4.097  0.2479 -0.0656 -0.0225
 1802SOL    HW117042   0.672   0.065   4.171 -1.6368  1.4673 -1.9813
 1802SOL    HW217043   0.663   0.055   4.024  1.0512  0.8777 -0.2394
 1803SOL     OW17044   0.760   1.609   6.408  0.1817 -0.6344  0.1408
 1803SOL    HW117045   0.800   1.633   6.492  0.1888 -0.2664  0.0355
 1803SOL    HW217046   0.839   1.595   6.356  2.3103 -0.1867  3.2847
 1804SOL     OW17047   1.984   1.062   2.588 -0.4058 -0.0548 -0.0484
 1804SOL    HW117048   2.038   1.050   2.666  1.0863  2.6430 -0.6822
 1804SOL    HW217049   1.995   0.974   2.551 -1.9621 -0.6294  0.8867
 1805SOL     OW17050   2.546   4.215  15.106  0.0305  0.5666 -0.1821
 1805SOL    HW117051   2.571   4.146  15.168  4.5560 -0.3190 -2.9665
 1805SOL    HW217052   2.469   4.173  15.067 -0.4470  0.6432  0.6925
 1806SOL     OW17053   0.506   4.494   3.908  0.0338 -0.1782 -0.3996
 1806SOL    HW117054   0.582   4.438   3.922  1.1110  0.7656 -2.4289
 1806SOL    HW217055   0.446   4.422   3.887 -0.2344  0.5957 -2.3371
 1807SOL     OW17056   4.566   0.181   6.441 -0.1489 -0.1591  0.5263
 1807SOL    HW117057   4.504   0.240   6.399 -0.1286 -0.0280  0.6811
 1807SOL    HW217058   4.547   0.103   6.388 -1.9686  1.8747 -1.8427
 1808SOL     OW17059   3.188   1.270   7.394 -0.1368  0.2674  0.1908
 1808SOL    HW117060   3.240   1.246   7.471 -2.4489  1.0051  1.9667
 1808SOL    HW217061   3.214   1.362   7.383  0.4258 -0.1188 -1.7819
 1809SOL     OW17062   3.915   4.260   2.451  0.0923 -0.5574 -0.1013
 1809SOL    HW117063   3.858   4.310   2.510  0.2431 -1.3546  0.7251
 1809SOL    HW217064   3.866   4.181   2.427 -0.6046 -0.5364  1.2673
 1810SOL     OW17065   4.003   4.221   2.966  0.0198 -0.5375 -0.0955
 1810SOL    HW117066   4.036   4.260   3.047 -1.3478 -0.0716  0.2356
 1810SOL    HW217067   4.071   4.260   2.912  0.0824 -2.3717 -1.3272
 1811SOL     OW17068   0.309   1.640  15.423 -0.0810 -0.1683 -0.1944
 1811SOL    HW117069   0.369   1.708  15.455  0.1966 -0.3739 -0.2814
 1811SOL    HW217070   0.342   1.620  15.335 -0.5108 -2.0377  0.0698
 1812SOL     OW17071   2.737   3.192   9.136 -0.1362  0.7952  0.2016
 1812SOL    HW117072   2.668   3.200   9.070 -2.8027 -1.8371  2.6767
 1812SOL    HW217073   2.687   3.222   9.213 -1.0681  1.3785 -0.6315
 1813SOL     OW17074   4.294   1.986   7.512  0.1207  0.6905 -0.9273
 1813SOL    HW117075   4.313   1.987   7.418 -2.4166  1.4124 -1.4243
 1813SOL    HW217076   4.244   2.067   7.512 -0.2706  0.4511  0.7265
 1814SOL     OW17077   2.139   0.689   3.377  0.7452  0.0000 -0.2127
 1814SOL    HW117078   2.224   0.715   3.341  0.7845 -0.3858 -0.4046
 1814SOL    HW217079   2.145   0.702   3.471 -0.7480  0.3349 -0.1764
 1815SOL     OW17080   2.640   2.562   6.202  0.4412  0.3721 -0.1007
 1815SOL    HW117081   2.614   2.472   6.219 -1.9058  0.8849 -1.0665
 1815SOL    HW217082   2.594   2.609   6.271 -0.9922 -2.0427  0.5612
 1816SOL     OW17083   3.039   0.022   1.839 -0.3118  0.5022 -0.3493
 1816SOL    HW117084   3.040   0.098   1.781  0.1381  1.6116  1.1098
 1816SOL    HW217085   2.957   4.710   1.824 -1.2425  2.6920 -2.1730
 1817SOL     OW17086   4.324   2.801  10.060 -0.5513 -0.6691  0.6776
 1817SOL    HW117087   4.367   2.756   9.988  0.7667  0.1784  0.9302
 1817SOL    HW217088   4.394   2.810  10.125 -0.0643 -0.2011  0.0898
 1818SOL     OW17089   4.155   1.260   9.088  0.6388  0.3205 -0.0802
 1818SOL    HW117090   4.161   1.302   9.002  1.9037  2.3900  1.0567
 1818SOL    HW217091   4.245   1.230   9.097 -0.3711 -2.9674 -0.6129
 1819SOL     OW17092   4.312   0.375   5.925 -0.0395  0.3250 -0.1990
 1819SOL    HW117093   4.312   0.413   5.837  0.8784 -1.1107 -0.8311
 1819SOL    HW217094   4.353   0.290   5.905  2.2155  1.4532 -0.4057
 1820SOL     OW17095   4.044   1.396   6.147 -0.4450 -0.0029  0.4123
 1820SOL    HW117096   4.092   1.411   6.065  0.4637 -0.3991  0.8701
 1820SOL    HW217097   3.969   1.455   6.136  0.4160  0.9254 -0.5395
 1821SOL     OW17098   1.882   2.152   2.667  0.2178 -0.3390  0.1743
 1821SOL    HW117099   1.960   2.100   2.648 -0.3471 -0.3103 -2.2526
 1821SOL    HW217100   1.824   2.109   2.604  1.0429 -1.2724  0.0513
 1822SOL     OW17101   4.639   0.305   7.543 -0.3812 -0.3699 -0.1225
 1822SOL    HW117102   4.546   0.327   7.546 -0.2778  0.0828 -0.2181
 1822SOL    HW217103   4.644   0.356   7.462 -1.7725  1.6082  1.0482
 1823SOL     OW17104   1.428   1.202   6.250 -0.5133 -0.1843 -0.0980
 1823SOL    HW117105   1.461   1.169   6.333 -0.0900 -0.1297 -0.2425
 1823SOL    HW217106   1.494   1.268   6.228  0.2743 -0.5765  1.1047
 1824SOL     OW17107   3.288   1.893   5.955 -0.6161 -0.7629 -0.0913
 1824SOL    HW117108   3.202   1.880   5.996  0.0455 -2.0767  0.8967
 1824SOL    HW217109   3.356   1.845   6.003 -0.8644  0.6828  1.7199
 1825SOL     OW17110   0.206   2.988   6.978 -0.0643 -0.3689  0.2988
 1825SOL    HW117111   0.228   2.900   6.948 -2.5945 -0.6054 -0.8717
 1825SOL    HW217112   0.238   2.972   7.066 -1.1623 -2.0783  0.3956
 1826SOL     OW17113   0.807   3.307   2.027  0.0737 -0.0966 -0.1377
 1826SOL    HW117114   0.741   3.239   2.014 -0.0362  0.1231 -0.7279
 1826SOL    HW217115   0.773   3.387   2.068  1.3995  0.5032 -0.2220
 1827SOL     OW17116   2.187   0.564   5.275 -0.4866  0.1848 -0.1388
 1827SOL    HW117117   2.134   0.616   5.336  0.2522  2.3135 -1.3167
 1827SOL    HW217118   2.122   0.531   5.213 -1.5129  0.8678  0.5769
 1828SOL     OW17119   1.777   3.770   3.197  0.4137 -0.4300  0.2768
 1828SOL    HW117120   1.720   3.699   3.166 -2.6262  2.2402 -0.2858
 1828SOL    HW217121   1.761   3.773   3.291  0.1809 -2.0860  0.2844
 1829SOL     OW17122   0.873   1.883   6.255 -0.1166  0.3546 -0.7910
 1829SOL    HW117123   0.946   1.882   6.193  2.3493  1.7116  2.0358
 1829SOL    HW217124   0.913   1.845   6.333  0.7728 -1.8951 -2.3377
 1830SOL     OW17125   2.879   2.993  15.668  0.3229 -0.0509 -0.0244
 1830SOL    HW117126   2.873   3.067  15.729  1.1688  0.1183 -0.1464
 1830SOL    HW217127   2.972   2.997  15.646  0.4270 -0.4992  0.3267
 1831SOL     OW17128   0.728   1.640   8.185 -0.2512  0.3744 -0.1473
 1831SOL    HW117129   0.757   1.610   8.099  2.4545 -1.1329  1.3097
 1831SOL    HW217130   0.665   1.703   8.150  0.7410  0.0724 -2.4207
 1832SOL     OW17131   4.295   0.164  10.106 -0.2385 -0.3380  0.2389
 1832SOL    HW117132   4.333   0.105  10.042 -0.0380 -0.0728  0.1136
 1832SOL    HW217133   4.271   0.100  10.173  0.7095 -1.5480 -0.6026
 1833SOL     OW17134   3.840   3.379   8.516  0.2375 -0.0800 -0.0250
 1833SOL    HW117135   3.784   3.305   8.538 -0.9855  1.3162  1.6241
 1833SOL    HW217136   3.783   3.435   8.463  2.1977  2.2722  0.3565
 1834SOL     OW17137   0.950   0.272  15.463  0.2801 -0.2993 -0.3315
 1834SOL    HW117138   0.896   0.195  15.482 -1.3267  1.2404  1.2432
 1834SOL    HW217139   0.992   0.267  15.549  2.2749 -1.5765 -1.3848
 1835SOL     OW17140   2.033   4.315   9.438 -0.2146  0.2589  0.4548
 1835SOL    HW117141   2.031   4.408   9.415 -0.8679 -0.0757 -0.8469
 1835SOL    HW217142   1.952   4.283   9.397  0.9975 -0.0170 -1.7017
 1836SOL     OW17143   2.421   1.478  16.402 -0.1688  0.0484  0.3447
 1836SOL    HW117144   2.514   1.474  16.382  0.0066  1.2432  0.9353
 1836SOL    HW217145   2.418   1.572  16.422  1.0005  0.0639  0.4231
 1837SOL     OW17146   2.850   0.504  10.028 -0.1444 -0.0940  0.7113
 1837SOL    HW117147   2.866   0.494   9.934  0.5623  3.4548  0.4282
 1837SOL    HW217148   2.927   0.458  10.062 -0.4963 -0.0700  1.5139
 1838SOL     OW17149   0.049   1.743   9.820 -0.4876 -0.0951  0.0386
 1838SOL    HW117150   0.068   1.665   9.871  1.6507  0.8637  0.7124
 1838SOL    HW217151   4.695   1.777   9.832 -1.2827 -2.3272  0.3281
 1839SOL     OW17152   1.133   4.720   8.899  0.1395  0.3221 -0.4612
 1839SOL    HW117153   1.049   4.722   8.853 -1.3931 -1.7598  2.2541
 1839SOL    HW217154   1.131   4.631   8.934 -1.5807  0.0397 -1.2559
 1840SOL     OW17155   3.571   0.393   6.860 -0.0237  0.3692  0.6443
 1840SOL    HW117156   3.572   0.487   6.841 -1.6290  0.0281 -1.1705
 1840SOL    HW217157   3.506   0.396   6.930 -0.6917  0.7593  0.0162
 1841SOL     OW17158   2.422   2.729   8.405 -0.0035 -0.0003  0.2454
 1841SOL    HW117159   2.369   2.672   8.461 -0.3871 -0.3618 -0.4836
 1841SOL    HW217160   2.498   2.671   8.401  0.1435  0.1082  1.6973
 1842SOL     OW17161   2.280   4.255   7.507 -0.0251  0.1626  0.5384
 1842SOL    HW117162   2.208   4.260   7.444 -0.2514 -0.6336  0.7359
 1842SOL    HW217163   2.246   4.191   7.570  0.7851  1.3199  2.1610
 1843SOL     OW17164   2.799   3.235   8.251  1.1621  0.3236  0.4316
 1843SOL    HW117165   2.845   3.231   8.335  0.0559  2.5941  1.1656
 1843SOL    HW217166   2.711   3.259   8.281  1.8138  2.0759  0.9627
 1844SOL     OW17167   3.876   3.515   3.461 -0.5830 -0.6997 -0.5340
 1844SOL    HW117168   3.939   3.449   3.434  2.5394  0.8582  2.9290
 1844SOL    HW217169   3.933   3.565   3.519 -2.9916  0.6549  0.6877
 1845SOL     OW17170   2.506   1.149   7.714 -0.2300 -0.2639  0.3921
 1845SOL    HW117171   2.532   1.084   7.649  1.0516 -0.1007  0.7356
 1845SOL    HW217172   2.506   1.233   7.667  0.2191 -0.4763  0.0124
 1846SOL     OW17173   1.371   4.503   1.162 -0.1724 -0.4762  0.4467
 1846SOL    HW117174   1.298   4.457   1.204 -0.8136 -0.5436 -0.7492
 1846SOL    HW217175   1.441   4.437   1.162  0.4719  0.2072  0.4319
 1847SOL     OW17176   4.544   2.780   7.021 -0.1172 -0.1167  0.7441
 1847SOL    HW117177   4.621   2.785   6.965  0.2165  0.1627  1.2254
 1847SOL    HW217178   4.558   2.858   7.075 -0.0753  0.1056  0.4116
 1848SOL     OW17179   1.202   1.257  14.765  0.4588 -0.8405  0.5277
 1848SOL    HW117180   1.283   1.206  14.757  0.4813 -0.9458  1.3686
 1848SOL    HW217181   1.226   1.321  14.832 -0.8846  1.0889 -0.8390
 1849SOL     OW17182   3.992   3.418   4.664 -0.5118 -0.2747  0.2520
 1849SOL    HW117183   4.064   3.467   4.624 -1.4675  0.4960 -0.5215
 1849SOL    HW217184   3.925   3.428   4.596 -0.7311 -1.1706  0.3422
 1850SOL     OW17185   0.930   3.351   5.632  0.0862  0.0262 -0.3572
 1850SOL    HW117186   0.965   3.437   5.655  0.8916 -0.8423  1.6753
 1850SOL    HW217187   1.008   3.304   5.602 -0.7532 -0.7706 -1.2616
 1851SOL     OW17188   2.365   3.324   2.969 -0.2663  0.2649  0.3581
 1851SOL    HW117189   2.414   3.254   2.923 -0.2354  0.4560  0.0977
 1851SOL    HW217190   2.425   3.342   3.041  1.3376 -0.0514 -0.8840
 1852SOL     OW17191   3.321   0.458   8.184 -0.2240 -0.7791 -0.4082
 1852SOL    HW117192   3.286   0.370   8.168  1.3989 -1.8173  1.7325
 1852SOL    HW217193   3.403   0.442   8.137  1.0489  0.4627  1.3687
 1853SOL     OW17194   3.151   0.708   7.745  0.1596  0.3752  0.1223
 1853SOL    HW117195   3.166   0.614   7.752 -1.4565  0.1655  0.8358
 1853SOL    HW217196   3.211   0.739   7.813  1.1374  0.4712 -0.7910
 1854SOL     OW17197   4.701   4.043  11.328 -0.1674 -0.1495 -0.2396
 1854SOL    HW117198   4.712   4.032  11.423 -1.7943  1.7399  0.1722
 1854SOL    HW217199   4.612   4.076  11.317 -0.0067  0.1163 -0.7186
 1855SOL     OW17200   1.312   0.778  12.394  0.0630 -0.6341  0.0813
 1855SOL    HW117201   1.247   0.713  12.421  0.4924 -1.5944 -1.1918
 1855SOL    HW217202   1.308   0.763  12.299  0.8748  1.1548 -0.2295
 1856SOL     OW17203   2.288   4.141  15.582 -0.3106  0.1737  0.1023
 1856SOL    HW117204   2.267   4.051  15.607  3.3715 -0.9726 -0.9541
 1856SOL    HW217205   2.228   4.147  15.507  0.5855  1.0278 -0.5420
 1857SOL     OW17206   0.428   0.489  16.586 -0.3716  0.5066  0.0752
 1857SOL    HW117207   0.484   0.485  16.508 -0.7519  1.5315 -0.2538
 1857SOL    HW217208   0.498   0.520  16.644  1.3129 -1.3675 -0.9671
 1858SOL     OW17209   0.474   2.604   8.328  0.7092  0.4781  0.5846
 1858SOL    HW117210   0.533   2.644   8.264  0.4733 -0.8451 -0.4492
 1858SOL    HW217211   0.530   2.549   8.383 -0.0603 -2.1967 -1.3426
 1859SOL     OW17212   3.211   0.435   7.735  0.2198  0.1753 -0.0176
 1859SOL    HW117213   3.174   0.436   7.647 -1.4314 -0.2787  0.6687
 1859SOL    HW217214   3.285   0.377   7.714 -1.1538 -1.7867  0.5399
 1860SOL     OW17215   1.415   1.140   2.833  0.8309 -0.2318  0.1470
 1860SOL    HW117216   1.504   1.119   2.864 -0.1135 -2.5420  1.3525
 1860SOL    HW217217   1.417   1.233   2.815 -0.6054 -0.0552  0.9192
 1861SOL     OW17218   0.866   4.231   9.199 -0.4074 -0.1147 -0.3255
 1861SOL    HW117219   0.891   4.323   9.191 -1.2975 -0.0264 -2.2048
 1861SOL    HW217220   0.935   4.200   9.257  0.3951 -0.8097 -1.6321
 1862SOL     OW17221   4.631   0.856   7.802  0.3136  0.1843 -0.0427
 1862SOL    HW117222   4.560   0.845   7.738  0.9752  1.4594 -0.9864
 1862SOL    HW217223   4.584   0.880   7.882  0.2768 -0.2319  0.0581
 1863SOL     OW17224   4.027   2.306   3.106 -0.6830  0.2326 -0.4794
 1863SOL    HW117225   3.979   2.234   3.067  0.1451 -0.6198  0.0683
 1863SOL    HW217226   4.069   2.341   3.028 -2.0711 -0.0830 -1.3588
 1864SOL     OW17227   3.393   3.430  17.375  0.3228  0.2977  0.2248
 1864SOL    HW117228   3.301   3.436  17.403  0.7722  1.1616  1.5025
 1864SOL    HW217229   3.436   3.495  17.430  0.3269  0.9281 -0.5339
 1865SOL     OW17230   2.055   1.364   4.814 -0.5531  0.1744 -0.4657
 1865SOL    HW117231   2.105   1.330   4.740  0.3020 -0.5885  0.4643
 1865SOL    HW217232   2.126   1.388   4.873  0.6485 -0.5081 -1.6332
 1866SOL     OW17233   0.782   2.348   8.718 -0.4670 -0.4509 -0.3786
 1866SOL    HW117234   0.774   2.439   8.746  0.8608 -0.7726  1.0323
 1866SOL    HW217235   0.839   2.363   8.642 -2.3246 -2.3605 -2.1513
 1867SOL     OW17236   0.717   2.472  13.037 -0.1208  0.1396 -0.0006
 1867SOL    HW117237   0.655   2.475  12.964 -0.7998 -0.0415  0.5650
 1867SOL    HW217238   0.770   2.398  13.009 -0.3293 -0.8253  2.1445
 1868SOL     OW17239   1.826   0.625   3.362  0.2399 -0.4455 -0.2682
 1868SOL    HW117240   1.762   0.670   3.416  0.1255  1.1005 -1.6855
 1868SOL    HW217241   1.899   0.655   3.415 -0.6576 -1.5019  1.5470
 1869SOL     OW17242   1.528   0.317   7.193  0.0922 -0.4620 -0.5406
 1869SOL    HW117243   1.488   0.381   7.134 -0.0039 -2.0457 -2.2230
 1869SOL    HW217244   1.517   0.353   7.281  3.5600  1.3737 -0.8589
 1870SOL     OW17245   4.709   4.070   3.396  0.2512 -0.8816 -0.3795
 1870SOL    HW117246   4.682   4.162   3.392  0.1456 -0.8386  1.1820
 1870SOL    HW217247   4.649   4.027   3.335  0.2772 -1.4358 -0.0140
 1871SOL     OW17248   4.530   2.059   9.558 -0.5643 -0.1369 -0.1557
 1871SOL    HW117249   4.487   2.116   9.622 -0.0212 -1.7298  1.6289
 1871SOL    HW217250   4.618   2.057   9.593 -0.2887 -3.3476 -1.0064
 1872SOL     OW17251   2.564   0.633  12.006  0.1077 -0.4196 -0.1095
 1872SOL    HW117252   2.629   0.599  11.944 -1.1555 -2.8191 -0.1402
 1872SOL    HW217253   2.624   0.663  12.074  1.6344 -0.1714 -1.5630
 1873SOL     OW17254   2.838   0.695   0.306  0.8074 -0.0811 -0.4633
 1873SOL    HW117255   2.772   0.764   0.306 -0.8030 -1.6317  0.1006
 1873SOL    HW217256   2.841   0.666   0.215 -2.4017 -1.2446 -0.1734
 1874SOL     OW17257   0.169   0.499   1.781 -0.3476  0.1302  0.1253
 1874SOL    HW117258   0.234   0.492   1.851 -0.6481 -0.8427  0.3059
 1874SOL    HW217259   0.207   0.463   1.701  0.8980  1.2311  0.2147
 1875SOL     OW17260   1.236   3.874   9.324 -0.4838  0.4556  0.6497
 1875SOL    HW117261   1.285   3.826   9.391  1.0356  1.3257  0.1784
 1875SOL    HW217262   1.178   3.929   9.375 -1.6241 -1.2182  1.1431
 1876SOL     OW17263   2.207   2.417   7.330 -0.2217 -0.3038  0.0289
 1876SOL    HW117264   2.161   2.464   7.399  0.0130 -2.1992  1.4580
 1876SOL    HW217265   2.262   2.356   7.378 -0.4352 -1.3797 -1.0845
 1877SOL     OW17266   1.480   2.698  15.303  0.4225 -0.2152 -0.3479
 1877SOL    HW117267   1.511   2.780  15.341  2.0222 -0.2703 -1.5317
 1877SOL    HW217268   1.504   2.714  15.212 -1.8476  0.4508 -0.8352
 1878SOL     OW17269   1.728   0.182   7.620 -0.2554 -0.3605 -0.0296
 1878SOL    HW117270   1.728   0.137   7.704 -0.1559  0.9104  0.6517
 1878SOL    HW217271   1.634   0.190   7.602 -0.0499 -0.8482 -1.3588
 1879SOL     OW17272   2.018   1.538   6.341 -0.3509 -0.5917  0.6302
 1879SOL    HW117273   2.062   1.462   6.377  1.6417  0.1110 -0.3243
 1879SOL    HW217274   2.055   1.543   6.252 -1.2398  1.6036  0.3785
 1880SOL     OW17275   3.936   2.891   6.234 -0.2326  0.5404  0.0597
 1880SOL    HW117276   4.012   2.854   6.280 -2.0732 -1.5169  1.4725
 1880SOL    HW217277   3.890   2.929   6.309 -0.6903 -2.1159  1.1221
 1881SOL     OW17278   0.848   0.290   6.158  0.3015 -0.7525 -0.1073
 1881SOL    HW117279   0.778   0.231   6.184 -0.0116 -0.4775 -0.3273
 1881SOL    HW217280   0.881   0.316   6.244 -1.3070 -2.6441  1.0885
 1882SOL     OW17281   1.114   1.612   6.636 -0.4531  0.3201  1.1008
 1882SOL    HW117282   1.130   1.663   6.716  0.7423  1.2432  0.2849
 1882SOL    HW217283   1.176   1.540   6.642  0.8018  1.2418 -1.0284
 1883SOL     OW17284   3.774   2.690  12.929  0.7316  0.0047  0.5261
 1883SOL    HW117285   3.804   2.720  12.844 -0.0510 -1.2758 -0.2067
 1883SOL    HW217286   3.749   2.599  12.914 -2.9727  1.0493  0.2482
 1884SOL     OW17287   3.898   1.944   3.780  0.4339  0.2479 -0.2771
 1884SOL    HW117288   3.952   2.002   3.834 -0.8040  1.2093 -0.0498
 1884SOL    HW217289   3.808   1.976   3.789  0.1794 -0.8063  0.9391
 1885SOL     OW17290   1.829   0.459   3.682 -0.6483 -0.1299  0.2158
 1885SOL    HW117291   1.814   0.373   3.720  1.5028 -0.1718  0.9632
 1885SOL    HW217292   1.738   0.469   3.652 -0.1528  2.2078 -0.4980
 1886SOL     OW17293   0.997   2.744   9.775  0.5703  0.7663 -0.0804
 1886SOL    HW117294   1.076   2.741   9.829  0.4229 -0.8695  0.0171
 1886SOL    HW217295   0.926   2.714   9.831  0.3790  0.1836 -0.6416
 1887SOL     OW17296   3.122   0.761   0.592 -0.3266  0.2496  0.2037
 1887SOL    HW117297   3.030   0.786   0.603 -0.7940 -0.4288 -2.2520
 1887SOL    HW217298   3.119   0.755   0.497  0.6518  0.2972  0.1763
 1888SOL     OW17299   1.500   2.704   9.601 -0.2834  0.0005  0.1751
 1888SOL    HW117300   1.536   2.777   9.652 -0.9611  0.6108 -0.2342
 1888SOL    HW217301   1.554   2.711   9.522  1.9745 -1.1616  1.6015
 1889SOL     OW17302   1.491   1.104  16.468  0.2680  0.0847  0.3198
 1889SOL    HW117303   1.503   1.011  16.450  1.0142  0.2525 -0.0759
 1889SOL    HW217304   1.411   1.120  16.418 -1.7865 -1.3810  3.1569
 1890SOL     OW17305   0.686   0.197  13.387 -0.0793 -0.1362  0.1554
 1890SOL    HW117306   0.669   0.292  13.389 -1.5739 -0.4037  0.1216
 1890SOL    HW217307   0.701   0.188  13.293  0.3747 -1.4264  0.3596
 1891SOL     OW17308   0.877   1.632   8.435  0.7600 -0.0155 -0.4205
 1891SOL    HW117309   0.807   1.616   8.373 -0.1139  0.8310  0.3420
 1891SOL    HW217310   0.922   1.548   8.440 -1.5494 -1.3359 -1.8631
 1892SOL     OW17311   0.387   0.063   5.214 -0.3596  0.7970  0.5893
 1892SOL    HW117312   0.368   4.705   5.218 -0.5509  0.7006 -2.2707
 1892SOL    HW217313   0.377   0.081   5.307 -0.3695  0.3950  0.6685
 1893SOL     OW17314   2.778   0.176   7.670  0.1370 -0.0645  0.1278
 1893SOL    HW117315   2.721   0.145   7.740  2.2429 -0.5056  1.6360
 1893SOL    HW217316   2.793   0.268   7.691  2.2755 -0.8862  2.2631
 1894SOL     OW17317   2.883   0.329   9.335  0.2809 -0.4024 -0.1643
 1894SOL    HW117318   2.840   0.410   9.307  0.9903  0.4635  1.2305
 1894SOL    HW217319   2.888   0.343   9.430  0.3612  0.3001 -0.2664
 1895SOL     OW17320   2.285   1.529   7.957 -0.6721  0.1364 -0.3220
 1895SOL    HW117321   2.299   1.462   8.024 -0.7346 -1.3053 -1.7296
 1895SOL    HW217322   2.191   1.516   7.942 -0.8228  3.1170 -2.0297
 1896SOL     OW17323   0.477   0.173  15.536 -0.0177 -0.4178 -0.3479
 1896SOL    HW117324   0.497   0.266  15.522  1.3592 -0.5712  0.5223
 1896SOL    HW217325   0.413   0.147  15.470  1.9646 -1.6981 -1.7957
 1897SOL     OW17326   3.828   0.373  10.318 -0.3646 -0.2015  0.0711
 1897SOL    HW117327   3.834   0.416  10.233  2.3678 -0.2507  0.2346
 1897SOL    HW217328   3.921   0.369  10.341 -0.2158  0.2918 -0.4618
 1898SOL     OW17329   1.248   3.633  16.326  0.5094  0.2314  0.2056
 1898SOL    HW117330   1.220   3.684  16.250  2.7868  0.6853 -0.3345
 1898SOL    HW217331   1.331   3.606  16.287  0.0103 -1.6724  0.4522
 1899SOL     OW17332   3.825   1.336   4.223 -0.0035  0.3051  0.3097
 1899SOL    HW117333   3.915   1.347   4.254 -0.4975  1.1582  1.4524
 1899SOL    HW217334   3.841   1.305   4.134  1.6662  1.8880  0.0462
 1900SOL     OW17335   2.455   3.697   6.921 -0.0815 -0.1563  0.4592
 1900SOL    HW117336   2.367   3.700   6.883 -0.8568 -2.5833  2.0704
 1900SOL    HW217337   2.470   3.603   6.924 -0.1510 -0.1360  1.4737
 1901SOL     OW17338   2.595   1.596   3.049 -0.1003 -0.5364  0.0042
 1901SOL    HW117339   2.602   1.619   3.141  1.0207  1.8121 -0.6731
 1901SOL    HW217340   2.515   1.634   3.012  0.7807  1.4698  0.1961
 1902SOL     OW17341   0.455   1.335   2.958  0.0042  0.0594  0.0046
 1902SOL    HW117342   0.397   1.387   2.902  0.8524  1.2024  0.1848
 1902SOL    HW217343   0.528   1.311   2.900  0.5257  1.2487  0.1743
 1903SOL     OW17344   1.546   2.299   4.226  0.0466 -0.8935 -0.3300
 1903SOL    HW117345   1.504   2.276   4.310  0.8168 -0.6437  0.1215
 1903SOL    HW217346   1.548   2.216   4.178  2.6266 -0.5032 -0.8648
 1904SOL     OW17347   1.728   3.966   2.250  0.4397 -0.3227  0.6214
 1904SOL    HW117348   1.694   3.933   2.334 -0.1481 -2.2815 -0.3886
 1904SOL    HW217349   1.708   4.059   2.256  0.5270 -0.3644  1.6461
 1905SOL     OW17350   4.026   2.126   3.941  0.1609 -0.0254  0.1798
 1905SOL    HW117351   4.068   2.206   3.913  2.1754 -0.5207  1.7755
 1905SOL    HW217352   4.020   2.132   4.037 -0.6835 -1.1722  0.2022
 1906SOL     OW17353   1.835   0.417   0.427 -0.2579  0.2761  0.5068
 1906SOL    HW117354   1.746   0.422   0.391  0.2448  0.9840 -0.6363
 1906SOL    HW217355   1.822   0.339   0.481  0.3694  1.0960  1.8417
 1907SOL     OW17356   1.725   3.773   0.301 -0.4033  0.4388  0.1638
 1907SOL    HW117357   1.760   3.822   0.375 -1.0798 -0.3611  1.0194
 1907SOL    HW217358   1.804   3.744   0.257  0.6250 -0.4532  2.6223
 1908SOL     OW17359   2.916   2.520   7.818  0.2318 -0.0472  0.6899
 1908SOL    HW117360   2.851   2.590   7.823  0.8347  0.5545  0.0732
 1908SOL    HW217361   2.861   2.443   7.803  1.5870 -0.7471 -0.6609
 1909SOL     OW17362   1.520   3.447   5.773  0.1741 -0.1819 -0.4057
 1909SOL    HW117363   1.436   3.450   5.728  1.5388  0.2165 -2.9255
 1909SOL    HW217364   1.523   3.363   5.818 -0.9346  0.4714  0.8479
 1910SOL     OW17365   2.462   3.504   4.569  0.0106  0.2459  0.2874
 1910SOL    HW117366   2.455   3.434   4.505 -1.5449 -0.3995  1.1696
 1910SOL    HW217367   2.386   3.492   4.626 -1.7196  0.8577 -1.8602
 1911SOL     OW17368   3.285   1.676   3.356 -0.3834 -0.4473 -0.4748
 1911SOL    HW117369   3.286   1.605   3.292  0.1118  1.0425 -2.1127
 1911SOL    HW217370   3.321   1.748   3.305  2.3033 -2.7888 -1.8598
 1912SOL     OW17371   3.883   2.522  11.667 -0.4499  0.7910 -0.4884
 1912SOL    HW117372   3.912   2.432  11.684  0.6242  1.4052  0.9084
 1912SOL    HW217373   3.952   2.575  11.706  0.6262 -0.9605 -0.0001
 1913SOL     OW17374   0.503   1.788  16.929 -0.5001 -0.0133 -0.0921
 1913SOL    HW117375   0.518   1.825  17.016 -1.8476 -1.4312  0.7599
 1913SOL    HW217376   0.519   1.693  16.934  0.6580  0.1723 -0.3983
 1914SOL     OW17377   1.674   1.223   7.329 -0.2144 -0.1043  0.1009
 1914SOL    HW117378   1.700   1.302   7.280  0.7244  0.2740  1.2113
 1914SOL    HW217379   1.596   1.243   7.380 -0.2169  0.5011 -0.1373
 1915SOL     OW17380   4.545   4.324  17.431  0.0431  0.1990 -0.0404
 1915SOL    HW117381   4.611   4.394  17.434 -1.7036  1.9213 -2.7152
 1915SOL    HW217382   4.610   4.258  17.454 -3.2022 -2.9924 -0.1214
 1916SOL     OW17383   4.059   0.091   3.061 -0.0532 -0.0505 -0.4234
 1916SOL    HW117384   4.077   0.168   3.115  1.6852 -1.0248  0.3895
 1916SOL    HW217385   4.105   0.020   3.106  0.2645  0.9535  0.8208
 1917SOL     OW17386   0.921   0.830  14.514 -0.7875  0.4369 -0.0546
 1917SOL    HW117387   0.851   0.782  14.559 -0.0179  0.4805  1.1865
 1917SOL    HW217388   0.869   0.888  14.459 -0.2584  1.3064  0.3685
 1918SOL     OW17389   2.319   0.734  15.255 -0.3189 -0.0341  0.3494
 1918SOL    HW117390   2.224   0.737  15.245 -0.6126 -0.3434  2.8513
 1918SOL    HW217391   2.343   0.678  15.181 -0.4267 -0.8576  0.9351
 1919SOL     OW17392   0.449   2.386   8.040 -0.0180  0.3289  0.1850
 1919SOL    HW117393   0.529   2.372   8.091 -0.4888  1.8806  1.3539
 1919SOL    HW217394   0.374   2.373   8.099 -0.7019  0.5363 -0.6396
 1920SOL     OW17395   1.861   1.561  13.850  0.8692  0.2896 -0.1724
 1920SOL    HW117396   1.781   1.567  13.797 -1.1296 -1.1275  2.6966
 1920SOL    HW217397   1.923   1.609  13.794 -0.2336 -0.2038 -1.8167
 1921SOL     OW17398   0.700   0.687   9.774  0.2891 -0.0511  0.3748
 1921SOL    HW117399   0.698   0.593   9.791 -1.1675  0.0517  0.8404
 1921SOL    HW217400   0.755   0.683   9.696 -0.1764 -2.2870  0.1591
 1922SOL     OW17401   4.413   2.861   8.116  0.4541 -0.1943 -0.3217
 1922SOL    HW117402   4.340   2.891   8.063  0.5988  0.0349 -0.3893
 1922SOL    HW217403   4.384   2.771   8.134  0.6671 -0.2964 -0.4912
 1923SOL     OW17404   1.302   4.126   8.856 -0.6127 -0.0233 -0.2999
 1923SOL    HW117405   1.264   4.057   8.802 -0.8235  1.6690 -2.3534
 1923SOL    HW217406   1.325   4.067   8.927 -0.0239  1.2920  0.6062
 1924SOL     OW17407   0.208   3.866   4.272  0.5168  0.1299 -0.2904
 1924SOL    HW117408   0.237   3.811   4.199 -1.7211 -0.7014 -0.5397
 1924SOL    HW217409   0.219   3.955   4.238 -1.5039  0.2346 -0.6743
 1925SOL     OW17410   1.740   1.291   6.209  0.3784  0.1448  0.3968
 1925SOL    HW117411   1.803   1.247   6.152  0.3140 -1.0802  1.2538
 1925SOL    HW217412   1.763   1.233   6.281 -0.9200  1.9953  2.2881
 1926SOL     OW17413   1.798   1.820   5.523  0.0044 -0.5703 -0.4285
 1926SOL    HW117414   1.704   1.824   5.542  0.0372 -0.8873 -0.1949
 1926SOL    HW217415   1.800   1.891   5.460  1.7759 -0.9086 -0.7685
 1927SOL     OW17416   2.251   3.611   3.131 -0.0655 -0.5088  0.0292
 1927SOL    HW117417   2.328   3.630   3.185  0.7236  0.0671 -1.3273
 1927SOL    HW217418   2.192   3.581   3.200  0.2503  1.2612  1.0671
 1928SOL     OW17419   1.052   1.115   2.625  0.5867 -0.2595  0.1274
 1928SOL    HW117420   1.097   1.084   2.704  1.3567  1.4227  0.3456
 1928SOL    HW217421   1.124   1.112   2.562 -0.4879 -0.6871 -1.0828
 1929SOL     OW17422   3.400   1.906   3.292 -0.2039 -0.2555 -0.1331
 1929SOL    HW117423   3.408   1.987   3.341  2.3430 -1.9620  2.2596
 1929SOL    HW217424   3.493   1.894   3.276 -0.1255 -0.4698  0.4822
 1930SOL     OW17425   3.032   0.264  11.320  0.4670  0.2682 -0.0750
 1930SOL    HW117426   2.983   0.257  11.402  0.0289  0.8197 -0.2891
 1930SOL    HW217427   2.972   0.228  11.255  0.0025  1.2740 -0.2028
 1931SOL     OW17428   1.995   0.271  13.468 -0.1620 -0.1883 -0.3739
 1931SOL    HW117429   1.920   0.213  13.477  0.4660 -1.0599 -0.6167
 1931SOL    HW217430   1.996   0.278  13.372 -1.2867  1.7245 -0.2342
 1932SOL     OW17431   1.765   0.865   0.611  1.3578 -0.0377  0.0419
 1932SOL    HW117432   1.739   0.865   0.703  1.5658  0.7019  0.1015
 1932SOL    HW217433   1.686   0.823   0.579  0.2498  0.0213  2.6956
 1933SOL     OW17434   2.522   0.955  15.312  0.2850 -0.3527  0.2825
 1933SOL    HW117435   2.553   1.017  15.247  0.8976  0.0851  0.9925
 1933SOL    HW217436   2.505   0.880  15.254 -0.4344  0.9952 -1.2475
 1934SOL     OW17437   3.818   1.613   1.599  0.1700 -0.4845  0.9400
 1934SOL    HW117438   3.909   1.642   1.608 -0.3586  1.7852 -1.1966
 1934SOL    HW217439   3.771   1.661   1.667  0.5895 -0.5123  1.2504
 1935SOL     OW17440   3.900   2.519   8.406 -0.5296  0.2087  0.3448
 1935SOL    HW117441   3.871   2.552   8.491  0.8077  0.9733  0.5121
 1935SOL    HW217442   3.980   2.468   8.419 -0.0737  0.7728 -0.2417
 1936SOL     OW17443   4.439   3.461   6.655  0.1575 -0.1155 -0.3457
 1936SOL    HW117444   4.357   3.416   6.633 -0.5851  1.2975 -0.5055
 1936SOL    HW217445   4.405   3.542   6.617  1.1689 -0.0880 -1.1882
 1937SOL     OW17446   3.456   0.699  13.374  0.2657 -0.2954 -0.2857
 1937SOL    HW117447   3.398   0.668  13.304  1.2296 -1.0936 -0.7383
 1937SOL    HW217448   3.423   0.636  13.438  1.3705  0.5390  1.0801
 1938SOL     OW17449   1.195   2.525  15.374  0.3411 -0.8531 -0.1053
 1938SOL    HW117450   1.272   2.468  15.375  0.3903 -0.7675  0.8127
 1938SOL    HW217451   1.223   2.611  15.343  0.8084 -0.5853  1.0783
 1939SOL     OW17452   0.179   4.359  14.242  0.3404 -0.5403 -0.5456
 1939SOL    HW117453   0.091   4.321  14.229 -1.1512  2.6475  0.3607
 1939SOL    HW217454   0.196   4.386  14.152  0.1162  3.3801  0.6129
 1940SOL     OW17455   4.557   3.874   6.518  0.6002  0.3197  0.5753
 1940SOL    HW117456   4.470   3.890   6.553  0.8566  0.0219  1.3528
 1940SOL    HW217457   4.592   3.962   6.534  4.3915 -0.6555 -2.1727
 1941SOL     OW17458   1.150   0.878   7.283 -0.0592  0.6112 -0.1852
 1941SOL    HW117459   1.093   0.953   7.264 -0.2967  0.4319 -0.1847
 1941SOL    HW217460   1.237   0.916   7.274  0.2326 -0.5645 -2.3539
 1942SOL     OW17461   1.347   2.551   6.560  0.0706  0.8223  0.1765
 1942SOL    HW117462   1.296   2.570   6.639  2.5256  0.3852  1.8844
 1942SOL    HW217463   1.286   2.497   6.508  0.8921 -0.0229  0.0878
 1943SOL     OW17464   3.990   0.308   8.574 -0.5055 -0.2482  0.0211
 1943SOL    HW117465   3.934   0.254   8.518 -1.5480  0.6912  0.1489
 1943SOL    HW217466   4.075   0.307   8.530 -1.9142  0.1168 -2.7544
 1944SOL     OW17467   3.605   0.203  16.581  0.1583 -0.4577 -0.0549
 1944SOL    HW117468   3.642   0.291  16.580 -0.0040 -0.4103 -1.2808
 1944SOL    HW217469   3.530   0.218  16.524 -1.1937  0.9618  2.0668
 1945SOL     OW17470   2.962   2.548  13.966 -0.0285  0.2693 -0.6763
 1945SOL    HW117471   2.936   2.636  13.940  1.9750  1.3695  1.0307
 1945SOL    HW217472   2.876   2.519  13.997 -0.3886  0.1846 -1.7801
 1946SOL     OW17473   3.237   2.789   7.774 -0.7939 -0.3381  0.1679
 1946SOL    HW117474   3.325   2.789   7.810 -0.8885 -0.8549  0.4099
 1946SOL    HW217475   3.180   2.774   7.850 -2.3536 -2.8799 -1.4915
 1947SOL     OW17476   1.355   0.711  12.069  0.4350 -0.3148 -0.0612
 1947SOL    HW117477   1.327   0.776  12.003 -2.0910 -0.0366  1.2776
 1947SOL    HW217478   1.344   0.631  12.018  2.0957 -0.8855  0.4961
 1948SOL     OW17479   2.864   0.287   4.426 -0.1174 -0.4591  0.3242
 1948SOL    HW117480   2.800   0.215   4.419  1.2714 -1.5639 -1.0444
 1948SOL    HW217481   2.808   0.364   4.416 -1.9258 -1.7891  0.1211
 1949SOL     OW17482   2.370   0.704   2.423 -0.0221 -0.2569  0.0772
 1949SOL    HW117483   2.391   0.645   2.496  1.7493 -0.6049 -0.7154
 1949SOL    HW217484   2.443   0.684   2.365 -1.3499  0.0566 -1.6842
 1950SOL     OW17485   0.101   4.648  14.965  0.4875  0.1605  0.4194
 1950SOL    HW117486   0.075   0.002  14.944  0.4526  0.1679  0.4932
 1950SOL    HW217487   0.018   4.607  14.990  0.1104  1.7791  1.8247
 1951SOL     OW17488   1.174   4.685   4.870  0.2617 -0.0911  0.5904
 1951SOL    HW117489   1.139   4.597   4.858  1.5808 -0.1493 -3.0005
 1951SOL    HW217490   1.192   4.704   4.778  0.0118 -1.1689  0.3193
 1952SOL     OW17491   3.562   3.774  13.291  0.3728  0.1140  0.2807
 1952SOL    HW117492   3.649   3.812  13.279  0.6332 -0.4754  0.3096
 1952SOL    HW217493   3.501   3.847  13.282  1.0987  0.6423 -0.3261
 1953SOL     OW17494   0.187   3.653  12.278  0.2552  0.9684  0.5439
 1953SOL    HW117495   0.220   3.567  12.303 -1.2034 -0.0249 -0.8948
 1953SOL    HW217496   0.162   3.693  12.361 -0.3927 -0.7876  1.1873
 1954SOL     OW17497   0.433   4.235   4.303  0.0668 -0.0026 -0.2580
 1954SOL    HW117498   0.400   4.304   4.247 -1.2356 -0.4557 -0.0494
 1954SOL    HW217499   0.417   4.165   4.240  0.3664 -0.0820 -0.2479
 1955SOL     OW17500   4.130   0.393  11.774 -0.2169  0.3410  0.6812
 1955SOL    HW117501   4.120   0.298  11.762  0.9796  0.3839 -0.5324
 1955SOL    HW217502   4.215   0.402  11.733 -0.5832 -0.0842 -0.1719
 1956SOL     OW17503   3.705   1.590   6.362 -0.4063  0.3040 -0.3451
 1956SOL    HW117504   3.612   1.582   6.379 -0.4375 -0.7093 -0.9629
 1956SOL    HW217505   3.738   1.516   6.413 -0.5747 -0.6235 -1.5829
 1957SOL     OW17506   0.453   0.327   8.149  0.8240 -0.1698  0.5745
 1957SOL    HW117507   0.495   0.257   8.199  4.2831  1.1443 -0.5078
 1957SOL    HW217508   0.520   0.394   8.157 -1.7574  2.4749  0.0680
 1958SOL     OW17509   2.823   0.844  10.762  0.5991 -0.2533 -0.7782
 1958SOL    HW117510   2.915   0.866  10.766  0.4401  0.2673 -0.1273
 1958SOL    HW217511   2.803   0.906  10.692  0.3885 -0.7509 -1.1654
 1959SOL     OW17512   0.626   1.381  15.599  0.2024  0.1932  0.3589
 1959SOL    HW117513   0.621   1.444  15.527  1.8185  0.7230  0.7289
 1959SOL    HW217514   0.613   1.306  15.540  2.0586 -2.3123  3.1472
 1960SOL     OW17515   4.026   0.759   1.786 -0.2879 -0.1147  0.4566
 1960SOL    HW117516   4.121   0.759   1.800 -0.3710 -1.2685  1.0121
 1960SOL    HW217517   4.016   0.697   1.714  0.2607  0.2718  0.0393
 1961SOL     OW17518   4.140   2.328   4.165  0.0699 -0.1157  0.2069
 1961SOL    HW117519   4.145   2.353   4.257  1.2117 -0.2976  0.1972
 1961SOL    HW217520   4.052   2.293   4.155 -0.1795  0.1757  1.4356
 1962SOL     OW17521   4.622   2.724  10.834  0.5996  0.4914  0.1061
 1962SOL    HW117522   4.642   2.631  10.829  0.7642  0.4936  0.7846
 1962SOL    HW217523   4.531   2.718  10.861  1.3582 -0.7705  2.3229
 1963SOL     OW17524   1.773   3.138  16.690  0.1020  0.4896 -0.4530
 1963SOL    HW117525   1.756   3.079  16.616 -0.8211 -0.4720  0.5227
 1963SOL    HW217526   1.710   3.107  16.755  1.1364 -0.4252  0.1257
 1964SOL     OW17527   3.850   2.130   9.256  0.2785  0.9025  0.2488
 1964SOL    HW117528   3.771   2.122   9.310 -0.3918 -0.1398 -0.8839
 1964SOL    HW217529   3.819   2.150   9.168 -0.3081 -1.1187  0.0072
 1965SOL     OW17530   3.288   1.341   4.187  0.5179  0.5671 -0.2165
 1965SOL    HW117531   3.231   1.417   4.174 -2.8307 -1.6830  1.4147
 1965SOL    HW217532   3.349   1.353   4.113  1.7526 -0.6981  0.5964
 1966SOL     OW17533   1.262   0.160   5.624  0.1854 -0.0812 -0.0767
 1966SOL    HW117534   1.196   0.106   5.581 -0.3504  1.0517 -0.6784
 1966SOL    HW217535   1.264   0.229   5.558 -1.4234 -0.9411 -1.0190
 1967SOL     OW17536   2.550   1.919  10.067 -0.3308  0.3573  0.3291
 1967SOL    HW117537   2.547   2.003  10.023 -0.4688  0.9626  1.4903
 1967SOL    HW217538   2.457   1.905  10.089  0.4757 -2.0432  2.3085
 1968SOL     OW17539   3.564   0.628   2.854 -0.1696 -0.4342 -0.0787
 1968SOL    HW117540   3.648   0.586   2.834 -0.2081  0.0197 -1.1321
 1968SOL    HW217541   3.575   0.699   2.918 -0.2888 -0.2489 -0.2668
 1969SOL     OW17542   2.311   3.408   2.275  0.0073 -0.0263  0.3584
 1969SOL    HW117543   2.374   3.460   2.324  1.8758 -0.0645 -2.0155
 1969SOL    HW217544   2.345   3.320   2.290  0.0429  0.4872  3.2152
 1970SOL     OW17545   1.095   0.012   9.589  0.7741  0.1181  0.2786
 1970SOL    HW117546   1.120   4.672   9.643  0.1704 -0.2061  0.1065
 1970SOL    HW217547   1.180   0.054   9.577  1.0858 -0.7300 -0.5319
 1971SOL     OW17548   3.305   4.609  11.475 -0.3426 -0.1574  0.3980
 1971SOL    HW117549   3.315   4.578  11.385 -1.1587  0.7292  0.0046
 1971SOL    HW217550   3.239   4.678  11.469 -1.6082 -1.2525  1.8105
 1972SOL     OW17551   1.609   3.042   4.750  0.3614 -0.1164  0.8601
 1972SOL    HW117552   1.696   3.031   4.789  0.9241  0.7878 -0.1346
 1972SOL    HW217553   1.582   2.951   4.738 -0.5589  0.3180 -0.3175
 1973SOL     OW17554   3.342   2.037  11.786  0.4307  0.0979  0.1540
 1973SOL    HW117555   3.339   2.127  11.754 -1.6205  0.0824  0.2965
 1973SOL    HW217556   3.252   2.005  11.792  1.0329 -1.7049 -0.1754
 1974SOL     OW17557   0.058   0.054   7.279 -0.1565  0.0087 -0.0885
 1974SOL    HW117558   0.150   0.028   7.284  0.4355  1.4364 -3.6543
 1974SOL    HW217559   0.049   0.072   7.186  2.0898 -0.1341 -0.3203
 1975SOL     OW17560   0.448   3.697  13.829  0.7299  0.2582  0.2696
 1975SOL    HW117561   0.422   3.786  13.852  0.3251  0.6221 -1.6048
 1975SOL    HW217562   0.418   3.699  13.738 -0.9363  0.6742  0.8350
 1976SOL     OW17563   1.173   0.654   3.817  0.5104 -0.3371  0.8576
 1976SOL    HW117564   1.100   0.639   3.878 -0.0987 -1.6994 -0.1988
 1976SOL    HW217565   1.246   0.651   3.878  0.4302  0.1615  0.9772
 1977SOL     OW17566   1.673   4.293  14.947  0.1380  0.1030 -0.0645
 1977SOL    HW117567   1.712   4.283  14.860  1.5568  1.3914  0.4156
 1977SOL    HW217568   1.756   4.310  14.991 -0.2679  1.0189  0.3528
 1978SOL     OW17569   0.394   3.831  15.610 -0.4653  0.2700  0.6795
 1978SOL    HW117570   0.467   3.892  15.620 -3.1264  3.5591 -0.3152
 1978SOL    HW217571   0.343   3.897  15.564 -0.4196 -0.4794 -0.4684
 1979SOL     OW17572   0.147   3.026   2.189  0.0419  0.5285 -0.7572
 1979SOL    HW117573   0.105   3.012   2.105 -0.6608  0.2414 -0.3558
 1979SOL    HW217574   0.156   2.936   2.219  0.6437  0.8891  0.1488
 1980SOL     OW17575   3.976   0.108  11.584  0.1420 -0.4849 -0.1711
 1980SOL    HW117576   3.887   0.126  11.614 -0.0374 -1.7508  0.0431
 1980SOL    HW217577   4.006   0.197  11.567  0.2386 -0.4550  0.1431
 1981SOL     OW17578   2.752   4.061   2.195  0.7591 -0.6257 -0.0950
 1981SOL    HW117579   2.695   4.066   2.272 -0.3820 -1.3910 -0.8931
 1981SOL    HW217580   2.841   4.070   2.230  2.4538 -0.5815 -4.4602
 1982SOL     OW17581   4.690   4.286  10.708 -0.0332  0.8330  0.2785
 1982SOL    HW117582   4.670   4.343  10.635 -0.3970  0.0463 -0.2328
 1982SOL    HW217583   0.051   4.285  10.707 -0.1001 -1.5579 -2.8484
 1983SOL     OW17584   1.325   4.119   1.601 -0.2246  0.1716  0.8910
 1983SOL    HW117585   1.287   4.176   1.668 -0.8561  2.3151 -1.2860
 1983SOL    HW217586   1.362   4.042   1.643 -1.0758 -1.1446 -0.7954
 1984SOL     OW17587   2.852   3.870  16.022  0.5922 -0.7300  0.1949
 1984SOL    HW117588   2.921   3.904  16.079 -0.8249  1.1064  0.8192
 1984SOL    HW217589   2.783   3.925  16.060 -0.2029 -1.7835  0.2868
 1985SOL     OW17590   4.287   2.967  16.841 -0.2915 -0.0390  0.0797
 1985SOL    HW117591   4.344   2.901  16.801 -0.3523  0.9515 -1.6286
 1985SOL    HW217592   4.198   2.932  16.845  0.2036 -1.5404 -1.9566
 1986SOL     OW17593   1.104   2.887   2.425  0.5686 -0.0065 -0.0672
 1986SOL    HW117594   1.050   2.862   2.500 -0.3648 -0.2028 -0.8148
 1986SOL    HW217595   1.072   2.819   2.366 -2.2057  0.6714  0.6368
 1987SOL     OW17596   4.289   1.622  17.307  0.0306  0.0586 -0.1035
 1987SOL    HW117597   4.352   1.676  17.259 -0.0710 -0.5673 -0.9445
 1987SOL    HW217598   4.229   1.684  17.348  0.4395  1.2343 -1.2923
 1988SOL     OW17599   3.960   1.812   7.786  0.2207  0.4965 -0.6308
 1988SOL    HW117600   3.983   1.895   7.744 -0.7154 -0.4979 -3.1213
 1988SOL    HW217601   3.935   1.756   7.713  1.1656  0.0905 -0.6491
 1989SOL     OW17602   1.792   2.649   8.570 -0.0507 -0.4056  0.2669
 1989SOL    HW117603   1.862   2.593   8.604 -0.1681 -1.2323 -0.8601
 1989SOL    HW217604   1.765   2.705   8.643  1.2936 -2.1303  2.0722
 1990SOL     OW17605   4.386   2.927  13.389 -0.2989 -0.1489 -0.1723
 1990SOL    HW117606   4.364   2.903  13.299 -0.4280 -0.5964 -0.0172
 1990SOL    HW217607   4.357   3.018  13.378 -3.0124 -1.1480 -1.2442
 1991SOL     OW17608   3.232   3.581   3.480 -0.5235 -0.4063 -0.3564
 1991SOL    HW117609   3.204   3.646   3.416  1.6637 -0.8166 -1.7452
 1991SOL    HW217610   3.151   3.580   3.531  0.4309 -3.9936  1.1128
 1992SOL     OW17611   4.059   2.695   6.850 -0.5680  0.2084 -0.7827
 1992SOL    HW117612   4.003   2.624   6.819  0.1645 -0.9185  0.4870
 1992SOL    HW217613   4.142   2.652   6.828  0.0588 -0.0457  2.0977
 1993SOL     OW17614   1.807   2.536   6.626  0.1747  0.1083 -0.0925
 1993SOL    HW117615   1.859   2.598   6.575 -1.6807  2.6499  1.1185
 1993SOL    HW217616   1.877   2.483   6.664 -1.0874 -1.6209 -0.1617
 1994SOL     OW17617   2.037   0.651   6.254 -0.0489 -0.3962 -0.1121
 1994SOL    HW117618   2.120   0.654   6.206  0.8865  0.8392  1.6162
 1994SOL    HW217619   2.022   0.556   6.255  1.2755 -0.6208 -0.4975
 1995SOL     OW17620   2.760   3.355   1.935  0.2483 -0.4177  0.4147
 1995SOL    HW117621   2.730   3.339   2.024 -1.3339  0.2936  0.0152
 1995SOL    HW217622   2.809   3.273   1.927  0.9662 -0.0200  0.7396
 1996SOL     OW17623   4.233   0.066   3.431 -0.3681 -0.7373  0.0387
 1996SOL    HW117624   4.228   0.044   3.338 -0.0740  2.4819 -0.7240
 1996SOL    HW217625   4.323   0.100   3.435 -0.5538 -0.2853  0.2641
 1997SOL     OW17626   4.463   2.877   1.802 -0.6048 -0.0447 -0.1233
 1997SOL    HW117627   4.410   2.801   1.826 -0.8203 -0.2320 -1.2019
 1997SOL    HW217628   4.478   2.864   1.709 -0.5859 -0.1554 -0.1049
 1998SOL     OW17629   0.301   4.038   8.955  0.2683 -0.0712  0.3064
 1998SOL    HW117630   0.397   4.040   8.960  0.3840 -1.8419 -1.1290
 1998SOL    HW217631   0.291   3.961   8.899 -2.4835  0.3761  0.2034
 1999SOL     OW17632   4.236   1.030   4.585 -0.1758 -0.2113 -0.6117
 1999SOL    HW117633   4.194   1.007   4.668  1.7095  0.9072  0.6485
 1999SOL    HW217634   4.324   1.038   4.622  0.2089 -0.0263 -1.5746
 2000SOL     OW17635   3.373   3.858  11.617  0.0592 -0.2593 -0.1599
 2000SOL    HW117636   3.451   3.874  11.670 -2.4722  0.8693  3.1930
 2000SOL    HW217637   3.366   3.763  11.630 -2.1060 -0.2628 -1.2582
 2001SOL     OW17638   4.074   3.682  10.932 -0.2587  0.4929 -0.4231
 2001SOL    HW117639   4.021   3.649  11.005  1.5604  3.1098  2.0914
 2001SOL    HW217640   4.102   3.769  10.960 -0.0439  0.3062 -0.0550
 2002SOL     OW17641   3.500   3.271  14.376 -0.2093  0.2452  0.5647
 2002SOL    HW117642   3.507   3.299  14.467 -1.1301 -1.8617  1.2653
 2002SOL    HW217643   3.422   3.218  14.365 -0.0563  0.1438 -0.0616
 2003SOL     OW17644   4.148   0.699   4.040 -0.2134 -0.0996  0.0801
 2003SOL    HW117645   4.243   0.696   4.025 -0.0170 -0.5787  1.4188
 2003SOL    HW217646   4.151   0.662   4.128  0.7393 -0.8229 -0.2573
 2004SOL     OW17647   1.233   2.610  15.040  0.3133  0.7690  0.1139
 2004SOL    HW117648   1.245   2.705  15.030  0.8986  0.5570 -1.3581
 2004SOL    HW217649   1.310   2.582  14.990  1.0192 -0.2378  1.7739
 2005SOL     OW17650   3.270   2.466  16.777  0.4330  0.6081 -0.2280
 2005SOL    HW117651   3.327   2.417  16.718  0.4199  2.4069 -1.7608
 2005SOL    HW217652   3.186   2.486  16.735  0.3775 -1.3287 -1.0124
 2006SOL     OW17653   4.386   1.346  15.658  0.0409  0.4583 -0.3464
 2006SOL    HW117654   4.301   1.314  15.627 -0.0346 -1.5841  1.9854
 2006SOL    HW217655   4.437   1.344  15.577 -1.1268  1.6676 -1.1084
 2007SOL     OW17656   4.345   0.034   6.306  0.3132 -0.2702  0.9928
 2007SOL    HW117657   4.253   0.029   6.331 -0.2070  2.5718 -0.3303
 2007SOL    HW217658   4.342   0.123   6.271 -0.3975 -0.6202  0.1725
 2008SOL     OW17659   0.041   3.578  17.714 -0.1224  0.4062 -0.4324
 2008SOL    HW117660   0.126   3.558   0.011 -0.0871  1.5557  0.0894
 2008SOL    HW217661   4.727   3.496  17.717  2.3819 -1.0971 -0.3185
 2009SOL     OW17662   3.360   2.920   4.646  0.5975  0.6146 -0.3437
 2009SOL    HW117663   3.327   3.010   4.639 -0.7560  0.0693 -0.9606
 2009SOL    HW217664   3.387   2.911   4.737  0.9722 -1.2975 -0.6407
 2010SOL     OW17665   2.535   2.377   6.535  0.2346  0.0967  0.1588
 2010SOL    HW117666   2.553   2.383   6.629  1.1302  2.5733 -0.1792
 2010SOL    HW217667   2.491   2.293   6.523  0.0802  0.2866 -0.5942
 2011SOL     OW17668   3.108   4.432   5.544  0.0646 -0.0250 -0.7551
 2011SOL    HW117669   3.105   4.397   5.455  1.5972 -1.1851 -0.3352
 2011SOL    HW217670   3.200   4.420   5.568 -0.3925  2.0825  2.0179
 2012SOL     OW17671   1.798   1.329   8.255 -0.4333 -0.7912 -0.2574
 2012SOL    HW117672   1.883   1.313   8.215 -0.1109  2.0252 -0.7245
 2012SOL    HW217673   1.742   1.340   8.178  0.7558  2.6226 -0.6200
 2013SOL     OW17674   3.468   0.828  13.705 -0.6067 -0.3415  0.2992
 2013SOL    HW117675   3.490   0.765  13.637  1.8849  0.0875  0.7046
 2013SOL    HW217676   3.554   0.871  13.709 -0.8176  0.2077 -1.0162
 2014SOL     OW17677   0.604   0.302   9.079  1.1286  0.6142 -0.6321
 2014SOL    HW117678   0.660   0.370   9.042 -1.6338  2.2774 -1.7447
 2014SOL    HW217679   0.543   0.282   9.007  0.3704 -1.2390  0.5354
 2015SOL     OW17680   2.607   3.865   7.683  0.2409 -1.1290 -0.2374
 2015SOL    HW117681   2.582   3.902   7.599 -2.4326  0.9983  1.4864
 2015SOL    HW217682   2.592   3.772   7.668 -0.9125 -0.8953 -0.5385
 2016SOL     OW17683   0.336   0.379  15.693 -0.6070  0.2800 -0.3391
 2016SOL    HW117684   0.371   0.412  15.610  0.1316  0.0234 -0.1329
 2016SOL    HW217685   0.339   0.454  15.752  0.6822  0.4697 -0.6392
 2017SOL     OW17686   0.709   0.412   9.342 -0.3064  0.1360 -0.0793
 2017SOL    HW117687   0.664   0.347   9.288  0.7848  1.1435 -2.2121
 2017SOL    HW217688   0.707   0.364   9.425  1.5282 -1.0699 -0.7281
 2018SOL     OW17689   3.440   3.534   8.613  0.2013  0.7652 -0.5079
 2018SOL    HW117690   3.512   3.474   8.630  0.9369  1.8728  0.2368
 2018SOL    HW217691   3.456   3.603   8.677 -1.4673  1.6314 -1.0137
 2019SOL     OW17692   0.506   2.817   1.267 -0.1864  0.0130 -0.7093
 2019SOL    HW117693   0.531   2.780   1.182  0.2149  2.1410 -1.5296
 2019SOL    HW217694   0.587   2.862   1.292  0.4035  0.3877 -3.2423
 2020SOL     OW17695   2.364   1.872   8.909 -0.5411 -0.4296  0.2419
 2020SOL    HW117696   2.312   1.793   8.894 -2.8390  1.1774 -0.1743
 2020SOL    HW217697   2.427   1.831   8.968  1.7063 -0.1141 -1.9405
 2021SOL     OW17698   0.779   0.436   6.797 -0.6192  0.1230  0.1332
 2021SOL    HW117699   0.752   0.506   6.738  0.2645  0.9402  0.6981
 2021SOL    HW217700   0.771   0.491   6.875  2.0530 -0.0474  0.5411
 2022SOL     OW17701   1.928   0.943   4.639  0.0145  0.4653  0.2655
 2022SOL    HW117702   2.014   0.951   4.598  0.2175 -0.1135  0.5791
 2022SOL    HW217703   1.886   1.025   4.610  2.0752  0.8655 -1.5883
 2023SOL     OW17704   2.511   0.520   4.402  0.0401 -0.1712 -0.3133
 2023SOL    HW117705   2.417   0.527   4.420  0.2150  0.8242  0.2106
 2023SOL    HW217706   2.515   0.426   4.383 -0.8274 -0.0086 -1.3221
 2024SOL     OW17707   2.224   1.468  16.639 -0.1080  0.3211 -0.3957
 2024SOL    HW117708   2.277   1.407  16.587 -1.7357 -1.8101  0.4687
 2024SOL    HW217709   2.169   1.502  16.568 -1.6825  0.8585  1.0905
 2025SOL     OW17710   2.025   0.349   4.258  0.5398  0.1311  0.3485
 2025SOL    HW117711   1.987   0.302   4.183 -3.4910  0.9787  1.8498
 2025SOL    HW217712   1.989   0.437   4.243 -0.0659 -0.1204  0.3359
 2026SOL     OW17713   3.778   3.159   5.307  0.2229 -0.0355  0.3927
 2026SOL    HW117714   3.775   3.221   5.235 -0.1105 -0.6779 -0.1549
 2026SOL    HW217715   3.703   3.105   5.281 -1.7404  2.5498  0.6789
 2027SOL     OW17716   2.757   2.847  13.057  0.2338  0.4549 -0.1657
 2027SOL    HW117717   2.759   2.804  12.972 -0.1404  1.0869 -0.4976
 2027SOL    HW217718   2.667   2.831  13.085  0.6860  1.2165  1.7312
 2028SOL     OW17719   3.709   3.180   2.115  0.3307 -0.0786 -0.2072
 2028SOL    HW117720   3.747   3.254   2.067  0.2038 -0.2052 -0.5048
 2028SOL    HW217721   3.679   3.131   2.039  1.0591 -1.3222  0.2975
 2029SOL     OW17722   0.708   1.844   0.839  0.3648  0.0432  0.2531
 2029SOL    HW117723   0.718   1.833   0.745 -2.3849 -1.9570  0.1785
 2029SOL    HW217724   0.626   1.893   0.851  0.5700  1.6136 -4.7536
 2030SOL     OW17725   0.940   3.351   2.709 -0.3650 -0.0162  0.1475
 2030SOL    HW117726   0.863   3.396   2.743 -1.4288 -0.5588 -1.5699
 2030SOL    HW217727   0.907   3.277   2.658 -1.5282  0.1315  0.6855
 2031SOL     OW17728   0.910   4.675   1.735 -0.7924 -0.0471 -0.6840
 2031SOL    HW117729   0.831   4.630   1.765 -0.7214 -1.5473 -2.7160
 2031SOL    HW217730   0.967   4.661   1.810 -1.4170  0.7973 -0.0460
 2032SOL     OW17731   4.343   2.637   6.837 -0.1880 -0.1013 -0.0643
 2032SOL    HW117732   4.405   2.617   6.767  0.8883  3.1844 -0.0464
 2032SOL    HW217733   4.391   2.703   6.887 -0.3279 -0.8067  1.0084
 2033SOL     OW17734   3.400   2.557   9.439 -0.2719  0.2081  0.2941
 2033SOL    HW117735   3.492   2.550   9.465  0.2939  1.3321 -1.3843
 2033SOL    HW217736   3.373   2.645   9.465  1.2086  1.0175 -0.8437
 2034SOL     OW17737   1.632   4.428   9.441 -0.1268  0.6159 -0.0088
 2034SOL    HW117738   1.691   4.488   9.487 -0.3086 -0.1741  1.2512
 2034SOL    HW217739   1.547   4.472   9.435  0.0658  1.3294  2.6484
 2035SOL     OW17740   0.994   4.690   8.150 -0.4070  0.2902  0.0978
 2035SOL    HW117741   0.957   0.037   8.120  0.0072  0.0833 -1.0181
 2035SOL    HW217742   1.085   4.720   8.155  0.5325 -2.2360 -1.5553
 2036SOL     OW17743   0.626   3.208   6.433  0.7160  0.1270 -0.0462
 2036SOL    HW117744   0.590   3.166   6.355 -0.4957  0.2322  0.4495
 2036SOL    HW217745   0.714   3.173   6.446  0.8033  0.0905 -0.7172
 2037SOL     OW17746   0.634   1.777   7.958 -0.2141  0.5998  0.1838
 2037SOL    HW117747   0.584   1.858   7.958  0.2188  0.8646  1.2839
 2037SOL    HW217748   0.648   1.764   7.864  0.5333  1.0403  0.2386
 2038SOL     OW17749   0.989   2.188  10.740 -0.4643  0.9806  0.3534
 2038SOL    HW117750   1.084   2.193  10.729 -0.7077 -0.3369 -2.2987
 2038SOL    HW217751   0.979   2.195  10.835 -0.9279 -0.1297  0.3880
 2039SOL     OW17752   3.894   3.172  10.387  0.0561  0.1890  0.7750
 2039SOL    HW117753   3.804   3.143  10.373  0.6980 -0.4227 -2.0665
 2039SOL    HW217754   3.924   3.179  10.297 -1.6061 -0.2240  0.1841
 2040SOL     OW17755   2.579   4.065   5.897  0.5534 -0.0624 -0.3663
 2040SOL    HW117756   2.628   4.115   5.832 -0.2545  0.8246 -0.2955
 2040SOL    HW217757   2.614   4.099   5.980 -0.4805 -0.9149  0.4287
 2041SOL     OW17758   0.254   4.445  14.762  0.5632  0.7732 -0.1015
 2041SOL    HW117759   0.224   4.414  14.848  0.1130  2.9958  0.5344
 2041SOL    HW217760   0.331   4.388  14.753 -0.6781 -0.7146 -1.1846
 2042SOL     OW17761   1.026   0.965  11.708 -0.2390 -0.1298  0.1352
 2042SOL    HW117762   0.994   0.879  11.735  2.9462 -1.5672 -0.6993
 2042SOL    HW217763   1.022   1.012  11.791 -1.1815  1.1205 -0.6216
 2043SOL     OW17764   4.308   2.173  15.238 -0.3517  0.0996 -0.2268
 2043SOL    HW117765   4.330   2.140  15.325 -1.9661 -2.6124 -0.8541
 2043SOL    HW217766   4.395   2.180  15.198 -0.3544 -0.5777 -0.3434
 2044SOL     OW17767   1.378   1.391   9.003 -0.5482  0.6600 -0.2974
 2044SOL    HW117768   1.349   1.388   8.912 -0.6632  1.2446 -0.2775
 2044SOL    HW217769   1.324   1.459   9.042 -1.9441 -1.4439  1.4210
 2045SOL     OW17770   3.053   3.399   4.708 -0.2646  0.2818 -0.9563
 2045SOL    HW117771   3.090   3.312   4.693 -0.8693 -0.0880 -0.3267
 2045SOL    HW217772   3.010   3.408   4.623 -0.0951 -0.9483 -1.1629
 2046SOL     OW17773   2.171   0.525  17.288  0.5060  0.0448  0.0042
 2046SOL    HW117774   2.190   0.603  17.236 -1.9170 -0.1607 -1.1829
 2046SOL    HW217775   2.170   0.463  17.215 -1.1996  2.0022 -1.6353
 2047SOL     OW17776   3.542   0.711   3.401  0.5659 -0.5719  0.2238
 2047SOL    HW117777   3.565   0.802   3.381 -2.2281  0.2893  0.8200
 2047SOL    HW217778   3.629   0.689   3.434  0.7103 -0.9790 -0.4299
 2048SOL     OW17779   2.329   1.613   3.864 -0.5393 -0.4663 -0.3937
 2048SOL    HW117780   2.369   1.531   3.892 -1.0368  0.3355  2.6155
 2048SOL    HW217781   2.395   1.652   3.807 -0.5201  0.6959  0.4334
 2049SOL     OW17782   1.967   3.942   8.155  0.1839 -0.1729  0.3429
 2049SOL    HW117783   1.887   3.932   8.206 -1.5884  1.4753 -2.1354
 2049SOL    HW217784   2.036   3.965   8.217  1.9411 -2.2810 -0.8406
 2050SOL     OW17785   1.428   0.152   5.864 -0.0122  0.1822  0.2887
 2050SOL    HW117786   1.380   0.206   5.927  1.5505 -0.4750  2.0738
 2050SOL    HW217787   1.368   0.154   5.791  1.2902  0.0751 -0.7870
 2051SOL     OW17788   2.160   0.819  15.707  0.3787 -0.6442 -0.0020
 2051SOL    HW117789   2.232   0.778  15.660 -1.2198 -1.8026 -1.4397
 2051SOL    HW217790   2.153   0.755  15.777 -1.1880 -2.3694 -1.7336
 2052SOL     OW17791   1.177   4.363   3.052  0.5525  0.0325 -0.1093
 2052SOL    HW117792   1.193   4.268   3.053  1.4314  0.1841 -0.0140
 2052SOL    HW217793   1.082   4.354   3.041  0.4058 -0.4248  1.4986
 2053SOL     OW17794   1.241   3.857   8.343 -0.6801 -0.4299  0.8292
 2053SOL    HW117795   1.219   3.893   8.257  0.2530  0.4508  0.9680
 2053SOL    HW217796   1.182   3.781   8.348  0.9855 -1.7308  0.7053
 2054SOL     OW17797   1.395   1.299   0.637 -0.1644  0.1161 -0.3964
 2054SOL    HW117798   1.314   1.347   0.618 -1.2004 -1.1860  0.7360
 2054SOL    HW217799   1.411   1.267   0.548 -0.9799  0.2818 -0.6013
 2055SOL     OW17800   2.731   3.504   2.714  0.0383 -0.0379 -0.0158
 2055SOL    HW117801   2.723   3.428   2.656 -2.0700  0.7029 -0.6959
 2055SOL    HW217802   2.766   3.574   2.660  0.1316 -0.1045 -0.0409
 2056SOL     OW17803   0.092   3.542   2.951  0.1938 -0.0595 -0.2111
 2056SOL    HW117804   0.085   3.452   2.918  1.1763 -0.8536  1.6692
 2056SOL    HW217805   0.109   3.595   2.874 -0.5294 -0.5193 -0.6834
 2057SOL     OW17806   1.353   2.522   2.724 -0.5541 -0.4587 -0.7084
 2057SOL    HW117807   1.397   2.443   2.692  2.0276  0.6097  0.1996
 2057SOL    HW217808   1.417   2.589   2.703  0.1369 -0.6243  0.8146
 2058SOL     OW17809   1.461   0.232  14.373 -0.1872  0.3134 -0.4150
 2058SOL    HW117810   1.395   0.163  14.368 -1.8659  2.0328 -2.2272
 2058SOL    HW217811   1.491   0.239  14.283  0.0257 -0.8390 -0.4357
 2059SOL     OW17812   0.310   4.735   7.625 -0.0169  0.5861  0.1951
 2059SOL    HW117813   0.390   0.043   7.652 -0.8558  2.3841 -0.2313
 2059SOL    HW217814   0.251   0.034   7.692 -0.0180  0.2970  0.3412
 2060SOL     OW17815   0.604   3.379  16.714 -0.0152 -0.3766 -0.2589
 2060SOL    HW117816   0.560   3.336  16.787 -0.8698  1.4196  0.3042
 2060SOL    HW217817   0.688   3.411  16.746 -0.9190  0.2463  1.5395
 2061SOL     OW17818   1.006   0.201  17.334  0.4457  0.2658 -0.2669
 2061SOL    HW117819   0.964   0.143  17.271  2.5092 -1.1777 -0.2957
 2061SOL    HW217820   1.030   0.144  17.407  3.0829  2.1401  0.3365
 2062SOL     OW17821   2.419   1.634   9.317 -0.1280 -0.1381 -0.6820
 2062SOL    HW117822   2.337   1.683   9.306  0.9016  1.7685  0.4074
 2062SOL    HW217823   2.415   1.577   9.239  0.9399  1.0279 -1.5803
 2063SOL     OW17824   3.344   2.345   5.174  0.1565 -0.7501 -0.1962
 2063SOL    HW117825   3.277   2.409   5.153  0.2371 -0.9998 -1.2138
 2063SOL    HW217826   3.417   2.401   5.200 -0.9727  1.2560 -1.3146
 2064SOL     OW17827   2.211   3.123   4.284 -0.3921 -0.4936  0.4009
 2064SOL    HW117828   2.185   3.031   4.282 -1.6914 -0.0647 -2.2099
 2064SOL    HW217829   2.133   3.171   4.313  0.2145  0.7577 -0.0155
 2065SOL     OW17830   1.108   1.108  13.965 -0.0980 -0.3265  0.2247
 2065SOL    HW117831   1.112   1.025  13.917 -0.6449 -0.5091  0.4922
 2065SOL    HW217832   1.053   1.077  14.038 -1.4141 -0.2094 -0.7134
 2066SOL     OW17833   0.649   3.487  10.005  0.0874 -0.0442  0.6148
 2066SOL    HW117834   0.689   3.426  10.067 -1.1216 -1.7767 -0.2785
 2066SOL    HW217835   0.560   3.453  10.004  0.4386 -0.9225 -1.5003
 2067SOL     OW17836   0.726   2.608   7.732  0.3209  0.3810  0.6191
 2067SOL    HW117837   0.747   2.557   7.810 -0.1963  1.0163  1.1719
 2067SOL    HW217838   0.657   2.655   7.779  0.5491  0.8562  0.4800
 2068SOL     OW17839   3.189   1.424  12.889  0.2846  0.0102  0.9404
 2068SOL    HW117840   3.105   1.411  12.932 -0.5319 -0.0028 -0.6499
 2068SOL    HW217841   3.227   1.339  12.867  0.6838  0.6506 -0.8600
 2069SOL     OW17842   0.960   4.188   9.530 -0.1604  0.3724 -0.1590
 2069SOL    HW117843   0.888   4.225   9.581  0.4591 -0.0515  1.0308
 2069SOL    HW217844   1.012   4.265   9.508  1.9343 -0.6245  1.3238
 2070SOL     OW17845   4.374   2.824   3.549 -0.1622 -0.4471 -0.5820
 2070SOL    HW117846   4.405   2.881   3.478 -1.3945 -0.9471 -1.5268
 2070SOL    HW217847   4.322   2.883   3.603  2.4909  1.7814 -0.4929
 2071SOL     OW17848   1.723   2.781   2.325 -0.1008  0.0991 -0.6251
 2071SOL    HW117849   1.771   2.860   2.347 -0.2365 -0.1303  0.4663
 2071SOL    HW217850   1.656   2.820   2.269 -0.0195  0.1604 -0.6788
 2072SOL     OW17851   1.354   4.355   6.089  0.3201  0.4231  0.4153
 2072SOL    HW117852   1.270   4.390   6.120  0.8990  1.1978  1.1183
 2072SOL    HW217853   1.339   4.335   5.997  1.0620  3.7736 -0.4376
 2073SOL     OW17854   2.691   3.885   4.177 -0.0816 -0.8174 -0.3513
 2073SOL    HW117855   2.755   3.852   4.240 -0.4523 -1.4341 -0.3039
 2073SOL    HW217856   2.637   3.945   4.228 -0.2402 -0.4246 -0.9721
 2074SOL     OW17857   2.524   1.874   5.184 -0.0708 -0.2289  0.4164
 2074SOL    HW117858   2.479   1.831   5.256  0.0534 -1.4880 -0.2641
 2074SOL    HW217859   2.593   1.920   5.233  0.6519 -0.1381 -0.6872
 2075SOL     OW17860   0.205   3.771  15.263 -0.2484 -0.6436  0.3079
 2075SOL    HW117861   0.202   3.847  15.321 -3.4044 -0.2099 -0.4381
 2075SOL    HW217862   0.123   3.781  15.215  1.0810 -0.5091 -1.8928
 2076SOL     OW17863   0.058   3.343  14.764  0.1070  0.2512 -0.0134
 2076SOL    HW117864   4.709   3.363  14.722  0.9351  1.0135 -1.3364
 2076SOL    HW217865   0.060   3.251  14.791  0.2896 -0.0131 -0.9225
 2077SOL     OW17866   0.324   3.827  12.126 -0.1558  0.2242 -0.0549
 2077SOL    HW117867   0.256   3.865  12.069 -0.6177 -1.2936 -0.5283
 2077SOL    HW217868   0.276   3.762  12.177 -0.8768  1.1007  0.3863
 2078SOL     OW17869   4.128   2.448   8.170 -0.3118  0.1197 -0.3792
 2078SOL    HW117870   4.117   2.396   8.250 -0.9424  1.2524  0.2780
 2078SOL    HW217871   4.204   2.501   8.190  0.7548 -1.4705 -0.2495
 2079SOL     OW17872   0.581   2.114   3.542  0.5387 -0.1979 -0.4550
 2079SOL    HW117873   0.561   2.173   3.615  1.3045 -1.1316  0.5003
 2079SOL    HW217874   0.512   2.146   3.484  0.8446  1.7117  0.2401
 2080SOL     OW17875   0.798   4.415   7.927  0.2168 -0.1985 -0.2136
 2080SOL    HW117876   0.710   4.401   7.893 -0.0943 -1.0699  0.9258
 2080SOL    HW217877   0.848   4.441   7.850 -1.2581  1.0719 -0.7369
 2081SOL     OW17878   3.822   2.030  15.205 -0.0922 -0.2935  0.2466
 2081SOL    HW117879   3.878   2.003  15.279 -0.2060  1.0090  0.8039
 2081SOL    HW217880   3.735   2.033  15.244  0.2100 -0.5878  0.9631
 2082SOL     OW17881   2.156   1.590  10.686  0.3143  0.3528 -0.0944
 2082SOL    HW117882   2.124   1.615  10.773 -0.9104 -0.5188 -0.2954
 2082SOL    HW217883   2.198   1.506  10.706 -0.5259  0.2483  1.2104
 2083SOL     OW17884   3.805   1.771  10.839  0.5852 -0.0894  0.2483
 2083SOL    HW117885   3.743   1.763  10.767 -1.1548  5.0780  1.1518
 2083SOL    HW217886   3.746   1.779  10.914 -1.4703 -1.3732 -1.2479
 2084SOL     OW17887   3.639   1.638   5.485  0.1837 -0.2629  0.5656
 2084SOL    HW117888   3.580   1.670   5.553  2.9601 -1.6769  3.6625
 2084SOL    HW217889   3.618   1.545   5.484  0.5847 -0.3390 -0.3760
 2085SOL     OW17890   0.621   4.284   3.458  0.1412  0.0905  0.4740
 2085SOL    HW117891   0.578   4.363   3.488  2.1066  2.0490 -1.8682
 2085SOL    HW217892   0.587   4.287   3.369 -2.1637 -0.1555  1.3360
 2086SOL     OW17893   2.459   2.887  10.497  1.0146  0.3667 -0.0154
 2086SOL    HW117894   2.398   2.929  10.558 -0.7607  1.3906 -2.4529
 2086SOL    HW217895   2.477   2.804  10.541  1.5273  0.2504 -0.4432
 2087SOL     OW17896   1.523   2.167   7.255 -0.3069 -0.5377 -0.3501
 2087SOL    HW117897   1.565   2.090   7.293 -0.3406 -0.3189  0.1203
 2087SOL    HW217898   1.570   2.181   7.173 -2.4576 -0.8579 -1.6560
 2088SOL     OW17899   2.140   1.336   2.904  0.5054  1.0656  0.1478
 2088SOL    HW117900   2.151   1.242   2.895 -0.7042  0.9208  0.1775
 2088SOL    HW217901   2.199   1.373   2.838  0.9456  0.7778  0.3887
 2089SOL     OW17902   1.415   0.383  10.659  0.1149 -0.3404  0.1199
 2089SOL    HW117903   1.395   0.457  10.602 -2.3947  0.4621  2.0270
 2089SOL    HW217904   1.432   0.433  10.739 -0.7506  0.4474 -0.1843
 2090SOL     OW17905   3.092   1.261   4.808  0.1174 -0.1478  0.1896
 2090SOL    HW117906   3.172   1.313   4.801  0.0597  0.1336  1.6579
 2090SOL    HW217907   3.129   1.176   4.785  2.0092  0.3985  1.2264
 2091SOL     OW17908   3.764   0.338   1.734 -0.3969  0.4881  0.1089
 2091SOL    HW117909   3.804   0.331   1.821  0.5721  1.7490 -0.2264
 2091SOL    HW217910   3.732   0.248   1.733  0.3692  0.2212 -0.2420
 2092SOL     OW17911   2.562   3.418   4.090 -0.8786 -0.4428 -0.6099
 2092SOL    HW117912   2.614   3.445   4.166 -0.5348  1.9750 -1.6913
 2092SOL    HW217913   2.595   3.475   4.021  0.1999 -0.4253 -0.0731
 2093SOL     OW17914   3.349   1.612   2.946  0.2121  0.1231  0.4895
 2093SOL    HW117915   3.385   1.573   2.867 -0.6644 -0.0103  0.1528
 2093SOL    HW217916   3.261   1.602   2.909  0.1532 -1.2143  1.0231
 2094SOL     OW17917   4.468   1.869  14.435 -0.2503  0.0230  0.3770
 2094SOL    HW117918   4.440   1.797  14.379 -0.6123  0.6324 -0.2347
 2094SOL    HW217919   4.430   1.850  14.520 -2.0454 -1.4804 -0.7433
 2095SOL     OW17920   0.333   4.688   8.494  0.0201  0.1793 -0.1934
 2095SOL    HW117921   0.418   4.727   8.513 -0.4278  1.6701 -1.2489
 2095SOL    HW217922   0.281   0.004   8.556  0.1670 -0.5781  0.5632
 2096SOL     OW17923   2.975   1.005  12.841  0.1822  0.0045 -0.2042
 2096SOL    HW117924   3.042   0.978  12.779  0.4956  0.5104 -0.0843
 2096SOL    HW217925   3.033   1.006  12.917 -0.3160 -0.5394  0.1883
 2097SOL     OW17926   0.158   0.732   6.908 -0.0603  0.0601  0.5553
 2097SOL    HW117927   0.242   0.775   6.923 -0.2079 -0.1651  1.9630
 2097SOL    HW217928   0.109   0.799   6.861  0.8366  0.9667  0.9190
 2098SOL     OW17929   4.545   0.323   9.101  0.0611  0.1182  0.0219
 2098SOL    HW117930   4.638   0.344   9.092 -0.1788 -0.4524 -3.4894
 2098SOL    HW217931   4.525   0.384   9.030  1.1508  1.0242  0.4932
 2099SOL     OW17932   3.569   3.418  14.606 -0.4955  0.1087  0.4601
 2099SOL    HW117933   3.663   3.427  14.587 -0.3516 -0.9459  0.7061
 2099SOL    HW217934   3.554   3.507  14.573  2.4291 -0.1762 -1.7307
 2100SOL     OW17935   1.768   3.357   8.584  0.1802 -0.8477 -0.5470
 2100SOL    HW117936   1.741   3.266   8.598 -0.5916 -0.7407 -1.3098
 2100SOL    HW217937   1.690   3.399   8.547  1.4968  2.1995  0.0709
 2101SOL     OW17938   3.461   2.543   1.006 -0.0279 -0.0869 -0.0634
 2101SOL    HW117939   3.508   2.461   1.026  0.5775 -0.0209 -1.1812
 2101SOL    HW217940   3.415   2.520   0.925 -1.2462 -2.2575  1.2350
 2102SOL     OW17941   4.568   4.156  12.764 -0.3363  0.3519 -0.2687
 2102SOL    HW117942   4.628   4.208  12.818 -0.2175  1.4138 -1.4325
 2102SOL    HW217943   4.487   4.158  12.814  0.1926 -0.2632  0.6341
 2103SOL     OW17944   2.720   3.525   6.240  0.0066 -0.0769  0.0379
 2103SOL    HW117945   2.630   3.519   6.271 -0.1549  0.6169 -0.3002
 2103SOL    HW217946   2.703   3.595   6.177  0.0576 -0.9606 -0.9757
 2104SOL     OW17947   3.108   2.455   2.870 -0.3378 -0.1524  0.3722
 2104SOL    HW117948   3.082   2.400   2.796  0.3781 -2.1894  1.6521
 2104SOL    HW217949   3.198   2.478   2.846 -0.8322  2.4949  1.1361
 2105SOL     OW17950   0.478   1.418   3.970 -0.1352 -0.2516  0.1315
 2105SOL    HW117951   0.520   1.405   3.885 -1.6415  2.2452 -1.0002
 2105SOL    HW217952   0.388   1.398   3.947 -0.9264  1.8528  1.4437
 2106SOL     OW17953   4.414   3.272  17.327 -0.0121  0.4812 -0.6244
 2106SOL    HW117954   4.338   3.271  17.269 -0.4408  0.0873 -0.0613
 2106SOL    HW217955   4.483   3.258  17.261  1.1370 -1.1299  0.9174
 2107SOL     OW17956   0.031   0.016  14.474  0.1021 -0.6174 -0.3743
 2107SOL    HW117957   4.713   4.674  14.485  1.5115 -1.3590  1.2561
 2107SOL    HW217958   0.083   0.018  14.555  1.2622 -1.5862 -1.0914
 2108SOL     OW17959   2.217   0.356   9.772  0.0733  0.2814  0.2112
 2108SOL    HW117960   2.123   0.365   9.785  0.0640 -0.5529  0.7608
 2108SOL    HW217961   2.249   0.331   9.859 -2.7217  2.1024  1.7711
 2109SOL     OW17962   2.168   2.931   7.421 -0.2738  0.7137 -0.4493
 2109SOL    HW117963   2.203   3.017   7.443 -0.0770  0.0200  1.9458
 2109SOL    HW217964   2.161   2.888   7.506 -0.8218 -0.3377 -1.0252
 2110SOL     OW17965   1.362   1.358  12.442  0.1731 -0.6401 -0.3392
 2110SOL    HW117966   1.359   1.417  12.367  3.2833 -1.0810 -0.8226
 2110SOL    HW217967   1.284   1.305  12.426 -1.6809  2.3946 -1.3693
 2111SOL     OW17968   3.012   3.090   9.706  0.2100 -0.4546  0.5189
 2111SOL    HW117969   2.960   3.117   9.630 -3.1419  0.0773  3.0146
 2111SOL    HW217970   3.097   3.095   9.662 -0.2445 -1.3948 -0.4845
 2112SOL     OW17971   3.740   3.407  17.457  0.3985  0.4598  0.2854
 2112SOL    HW117972   3.717   3.337  17.395  1.0279  1.2099 -0.7820
 2112SOL    HW217973   3.808   3.456  17.413  0.2761  0.6637  0.3236
 2113SOL     OW17974   1.606   2.929   4.175  0.2384 -0.0736 -0.2931
 2113SOL    HW117975   1.657   2.859   4.216 -1.9209 -1.2545  0.3765
 2113SOL    HW217976   1.604   2.993   4.246  0.0813 -0.1437 -0.2356
 2114SOL     OW17977   2.202   0.323   7.135  0.5023  0.0294 -0.2101
 2114SOL    HW117978   2.119   0.283   7.163  1.1289 -1.2887 -0.2476
 2114SOL    HW217979   2.180   0.414   7.115 -0.1221 -0.3857 -1.3864
 2115SOL     OW17980   4.569   0.259   4.029 -0.8340  0.9141 -0.0267
 2115SOL    HW117981   4.607   0.262   4.117  2.6408  2.6920 -1.6142
 2115SOL    HW217982   4.526   0.174   4.034  1.4060 -0.1046  1.9561
 2116SOL     OW17983   3.490   3.372   9.572 -0.2539  0.1393  0.0753
 2116SOL    HW117984   3.408   3.336   9.540  1.0379 -2.6824 -0.0247
 2116SOL    HW217985   3.545   3.345   9.498 -1.2423 -4.5111  1.0682
 2117SOL     OW17986   0.679   4.650   0.307  0.3554 -0.3194  0.3761
 2117SOL    HW117987   0.605   4.661   0.367  1.0154  0.5041  1.0424
 2117SOL    HW217988   0.723   4.733   0.324  1.6689 -1.2584  1.5922
 2118SOL     OW17989   4.557   3.663   7.683  0.0980 -0.0817  0.4768
 2118SOL    HW117990   4.595   3.610   7.613  0.0583  1.8122 -0.9803
 2118SOL    HW217991   4.614   3.739   7.674  0.8785 -0.6153  0.9366
 2119SOL     OW17992   2.903   1.712   8.689 -0.2638  0.5978 -0.5028
 2119SOL    HW117993   2.928   1.791   8.737 -1.0088 -1.2473  2.9445
 2119SOL    HW217994   2.963   1.648   8.726 -0.3485 -0.0651 -1.5130
 2120SOL     OW17995   0.019   0.318   8.188 -0.1958  0.5641 -0.5756
 2120SOL    HW117996   0.075   0.396   8.192 -0.2009  0.3833  3.2942
 2120SOL    HW217997   0.013   0.294   8.281  0.2044  1.6346 -0.2650
 2121SOL     OW17998   4.341   1.243  13.413 -0.1556  0.5473  0.7276
 2121SOL    HW117999   4.414   1.304  13.412  1.6311 -1.5602  2.2011
 2121SOL    HW218000   4.263   1.297  13.426 -2.1412 -1.7071 -1.7859
 2122SOL     OW18001   0.092   0.849   2.129 -0.1612 -0.3351 -0.0037
 2122SOL    HW118002   0.120   0.912   2.195 -0.9794  0.3429 -0.3055
 2122SOL    HW218003   0.016   0.889   2.087 -0.0878 -3.0488 -2.7301
 2123SOL     OW18004   0.868   3.109   2.328 -0.4872 -0.0606 -0.1422
 2123SOL    HW118005   0.931   3.147   2.267 -0.3763  0.7100  0.4616
 2123SOL    HW218006   0.853   3.026   2.282  0.0307 -0.0116 -0.3994
 2124SOL     OW18007   0.502   1.524  16.981  0.3507  0.6615 -0.1126
 2124SOL    HW118008   0.433   1.486  16.926  0.7787 -0.9361  0.4828
 2124SOL    HW218009   0.486   1.473  17.060 -1.1532  0.2759 -0.6505
 2125SOL     OW18010   2.378   2.996   7.260 -0.1535 -0.6235 -0.4110
 2125SOL    HW118011   2.312   2.933   7.289 -1.1150 -0.1681 -1.6156
 2125SOL    HW218012   2.371   2.976   7.166 -1.0936 -0.5217 -0.3587
 2126SOL     OW18013   2.387   1.125   5.361  0.3384  0.1360  0.2555
 2126SOL    HW118014   2.323   1.055   5.352 -0.9351  1.2875  0.4109
 2126SOL    HW218015   2.386   1.141   5.455  1.0147  0.0512  0.2782
 2127SOL     OW18016   4.649   0.706   6.732 -0.0747 -0.3705 -0.0455
 2127SOL    HW118017   4.554   0.715   6.735 -0.1136 -0.2326 -1.6707
 2127SOL    HW218018   4.673   0.642   6.800 -2.4038 -1.1612  0.0063
 2128SOL     OW18019   4.093   2.171  17.575 -0.3499  0.0460  0.4866
 2128SOL    HW118020   4.136   2.241  17.624  0.2577 -1.6807  2.4188
 2128SOL    HW218021   4.055   2.119  17.645 -0.7340 -0.8189 -0.3602
 2129SOL     OW18022   3.786   4.496   8.672 -0.0065 -0.2821 -0.3605
 2129SOL    HW118023   3.694   4.478   8.695  0.1246  1.0120  1.1582
 2129SOL    HW218024   3.776   4.590   8.686 -2.2252 -0.4877 -0.5085
 2130SOL     OW18025   3.559   2.047  15.254  0.5339 -0.2905  0.1719
 2130SOL    HW118026   3.493   2.070  15.189  0.3461  0.0657  0.4855
 2130SOL    HW218027   3.503   1.989  15.304  0.9964 -0.5276  0.4173
 2131SOL     OW18028   3.510   1.728   7.855  0.1291  0.0509 -0.5501
 2131SOL    HW118029   3.464   1.659   7.903  2.5619 -1.3329 -0.2470
 2131SOL    HW218030   3.517   1.682   7.772 -1.5012 -1.4839  0.1450
 2132SOL     OW18031   1.182   3.875   7.798 -0.0041  0.7693 -0.2291
 2132SOL    HW118032   1.167   3.945   7.735 -3.0685 -1.5064 -2.0185
 2132SOL    HW218033   1.109   3.816   7.783 -1.7425  2.4355  1.6328
 2133SOL     OW18034   1.025   3.196   4.126  0.2413  0.0910 -0.1536
 2133SOL    HW118035   1.014   3.153   4.210  0.3758  0.2607 -0.0476
 2133SOL    HW218036   0.975   3.141   4.065  2.9511 -1.7138 -0.7385
 2134SOL     OW18037   1.226   0.118   0.658 -0.5609 -0.5388  0.5064
 2134SOL    HW118038   1.313   0.155   0.643 -1.5617  1.8001  0.4771
 2134SOL    HW218039   1.172   0.177   0.709 -1.5609 -0.3900 -0.7097
 2135SOL     OW18040   0.703   1.254   0.490  0.1447  0.2121  0.3715
 2135SOL    HW118041   0.653   1.185   0.533  0.6210 -0.7526 -0.6156
 2135SOL    HW218042   0.708   1.313   0.565  1.7288 -1.0917  1.2831
 2136SOL     OW18043   1.316   0.902  10.519  0.2729  0.5049  0.2146
 2136SOL    HW118044   1.302   0.976  10.460 -1.6205  0.1237  0.1816
 2136SOL    HW218045   1.396   0.861  10.487  1.7905  0.7044  3.7501
 2137SOL     OW18046   1.295   2.277   3.239  0.2161  0.5318 -0.1697
 2137SOL    HW118047   1.332   2.364   3.254 -1.9541  1.4241 -0.0086
 2137SOL    HW218048   1.234   2.255   3.309  0.5211 -0.6305 -0.2653
 2138SOL     OW18049   2.698   0.103   0.430 -0.0415  0.2523  0.0762
 2138SOL    HW118050   2.678   0.038   0.363 -0.5615  1.6937 -1.1527
 2138SOL    HW218051   2.742   0.167   0.374  1.4132 -0.8552 -0.0718
 2139SOL     OW18052   1.339   4.494   9.367 -0.0416  0.1216  0.4794
 2139SOL    HW118053   1.388   4.573   9.342 -1.2497  0.2618 -1.4456
 2139SOL    HW218054   1.294   4.471   9.286 -0.3207 -1.4071  1.0793
 2140SOL     OW18055   2.455   1.072   3.946  0.7915  0.0184  0.0342
 2140SOL    HW118056   2.458   1.093   4.040 -3.7914  2.3495 -0.3164
 2140SOL    HW218057   2.531   1.121   3.914  1.1804 -1.4328 -1.2392
 2141SOL     OW18058   2.789   0.085  13.963  0.1658  0.2876 -0.0832
 2141SOL    HW118059   2.809   0.122  13.878 -0.9206 -1.8971 -1.2976
 2141SOL    HW218060   2.713   0.142  13.976 -0.4967 -0.2921 -1.4667
 2142SOL     OW18061   4.091   1.577   5.224  0.9580 -0.4620  0.6884
 2142SOL    HW118062   4.129   1.508   5.279  0.2214 -2.2714 -1.0862
 2142SOL    HW218063   4.091   1.649   5.287 -1.1820 -1.6275  2.0036
 2143SOL     OW18064   1.913   0.081   7.448  0.1890 -0.0991  1.2409
 2143SOL    HW118065   1.844   0.100   7.511 -1.2332 -2.5021  0.3878
 2143SOL    HW218066   1.984   0.080   7.513  0.6635 -1.7339  0.7010
 2144SOL     OW18067   3.529   4.471   6.028  0.4883 -0.0909 -0.1323
 2144SOL    HW118068   3.516   4.453   5.935  1.3207 -1.2438 -0.0331
 2144SOL    HW218069   3.624   4.473   6.035  0.4285 -0.4777  0.7618
 2145SOL     OW18070   2.174   2.976   8.226  0.1977  0.3252 -0.3406
 2145SOL    HW118071   2.167   2.929   8.309  2.0571  0.3677 -0.1701
 2145SOL    HW218072   2.248   2.931   8.187  1.7277  1.6130  1.0946
 2146SOL     OW18073   2.443   2.069   7.044 -0.0105 -0.4864  0.1690
 2146SOL    HW118074   2.433   2.126   7.120 -0.7696 -0.9175  0.3932
 2146SOL    HW218075   2.506   2.115   6.990 -2.8176  1.4198 -1.5104
 2147SOL     OW18076   1.449   0.580  16.879  0.3053 -0.1524  0.5041
 2147SOL    HW118077   1.396   0.652  16.845  1.0579 -1.1215 -2.7213
 2147SOL    HW218078   1.384   0.510  16.887 -1.1384  0.8265 -2.4258
 2148SOL     OW18079   0.404   0.781  17.426  0.4974  0.2072  0.5037
 2148SOL    HW118080   0.364   0.710  17.476  0.8873  0.2645  0.9023
 2148SOL    HW218081   0.493   0.780  17.462  0.5715 -1.9522  0.2728
 2149SOL     OW18082   4.235   4.595  10.232 -0.0688 -0.6990 -0.1170
 2149SOL    HW118083   4.188   4.542  10.167  1.9934 -0.1832 -2.0484
 2149SOL    HW218084   4.257   4.525  10.294  0.9351  0.0858  0.4202
 2150SOL     OW18085   1.698   2.921   1.473 -0.0897  0.6310 -0.0442
 2150SOL    HW118086   1.615   2.881   1.498  0.2566 -0.4349 -0.6059
 2150SOL    HW218087   1.748   2.913   1.554 -0.5852  0.4435  0.2417
 2151SOL     OW18088   1.039   3.807   5.440  0.3228 -0.4264 -0.2122
 2151SOL    HW118089   1.116   3.759   5.473  2.1331  1.7946 -1.2304
 2151SOL    HW218090   1.020   3.774   5.353 -1.4480  1.0525 -0.3754
 2152SOL     OW18091   3.444   1.507  13.412 -0.2884 -0.3651  0.2238
 2152SOL    HW118092   3.514   1.471  13.356 -0.7918 -1.2073  0.1410
 2152SOL    HW218093   3.442   1.444  13.484  2.9432 -0.4894  0.2403
 2153SOL     OW18094   1.205   3.214   3.736 -0.0195 -0.3079  0.4008
 2153SOL    HW118095   1.224   3.139   3.792  1.1382  1.3209  2.2059
 2153SOL    HW218096   1.292   3.220   3.698  0.1498  1.9189  1.1571
 2154SOL     OW18097   1.398   4.678   1.573  0.3460  0.8816  1.1003
 2154SOL    HW118098   1.428   4.587   1.580 -1.4534  0.1501 -0.7123
 2154SOL    HW218099   1.333   4.681   1.644  0.3335  0.4152  1.1083
 2155SOL     OW18100   3.181   3.396  10.662  0.6538 -0.6098 -0.0177
 2155SOL    HW118101   3.121   3.349  10.720 -0.7885  1.2017 -0.0257
 2155SOL    HW218102   3.156   3.487  10.680  1.9044 -0.6230  1.7411
 2156SOL     OW18103   0.991   4.148   8.541  0.2552 -0.1124 -0.4170
 2156SOL    HW118104   0.960   4.221   8.487  1.3414  1.0562  0.5516
 2156SOL    HW218105   1.082   4.177   8.551  0.6340  0.0995 -4.5129
 2157SOL     OW18106   1.767   2.803   4.367 -0.1106 -0.6731 -0.1355
 2157SOL    HW118107   1.855   2.781   4.396 -0.3068 -0.2157  0.8069
 2157SOL    HW218108   1.736   2.713   4.365 -1.8703 -0.0292 -2.6925
 2158SOL     OW18109   0.847   3.915  12.713  0.4020  0.1301 -0.9121
 2158SOL    HW118110   0.884   3.945  12.630  0.6006 -1.8289 -1.5435
 2158SOL    HW218111   0.758   3.945  12.695  0.0635 -0.2800  0.1269
 2159SOL     OW18112   3.620   2.550   2.813 -0.1225  0.2013 -0.2877
 2159SOL    HW118113   3.692   2.532   2.753  0.0158 -2.0590  0.5731
 2159SOL    HW218114   3.668   2.572   2.892 -1.5661  1.5522  0.2294
 2160SOL     OW18115   3.910   1.681   6.200  0.1610  0.2161 -0.1185
 2160SOL    HW118116   3.890   1.642   6.114  1.1032 -3.3542  1.2577
 2160SOL    HW218117   3.829   1.667   6.249  1.2620 -0.4081  1.5027
 2161SOL     OW18118   0.934   3.241  10.357 -0.0461  0.1833 -0.3461
 2161SOL    HW118119   0.886   3.160  10.373  1.4715 -1.4467 -4.0672
 2161SOL    HW218120   1.015   3.204  10.392  0.5132  1.8023  0.0739
 2162SOL     OW18121   0.627   4.471   5.485 -0.8373 -0.2528  0.5290
 2162SOL    HW118122   0.553   4.526   5.457 -0.9460 -0.6326  0.0743
 2162SOL    HW218123   0.569   4.410   5.530 -0.4976 -0.3182  0.8781
 2163SOL     OW18124   1.048   0.174  12.574  0.4543 -0.0226  0.0520
 2163SOL    HW118125   0.967   0.124  12.575 -0.9773  2.2454 -1.3557
 2163SOL    HW218126   1.113   0.105  12.588  1.4439  1.0220  0.6585
 2164SOL     OW18127   3.514   3.711   8.869  0.4629  0.5592 -0.6329
 2164SOL    HW118128   3.546   3.785   8.920 -1.5598  0.5215  0.6915
 2164SOL    HW218129   3.529   3.642   8.933  1.5893 -0.0981 -1.5992
 2165SOL     OW18130   2.202   0.646  14.547 -0.3437 -0.3670  0.3191
 2165SOL    HW118131   2.221   0.716  14.484 -2.4096 -0.1463 -0.0934
 2165SOL    HW218132   2.110   0.637  14.521  0.2078 -1.3541 -1.2945
 2166SOL     OW18133   2.350   1.924   0.086 -0.3507  0.6037 -0.2638
 2166SOL    HW118134   2.413   1.967   0.143 -1.4746  0.1698  1.2777
 2166SOL    HW218135   2.269   1.919   0.136 -1.0972 -1.9904 -1.7250
 2167SOL     OW18136   2.558   0.740   3.589 -0.0449 -0.0889  0.5592
 2167SOL    HW118137   2.597   0.700   3.667 -1.2623 -0.6530  0.8709
 2167SOL    HW218138   2.536   0.828   3.618 -0.0476 -0.0853  0.5465
 2168SOL     OW18139   1.589   1.342   6.882 -0.3831 -0.1715  0.2997
 2168SOL    HW118140   1.521   1.276   6.893 -0.4445 -0.2353 -0.4498
 2168SOL    HW218141   1.526   1.413   6.867 -1.9399 -1.3803  1.1016
 2169SOL     OW18142   4.351   1.282   3.203 -0.1528  0.1423  0.1530
 2169SOL    HW118143   4.278   1.316   3.255 -0.2352 -1.2237  0.9365
 2169SOL    HW218144   4.409   1.356   3.219  1.9045 -1.3967 -0.2234
 2170SOL     OW18145   4.084   1.541   9.676  0.3512  0.4835  0.3837
 2170SOL    HW118146   4.001   1.587   9.664  1.0012  1.7109  0.5779
 2170SOL    HW218147   4.140   1.600   9.626 -0.9442 -0.0467 -1.6593
 2171SOL     OW18148   2.109   2.093   5.700 -1.0547  0.0447 -0.2092
 2171SOL    HW118149   2.071   2.019   5.748  2.3914  0.8456  3.8066
 2171SOL    HW218150   2.167   2.131   5.766 -0.0478 -0.5360 -0.7549
 2172SOL     OW18151   2.459   1.334   6.736  0.3135  0.3388 -0.1591
 2172SOL    HW118152   2.506   1.406   6.777 -3.6644  3.3823 -0.8900
 2172SOL    HW218153   2.519   1.279   6.685 -0.2438 -1.3718  1.0067
 2173SOL     OW18154   1.059   2.224   7.715  0.0662 -0.2285 -0.5249
 2173SOL    HW118155   1.116   2.299   7.733  0.9823 -0.5315 -2.1007
 2173SOL    HW218156   1.036   2.231   7.622 -1.3499  2.8809  0.0494
 2174SOL     OW18157   0.066   0.868   5.218  0.1657  0.0117  0.1115
 2174SOL    HW118158   0.155   0.839   5.237  0.0777 -0.4078 -0.1082
 2174SOL    HW218159   0.062   0.872   5.122 -2.4075 -1.5635  0.1410
 2175SOL     OW18160   2.709   0.328   0.086 -0.2984  1.1321 -0.6783
 2175SOL    HW118161   2.629   0.336   0.034 -1.1503  0.6817  0.5634
 2175SOL    HW218162   2.688   0.398   0.147 -1.9534  1.7442 -1.9529
 2176SOL     OW18163   1.253   3.794  16.094 -0.4804  0.0115  0.3992
 2176SOL    HW118164   1.183   3.838  16.046 -0.6835 -2.3699 -1.5010
 2176SOL    HW218165   1.310   3.760  16.025  1.2879  2.1803  0.8013
 2177SOL     OW18166   0.276   3.438   5.578 -0.0637  0.1333 -0.3455
 2177SOL    HW118167   0.180   3.433   5.582 -0.0645 -0.0255 -0.6250
 2177SOL    HW218168   0.290   3.476   5.491 -1.0980  0.4302 -0.3847
 2178SOL     OW18169   4.126   1.030   6.213 -0.0925  0.4015  0.8481
 2178SOL    HW118170   4.191   0.965   6.239 -0.7593 -1.2443 -1.7352
 2178SOL    HW218171   4.176   1.061   6.138 -0.7469  1.0851  0.6945
 2179SOL     OW18172   0.300   0.009   2.052  0.2378  0.4686  0.3611
 2179SOL    HW118173   0.383   4.703   2.075 -0.2650 -0.6171  0.2075
 2179SOL    HW218174   0.288   4.708   1.965 -1.0545  2.1778 -0.1594
 2180SOL     OW18175   3.609   2.750   3.182  0.5848 -0.1582 -0.1234
 2180SOL    HW118176   3.617   2.751   3.278  0.7857  0.3976 -0.1488
 2180SOL    HW218177   3.683   2.701   3.146  0.7767  0.4968 -0.6185
 2181SOL     OW18178   2.545   4.659  14.195 -0.3851 -0.0902  0.3508
 2181SOL    HW118179   2.528   4.608  14.274 -2.2986  2.7054  1.7676
 2181SOL    HW218180   2.486   4.734  14.205 -1.0690 -0.7142  1.0553
 2182SOL     OW18181   1.695   2.246  15.710  0.1106  0.5234 -0.2901
 2182SOL    HW118182   1.724   2.257  15.801 -1.8875  0.3738  0.3538
 2182SOL    HW218183   1.774   2.204  15.676 -2.2042 -1.3855 -3.2410
 2183SOL     OW18184   0.470   4.053  12.090 -0.5811  0.0493 -0.9081
 2183SOL    HW118185   0.437   4.097  12.168  2.0320  2.0945 -0.9429
 2183SOL    HW218186   0.419   3.973  12.099  0.6333 -0.6037  0.2641
 2184SOL     OW18187   1.571   2.550   7.206 -0.3813  0.6543  0.6526
 2184SOL    HW118188   1.627   2.546   7.128 -0.7421  1.7981  0.3375
 2184SOL    HW218189   1.488   2.579   7.169  0.7686  0.1691 -2.3451
 2185SOL     OW18190   2.522   1.321   4.412  0.2793  0.5005  0.1016
 2185SOL    HW118191   2.588   1.269   4.366  1.0937 -0.2199  2.0825
 2185SOL    HW218192   2.568   1.336   4.494 -0.0793  2.3058 -0.0407
 2186SOL     OW18193   0.400   2.418   3.965 -0.1765  0.3962  0.0786
 2186SOL    HW118194   0.321   2.382   3.925 -0.2372  0.6417 -0.0224
 2186SOL    HW218195   0.429   2.356   4.032  2.4282  0.5733 -0.8894
 2187SOL     OW18196   4.663   0.155  10.018 -0.4444 -0.1174 -0.2601
 2187SOL    HW118197   4.677   0.192  10.105 -2.3017 -0.9247  0.4022
 2187SOL    HW218198   4.579   0.111  10.035 -0.0085 -0.6704  0.4604
 2188SOL     OW18199   1.610   0.456   3.992 -0.0932 -0.3188  0.2174
 2188SOL    HW118200   1.666   0.387   4.027  2.2532  0.5924 -1.7007
 2188SOL    HW218201   1.668   0.532   4.001 -0.9811  0.4317 -0.3697
 2189SOL     OW18202   0.558   4.370  11.535  0.5771 -0.4450  0.4990
 2189SOL    HW118203   0.634   4.382  11.478 -0.3524 -2.0138 -1.0688
 2189SOL    HW218204   0.567   4.450  11.586 -1.1572 -0.3485  0.6447
 2190SOL     OW18205   4.705   1.602  12.778 -0.0278  0.1736  0.2268
 2190SOL    HW118206   4.684   1.509  12.776 -1.1911  0.4284  0.3020
 2190SOL    HW218207   0.027   1.615  12.852  0.5072 -0.2528 -0.1175
 2191SOL     OW18208   3.031   2.784  16.735 -0.1042  0.4013 -0.2334
 2191SOL    HW118209   3.101   2.845  16.759  0.4989 -0.7131  0.8184
 2191SOL    HW218210   2.957   2.845  16.731  0.1933  0.6954 -1.4951
 2192SOL     OW18211   3.722   2.595   3.717  0.0103  0.2760  0.4527
 2192SOL    HW118212   3.770   2.512   3.708 -0.9481 -0.2831  0.4984
 2192SOL    HW218213   3.787   2.661   3.740 -0.1635 -0.5855  3.4321
 2193SOL     OW18214   0.351   0.254   3.881  0.3904  0.1507  0.4966
 2193SOL    HW118215   0.277   0.262   3.819  1.2238  2.0176 -0.2650
 2193SOL    HW218216   0.402   0.325   3.842 -0.8625 -0.3147 -2.0249
 2194SOL     OW18217   2.577   1.917   4.307 -0.6572  0.3332 -0.5905
 2194SOL    HW118218   2.669   1.908   4.329 -0.9564  0.9438  0.9113
 2194SOL    HW218219   2.579   1.851   4.238  2.8049 -0.4509  0.2456
 2195SOL     OW18220   1.033   3.132  16.188  0.4760 -0.0586 -0.1181
 2195SOL    HW118221   0.951   3.153  16.143  0.1028 -0.0119  0.5837
 2195SOL    HW218222   1.002   3.147  16.277 -1.0349  1.9153 -0.9863
 2196SOL     OW18223   0.644   1.495  14.445  0.3396 -0.2879 -0.1210
 2196SOL    HW118224   0.739   1.504  14.440 -0.0918  3.3916 -1.3849
 2196SOL    HW218225   0.614   1.569  14.393 -0.0692 -0.7734 -0.5842
 2197SOL     OW18226   1.313   0.335   6.033  0.3410  0.6320 -0.5802
 2197SOL    HW118227   1.218   0.325   6.036  0.6913 -2.4718 -0.2071
 2197SOL    HW218228   1.314   0.430   6.017 -0.3808  0.7157 -0.1504
 2198SOL     OW18229   2.571   3.909   6.797  0.1391  0.1887  0.5124
 2198SOL    HW118230   2.656   3.930   6.834  1.0650 -1.5610 -0.6410
 2198SOL    HW218231   2.559   3.826   6.842 -0.0617  0.2610  0.5934
 2199SOL     OW18232   4.013   2.795   1.935  0.3484 -0.6514  0.0716
 2199SOL    HW118233   3.934   2.763   1.978 -1.3531  0.6308 -2.1129
 2199SOL    HW218234   4.014   2.747   1.852 -1.0675 -2.7315  1.2531
 2200SOL     OW18235   3.717   0.209  12.528  0.3698 -0.1018 -0.3062
 2200SOL    HW118236   3.770   0.287  12.511  3.3580 -2.1749 -0.3657
 2200SOL    HW218237   3.645   0.249  12.577  0.4038  0.3555 -0.6277
 2201SOL     OW18238   3.013   0.721   9.774 -0.1517  0.0950  0.3296
 2201SOL    HW118239   3.084   0.660   9.793 -0.3744 -0.3749 -0.3235
 2201SOL    HW218240   2.943   0.659   9.752  2.2551 -2.3367 -0.4373
 2202SOL     OW18241   3.057   3.291  12.486  0.3577  0.6592 -0.3955
 2202SOL    HW118242   3.004   3.371  12.492  2.1110  1.5995  2.1861
 2202SOL    HW218243   3.115   3.309  12.411  1.9040  0.6765  0.8211
 2203SOL     OW18244   2.532   3.948  15.238  0.2159 -0.1454 -0.1755
 2203SOL    HW118245   2.550   3.915  15.326 -3.8108  0.3102  0.8571
 2203SOL    HW218246   2.437   3.945  15.221  0.0620  4.0462  0.0404
 2204SOL     OW18247   2.845   0.119  12.979 -0.0334 -0.4034  0.1959
 2204SOL    HW118248   2.893   0.201  12.994 -0.2364  0.3050 -3.0377
 2204SOL    HW218249   2.760   0.146  13.015 -1.0034  0.8610 -3.0345
 2205SOL     OW18250   2.106   2.657   6.552  0.1623 -0.1732 -0.3220
 2205SOL    HW118251   2.147   2.626   6.471 -0.8805 -0.2944 -0.7950
 2205SOL    HW218252   2.094   2.578   6.605 -4.4268 -0.6723 -2.1301
 2206SOL     OW18253   4.162   0.881   6.571 -0.8506  0.5150 -0.0859
 2206SOL    HW118254   4.206   0.893   6.486 -0.4385  0.2627  0.0876
 2206SOL    HW218255   4.070   0.895   6.550 -1.2610 -1.0967  0.6340
 2207SOL     OW18256   2.778   2.619  13.220  0.2239 -0.1321  0.7242
 2207SOL    HW118257   2.844   2.557  13.192 -2.6920 -1.7960 -2.4472
 2207SOL    HW218258   2.799   2.693  13.163 -0.2603 -0.8562 -0.3934
 2208SOL     OW18259   0.092   0.010   3.290  0.4383 -0.3097 -0.7530
 2208SOL    HW118260   0.117   0.065   3.216 -1.2899 -1.4703 -2.2022
 2208SOL    HW218261   0.130   4.658   3.280  2.6066  0.3929  1.4574
 2209SOL     OW18262   2.732   2.983   2.165 -0.4784  0.4189  0.4648
 2209SOL    HW118263   2.700   2.892   2.163  0.3367  0.1986 -2.6266
 2209SOL    HW218264   2.734   2.996   2.070  1.7930 -1.2337  0.2889
 2210SOL     OW18265   0.067   2.112   1.909  0.1058 -0.9014 -0.4181
 2210SOL    HW118266   0.022   2.194   1.927  0.8966 -0.4763 -0.3626
 2210SOL    HW218267   0.118   2.093   1.987 -0.2586 -1.2484 -0.2678
 2211SOL     OW18268   0.745   2.132   3.248  0.2587 -0.5375 -0.0093
 2211SOL    HW118269   0.670   2.167   3.296  2.9225  1.8857  2.4751
 2211SOL    HW218270   0.797   2.211   3.234  0.7171 -0.3352  2.7561
 2212SOL     OW18271   4.298   4.161   6.825  0.0990 -0.1065  0.2271
 2212SOL    HW118272   4.295   4.240   6.879  2.3594 -0.0018  0.1876
 2212SOL    HW218273   4.257   4.098   6.884 -0.0807 -0.9094 -0.7553
 2213SOL     OW18274   2.004   3.458   1.098  0.1102  0.1488  0.3977
 2213SOL    HW118275   2.003   3.368   1.066 -4.0237 -0.3064  1.7832
 2213SOL    HW218276   1.999   3.459   1.193 -1.5966  1.1840  0.2994
 2214SOL     OW18277   1.243   2.648   3.335  0.0872 -0.8711 -0.3167
 2214SOL    HW118278   1.309   2.705   3.375 -2.0181  0.3671  1.3415
 2214SOL    HW218279   1.276   2.632   3.246 -0.5656  0.1613 -0.7384
 2215SOL     OW18280   2.874   4.664  11.509  0.0316  0.4913 -0.1734
 2215SOL    HW118281   2.891   0.020  11.533 -1.3616  0.6781  0.0967
 2215SOL    HW218282   2.950   4.644  11.455 -0.1106  1.4740 -0.7497
 2216SOL     OW18283   0.866   1.488  11.064 -0.9276 -0.1328 -0.7676
 2216SOL    HW118284   0.895   1.554  11.001  0.3435  0.5432  0.5283
 2216SOL    HW218285   0.774   1.497  11.043 -0.8817  1.0885 -0.4192
 2217SOL     OW18286   4.114   0.878   7.392  0.1945 -0.5481  0.4644
 2217SOL    HW118287   4.144   0.869   7.483  0.0998  0.5767  0.6068
 2217SOL    HW218288   4.035   0.826   7.406 -0.4513  0.5028  0.7404
 2218SOL     OW18289   3.062   0.264   2.478 -0.6114  0.1016  0.1623
 2218SOL    HW118290   3.151   0.229   2.481 -0.9447 -0.8773 -1.7864
 2218SOL    HW218291   3.046   0.294   2.389  2.6130  3.0451  0.5460
 2219SOL     OW18292   3.537   3.512  13.224  0.1687 -0.2900  0.5425
 2219SOL    HW118293   3.538   3.608  13.225  1.2806 -0.3032  0.6311
 2219SOL    HW218294   3.581   3.483  13.304 -0.5033 -0.3988  0.8685
 2220SOL     OW18295   0.715   2.226  11.031 -0.2060  0.2421 -0.0190
 2220SOL    HW118296   0.683   2.162  10.968 -0.7936  0.1075  0.4212
 2220SOL    HW218297   0.695   2.185  11.116  1.7434 -0.8382 -0.0821
 2221SOL     OW18298   1.176   4.338  14.940  0.9884  0.0897 -0.0922
 2221SOL    HW118299   1.254   4.313  14.990  2.0421  2.5410 -0.5039
 2221SOL    HW218300   1.216   4.364  14.857  1.3655 -3.4371 -1.0063
 2222SOL     OW18301   4.676   2.655  14.327 -0.7122 -0.3473 -0.4604
 2222SOL    HW118302   4.636   2.726  14.377  2.5473 -0.0120  1.6289
 2222SOL    HW218303   4.605   2.600  14.293 -0.3789 -0.7388 -0.5240
 2223SOL     OW18304   1.046   2.061   2.220  0.0611 -0.0313  0.1297
 2223SOL    HW118305   0.972   2.026   2.270  0.6045 -0.2741  0.7828
 2223SOL    HW218306   1.106   1.986   2.216  0.4601  0.5419 -3.7807
 2224SOL     OW18307   1.381   1.973   7.090  0.8780  0.3939  0.1458
 2224SOL    HW118308   1.461   1.994   7.042  2.1881 -2.5758  1.0020
 2224SOL    HW218309   1.407   1.998   7.179 -1.6190  0.6390  0.7899
 2225SOL     OW18310   0.846   1.051   7.241  0.2118  0.1782 -0.1769
 2225SOL    HW118311   0.778   0.997   7.282  1.0275  0.1310  1.1022
 2225SOL    HW218312   0.852   1.015   7.153  1.0588  1.6948 -0.7438
 2226SOL     OW18313   0.256   2.409   0.873 -0.4360 -0.2718  0.0625
 2226SOL    HW118314   0.208   2.476   0.923 -2.4453 -1.8466  0.2461
 2226SOL    HW218315   0.303   2.365   0.944 -0.0758 -0.9493 -0.6081
 2227SOL     OW18316   0.951   1.734   7.712 -0.3245  0.3245 -0.2637
 2227SOL    HW118317   0.859   1.716   7.694 -0.9316  2.3411  0.7406
 2227SOL    HW218318   0.983   1.708   7.626 -0.3937 -0.6348  0.0041
 2228SOL     OW18319   1.361   1.994   6.800 -0.1213  0.6729 -0.0221
 2228SOL    HW118320   1.281   1.943   6.811  0.9292 -0.9114  0.2749
 2228SOL    HW218321   1.318   2.078   6.815  0.5487  0.8574  0.8335
 2229SOL     OW18322   0.767   1.999   4.404 -0.4549  0.4055  0.2305
 2229SOL    HW118323   0.715   2.049   4.467 -2.3065  0.2521 -1.1651
 2229SOL    HW218324   0.829   2.064   4.374  0.5566 -0.0613  1.3163
 2230SOL     OW18325   2.968   4.359  15.138  0.2601 -0.4814 -0.6986
 2230SOL    HW118326   3.018   4.365  15.057  2.2437  2.0315  0.7032
 2230SOL    HW218327   2.905   4.430  15.135  1.6062  0.7476  0.1715
 2231SOL     OW18328   4.586   1.216   9.306  0.0286 -0.8262 -0.6061
 2231SOL    HW118329   4.637   1.136   9.296  0.1627 -0.5577 -2.1489
 2231SOL    HW218330   4.554   1.205   9.395  1.3111  0.6403  0.0241
 2232SOL     OW18331   0.211   3.320   6.688  0.2868  0.0047  0.0656
 2232SOL    HW118332   0.264   3.378   6.743  1.5434 -0.6527 -0.4470
 2232SOL    HW218333   0.242   3.359   6.606 -0.7016 -0.6186 -0.5981
 2233SOL     OW18334   3.528   1.907  12.685 -0.2309 -0.2099 -0.0792
 2233SOL    HW118335   3.442   1.903  12.644  0.9654 -1.4358 -2.4719
 2233SOL    HW218336   3.494   1.926  12.772 -0.3483  1.2223 -0.4411
 2234SOL     OW18337   3.588   2.079   0.428 -0.1365  0.6055 -0.3494
 2234SOL    HW118338   3.586   2.150   0.491 -0.4552 -1.0261  1.4935
 2234SOL    HW218339   3.611   2.104   0.338  2.3426 -0.7158 -0.0832
 2235SOL     OW18340   3.072   4.314  11.345  0.6454  0.0805 -0.3235
 2235SOL    HW118341   3.162   4.282  11.348  0.7583  0.5488  1.2836
 2235SOL    HW218342   3.083   4.408  11.354  0.9896 -0.0327  0.4141
 2236SOL     OW18343   2.482   2.863   4.220  0.3091 -0.2788 -0.1397
 2236SOL    HW118344   2.441   2.895   4.301 -0.6546  0.6219 -0.9825
 2236SOL    HW218345   2.451   2.931   4.160  2.1573  0.5082 -0.2061
 2237SOL     OW18346   0.279   0.979   6.818  0.3326  0.0630  0.1598
 2237SOL    HW118347   0.350   1.008   6.759  1.8312  0.5829  2.2189
 2237SOL    HW218348   0.228   1.060   6.817  2.4281  1.4019 -0.4519
 2238SOL     OW18349   4.299   3.855   1.766 -0.3631  0.4108  0.7192
 2238SOL    HW118350   4.257   3.936   1.738 -0.6485  0.2029  0.5537
 2238SOL    HW218351   4.228   3.807   1.809  0.6205 -1.3474  0.3841
 2239SOL     OW18352   3.450   0.673   1.642  0.2610  0.4155  0.4505
 2239SOL    HW118353   3.498   0.628   1.572 -1.0686  0.3668 -0.4245
 2239SOL    HW218354   3.397   0.735   1.592 -0.3459 -1.8981 -1.7733
 2240SOL     OW18355   3.151   0.747   4.824  0.1821  0.3608 -0.0298
 2240SOL    HW118356   3.118   0.806   4.756 -2.8134  0.4605  1.4996
 2240SOL    HW218357   3.120   0.661   4.797  1.5451 -0.9075  2.3902
 2241SOL     OW18358   1.697   2.584   5.986  0.5868 -0.2571  0.7245
 2241SOL    HW118359   1.672   2.534   6.063 -2.6658 -1.5329 -1.1656
 2241SOL    HW218360   1.699   2.668   6.033  2.4392  0.2847 -0.3436
 2242SOL     OW18361   3.471   2.223  12.337  0.4585 -0.3713  0.0278
 2242SOL    HW118362   3.565   2.210  12.341  0.8820  2.3353 -1.3951
 2242SOL    HW218363   3.454   2.255  12.426  1.4962 -1.1158  0.4894
 2243SOL     OW18364   4.080   3.262  17.466  0.1607 -0.2344  0.4040
 2243SOL    HW118365   4.129   3.343  17.456  5.2753 -3.3930 -0.3144
 2243SOL    HW218366   4.091   3.212  17.385  0.4820  0.4609  0.0202
 2244SOL     OW18367   4.122   4.717  14.586 -0.9566 -0.0975  0.6552
 2244SOL    HW118368   4.136   4.698  14.678 -1.5697 -0.4912  0.6664
 2244SOL    HW218369   4.170   0.064  14.590  0.5360 -0.8509 -1.3191
 2245SOL     OW18370   3.365   3.817   3.667  0.4179 -0.4660  0.7480
 2245SOL    HW118371   3.292   3.801   3.607  0.7496  2.7495 -0.4869
 2245SOL    HW218372   3.439   3.829   3.608  1.2193 -0.6302  1.7291
 2246SOL     OW18373   2.274   0.763   6.891  1.0334  0.4406  0.5916
 2246SOL    HW118374   2.265   0.845   6.843  1.5925 -1.5194 -2.8758
 2246SOL    HW218375   2.336   0.719   6.832 -0.4641 -1.6475  0.5837
 2247SOL     OW18376   4.378   3.055   6.362 -0.7428 -0.1975 -0.1762
 2247SOL    HW118377   4.456   3.107   6.385 -1.5499 -0.1626  2.4972
 2247SOL    HW218378   4.366   3.086   6.272  0.1214  0.1082 -0.1879
 2248SOL     OW18379   1.451   2.653  15.587 -0.2628  0.1371  0.2958
 2248SOL    HW118380   1.438   2.651  15.492  0.6248  0.3868  0.1661
 2248SOL    HW218381   1.515   2.582  15.597  0.0097  0.6284  2.0547
 2249SOL     OW18382   4.666   3.248   0.334 -0.2012 -0.5473  0.0094
 2249SOL    HW118383   4.651   3.169   0.282 -0.6490  0.0549 -0.7682
 2249SOL    HW218384   0.026   3.254   0.334 -0.3301  1.3614  1.0528
 2250SOL     OW18385   1.443   2.909   2.925 -0.5424  0.0979  0.2083
 2250SOL    HW118386   1.423   3.001   2.911  2.6131  0.5593 -1.2688
 2250SOL    HW218387   1.509   2.886   2.860 -1.1171  0.1241 -0.3787
 2251SOL     OW18388   3.713   4.138   6.643 -0.3847 -0.0260 -0.6413
 2251SOL    HW118389   3.679   4.162   6.729 -0.1093  0.6406 -0.7177
 2251SOL    HW218390   3.808   4.130   6.645 -0.6466 -2.8086 -0.2459
 2252SOL     OW18391   4.067   4.075  11.353  0.0312 -0.3744 -0.1554
 2252SOL    HW118392   3.994   4.133  11.330  0.1099  0.1638  0.9510
 2252SOL    HW218393   4.036   3.985  11.342  1.5441 -0.8910 -0.2504
 2253SOL     OW18394   0.011   3.087  13.684  0.3444  0.2850 -0.0933
 2253SOL    HW118395   4.697   3.012  13.652 -0.6784  1.4407 -1.2225
 2253SOL    HW218396   4.701   3.113  13.763  0.0000 -0.1721 -0.1416
 2254SOL     OW18397   0.723   1.557  15.803 -0.2639  0.1725 -0.1597
 2254SOL    HW118398   0.662   1.630  15.794 -3.1240 -2.1586  0.5027
 2254SOL    HW218399   0.684   1.492  15.744 -0.6712  0.6820 -0.4515
 2255SOL     OW18400   2.120   1.545   5.499  0.4023 -0.2918  0.0837
 2255SOL    HW118401   2.032   1.568   5.471  0.4442  0.7940  0.8806
 2255SOL    HW218402   2.107   1.543   5.593  1.9330  0.1112  0.2968
 2256SOL     OW18403   2.187   0.370  10.058 -0.0109 -0.0927 -0.3402
 2256SOL    HW118404   2.140   0.453  10.069  0.0338  0.0405 -1.1650
 2256SOL    HW218405   2.130   0.310  10.108  1.9835 -1.1696  0.6262
 2257SOL     OW18406   3.691   4.590  15.808 -0.5952 -0.5773  0.1185
 2257SOL    HW118407   3.663   4.556  15.723  0.8844 -1.0888 -0.1658
 2257SOL    HW218408   3.646   4.531  15.868 -2.0205 -0.6407 -1.0062
 2258SOL     OW18409   1.363   4.115   1.010 -0.6896 -0.0851  0.1416
 2258SOL    HW118410   1.406   4.193   0.974 -0.5033 -0.0874  0.3592
 2258SOL    HW218411   1.288   4.113   0.951 -0.7642 -2.3466  0.3442
 2259SOL     OW18412   3.836   3.607   7.599 -0.2195  0.0484 -0.1074
 2259SOL    HW118413   3.868   3.637   7.514 -0.3883  2.2345  0.6062
 2259SOL    HW218414   3.885   3.663   7.658  0.6760 -0.4181 -0.3958
 2260SOL     OW18415   1.669   3.445  12.439 -0.6817  0.6163  0.4786
 2260SOL    HW118416   1.698   3.364  12.481  1.6406 -0.0143 -2.3110
 2260SOL    HW218417   1.585   3.460  12.482  0.4017  1.2955  2.3654
 2261SOL     OW18418   3.665   3.634   2.246  0.7147 -0.0445  0.0035
 2261SOL    HW118419   3.662   3.541   2.269  0.4380  0.4750  1.9866
 2261SOL    HW218420   3.586   3.663   2.292  1.0681  0.8049  0.0749
 2262SOL     OW18421   2.787   3.143   5.283  0.1996 -0.1066  0.3213
 2262SOL    HW118422   2.833   3.063   5.309  1.3694  0.6592  0.6276
 2262SOL    HW218423   2.762   3.189   5.363 -0.6147 -1.2345  0.7110
 2263SOL     OW18424   0.148   1.974   5.853 -0.3000  0.5729 -0.8083
 2263SOL    HW118425   0.177   2.024   5.929 -2.2207  0.3600  0.0539
 2263SOL    HW218426   0.211   1.903   5.842 -0.6052 -0.0989  1.7642
 2264SOL     OW18427   0.271   0.753  14.157  0.2472 -0.4647  0.2308
 2264SOL    HW118428   0.264   0.752  14.253 -1.4804  0.1927  0.1007
 2264SOL    HW218429   0.184   0.719  14.137 -0.2425 -0.1161  1.7969
 2265SOL     OW18430   2.009   1.059  15.774  0.2649 -0.5317  0.0066
 2265SOL    HW118431   2.048   0.982  15.732 -0.8525 -0.8450 -0.4473
 2265SOL    HW218432   2.059   1.066  15.856 -1.3951 -2.5933  1.2038
 2266SOL     OW18433   3.453   1.204   3.072  0.1425  0.2018  0.4991
 2266SOL    HW118434   3.358   1.203   3.076  0.0847 -0.8853 -1.3871
 2266SOL    HW218435   3.462   1.135   3.006 -0.7184  0.3843  0.2031
 2267SOL     OW18436   2.016   2.539  11.760 -0.3254 -0.2952 -0.4240
 2267SOL    HW118437   1.995   2.625  11.726  2.4295  0.4045 -0.3777
 2267SOL    HW218438   2.007   2.490  11.678  1.4040 -2.6231  0.7473
 2268SOL     OW18439   1.886   1.251   5.545  0.0815  0.2451  0.0487
 2268SOL    HW118440   1.903   1.216   5.458  2.0493  0.5015  0.3291
 2268SOL    HW218441   1.874   1.171   5.596 -0.4962  0.6483  0.5500
 2269SOL     OW18442   3.157   4.396   7.250  0.0142  0.1936 -0.2730
 2269SOL    HW118443   3.140   4.362   7.338 -2.8832  3.5648  0.4674
 2269SOL    HW218444   3.172   4.488   7.270  0.4095  0.1910 -0.5423
 2270SOL     OW18445   0.077   0.278   2.848  0.1064 -0.1058 -0.6500
 2270SOL    HW118446   0.037   0.344   2.791 -1.3476 -2.3815 -2.3073
 2270SOL    HW218447   0.154   0.254   2.797 -0.0700 -0.7234 -0.6307
 2271SOL     OW18448   1.971   0.823   5.877 -0.0028  0.5657  0.0807
 2271SOL    HW118449   2.047   0.765   5.870 -0.2480 -0.0385  2.4128
 2271SOL    HW218450   1.905   0.766   5.915  0.9069 -0.5596 -0.0390
 2272SOL     OW18451   4.416   1.851   1.651  0.0257  0.0091 -0.7156
 2272SOL    HW118452   4.411   1.762   1.615 -0.1336 -1.0919  2.0147
 2272SOL    HW218453   4.370   1.901   1.584  0.8385  2.0694  0.2736
 2273SOL     OW18454   3.477   1.596   7.061  0.3490  0.3124 -0.7785
 2273SOL    HW118455   3.470   1.606   6.966  3.6586 -1.0074 -1.1671
 2273SOL    HW218456   3.452   1.684   7.088 -1.2206  0.2692 -2.1532
 2274SOL     OW18457   0.231   2.531   3.256  0.5338 -0.2233  0.1304
 2274SOL    HW118458   0.267   2.506   3.341 -0.8438 -0.5029  0.6399
 2274SOL    HW218459   0.276   2.615   3.244 -0.8702  0.1403 -2.6838
 2275SOL     OW18460   1.588   1.509   2.521  0.5461  0.3689 -0.6053
 2275SOL    HW118461   1.572   1.574   2.453 -1.4865  0.1872 -0.3012
 2275SOL    HW218462   1.683   1.497   2.519  0.3079 -2.0787  1.4813
 2276SOL     OW18463   2.516   4.444   5.598  0.0316  0.5431 -0.1037
 2276SOL    HW118464   2.464   4.497   5.538  0.9853  1.3270 -0.2425
 2276SOL    HW218465   2.537   4.508   5.666  1.3465 -0.2049  0.1921
 2277SOL     OW18466   4.520   0.016   9.745 -0.2921 -0.3703  0.2531
 2277SOL    HW118467   4.456   0.063   9.691  0.1934  0.9772  0.8447
 2277SOL    HW218468   4.559   4.684   9.689 -2.5624 -0.8805 -0.7198
 2278SOL     OW18469   4.231   3.746  16.744  0.2297 -0.1363  0.0112
 2278SOL    HW118470   4.316   3.751  16.787 -0.2653 -1.2867  1.1196
 2278SOL    HW218471   4.215   3.840  16.744 -0.8030 -0.3026  1.4407
 2279SOL     OW18472   2.038   2.812  15.800  0.3792 -0.1933  0.3253
 2279SOL    HW118473   1.959   2.762  15.820 -0.5740  2.0624  2.1235
 2279SOL    HW218474   2.009   2.880  15.740  0.2292 -1.2683 -0.8122
 2280SOL     OW18475   3.611   2.483   9.039 -0.4583 -0.0410  0.8204
 2280SOL    HW118476   3.675   2.536   9.087 -1.0174  0.8131  0.6350
 2280SOL    HW218477   3.564   2.441   9.111 -0.0629 -3.6155 -1.0250
 2281SOL     OW18478   1.817   0.564  12.852 -0.1135  0.1259 -0.8140
 2281SOL    HW118479   1.731   0.524  12.864 -0.0686 -0.0457 -1.0588
 2281SOL    HW218480   1.781   0.648  12.824 -0.1762 -0.2544 -1.8553
 2282SOL     OW18481   3.221   0.735  10.655  0.5260  0.6673  0.0573
 2282SOL    HW118482   3.133   0.751  10.623  0.6772  0.6981 -0.3427
 2282SOL    HW218483   3.229   0.787  10.736 -1.4087  1.8721 -0.5296
 2283SOL     OW18484   3.299   2.909   8.059 -0.9589  0.3359 -0.8377
 2283SOL    HW118485   3.206   2.888   8.053 -0.9028  0.1410 -1.0178
 2283SOL    HW218486   3.305   2.993   8.014 -3.6699 -0.0457 -1.9272
 2284SOL     OW18487   1.411   1.167  16.784 -0.3602 -0.5194  0.1220
 2284SOL    HW118488   1.392   1.230  16.714 -1.4385 -0.9505  0.0165
 2284SOL    HW218489   1.321   1.151  16.813 -0.2916 -1.0763  0.0162
 2285SOL     OW18490   2.170   0.015   0.640  0.0534 -0.1261  0.0803
 2285SOL    HW118491   2.127   0.021   0.555 -2.0210  0.3412  1.1484
 2285SOL    HW218492   2.201   0.105   0.649  1.7760 -0.7059 -0.0262
 2286SOL     OW18493   0.621   0.711   4.076  0.4103  0.7088 -0.2039
 2286SOL    HW118494   0.594   0.753   4.157  0.5814  0.1351  0.1514
 2286SOL    HW218495   0.634   0.618   4.093 -0.8251  0.6317  0.3025
 2287SOL     OW18496   1.589   0.418  12.871  0.3633 -0.2148  0.1670
 2287SOL    HW118497   1.543   0.450  12.948  0.6848  1.3227 -0.2768
 2287SOL    HW218498   1.533   0.342  12.852  0.2562 -0.6143  2.1404
 2288SOL     OW18499   4.692   4.260   2.682  0.0339  0.2857 -0.3487
 2288SOL    HW118500   0.047   4.251   2.711 -0.0489 -0.9219 -0.4474
 2288SOL    HW218501   4.704   4.258   2.587 -2.4998  3.5139 -0.7295
 2289SOL     OW18502   3.743   2.923  14.142  0.4031 -0.5184 -0.1535
 2289SOL    HW118503   3.661   2.918  14.191 -0.4244  1.9705 -1.2549
 2289SOL    HW218504   3.768   2.831  14.148  0.3388 -0.4801  0.6932
 2290SOL     OW18505   0.137   2.079   6.901 -0.0382  0.1824 -0.0379
 2290SOL    HW118506   0.196   2.005   6.917 -2.7328 -1.7683  0.9422
 2290SOL    HW218507   0.068   2.034   6.852 -1.2630  1.2469  0.7418
 2291SOL     OW18508   3.553   3.416   3.791 -0.1552  0.3329  0.5106
 2291SOL    HW118509   3.522   3.489   3.844  1.7159  1.2190  0.4147
 2291SOL    HW218510   3.609   3.466   3.731  1.3797 -2.7809 -0.6838
 2292SOL     OW18511   4.616   1.407   3.766  0.1169  0.1911 -0.0492
 2292SOL    HW118512   4.585   1.466   3.836 -0.8580 -0.9532  0.4756
 2292SOL    HW218513   4.541   1.421   3.708 -0.0944 -1.8788 -0.2713
 2293SOL     OW18514   0.388   3.169   2.047 -0.0371  0.1142  1.1821
 2293SOL    HW118515   0.376   3.088   1.997 -1.8741  0.3852  1.1581
 2293SOL    HW218516   0.300   3.183   2.082 -0.1278 -1.0480  1.4116
 2294SOL     OW18517   0.244   4.151   5.195 -0.3985  0.3392 -0.4680
 2294SOL    HW118518   0.222   4.100   5.273 -0.1314 -1.6471 -1.6890
 2294SOL    HW218519   0.212   4.236   5.227 -0.4551  0.2754 -0.3568
 2295SOL     OW18520   0.775   2.332   7.154  0.0113  0.1676 -0.1562
 2295SOL    HW118521   0.805   2.363   7.240  0.9374  1.9001 -1.1001
 2295SOL    HW218522   0.849   2.277   7.129 -2.0974 -2.4900 -0.5299
 2296SOL     OW18523   0.725   1.339   7.822  0.6557 -0.3169 -0.1273
 2296SOL    HW118524   0.688   1.360   7.737  0.0078  0.3362  0.3217
 2296SOL    HW218525   0.772   1.260   7.794  0.8172 -0.0598 -0.5801
 2297SOL     OW18526   2.419   1.689   8.203 -0.3389 -0.2159 -0.0314
 2297SOL    HW118527   2.333   1.726   8.224 -0.6538 -1.2992  0.5837
 2297SOL    HW218528   2.396   1.661   8.114  1.1007  1.2887 -0.8826
 2298SOL     OW18529   4.573   3.496   8.430  0.6122  0.2905 -0.8062
 2298SOL    HW118530   4.668   3.509   8.422  0.6514  0.9706  0.7911
 2298SOL    HW218531   4.567   3.433   8.502 -2.0317  0.1814 -1.1129
 2299SOL     OW18532   0.040   3.512   6.319  0.6811  0.3361 -0.0407
 2299SOL    HW118533   0.136   3.520   6.323  0.6554  1.3442 -1.6057
 2299SOL    HW218534   0.019   3.558   6.400  2.3457  0.1944  0.4762
 2300SOL     OW18535   2.130   2.459   2.306 -0.2195  0.3728  0.2173
 2300SOL    HW118536   2.060   2.513   2.269  1.0867 -0.1914 -3.0984
 2300SOL    HW218537   2.134   2.372   2.266  0.4416  0.2068  0.6617
 2301SOL     OW18538   1.328   0.413   8.559  0.1068  0.5263  0.0200
 2301SOL    HW118539   1.285   0.437   8.641  0.8423 -0.0781  0.5890
 2301SOL    HW218540   1.274   0.468   8.503  1.7054  1.0168 -1.0385
 2302SOL     OW18541   1.250   4.000   4.768 -0.2853  0.3702  0.5170
 2302SOL    HW118542   1.217   4.087   4.747  0.9132  0.7659  0.2870
 2302SOL    HW218543   1.171   3.955   4.800 -0.6028  1.0293  0.6489
 2303SOL     OW18544   2.902   3.215  12.116 -0.2201 -0.1944  0.0133
 2303SOL    HW118545   2.842   3.183  12.184  1.1496 -2.0689  0.3626
 2303SOL    HW218546   2.982   3.171  12.147  1.1005  1.6130 -0.8276
 2304SOL     OW18547   4.016   3.476  13.537  0.4713  0.1973  0.1570
 2304SOL    HW118548   4.102   3.478  13.495  0.1015 -2.3932 -0.7632
 2304SOL    HW218549   4.002   3.570  13.542 -3.8952 -0.2923 -2.9283
 2305SOL     OW18550   4.012   0.658  12.257  1.0980 -0.2000 -0.0648
 2305SOL    HW118551   4.057   0.666  12.341 -0.2333  1.5113  0.4848
 2305SOL    HW218552   4.019   0.751  12.237  0.4746 -0.2209 -0.3956
 2306SOL     OW18553   0.936   1.845   5.834  0.2483  0.0151  0.3532
 2306SOL    HW118554   0.854   1.844   5.883 -0.2345  0.8040 -0.4277
 2306SOL    HW218555   0.971   1.934   5.844 -0.1625  0.0907  1.0818
 2307SOL     OW18556   4.386   3.443   5.074 -0.2449  0.2938  0.2669
 2307SOL    HW118557   4.367   3.366   5.020 -0.8923  0.1292  0.7261
 2307SOL    HW218558   4.367   3.414   5.164  3.5076  2.6025  1.8102
 2308SOL     OW18559   1.312   1.013  17.046 -0.4705  0.2514  0.2392
 2308SOL    HW118560   1.366   1.036  17.122  2.2932  0.5676 -1.8167
 2308SOL    HW218561   1.372   1.045  16.979 -1.4599  1.4054 -0.0976
 2309SOL     OW18562   2.151   0.384   1.607  0.0369 -0.1586  0.7380
 2309SOL    HW118563   2.082   0.399   1.543 -1.0780 -0.9175  1.7718
 2309SOL    HW218564   2.116   0.332   1.679 -0.1735 -0.6481  0.2778
 2310SOL     OW18565   3.380   2.649   5.919  0.1466  0.2740 -0.0702
 2310SOL    HW118566   3.359   2.727   5.868 -2.0441  0.9101  1.7803
 2310SOL    HW218567   3.401   2.694   6.001 -1.4322  0.8245  0.0395
 2311SOL     OW18568   3.737   3.828   3.820  0.5710 -0.6944 -0.0265
 2311SOL    HW118569   3.787   3.880   3.758  0.0464 -1.1255 -0.8116
 2311SOL    HW218570   3.692   3.768   3.761  1.8136  0.3675 -2.0231
 2312SOL     OW18571   4.596   0.757  15.750  0.1890  0.5575  0.1774
 2312SOL    HW118572   4.673   0.812  15.738 -1.4598  2.9415  0.5967
 2312SOL    HW218573   4.525   0.804  15.707 -0.6289 -0.7259  0.0999
 2313SOL     OW18574   2.971   1.100   4.002 -0.2698 -0.0006 -0.4495
 2313SOL    HW118575   3.036   1.106   4.073 -0.4006  0.1641 -0.3464
 2313SOL    HW218576   2.951   1.192   3.985  0.4683  0.2221 -0.1384
 2314SOL     OW18577   3.423   2.223   8.852 -0.0728  0.1087 -0.1387
 2314SOL    HW118578   3.504   2.247   8.807  1.6698  0.8467  3.3157
 2314SOL    HW218579   3.383   2.308   8.868  2.4030  1.1324  0.6704
 2315SOL     OW18580   0.697   1.768  15.051 -0.6890  0.1396 -0.8610
 2315SOL    HW118581   0.699   1.770  14.955  0.3985 -2.0080 -0.8888
 2315SOL    HW218582   0.613   1.729  15.076 -0.7963 -0.1923 -1.7422
 2316SOL     OW18583   0.290   0.843  14.408  0.0092  0.0666  0.3168
 2316SOL    HW118584   0.362   0.783  14.424  0.1427 -0.1688 -1.2057
 2316SOL    HW218585   0.263   0.842  14.500  1.3052 -0.5652  0.6958
 2317SOL     OW18586   2.619   1.150  15.172 -0.2024  0.3244 -0.5305
 2317SOL    HW118587   2.640   1.211  15.243 -0.3566  1.3388 -1.3607
 2317SOL    HW218588   2.696   1.155  15.114  0.3160  1.1166  0.2209
 2318SOL     OW18589   2.092   3.183  17.048 -0.3286 -0.0761  0.1239
 2318SOL    HW118590   2.132   3.120  17.108  0.2412  1.1525  1.0389
 2318SOL    HW218591   2.039   3.121  16.998  0.6918  2.1579 -3.6747
 2319SOL     OW18592   1.591   0.129   9.510 -0.2076 -0.3499  0.3650
 2319SOL    HW118593   1.635   0.051   9.545  0.7770  0.0685  0.0263
 2319SOL    HW218594   1.633   0.159   9.430 -0.6058  1.0934  0.7079
 2320SOL     OW18595   2.196   0.558   0.603  0.3867 -0.2744  0.5894
 2320SOL    HW118596   2.117   0.579   0.553  0.7034  0.5776  0.4441
 2320SOL    HW218597   2.168   0.598   0.685  1.1750 -2.7292  2.0308
 2321SOL     OW18598   3.383   0.190   1.753 -0.1007 -0.2420  0.5790
 2321SOL    HW118599   3.345   0.128   1.816  1.5691 -1.3478  0.4949
 2321SOL    HW218600   3.339   0.271   1.778  0.2276 -0.4286  1.7207
 2322SOL     OW18601   4.224   2.225   2.216 -0.0392 -0.0957  0.0736
 2322SOL    HW118602   4.243   2.143   2.171 -2.9918 -0.0768 -1.1979
 2322SOL    HW218603   4.173   2.212   2.296  0.7519 -0.2489  0.5496
 2323SOL     OW18604   4.685   2.010   8.814  0.3399  0.0107  0.1730
 2323SOL    HW118605   0.030   2.039   8.772  0.4198  1.5902  1.4133
 2323SOL    HW218606   4.644   1.966   8.740 -0.9044  1.2022  0.1514
 2324SOL     OW18607   2.837   4.147  12.865  0.7501 -0.0396 -0.0477
 2324SOL    HW118608   2.743   4.163  12.861  0.7440  0.2814  1.6923
 2324SOL    HW218609   2.863   4.215  12.927  0.4496 -0.4118  0.4854
 2325SOL     OW18610   2.393   4.072   2.094 -0.0191  0.0043 -0.9946
 2325SOL    HW118611   2.391   4.059   2.188  1.4873  0.0878 -0.9562
 2325SOL    HW218612   2.461   4.139   2.090  1.5388 -1.5616 -0.8828
 2326SOL     OW18613   1.218   3.359   4.698 -0.3767  0.5389 -0.5233
 2326SOL    HW118614   1.169   3.441   4.691 -2.2879 -0.6693 -1.1679
 2326SOL    HW218615   1.247   3.383   4.786 -0.9136 -3.1054  0.6522
 2327SOL     OW18616   2.841   3.927   2.992  0.3004  0.0266 -0.4689
 2327SOL    HW118617   2.842   4.016   2.956 -0.6691 -0.0414 -0.6659
 2327SOL    HW218618   2.756   3.892   2.964 -0.1626 -0.5906  1.7510
 2328SOL     OW18619   2.740   4.499   3.435  0.3111  0.1973 -0.6123
 2328SOL    HW118620   2.795   4.495   3.513  0.7469 -0.1518 -0.9469
 2328SOL    HW218621   2.759   4.588   3.406  1.2200  0.9874  2.3670
 2329SOL     OW18622   4.379   3.684   5.364 -0.3768  0.2960 -0.1766
 2329SOL    HW118623   4.289   3.673   5.333  0.3294 -0.9938 -1.7373
 2329SOL    HW218624   4.369   3.716   5.454 -0.8599  0.0055 -0.1253
 2330SOL     OW18625   0.176   3.485  15.398 -0.5667 -0.0851  0.6109
 2330SOL    HW118626   0.188   3.512  15.307  2.3097  0.5954  1.1974
 2330SOL    HW218627   0.268   3.469  15.422  0.0199  1.0453 -0.8296
 2331SOL     OW18628   2.180   4.128   9.581  0.6915 -0.4734  0.9448
 2331SOL    HW118629   2.110   4.068   9.556 -0.3659  0.5098  1.5384
 2331SOL    HW218630   2.131   4.210   9.580 -0.7224 -1.3111  0.5186
 2332SOL     OW18631   3.002   4.114   2.847 -1.0236 -0.1014 -0.3562
 2332SOL    HW118632   3.013   4.045   2.781 -0.7146 -1.4151  1.0523
 2332SOL    HW218633   3.093   4.141   2.865 -0.5932 -0.2913 -2.2544
 2333SOL     OW18634   4.256   4.025  17.523 -0.0326  0.2684 -0.0442
 2333SOL    HW118635   4.185   4.088  17.534 -0.2321  0.7015 -3.5767
 2333SOL    HW218636   4.319   4.066  17.582  1.1936 -3.0106  0.9044
 2334SOL     OW18637   1.498   1.212   7.909  0.0936  0.2438  0.4874
 2334SOL    HW118638   1.515   1.124   7.942 -2.7382 -0.4851  0.0246
 2334SOL    HW218639   1.421   1.203   7.853  1.7944 -0.2301 -1.7750
 2335SOL     OW18640   1.131   2.799   9.540  0.3879 -0.4601  0.4335
 2335SOL    HW118641   1.065   2.825   9.477  2.7665  4.4368 -0.0821
 2335SOL    HW218642   1.087   2.745   9.606 -1.1050  0.1750 -0.0496
 2336SOL     OW18643   0.454   1.190   8.393 -0.3778 -0.0615 -0.1846
 2336SOL    HW118644   0.393   1.255   8.427  0.7747 -0.3337  2.3974
 2336SOL    HW218645   0.461   1.217   8.301  0.3737  1.6380  0.3810
 2337SOL     OW18646   2.574   1.268   6.184  0.3357 -0.1579 -0.1578
 2337SOL    HW118647   2.488   1.308   6.197  0.6708 -0.0390  1.7456
 2337SOL    HW218648   2.550   1.193   6.131  1.2045 -1.5380  1.3836
 2338SOL     OW18649   0.925   4.663  15.255 -0.5264 -0.1489  0.1606
 2338SOL    HW118650   0.961   4.646  15.342  1.5087 -0.1570 -0.6817
 2338SOL    HW218651   0.988   4.621  15.195 -1.5998 -0.8028 -0.5105
 2339SOL     OW18652   1.866   3.926  11.987 -0.5138  0.6402  0.5832
 2339SOL    HW118653   1.806   3.984  11.941 -1.1989 -0.8725 -0.4375
 2339SOL    HW218654   1.858   3.963  12.076  1.1291  1.6009  0.3278
 2340SOL     OW18655   1.282   0.410  12.533  0.2110  0.4035  0.1672
 2340SOL    HW118656   1.240   0.482  12.486 -1.0016 -0.8426 -0.6402
 2340SOL    HW218657   1.232   0.429  12.612  0.1669  0.2197  0.1843
 2341SOL     OW18658   3.246   4.679  14.693 -0.4572 -0.2965 -0.5089
 2341SOL    HW118659   3.166   4.684  14.745 -0.0410 -0.3376  0.1455
 2341SOL    HW218660   3.262   4.585  14.708 -0.7497 -0.0325  1.4541
 2342SOL     OW18661   1.617   2.005  11.265 -0.1972  0.3538  0.2929
 2342SOL    HW118662   1.711   1.985  11.273 -0.2921 -0.7586 -1.3758
 2342SOL    HW218663   1.584   1.936  11.321 -0.1958  0.8562  0.9114
 2343SOL     OW18664   0.209   3.340   9.472 -0.0279 -0.4698  0.3821
 2343SOL    HW118665   0.252   3.285   9.407  2.6933  1.6707  0.4228
 2343SOL    HW218666   0.251   3.312   9.553 -0.3289 -0.5542  0.5121
 2344SOL     OW18667   2.808   4.619   1.708 -0.1524  0.2307  0.1093
 2344SOL    HW118668   2.879   4.598   1.648  1.1898  2.3223  0.9456
 2344SOL    HW218669   2.738   4.658   1.655  0.8295 -0.5589 -1.7605
 2345SOL     OW18670   3.546   0.426   8.003 -0.0481  0.2975 -1.1752
 2345SOL    HW118671   3.486   0.360   7.967  2.3045 -2.2079 -0.4627
 2345SOL    HW218672   3.611   0.387   8.061  1.1184  0.3619 -2.4243
 2346SOL     OW18673   0.463   3.338   4.948  0.5917  0.1402 -0.6039
 2346SOL    HW118674   0.471   3.300   5.036 -1.0335 -0.6902 -0.8205
 2346SOL    HW218675   0.370   3.351   4.932  0.0130 -0.8021  1.9451
 2347SOL     OW18676   3.597   0.992   2.789  0.1912 -0.8154 -0.6000
 2347SOL    HW118677   3.660   1.064   2.788 -1.3856  0.5238 -2.4020
 2347SOL    HW218678   3.576   0.990   2.696 -1.1406 -1.5197 -0.2903
 2348SOL     OW18679   1.943   1.924  14.841  0.3059  0.7987 -0.3323
 2348SOL    HW118680   1.897   1.987  14.785 -1.3693 -0.3044 -0.1781
 2348SOL    HW218681   1.920   1.847  14.789 -0.3208 -0.2803  1.5661
 2349SOL     OW18682   0.161   4.155  13.906  0.1537 -0.9157  0.2416
 2349SOL    HW118683   0.200   4.242  13.908  1.4206 -1.5027  0.7329
 2349SOL    HW218684   0.174   4.127  13.996  1.2128 -1.3746 -0.0573
 2350SOL     OW18685   1.123   1.819   9.475  0.2526 -0.5964 -0.4550
 2350SOL    HW118686   1.191   1.756   9.452 -0.6409 -1.1941 -1.4204
 2350SOL    HW218687   1.180   1.885   9.515 -2.0822  1.0787  0.0837
 2351SOL     OW18688   2.291   0.781   4.910  0.0554 -0.2658 -0.6323
 2351SOL    HW118689   2.216   0.815   4.960 -1.1442 -1.7219 -1.4379
 2351SOL    HW218690   2.281   0.834   4.831  0.3495  1.8175  0.7052
 2352SOL     OW18691   1.160   1.181   7.399  0.3903 -0.1955  0.0435
 2352SOL    HW118692   1.121   1.256   7.442 -1.2198 -0.7977 -0.3781
 2352SOL    HW218693   1.154   1.116   7.468 -0.5214 -0.7712 -0.5865
 2353SOL     OW18694   1.798   3.960   4.440  0.5742 -0.2313  0.1485
 2353SOL    HW118695   1.830   3.943   4.351  0.2748 -1.0978  0.2045
 2353SOL    HW218696   1.713   3.999   4.420  0.5068  0.2230  1.3273
 2354SOL     OW18697   1.903   0.879   2.903  0.5558  0.0581  0.6511
 2354SOL    HW118698   1.890   0.859   2.996  0.7472  0.2362  0.7156
 2354SOL    HW218699   1.980   0.834   2.870  1.1396  0.2904  1.7099
 2355SOL     OW18700   2.636   0.090  15.204 -0.0945 -0.2757 -0.3669
 2355SOL    HW118701   2.546   0.116  15.222  0.1969  0.7053 -0.3181
 2355SOL    HW218702   2.660   0.148  15.131  0.9686  0.9828  0.9870
 2356SOL     OW18703   1.993   1.248   2.390 -0.1767 -0.6620  0.1468
 2356SOL    HW118704   2.088   1.240   2.384 -0.3026 -2.4448  0.3847
 2356SOL    HW218705   1.979   1.183   2.459 -0.6080  1.5769  2.1604
 2357SOL     OW18706   1.394   2.950   6.507 -0.2526  0.2214 -0.3509
 2357SOL    HW118707   1.302   2.946   6.535 -0.1936 -1.9249 -0.4910
 2357SOL    HW218708   1.427   3.019   6.565 -1.6752 -0.1594  0.9146
 2358SOL     OW18709   4.126   2.660   3.761 -0.0806  0.1216  0.3133
 2358SOL    HW118710   4.191   2.711   3.809 -0.5806  1.0648 -0.0097
 2358SOL    HW218711   4.075   2.635   3.838 -2.8040  2.0791 -0.8552
 2359SOL     OW18712   0.359   3.783   7.129  0.0709 -0.0682 -0.7486
 2359SOL    HW118713   0.366   3.803   7.036  0.7146  0.4099 -0.5948
 2359SOL    HW218714   0.387   3.692   7.139  0.7631  0.2594  0.2649
 2360SOL     OW18715   1.043   2.132   4.933  0.4979  0.0570  0.7568
 2360SOL    HW118716   0.948   2.122   4.941  0.3679  1.1415  0.5428
 2360SOL    HW218717   1.066   2.195   5.001  0.4888  1.9185 -0.9724
 2361SOL     OW18718   4.223   0.646   2.143  0.1980  0.0155 -0.0592
 2361SOL    HW118719   4.204   0.739   2.158 -0.1118  0.3709 -2.6516
 2361SOL    HW218720   4.308   0.650   2.101  0.2662  0.0080  0.0765
 2362SOL     OW18721   3.680   2.494   9.416  0.6372  0.0243  0.4979
 2362SOL    HW118722   3.654   2.418   9.364 -0.6963  0.8479 -0.0537
 2362SOL    HW218723   3.688   2.454   9.503  0.8778 -0.4169  0.2688
 2363SOL     OW18724   1.438   3.102  16.523 -0.8271  0.0450 -0.2122
 2363SOL    HW118725   1.508   3.037  16.524 -0.6247  0.2795  1.3679
 2363SOL    HW218726   1.481   3.185  16.503 -0.4538  0.0058  0.4111
 2364SOL     OW18727   3.558   3.043   6.681 -0.2541  0.4558  0.7397
 2364SOL    HW118728   3.546   2.949   6.695  0.0590 -0.0391 -2.3054
 2364SOL    HW218729   3.567   3.046   6.586 -0.0520  0.2501  0.7509
 2365SOL     OW18730   1.668   2.849  11.475 -0.0369 -0.0640 -0.2698
 2365SOL    HW118731   1.687   2.916  11.541 -1.1346  0.3924 -0.4230
 2365SOL    HW218732   1.584   2.876  11.438 -0.2385 -1.9542 -1.2111
 2366SOL     OW18733   2.061   1.102  17.431  0.3647  0.3580  0.3808
 2366SOL    HW118734   2.114   1.155  17.371 -0.8763 -0.0217 -1.0592
 2366SOL    HW218735   2.122   1.030  17.445 -0.2290 -0.3708 -0.7929
 2367SOL     OW18736   0.785   1.481  17.571  0.1370  0.1336 -0.1261
 2367SOL    HW118737   0.817   1.571  17.571  1.6705 -0.3946 -1.0368
 2367SOL    HW218738   0.862   1.440  17.530  0.7899 -0.3676  1.6121
 2368SOL     OW18739   1.891   2.970  16.919  0.1692  0.4349  0.0203
 2368SOL    HW118740   1.922   3.006  16.836 -0.5498 -0.8083 -0.7874
 2368SOL    HW218741   1.811   3.021  16.932 -0.4720 -0.6706  0.3998
 2369SOL     OW18742   2.892   1.726   8.242  0.2726  0.2393  0.5080
 2369SOL    HW118743   2.847   1.711   8.159  0.4108 -0.3210  0.5319
 2369SOL    HW218744   2.843   1.672   8.304 -0.2691 -1.0752 -1.0837
 2370SOL     OW18745   1.658   0.477  12.082  0.0877  0.6162 -0.1253
 2370SOL    HW118746   1.668   0.569  12.105 -1.0581  0.4046  1.2352
 2370SOL    HW218747   1.683   0.483  11.990 -1.0552  2.6705 -0.3082
 2371SOL     OW18748   3.888   0.659   8.025  0.0360  0.2247 -0.5762
 2371SOL    HW118749   3.951   0.673   8.096 -0.0943 -0.6075 -0.2941
 2371SOL    HW218750   3.889   0.564   8.013  1.4606  0.1791 -0.0883
 2372SOL     OW18751   1.887   0.126   1.108 -0.6905 -0.1780  0.1766
 2372SOL    HW118752   1.851   0.079   1.183 -0.6386 -1.0313 -0.3402
 2372SOL    HW218753   1.842   0.211   1.110 -0.8674 -0.2464 -1.0641
 2373SOL     OW18754   3.512   0.094  13.768  0.1325 -0.4145  0.4072
 2373SOL    HW118755   3.513   0.047  13.851 -0.9870 -0.0138  0.6611
 2373SOL    HW218756   3.594   0.142  13.775  0.0383 -0.1306 -0.4108
 2374SOL     OW18757   1.205   0.698   7.525  0.4820 -0.4617  0.5039
 2374SOL    HW118758   1.228   0.738   7.441  1.1034  0.9012  1.3197
 2374SOL    HW218759   1.198   0.609   7.490 -1.5640  0.1690 -0.7561
 2375SOL     OW18760   0.418   2.325   6.866  0.1397 -0.1462 -0.6866
 2375SOL    HW118761   0.392   2.244   6.822  1.2420 -1.4378  1.0274
 2375SOL    HW218762   0.398   2.312   6.959  1.8902  0.6026 -0.2029
 2376SOL     OW18763   4.205   2.353   8.661 -0.0961 -0.1374 -0.0937
 2376SOL    HW118764   4.146   2.319   8.729  1.2019  1.0876  1.6622
 2376SOL    HW218765   4.256   2.279   8.630 -2.0197 -2.4966  2.3431
 2377SOL     OW18766   1.325   0.825  10.782  0.6454  0.3130 -0.4069
 2377SOL    HW118767   1.319   0.912  10.821 -0.4820 -0.6567  1.5827
 2377SOL    HW218768   1.334   0.848  10.689  2.6008  0.2006 -0.2315
 2378SOL     OW18769   2.386   0.567   0.408  0.5587  0.0289 -0.1180
 2378SOL    HW118770   2.311   0.562   0.468  0.7770  2.5439  0.3566
 2378SOL    HW218771   2.452   0.515   0.454 -0.8169 -1.5216  0.1349
 2379SOL     OW18772   3.463   2.433   9.855 -0.3284  0.0742 -0.6264
 2379SOL    HW118773   3.398   2.431   9.786 -1.9702 -2.1565  0.9857
 2379SOL    HW218774   3.416   2.452   9.936 -0.3834  0.0719 -0.6577
 2380SOL     OW18775   4.666   1.794   5.229  0.2673  0.4641  0.4023
 2380SOL    HW118776   4.698   1.769   5.315  0.6764 -2.2879 -0.5524
 2380SOL    HW218777   4.710   1.877   5.209  0.6854 -0.1220 -1.1235
 2381SOL     OW18778   0.599   1.865  12.488 -0.6989  0.4955 -0.5017
 2381SOL    HW118779   0.677   1.818  12.519 -0.4258  0.9741 -0.4651
 2381SOL    HW218780   0.646   1.927  12.433  1.3839 -2.6899 -2.2693
 2382SOL     OW18781   2.936   2.007   2.911  0.1185  0.5842  0.4188
 2382SOL    HW118782   2.950   1.992   3.004  0.4596 -0.8609  0.1428
 2382SOL    HW218783   3.007   2.069   2.891 -0.9414  1.7508  0.2958
 2383SOL     OW18784   3.755   0.830   1.892  0.5094  0.3022  0.3689
 2383SOL    HW118785   3.709   0.777   1.827 -1.3708  0.2054  1.7998
 2383SOL    HW218786   3.843   0.811   1.858  0.7616  1.4964  0.3808
 2384SOL     OW18787   4.475   4.228   2.315 -0.1455  0.2294  0.9974
 2384SOL    HW118788   4.569   4.242   2.302  0.0041 -2.4664 -1.0615
 2384SOL    HW218789   4.442   4.310   2.278 -1.8602 -0.6655  0.5010
 2385SOL     OW18790   2.266   3.869   2.743  0.4844  0.2398 -0.1873
 2385SOL    HW118791   2.294   3.848   2.831 -1.3407  0.5904  0.4771
 2385SOL    HW218792   2.252   3.964   2.748  0.5950  0.3437 -1.8416
 2386SOL     OW18793   4.474   3.642   1.053  0.5735  0.1643 -0.0060
 2386SOL    HW118794   4.480   3.601   1.140 -2.2873  2.1871  1.1837
 2386SOL    HW218795   4.436   3.575   0.997  0.0347  1.9851 -1.8490
 2387SOL     OW18796   2.075   2.369   4.549  0.3392  0.3383 -0.0090
 2387SOL    HW118797   2.017   2.394   4.477 -0.7647  0.5555  0.9592
 2387SOL    HW218798   2.093   2.280   4.520  1.7866  0.1956  1.3309
 2388SOL     OW18799   2.811   3.112   9.496 -0.3082  0.1102  0.1892
 2388SOL    HW118800   2.715   3.112   9.495 -0.2892  2.2316 -1.2905
 2388SOL    HW218801   2.828   3.197   9.455 -0.3431 -0.7242 -1.5641
 2389SOL     OW18802   2.556   2.890  10.235  0.3717  0.5180  0.3371
 2389SOL    HW118803   2.508   2.900  10.317  0.2221  0.5087  0.2510
 2389SOL    HW218804   2.592   2.802  10.249  1.4101  0.8186 -0.4454
 2390SOL     OW18805   2.318   1.498   8.434 -0.1835 -0.3420  0.3220
 2390SOL    HW118806   2.384   1.465   8.372 -0.4698  1.0886 -0.7515
 2390SOL    HW218807   2.370   1.535   8.506  1.1925  0.9167 -1.3255
 2391SOL     OW18808   3.121   0.560   1.085 -0.1515 -0.2624  0.4271
 2391SOL    HW118809   3.136   0.574   1.178  1.7578  1.0608 -0.0886
 2391SOL    HW218810   3.047   0.613   1.054 -0.6488 -1.5198 -0.5594
 2392SOL     OW18811   0.781   1.305   3.334  0.0392  0.0974 -0.2984
 2392SOL    HW118812   0.707   1.356   3.368  0.6332  0.8696 -0.1534
 2392SOL    HW218813   0.831   1.289   3.413 -1.8052 -0.7472  0.6983
 2393SOL     OW18814   4.457   4.285   8.245  0.2755  0.3869  0.0673
 2393SOL    HW118815   4.457   4.309   8.153 -1.5368 -1.9933 -0.5477
 2393SOL    HW218816   4.547   4.261   8.270  0.0085 -2.3493 -1.6279
 2394SOL     OW18817   2.823   3.040  12.630  0.0584  0.2622 -0.1844
 2394SOL    HW118818   2.735   3.033  12.667  1.0623  1.0138  2.3088
 2394SOL    HW218819   2.879   3.087  12.691 -0.1287  0.0358  0.1661
 2395SOL     OW18820   1.367   0.264   6.863 -0.7550 -0.1370 -0.7186
 2395SOL    HW118821   1.369   0.170   6.881 -1.4761 -0.6136 -3.1387
 2395SOL    HW218822   1.351   0.257   6.769 -1.5052 -2.8664 -0.3880
 2396SOL     OW18823   4.662   0.607   4.458  0.2433  0.2044 -0.0980
 2396SOL    HW118824   4.686   0.660   4.382 -1.8342 -0.5132 -1.2524
 2396SOL    HW218825   0.014   0.592   4.494  0.0201  0.7682  0.6979
 2397SOL     OW18826   0.478   2.893   4.709  0.3929 -0.0362  0.4919
 2397SOL    HW118827   0.401   2.850   4.673  1.3406  1.6172 -3.4335
 2397SOL    HW218828   0.433   2.967   4.749  1.1007  0.5872  0.1411
 2398SOL     OW18829   2.627   1.685   3.973  0.7041 -0.0441 -0.1361
 2398SOL    HW118830   2.557   1.750   3.976  0.1158 -0.8207  2.8379
 2398SOL    HW218831   2.675   1.721   3.898 -1.7983  0.8422 -1.2845
 2399SOL     OW18832   4.128   4.200  11.038 -0.1273  0.4501 -0.3855
 2399SOL    HW118833   4.130   4.259  10.963 -0.0134  3.1202  1.7100
 2399SOL    HW218834   4.086   4.258  11.101 -0.2507  1.4928 -1.4383
 2400SOL     OW18835   3.372   2.257   9.508 -0.5023  0.0783 -0.3395
 2400SOL    HW118836   3.309   2.284   9.574  0.9394  1.4088  0.4608
 2400SOL    HW218837   3.312   2.189   9.475 -0.1534 -0.0605 -0.6954
 2401SOL     OW18838   4.213   0.137   5.313  0.1195 -0.1432  0.4245
 2401SOL    HW118839   4.181   0.217   5.271 -1.2963  0.0985  1.9742
 2401SOL    HW218840   4.130   0.104   5.346 -1.1735  1.0356 -1.7183
 2402SOL     OW18841   3.202   3.719   3.884  0.6119  0.2050 -1.0281
 2402SOL    HW118842   3.163   3.779   3.947 -0.5812  1.0546 -2.5840
 2402SOL    HW218843   3.244   3.765   3.811 -0.5844 -3.6229 -4.1364
 2403SOL     OW18844   1.937   2.840  11.452  0.7543 -0.2334  0.5303
 2403SOL    HW118845   1.844   2.843  11.474  0.0749  1.1129 -2.4544
 2403SOL    HW218846   1.971   2.827  11.540  3.6282 -0.8118 -0.6838
 2404SOL     OW18847   0.080   1.757   6.143  0.5641  0.3419 -0.4418
 2404SOL    HW118848   0.015   1.770   6.073  0.5143 -0.4444 -0.5380
 2404SOL    HW218849   0.034   1.804   6.213  0.0676  0.3014 -0.7371
 2405SOL     OW18850   3.973   0.036   3.841  0.0649 -0.0307  0.3992
 2405SOL    HW118851   3.959   0.108   3.780 -1.1030 -0.3200  0.3327
 2405SOL    HW218852   3.925   0.059   3.921 -0.4613 -0.5339  0.2299
 2406SOL     OW18853   1.208   0.469  13.879  0.2021  0.1945  0.1859
 2406SOL    HW118854   1.276   0.473  13.946 -0.7054  2.4926  0.9890
 2406SOL    HW218855   1.268   0.454  13.807  1.2972  1.3292  0.8641
 2407SOL     OW18856   2.943   4.489   2.765 -0.4747 -0.0857  0.7830
 2407SOL    HW118857   3.014   4.479   2.828 -0.5076  0.7578  0.9464
 2407SOL    HW218858   2.997   4.520   2.692 -1.4984 -1.5970 -0.6284
 2408SOL     OW18859   3.287   1.022   3.931 -0.4072  0.5412  0.3836
 2408SOL    HW118860   3.260   1.074   3.855  0.8557  0.3703 -0.1753
 2408SOL    HW218861   3.218   1.047   3.992  1.3554 -0.8247  2.9272
 2409SOL     OW18862   0.190   1.655   2.930 -0.0168 -0.1835 -0.4746
 2409SOL    HW118863   0.158   1.738   2.895  0.4109 -0.6632 -2.0177
 2409SOL    HW218864   0.276   1.684   2.960 -0.3616  1.0604 -0.7006
 2410SOL     OW18865   1.604   3.196   2.558 -0.0772 -0.5081  0.4438
 2410SOL    HW118866   1.569   3.218   2.472  0.7768 -1.1644 -0.0656
 2410SOL    HW218867   1.694   3.230   2.562  0.1927 -1.1989  0.0962
 2411SOL     OW18868   0.893   2.349   6.370 -0.2247 -0.2318 -0.2671
 2411SOL    HW118869   0.879   2.286   6.300 -2.3430 -0.7371  0.6295
 2411SOL    HW218870   0.807   2.349   6.410  0.9748 -1.3114  2.3231
 2412SOL     OW18871   3.676   1.128   8.634 -0.3826 -0.3356  0.3403
 2412SOL    HW118872   3.672   1.191   8.706  0.6731  0.0640  0.0407
 2412SOL    HW218873   3.697   1.047   8.681 -1.4045  0.6482  2.4837
 2413SOL     OW18874   1.615   1.610   3.147  0.0535 -0.0266 -0.1440
 2413SOL    HW118875   1.684   1.560   3.191 -0.2460  0.6452  1.1095
 2413SOL    HW218876   1.598   1.562   3.066 -0.8255  1.5131 -0.8776
 2414SOL     OW18877   2.315   1.718   3.122  0.0942  0.1258  0.3710
 2414SOL    HW118878   2.256   1.644   3.132 -0.7846  1.0008  1.6936
 2414SOL    HW218879   2.315   1.741   3.215  1.5374  1.1509  0.1178
 2415SOL     OW18880   1.975   2.288   3.470  0.0540 -0.4889 -0.0198
 2415SOL    HW118881   1.919   2.309   3.395  2.6406  1.4546 -1.4123
 2415SOL    HW218882   1.918   2.239   3.528 -1.0530 -1.5407 -1.9801
 2416SOL     OW18883   0.591   2.579   6.180 -0.1710 -0.1379  0.2957
 2416SOL    HW118884   0.594   2.513   6.249  3.1235 -0.8650 -0.5232
 2416SOL    HW218885   0.669   2.631   6.200 -0.6395  1.8971 -3.1122
 2417SOL     OW18886   0.872   0.909   3.408 -0.1718 -0.0400 -0.1548
 2417SOL    HW118887   0.882   0.879   3.499 -1.0843  0.7150  0.1913
 2417SOL    HW218888   0.956   0.872   3.381  0.8743  2.2780 -0.1020
 2418SOL     OW18889   1.419   2.340  15.849  0.3561  0.5837  0.4544
 2418SOL    HW118890   1.401   2.256  15.893  0.6167 -0.2443 -1.0130
 2418SOL    HW218891   1.479   2.317  15.778  0.5471  1.0947  0.4541
 2419SOL     OW18892   1.847   0.025   4.595 -0.4358  0.1234 -0.4249
 2419SOL    HW118893   1.853   0.118   4.616  0.5005 -0.3950  1.6422
 2419SOL    HW218894   1.790   4.732   4.666 -1.4256  1.7293 -0.5690
 2420SOL     OW18895   0.961   0.075   4.669 -0.1350 -0.3187  0.4563
 2420SOL    HW118896   0.960   0.079   4.765  1.6813  0.2498  0.4457
 2420SOL    HW218897   0.949   4.722   4.635  0.7563 -0.3941  0.3574
 2421SOL     OW18898   2.539   1.188   8.361 -0.3163 -0.0725 -0.4104
 2421SOL    HW118899   2.598   1.231   8.298 -0.1350  0.5248  0.1679
 2421SOL    HW218900   2.460   1.174   8.309 -0.5877 -1.6363  0.4429
 2422SOL     OW18901   0.082   0.424   9.100  0.0989  0.2567 -0.0178
 2422SOL    HW118902   0.163   0.388   9.134 -0.4582  0.8712  1.9362
 2422SOL    HW218903   0.095   0.515   9.128  0.1463  0.1943  0.1620
 2423SOL     OW18904   0.739   3.173   7.267 -0.0953  0.4863 -0.0568
 2423SOL    HW118905   0.810   3.191   7.206  0.6645 -0.2367  0.6364
 2423SOL    HW218906   0.678   3.128   7.208 -1.2141  1.3698  0.4117
 2424SOL     OW18907   0.069   3.596  10.852 -0.3828 -0.0712 -0.1818
 2424SOL    HW118908   0.117   3.664  10.898 -1.0572  1.1184 -1.2373
 2424SOL    HW218909   0.021   3.653  10.792 -0.0448 -0.2956 -0.6725
 2425SOL     OW18910   4.213   0.004   6.944 -0.8075 -0.7158 -0.2885
 2425SOL    HW118911   4.167   0.004   7.028 -0.0841  1.4195  0.1296
 2425SOL    HW218912   4.137   0.021   6.889 -0.1408  1.7508 -0.4615
 2426SOL     OW18913   2.248   1.035  14.561  0.0121  0.1865 -0.3890
 2426SOL    HW118914   2.157   1.006  14.560  0.1179 -0.0737 -2.0341
 2426SOL    HW218915   2.239   1.125  14.531 -0.0890  1.2889  2.9348
 2427SOL     OW18916   2.957   3.687  14.334 -0.3144 -0.2106 -0.3680
 2427SOL    HW118917   2.967   3.703  14.428 -0.0790  2.2517 -0.8300
 2427SOL    HW218918   3.025   3.746  14.302 -0.7320  0.2242 -0.4531
 2428SOL     OW18919   3.375   1.036   0.090 -0.0754  0.3183  0.0888
 2428SOL    HW118920   3.464   1.050   0.121 -0.1220  0.4978  0.1430
 2428SOL    HW218921   3.366   1.104   0.023  1.6981 -1.7015 -2.1801
 2429SOL     OW18922   2.559   0.477   8.363 -0.3180  0.4085  0.4067
 2429SOL    HW118923   2.574   0.496   8.456  2.8701 -0.8705  0.1431
 2429SOL    HW218924   2.644   0.449   8.330 -1.2637 -0.8031 -0.9844
 2430SOL     OW18925   1.493   0.546   8.918 -0.1642  0.0012 -0.2991
 2430SOL    HW118926   1.502   0.642   8.914  0.9721 -0.0727  0.7782
 2430SOL    HW218927   1.423   0.534   8.981 -0.1789  0.3812 -0.2405
 2431SOL     OW18928   4.528   0.917  11.878  0.6148 -0.1068 -0.2713
 2431SOL    HW118929   4.584   0.852  11.920  0.3085 -0.9992 -1.2329
 2431SOL    HW218930   4.442   0.875  11.873 -0.3779  2.2657 -3.0380
 2432SOL     OW18931   4.189   3.032   1.857 -0.1339 -0.1897  0.1851
 2432SOL    HW118932   4.146   2.946   1.862 -1.0224  0.2519  0.1157
 2432SOL    HW218933   4.113   3.090   1.850 -0.0926 -0.0556  0.7943
 2433SOL     OW18934   3.997   3.898   5.943  0.4134  0.1427  0.1505
 2433SOL    HW118935   3.916   3.919   5.898  0.8895 -1.7288 -1.6286
 2433SOL    HW218936   3.963   3.891   6.032 -0.3080 -1.0956 -0.2180
 2434SOL     OW18937   2.137   0.978   6.338 -0.6760  0.1474  0.5697
 2434SOL    HW118938   2.184   0.938   6.264  0.5061 -0.1916  1.5021
 2434SOL    HW218939   2.056   1.015   6.305 -0.9403  1.0500  2.2169
 2435SOL     OW18940   1.045   0.961   2.304  0.6497  0.1912  0.6988
 2435SOL    HW118941   1.119   0.924   2.256  0.8201  1.4512 -0.0022
 2435SOL    HW218942   0.993   0.884   2.328 -0.2325  0.6409  0.2684
 2436SOL     OW18943   4.109   4.068   6.204 -0.3094  0.0452 -0.4472
 2436SOL    HW118944   4.150   3.984   6.182  1.7629  1.2298 -1.0898
 2436SOL    HW218945   4.015   4.048   6.203 -0.3166  0.0450  0.1555
 2437SOL     OW18946   1.028   3.343  15.896 -0.4466 -0.0274 -0.0022
 2437SOL    HW118947   1.041   3.422  15.844  1.4017  0.3643  1.0165
 2437SOL    HW218948   1.043   3.381  15.983  1.3534 -0.4950 -0.1126
 2438SOL     OW18949   4.252   1.632  14.886 -0.2876 -0.3408 -0.1815
 2438SOL    HW118950   4.221   1.576  14.958 -0.9464 -0.2714 -0.4101
 2438SOL    HW218951   4.223   1.715  14.922 -0.9775 -0.9212  0.6014
 2439SOL     OW18952   1.787   0.874  17.581  0.1053 -0.7692  1.1819
 2439SOL    HW118953   1.790   0.933  17.656 -1.0517  1.0671 -0.2069
 2439SOL    HW218954   1.877   0.841  17.584 -0.2451 -1.6156  2.2834
 2440SOL     OW18955   4.232   4.191  16.063 -0.1478 -0.2870  0.4081
 2440SOL    HW118956   4.299   4.198  15.995 -1.3269 -2.9433 -1.0033
 2440SOL    HW218957   4.275   4.237  16.136  2.2679 -2.1094  0.1338
 2441SOL     OW18958   3.566   2.285  12.585 -0.2638  0.4654  0.0095
 2441SOL    HW118959   3.644   2.232  12.573 -0.6646 -0.1777  0.2550
 2441SOL    HW218960   3.558   2.276  12.680 -2.3847 -1.8772 -0.3867
 2442SOL     OW18961   3.171   4.538   5.948  0.1744  0.2773  0.1026
 2442SOL    HW118962   3.127   4.570   6.027 -2.7946 -2.0076 -0.6520
 2442SOL    HW218963   3.246   4.488   5.981  1.1260  1.7354  0.1879
 2443SOL     OW18964   1.357   0.854   3.753  0.0624 -0.3110 -0.1370
 2443SOL    HW118965   1.425   0.788   3.768 -1.0306 -1.6893 -1.3050
 2443SOL    HW218966   1.286   0.792   3.771 -0.6605  0.6405  0.2505
 2444SOL     OW18967   0.353   3.576   9.177 -0.6422 -0.4552  1.2302
 2444SOL    HW118968   0.288   3.589   9.108  0.0486 -3.7636 -0.0618
 2444SOL    HW218969   0.392   3.498   9.137  0.1200  1.3352 -1.5334
 2445SOL     OW18970   0.124   3.005   1.762 -0.4679  0.2821  0.1957
 2445SOL    HW118971   0.126   3.019   1.667 -1.2142  1.9025  0.4212
 2445SOL    HW218972   0.031   2.998   1.785 -0.2963  0.4074  0.9339
 2446SOL     OW18973   4.260   4.197   3.757  0.2332 -0.1967  0.4923
 2446SOL    HW118974   4.208   4.118   3.769 -2.0021  1.5462  2.1584
 2446SOL    HW218975   4.320   4.196   3.832 -0.6462 -0.6189  1.1824
 2447SOL     OW18976   2.522   0.956   4.952 -0.4540  0.3256 -0.3539
 2447SOL    HW118977   2.466   1.000   4.888 -2.6660 -1.0346  0.6180
 2447SOL    HW218978   2.497   0.864   4.949  0.3954  0.0981 -0.4945
 2448SOL     OW18979   2.727   2.364   7.662  0.3797 -0.3601 -1.1169
 2448SOL    HW118980   2.640   2.386   7.629 -0.3766  0.7802  1.6474
 2448SOL    HW218981   2.704   2.283   7.709  0.5526  0.2260 -0.0381
 2449SOL     OW18982   3.974   0.917   2.855 -0.0697  0.2156  0.6662
 2449SOL    HW118983   3.950   0.854   2.923  0.5515 -0.1976  0.5031
 2449SOL    HW218984   3.999   0.854   2.787 -0.1174 -0.2198  1.0510
 2450SOL     OW18985   3.823   3.341  13.759  0.3460 -0.2311 -0.0588
 2450SOL    HW118986   3.881   3.374  13.690  2.3656 -2.0719  0.7752
 2450SOL    HW218987   3.739   3.330  13.715 -1.1902  0.9096  2.5280
 2451SOL     OW18988   3.022   1.903   8.829 -0.4828  0.2180 -0.5961
 2451SOL    HW118989   3.114   1.906   8.854 -0.3399  0.5769 -1.1852
 2451SOL    HW218990   3.004   1.998   8.830 -0.1071  0.2662  2.0903
 2452SOL     OW18991   3.581   1.647   0.648  1.0014  0.0872 -0.5838
 2452SOL    HW118992   3.592   1.644   0.743 -0.2479  0.2530 -0.4339
 2452SOL    HW218993   3.672   1.630   0.626  1.7331  2.4549  0.6666
 2453SOL     OW18994   2.424   1.993   7.903 -0.4710 -0.0865 -0.3923
 2453SOL    HW118995   2.360   1.991   7.975 -1.3018 -0.6460 -1.1366
 2453SOL    HW218996   2.399   1.912   7.859 -2.4741  0.2840  0.0513
 2454SOL     OW18997   0.041   1.257   8.366  0.3885 -0.3176 -0.6744
 2454SOL    HW118998   0.112   1.317   8.388 -0.6263  2.0040 -3.6318
 2454SOL    HW218999   4.710   1.304   8.416  0.7448 -1.1899  0.6087
 2455SOL     OW19000   3.991   2.002  13.141  0.4245 -0.0079  0.7245
 2455SOL    HW119001   3.993   2.017  13.236 -1.7601 -0.4793  0.8448
 2455SOL    HW219002   4.083   2.022  13.123  0.2335 -0.8207 -1.0787
 2456SOL     OW19003   1.959   4.265   6.928  0.0491  0.2852  0.0521
 2456SOL    HW119004   2.014   4.200   6.972 -0.8573 -0.9358 -0.6272
 2456SOL    HW219005   1.877   4.265   6.977  0.3395  0.2093  0.5347
 2457SOL     OW19006   1.392   2.448   3.010 -0.3019 -0.1322 -0.0124
 2457SOL    HW119007   1.428   2.360   3.002 -0.7107 -0.1708 -1.5122
 2457SOL    HW219008   1.335   2.463   2.935  0.2829 -1.9747 -0.8165
 2458SOL     OW19009   4.413   3.523  16.636  0.1002  0.1796 -0.1387
 2458SOL    HW119010   4.352   3.530  16.562 -2.7797 -1.1928  2.0947
 2458SOL    HW219011   4.393   3.608  16.676 -0.3324  0.7413 -1.5327
 2459SOL     OW19012   2.640   4.053  15.902 -0.3055 -0.1287  0.5912
 2459SOL    HW119013   2.645   4.053  15.997  1.1077  0.1497  0.5107
 2459SOL    HW219014   2.693   3.975  15.885 -0.1104  0.1316 -0.0103
 2460SOL     OW19015   3.618   3.201   8.525  0.0321  0.2653  0.2232
 2460SOL    HW119016   3.538   3.217   8.474  1.3100  0.7728 -1.6380
 2460SOL    HW219017   3.611   3.107   8.544  0.2510  0.4386  1.1258
 2461SOL     OW19018   4.621   3.003   8.159 -0.5371  0.0183 -0.1477
 2461SOL    HW119019   4.596   3.018   8.251  0.6112  1.2191 -0.0281
 2461SOL    HW219020   4.545   2.962   8.119  0.1152 -1.7225  0.3809
 2462SOL     OW19021   1.357   0.102   6.245 -0.9291 -0.4187 -0.7124
 2462SOL    HW119022   1.444   0.134   6.221 -0.4894  0.6646  2.3701
 2462SOL    HW219023   1.315   0.171   6.295  0.0596 -1.8985  2.1468
 2463SOL     OW19024   0.108   1.000  17.541  0.3949 -0.1321  0.3580
 2463SOL    HW119025   0.173   0.943  17.582 -0.1353 -0.1966  1.1122
 2463SOL    HW219026   0.121   0.971  17.451 -1.0563  0.5680 -0.0660
 2464SOL     OW19027   4.566   2.856   2.448  0.2817 -0.4650  0.9042
 2464SOL    HW119028   4.490   2.822   2.494 -0.2103  1.8718  1.8201
 2464SOL    HW219029   4.584   2.792   2.378 -2.5243  0.3582 -0.5751
 2465SOL     OW19030   1.527   0.810  11.220 -0.2784  0.9852  0.0886
 2465SOL    HW119031   1.480   0.745  11.272  0.1584  0.5732 -0.0264
 2465SOL    HW219032   1.468   0.884  11.231  1.8570  2.3431  2.3497
 2466SOL     OW19033   1.039   1.322   0.822 -0.0323 -0.0266  1.0892
 2466SOL    HW119034   1.019   1.300   0.731  0.6642  0.5359  0.7985
 2466SOL    HW219035   1.132   1.347   0.823  0.6626 -2.5876  1.6650
 2467SOL     OW19036   1.140   0.405   7.141 -0.1058  0.3803 -0.0603
 2467SOL    HW119037   1.113   0.328   7.090 -1.9408  0.1230  1.2654
 2467SOL    HW219038   1.229   0.421   7.110 -0.5101 -3.1496 -3.0847
 2468SOL     OW19039   1.102   3.452  16.134  0.2298  0.6030 -0.0955
 2468SOL    HW119040   1.083   3.383  16.197 -0.0973  1.3162  0.5791
 2468SOL    HW219041   1.197   3.459  16.146  0.3031 -0.8881  0.2102
 2469SOL     OW19042   1.589   3.861   2.491 -0.0676  0.0292 -0.1390
 2469SOL    HW119043   1.543   3.814   2.560  1.6154 -0.3286  0.7387
 2469SOL    HW219044   1.681   3.849   2.517 -0.1423 -2.8753 -1.2436
 2470SOL     OW19045   1.470   2.140  10.171  0.4330  0.1232 -0.4678
 2470SOL    HW119046   1.442   2.066  10.225  2.8501  0.6804  1.5833
 2470SOL    HW219047   1.459   2.218  10.226 -1.6406 -0.0328 -0.6471
 2471SOL     OW19048   2.446   2.283  14.707  0.0996  0.0285 -0.2790
 2471SOL    HW119049   2.437   2.189  14.695  1.0676 -0.2077  0.8048
 2471SOL    HW219050   2.352   2.296  14.710 -0.2072 -2.3222  0.5350
 2472SOL     OW19051   1.138   1.450  15.886  0.4339  0.3702 -0.6414
 2472SOL    HW119052   1.101   1.380  15.833 -2.3657  1.6271 -0.3557
 2472SOL    HW219053   1.180   1.503  15.819  1.0242 -0.0076 -0.5684
 2473SOL     OW19054   2.877   3.727  14.074  0.1912  0.8042 -0.4206
 2473SOL    HW119055   2.937   3.701  14.144 -0.5896  1.3893  0.4617
 2473SOL    HW219056   2.820   3.649  14.080  0.8459  0.3432 -0.2067
 2474SOL     OW19057   1.752   2.388   5.541  0.5797  0.5342  0.1759
 2474SOL    HW119058   1.828   2.334   5.520  0.8427  0.6195  0.9346
 2474SOL    HW219059   1.783   2.430   5.621  1.5327 -1.5802  0.9223
 2475SOL     OW19060   3.271   3.678   6.203 -0.2410  0.5746  0.4320
 2475SOL    HW119061   3.335   3.724   6.149 -0.0093  1.2098  1.2483
 2475SOL    HW219062   3.208   3.744   6.231  0.0366  1.2809 -0.6179
 2476SOL     OW19063   4.110   2.711   0.157 -0.2431 -0.1349 -0.1603
 2476SOL    HW119064   4.032   2.763   0.178  0.1067  0.0381  0.7136
 2476SOL    HW219065   4.086   2.677   0.071 -0.4572  1.7322 -0.8314
 2477SOL     OW19066   3.653   2.784   1.336  0.0264  0.1668  0.0357
 2477SOL    HW119067   3.626   2.830   1.257 -0.6940  1.7635  1.1931
 2477SOL    HW219068   3.573   2.802   1.386  0.3049 -1.4118  1.0294
 2478SOL     OW19069   0.955   4.435   4.906 -0.5670 -0.4403  0.5225
 2478SOL    HW119070   0.878   4.444   4.963 -2.3391 -2.9530 -1.5016
 2478SOL    HW219071   1.025   4.416   4.969  0.8710 -0.5660 -1.1119
 2479SOL     OW19072   0.803   2.713  14.095  0.2004 -0.0138  0.0113
 2479SOL    HW119073   0.711   2.735  14.110  0.0852  0.3605 -1.2815
 2479SOL    HW219074   0.822   2.661  14.173 -1.8746 -2.5682 -1.1796
 2480SOL     OW19075   2.086   2.152   0.346 -0.1149 -0.4773 -0.1460
 2480SOL    HW119076   2.084   2.104   0.428 -1.0176 -0.2434 -0.0251
 2480SOL    HW219077   2.136   2.097   0.286  0.4025 -0.3457  0.1633
 2481SOL     OW19078   3.950   2.640   8.148 -0.3407 -0.5649 -0.1828
 2481SOL    HW119079   3.917   2.612   8.233  1.1878  0.5488  0.7841
 2481SOL    HW219080   4.018   2.572   8.151 -0.7611 -1.0393 -1.5429
 2482SOL     OW19081   0.313   3.843   8.483 -0.4502  0.4962 -0.3877
 2482SOL    HW119082   0.372   3.853   8.408  0.3476 -2.1898 -0.1068
 2482SOL    HW219083   0.378   3.863   8.549  1.3592 -4.8833 -0.5503
 2483SOL     OW19084   4.606   0.504   7.995  0.1151  0.4597 -0.0342
 2483SOL    HW119085   4.632   0.425   8.043 -2.8187 -1.0854 -0.9922
 2483SOL    HW219086   4.652   0.575   8.040  0.2388 -0.5821  1.4709
 2484SOL     OW19087   2.851   3.289   0.678  0.1379  0.3751  0.5443
 2484SOL    HW119088   2.881   3.365   0.727  0.1680  0.8304 -0.1786
 2484SOL    HW219089   2.762   3.323   0.663 -0.3613 -0.4239  1.6696
 2485SOL     OW19090   0.258   0.038   6.946  0.5444 -0.5932  0.2840
 2485SOL    HW119091   0.315   0.104   6.985  0.3251  0.3402 -0.9884
 2485SOL    HW219092   0.172   0.070   6.972  1.0730 -0.1284  1.4511
 2486SOL     OW19093   3.321   3.001   1.773 -0.0288 -0.8138  0.0349
 2486SOL    HW119094   3.329   2.930   1.837 -0.2474 -1.5978 -0.8087
 2486SOL    HW219095   3.406   2.993   1.730  0.5067  1.3125  0.6909
 2487SOL     OW19096   4.310   0.232  11.336  0.0398  0.2300 -0.2416
 2487SOL    HW119097   4.316   0.300  11.269  3.4561  0.2384  0.0833
 2487SOL    HW219098   4.253   0.171  11.290  1.9116 -0.9228 -1.0282
 2488SOL     OW19099   4.167   2.299   7.232 -0.1494  0.6372 -0.4164
 2488SOL    HW119100   4.094   2.360   7.239  0.8910  1.9430 -0.9171
 2488SOL    HW219101   4.219   2.328   7.157  0.1770 -0.5728 -0.6622
 2489SOL     OW19102   1.858   1.271  15.047  0.6819  0.1928 -0.5647
 2489SOL    HW119103   1.947   1.253  15.078 -0.5179 -1.8414  1.6656
 2489SOL    HW219104   1.812   1.214  15.108 -0.3968  0.6941 -0.9116
 2490SOL     OW19105   1.459   0.427   3.012  0.0602  0.4945  0.0070
 2490SOL    HW119106   1.492   0.351   3.060  0.9652 -1.3473 -3.5180
 2490SOL    HW219107   1.422   0.391   2.932 -1.4825  1.6289  0.2146
 2491SOL     OW19108   0.507   0.316   2.478 -0.1205  0.3654 -0.1369
 2491SOL    HW119109   0.508   0.392   2.536  1.5199  0.6354 -0.5106
 2491SOL    HW219110   0.511   0.352   2.390 -0.7294 -2.9461 -1.5279
 2492SOL     OW19111   0.989   0.788   9.338  0.0667 -0.5882 -0.2880
 2492SOL    HW119112   1.039   0.723   9.387 -1.9070 -2.8811 -1.2942
 2492SOL    HW219113   0.996   0.857   9.404  1.3185 -0.1943 -0.8343
 2493SOL     OW19114   2.166   1.113  16.015 -0.1687  0.3157  0.0120
 2493SOL    HW119115   2.084   1.112  16.064 -0.5959  1.9364 -0.6837
 2493SOL    HW219116   2.215   1.039  16.053  0.1250  1.4934  1.9456
 2494SOL     OW19117   0.805   2.747  17.445 -0.1464  0.5052  0.2075
 2494SOL    HW119118   0.895   2.769  17.421 -0.0385 -1.5354 -1.1808
 2494SOL    HW219119   0.797   2.652  17.437 -2.2125  0.6809  0.1838
 2495SOL     OW19120   4.413   4.402  15.125 -0.1743 -0.5470  0.0796
 2495SOL    HW119121   4.364   4.485  15.126  1.1816  0.2473  0.4972
 2495SOL    HW219122   4.498   4.422  15.086 -0.9829 -0.0185 -1.3875
 2496SOL     OW19123   2.983   2.446   7.119  0.6023  0.1757 -0.3129
 2496SOL    HW119124   2.985   2.540   7.137  0.4867  0.6544 -2.7727
 2496SOL    HW219125   3.021   2.438   7.031  0.2096  0.4743 -0.5106
 2497SOL     OW19126   4.000   2.694  11.279 -0.6090  0.0704 -0.1381
 2497SOL    HW119127   4.055   2.654  11.347  0.9733  0.5977 -1.1351
 2497SOL    HW219128   4.038   2.666  11.196  0.1446  0.6389  0.0178
 2498SOL     OW19129   2.155   2.194   4.322  0.0141  0.1176  1.1055
 2498SOL    HW119130   2.233   2.250   4.324  2.0721 -2.6021 -1.8849
 2498SOL    HW219131   2.199   2.115   4.292 -1.1392 -0.0013 -0.2738
 2499SOL     OW19132   2.695   3.132   2.769  0.3107  0.2907  0.2082
 2499SOL    HW119133   2.723   3.040   2.767  0.0497  0.2508 -1.5426
 2499SOL    HW219134   2.609   3.124   2.809 -0.1402 -1.6591 -1.1566
 2500SOL     OW19135   3.670   1.713  12.793  0.1568  0.2057 -0.6575
 2500SOL    HW119136   3.668   1.740  12.885  3.5035  2.0644 -1.1318
 2500SOL    HW219137   3.608   1.777  12.758 -0.9865  0.2802  1.4933
 2501SOL     OW19138   1.941   3.789  16.041 -0.2417  0.2920 -0.1844
 2501SOL    HW119139   2.012   3.832  16.089 -0.1377 -1.5525  1.2792
 2501SOL    HW219140   1.911   3.864  15.989 -0.9713  0.1462  0.0437
 2502SOL     OW19141   1.742   2.978   5.837  0.2781 -0.6513 -0.0886
 2502SOL    HW119142   1.823   2.932   5.856  0.6741  0.9178  1.9778
 2502SOL    HW219143   1.770   3.058   5.881  0.7487 -0.5248 -0.6022
 2503SOL     OW19144   4.724   3.232   8.011  0.3815  0.2119 -0.2421
 2503SOL    HW119145   4.683   3.155   8.050 -1.3249  1.7658  1.0554
 2503SOL    HW219146   0.042   3.276   8.077  1.2023 -0.8054 -0.2269
 2504SOL     OW19147   0.031   3.136   5.678  0.0399  0.1519 -0.4311
 2504SOL    HW119148   0.096   3.095   5.621 -0.4875 -0.5646 -0.5208
 2504SOL    HW219149   4.696   3.072   5.671  0.0436  0.0227  0.7549
 2505SOL     OW19150   4.202   0.053  11.800 -0.2052 -0.3271  0.1513
 2505SOL    HW119151   4.282   0.056  11.853  2.0531 -1.2282 -3.2270
 2505SOL    HW219152   4.130   0.051  11.863  0.4764 -0.4167  0.9324
 2506SOL     OW19153   3.072   2.459   5.414 -0.0685 -0.2122  0.0830
 2506SOL    HW119154   3.039   2.383   5.365 -1.7442  0.6092 -0.0596
 2506SOL    HW219155   2.994   2.463   5.469 -0.9322 -4.8613 -0.7619
 2507SOL     OW19156   3.271   1.480   3.175 -0.0722 -0.6137  0.2773
 2507SOL    HW119157   3.181   1.473   3.144 -0.3690 -0.3773  1.0916
 2507SOL    HW219158   3.309   1.517   3.096  1.9787 -1.5089  0.8465
 2508SOL     OW19159   0.588   3.281   3.823  0.2218 -0.3378  0.4444
 2508SOL    HW119160   0.534   3.333   3.764 -1.2328 -2.3965 -0.0407
 2508SOL    HW219161   0.599   3.338   3.899 -2.9272  0.2725  0.4608
 2509SOL     OW19162   2.461   4.714  12.864  0.7431 -0.0142 -0.1161
 2509SOL    HW119163   2.529   4.656  12.898  0.2482 -1.2818 -1.3048
 2509SOL    HW219164   2.380   4.666  12.877  1.8969 -1.6186  1.1867
 2510SOL     OW19165   2.117   3.797  10.529 -0.3905 -0.5028 -0.2067
 2510SOL    HW119166   2.150   3.840  10.608  2.0980 -0.7148 -1.1469
 2510SOL    HW219167   2.160   3.849  10.461 -0.0863 -3.0115 -1.9298
 2511SOL     OW19168   0.339   2.209  15.040  0.2289 -0.0349 -0.1682
 2511SOL    HW119169   0.340   2.165  14.955 -0.4746 -0.7435  0.1850
 2511SOL    HW219170   0.434   2.208  15.051  0.0078 -0.2224  1.7053
 2512SOL     OW19171   3.690   1.103   1.787  0.1127  0.8623 -0.4175
 2512SOL    HW119172   3.735   1.023   1.811  0.5939  1.3059  0.1606
 2512SOL    HW219173   3.726   1.111   1.698 -0.3298  1.0930 -0.5763
 2513SOL     OW19174   4.126   4.524   7.895  0.3602  0.0061 -0.1122
 2513SOL    HW119175   4.126   4.432   7.919 -0.8574 -0.3443 -1.4066
 2513SOL    HW219176   4.142   4.565   7.980 -2.0893 -1.2686  0.9708
 2514SOL     OW19177   4.146   3.567   9.764  0.5052  0.0028  0.2881
 2514SOL    HW119178   4.200   3.509   9.712 -0.1683 -1.0195  0.7310
 2514SOL    HW219179   4.054   3.546   9.745  0.1526 -0.4812  2.4914
 2515SOL     OW19180   4.413   4.052  14.359 -0.2555  0.6779  0.4655
 2515SOL    HW119181   4.457   4.087  14.282  1.8352 -0.0408  1.3218
 2515SOL    HW219182   4.484   4.002  14.400  0.1843  0.1536 -0.9502
 2516SOL     OW19183   0.515   1.851   3.636  0.4351  0.1962  0.2720
 2516SOL    HW119184   0.519   1.940   3.601 -1.8613  0.0793 -0.2967
 2516SOL    HW219185   0.574   1.795   3.586 -0.9963 -0.4875 -0.6255
 2517SOL     OW19186   1.017   0.947   9.563 -0.5247  0.3668 -0.5151
 2517SOL    HW119187   0.991   1.026   9.611 -0.5426  0.5639 -0.8525
 2517SOL    HW219188   1.105   0.977   9.540  0.2925 -1.2693  0.4999
 2518SOL     OW19189   0.816   4.449  16.175 -0.6585  0.0301 -0.3019
 2518SOL    HW119190   0.782   4.422  16.089 -0.6698 -1.8215  0.2832
 2518SOL    HW219191   0.776   4.377  16.224  2.0365 -1.1838  0.1079
 2519SOL     OW19192   3.338   4.537   2.152 -0.1543  0.4664 -0.1422
 2519SOL    HW119193   3.365   4.459   2.104  0.2528  0.9547 -0.7052
 2519SOL    HW219194   3.347   4.602   2.083 -0.7429  0.4344 -0.2465
 2520SOL     OW19195   1.811   1.140   9.024  0.2347 -0.4267 -0.3748
 2520SOL    HW119196   1.739   1.076   9.029  0.3504 -0.5555 -0.3579
 2520SOL    HW219197   1.845   1.101   8.943  1.7479 -0.6000  0.3544
 2521SOL     OW19198   0.214   1.220   9.195 -0.3585  0.1052 -0.5558
 2521SOL    HW119199   0.304   1.220   9.225 -0.6303  2.1139  0.2733
 2521SOL    HW219200   0.168   1.268   9.263  1.0210  2.2444 -1.1360
 2522SOL     OW19201   4.092   0.476   3.867  0.1046  0.1824 -0.3372
 2522SOL    HW119202   4.072   0.552   3.922  0.2821 -0.1682  0.2125
 2522SOL    HW219203   4.186   0.490   3.859 -0.5201  3.3473 -2.3950
 2523SOL     OW19204   0.167   1.597   5.666 -0.0461 -0.0849 -0.5045
 2523SOL    HW119205   0.220   1.541   5.609  2.0885  1.6487 -0.2267
 2523SOL    HW219206   0.111   1.534   5.712 -0.3683  1.4005  1.1413
 2524SOL     OW19207   1.751   0.816   2.494 -0.0134 -0.3376  0.5475
 2524SOL    HW119208   1.755   0.778   2.581 -1.8541  2.5582  1.8768
 2524SOL    HW219209   1.796   0.742   2.452 -0.4644  0.4405 -1.3344
 2525SOL     OW19210   4.613   1.897   6.272 -0.3014  0.1201 -0.1379
 2525SOL    HW119211   4.593   1.959   6.202 -1.0463 -1.1421 -1.0669
 2525SOL    HW219212   4.530   1.848   6.273  0.2435 -0.7943  0.2720
 2526SOL     OW19213   3.397   4.227   7.828 -0.3524  0.2943 -0.2639
 2526SOL    HW119214   3.407   4.224   7.733 -0.7532  0.8201 -0.3255
 2526SOL    HW219215   3.323   4.286   7.843  1.3886  2.4818 -0.1538
 2527SOL     OW19216   0.387   2.025  14.847 -0.1088  0.1962 -0.1701
 2527SOL    HW119217   0.448   2.009  14.775  0.5556  0.7146  0.2774
 2527SOL    HW219218   0.321   2.085  14.812  0.7822  0.0246 -2.1474
 2528SOL     OW19219   2.174   1.306   3.189 -0.6958  0.0300  0.5935
 2528SOL    HW119220   2.173   1.393   3.229 -0.1042 -0.1840  1.0941
 2528SOL    HW219221   2.144   1.307   3.098  0.0854  2.0487  0.3644
 2529SOL     OW19222   0.332   2.839   5.964  0.0520 -0.2090 -0.2185
 2529SOL    HW119223   0.245   2.878   5.958 -0.1122 -0.3649  1.1805
 2529SOL    HW219224   0.385   2.880   5.896  0.0236  0.7378  0.3341
 2530SOL     OW19225   0.534   3.708  11.839  0.5404  0.1597  0.2997
 2530SOL    HW119226   0.586   3.765  11.896 -0.0007 -0.3706  1.3467
 2530SOL    HW219227   0.512   3.759  11.761 -2.1126 -2.2349 -0.4983
 2531SOL     OW19228   0.270   2.233  14.542  0.2589  0.2492  0.2738
 2531SOL    HW119229   0.245   2.151  14.499  0.0594  0.3670  0.1670
 2531SOL    HW219230   0.217   2.217  14.620 -1.3345 -0.0705 -0.8774
 2532SOL     OW19231   3.816   4.393  10.504  0.2294  0.6259  0.1201
 2532SOL    HW119232   3.863   4.387  10.420 -1.9278  1.1443 -1.1092
 2532SOL    HW219233   3.895   4.418  10.553 -0.5122  0.0483  1.6091
 2533SOL     OW19234   1.735   1.287   3.944  0.5489 -0.0917  0.1734
 2533SOL    HW119235   1.690   1.363   3.981 -1.3602  0.3961 -3.0997
 2533SOL    HW219236   1.665   1.226   3.919 -0.4423  0.4572  1.6035
 2534SOL     OW19237   0.465   2.209   4.309 -0.6961  0.7371 -0.5381
 2534SOL    HW119238   0.376   2.176   4.322 -0.7705  1.3715  0.5327
 2534SOL    HW219239   0.473   2.281   4.371  0.9250 -0.3849  0.5524
 2535SOL     OW19240   4.447   2.462  13.623 -0.1520 -0.1458 -0.4699
 2535SOL    HW119241   4.521   2.514  13.657  1.3211 -2.5526 -0.0359
 2535SOL    HW219242   4.405   2.530  13.571  1.5891  2.7151  1.8397
 2536SOL     OW19243   2.158   1.909   3.010 -0.4054 -0.1670 -0.4200
 2536SOL    HW119244   2.217   1.978   3.039  0.2796 -1.0261  0.2299
 2536SOL    HW219245   2.210   1.846   3.061 -0.7032 -1.1947 -1.3856
 2537SOL     OW19246   3.592   3.214   2.876  0.3535 -0.0089 -0.1698
 2537SOL    HW119247   3.609   3.128   2.916  0.8646 -0.1835 -0.7724
 2537SOL    HW219248   3.523   3.237   2.939  0.0892 -0.4543 -0.2966
 2538SOL     OW19249   0.343   2.951   6.510  0.0754 -0.8971 -0.2343
 2538SOL    HW119250   0.359   2.971   6.418 -0.0600 -0.7103 -0.2154
 2538SOL    HW219251   0.324   2.858   6.499  2.1065 -1.4767  1.0798
 2539SOL     OW19252   4.439   4.208  10.619  0.4750  0.5104  0.0376
 2539SOL    HW119253   4.518   4.198  10.673  1.3250 -0.7912 -1.4500
 2539SOL    HW219254   4.471   4.228  10.532 -1.0277  3.3342  0.1485
 2540SOL     OW19255   4.243   1.727   7.522 -0.1548 -0.1756 -0.2153
 2540SOL    HW119256   4.264   1.820   7.522 -2.1453  0.2847 -2.5908
 2540SOL    HW219257   4.192   1.732   7.441 -2.2219 -1.4861  1.0060
 2541SOL     OW19258   4.401   4.347   2.582  1.0598 -0.5014 -0.2045
 2541SOL    HW119259   4.464   4.282   2.615  0.7794 -0.5589  0.2188
 2541SOL    HW219260   4.410   4.335   2.488 -0.5861 -1.7448 -0.2081
 2542SOL     OW19261   1.864   3.139  13.427  0.4090  0.7314  0.2967
 2542SOL    HW119262   1.919   3.204  13.384  1.1791 -1.7177 -2.4454
 2542SOL    HW219263   1.927   3.068  13.433 -1.0248 -0.6162 -0.4991
 2543SOL     OW19264   4.681   2.504   7.020 -0.3710 -0.1122 -0.5731
 2543SOL    HW119265   4.703   2.450   6.944  1.8882 -0.9715  0.7036
 2543SOL    HW219266   4.600   2.542   6.988 -0.7442 -1.9137 -1.8061
 2544SOL     OW19267   2.792   0.627   3.140  0.2220  0.2832  0.0688
 2544SOL    HW119268   2.698   0.617   3.147  0.2305 -2.6641 -3.8624
 2544SOL    HW219269   2.790   0.721   3.158  2.7652  0.1124  1.2799
 2545SOL     OW19270   2.354   3.919   3.812  0.1632  0.5762 -0.0770
 2545SOL    HW119271   2.314   3.973   3.743 -0.8144 -0.9751 -0.7277
 2545SOL    HW219272   2.326   3.831   3.788 -2.4153  1.3061  0.1832
 2546SOL     OW19273   3.629   2.638   8.322 -0.1005 -0.1981  0.1547
 2546SOL    HW119274   3.541   2.665   8.296 -1.4107 -2.6074  2.0527
 2546SOL    HW219275   3.636   2.545   8.298 -1.0117  0.4315 -2.4591
 2547SOL     OW19276   2.604   3.568   2.291  0.0269 -0.0322  0.6876
 2547SOL    HW119277   2.687   3.615   2.294  1.4778 -2.5737 -0.4175
 2547SOL    HW219278   2.557   3.645   2.258 -0.2890 -1.4375 -2.0660
 2548SOL     OW19279   3.112   4.247   5.342  0.1713  0.3386 -0.0788
 2548SOL    HW119280   3.023   4.219   5.363  0.4254  0.6077  1.3651
 2548SOL    HW219281   3.144   4.179   5.283 -1.3656  0.2283 -0.7817
 2549SOL     OW19282   2.346   4.076  14.965  0.7246 -0.5514 -0.5645
 2549SOL    HW119283   2.281   4.007  14.974  1.5532 -1.1964  0.4872
 2549SOL    HW219284   2.307   4.147  14.912  0.7905 -0.9141 -1.1009
 2550SOL     OW19285   1.846   1.779   2.306  0.0919  0.3388 -0.0652
 2550SOL    HW119286   1.931   1.822   2.312 -1.4504  3.2379  1.1797
 2550SOL    HW219287   1.859   1.713   2.238 -1.1568  1.8179 -1.7386
 2551SOL     OW19288   4.394   4.398   4.079  0.3597 -0.2550  0.1301
 2551SOL    HW119289   4.323   4.453   4.110  0.0446 -1.0129  0.7485
 2551SOL    HW219290   4.381   4.319   4.132  0.0522 -0.3359 -0.0622
 2552SOL     OW19291   3.677   0.331   6.183 -0.0352 -0.2391  0.1581
 2552SOL    HW119292   3.605   0.268   6.178 -0.3600  0.0790  0.8052
 2552SOL    HW219293   3.717   0.303   6.265 -1.9314 -1.4358  0.6874
 2553SOL     OW19294   4.339   4.277   3.147 -0.4150  0.0619  0.0065
 2553SOL    HW119295   4.382   4.359   3.172  1.5799 -0.9182 -0.2781
 2553SOL    HW219296   4.253   4.319   3.136 -0.6050 -0.0583  0.9870
 2554SOL     OW19297   4.446   1.901  11.492  0.1294 -0.2053 -0.1580
 2554SOL    HW119298   4.377   1.846  11.454 -0.6533  0.0460  0.9126
 2554SOL    HW219299   4.414   1.989  11.472  2.1160  0.6811  0.5761
 2555SOL     OW19300   4.373   3.730   8.279 -0.0998  0.0128  0.3953
 2555SOL    HW119301   4.447   3.788   8.262 -1.0879  0.8458 -1.0038
 2555SOL    HW219302   4.417   3.644   8.282  0.2925  0.2978  2.4841
 2556SOL     OW19303   4.353   0.198   4.761 -0.6400  0.1849 -0.0318
 2556SOL    HW119304   4.272   0.178   4.807 -1.2058 -0.5323 -1.3378
 2556SOL    HW219305   4.410   0.159   4.827  0.6593  0.8863 -0.7348
 2557SOL     OW19306   3.056   1.709   7.078 -0.1950  0.3226 -0.2080
 2557SOL    HW119307   3.109   1.744   7.006  2.9812 -2.0139  1.0234
 2557SOL    HW219308   3.096   1.623   7.079  1.5023  1.1329  1.4833
 2558SOL     OW19309   0.376   3.379   8.036 -0.7819 -0.0991  0.5410
 2558SOL    HW119310   0.334   3.465   8.045  0.3584  0.5384 -0.2170
 2558SOL    HW219311   0.463   3.405   8.005 -0.1770 -0.6779  1.7698
 2559SOL     OW19312   2.942   2.373   6.509 -0.4121 -0.1389 -0.0934
 2559SOL    HW119313   3.018   2.325   6.478  0.9267  3.3737 -2.2250
 2559SOL    HW219314   2.933   2.425   6.429 -2.4316  0.7919  0.7185
 2560SOL     OW19315   4.600   1.955   4.958  0.4306  0.0816  0.0700
 2560SOL    HW119316   4.552   2.012   5.018 -0.1461 -2.5737  2.1198
 2560SOL    HW219317   4.581   1.867   4.991 -0.0240 -1.0918 -3.3274
 2561SOL     OW19318   2.292   0.257   6.505  0.4215  0.1785 -0.4602
 2561SOL    HW119319   2.378   0.280   6.469 -0.0861 -0.6415 -2.1867
 2561SOL    HW219320   2.324   0.211   6.582 -1.8111 -3.2152 -1.5841
 2562SOL     OW19321   4.484   1.122   4.681  0.2581  0.7294 -0.0026
 2562SOL    HW119322   4.524   1.187   4.739 -0.2573  2.5276 -1.6695
 2562SOL    HW219323   4.558   1.061   4.673 -1.5891 -1.6985  1.2685
 2563SOL     OW19324   0.582   1.704   1.445  0.5376 -0.2884  0.4628
 2563SOL    HW119325   0.519   1.638   1.474 -1.4191  1.4341  0.1069
 2563SOL    HW219326   0.624   1.733   1.526  0.6137 -0.7493  0.5933
 2564SOL     OW19327   1.817   1.832   2.999 -0.0155  0.0413 -0.4936
 2564SOL    HW119328   1.771   1.881   2.930 -1.5276  1.1210  1.2752
 2564SOL    HW219329   1.829   1.747   2.956 -2.2890 -1.2490  1.4234
 2565SOL     OW19330   4.326   4.344   7.197  0.2540  0.1107  0.2193
 2565SOL    HW119331   4.361   4.259   7.172  0.3938  0.6415 -1.3825
 2565SOL    HW219332   4.234   4.320   7.207 -0.2812  1.2795 -1.7653
 2566SOL     OW19333   4.564   1.261   8.829 -0.8728  0.1026  0.0152
 2566SOL    HW119334   4.639   1.257   8.889 -1.2119 -0.0839  0.4258
 2566SOL    HW219335   4.595   1.314   8.755 -1.1023  0.7755  0.4024
 2567SOL     OW19336   0.950   2.330   3.590  0.0186  0.2764  0.1032
 2567SOL    HW119337   0.920   2.321   3.680 -1.9037  1.0880 -0.4594
 2567SOL    HW219338   0.929   2.420   3.566 -0.6164  0.6744  2.1862
 2568SOL     OW19339   2.782   0.358   1.576  0.7715  0.0312 -0.4812
 2568SOL    HW119340   2.779   0.353   1.480  0.1058 -0.6613 -0.4190
 2568SOL    HW219341   2.719   0.290   1.599  1.0689  0.2730  1.0773
 2569SOL     OW19342   0.512   3.502   7.651 -0.7842 -0.3027 -0.1090
 2569SOL    HW119343   0.431   3.504   7.600 -1.6258 -1.9938  1.1571
 2569SOL    HW219344   0.552   3.437   7.593 -0.2658 -0.1693  0.1001
 2570SOL     OW19345   2.410   2.288  14.344 -1.0245 -0.4942  0.7647
 2570SOL    HW119346   2.478   2.221  14.345 -1.2179 -0.7066 -0.2407
 2570SOL    HW219347   2.450   2.356  14.398  0.4036 -0.4317 -0.3702
 2571SOL     OW19348   1.947   0.155   8.741  0.4830  0.4371  0.4637
 2571SOL    HW119349   1.854   0.178   8.748  0.9987  1.8714  2.7602
 2571SOL    HW219350   1.980   0.243   8.723  0.3656  0.6905  1.4648
 2572SOL     OW19351   2.233   4.135   5.470  0.1070  0.0595  0.2600
 2572SOL    HW119352   2.162   4.073   5.451  1.2978 -0.8810 -1.0704
 2572SOL    HW219353   2.228   4.198   5.398  0.1333 -0.1211  0.1017
 2573SOL     OW19354   2.777   1.734   3.764 -0.2855  0.0327  0.4532
 2573SOL    HW119355   2.784   1.824   3.733 -0.3298 -0.3981 -0.8038
 2573SOL    HW219356   2.732   1.689   3.693 -0.1351  2.4600 -1.2045
 2574SOL     OW19357   2.598   3.452   5.445 -0.3286  0.3343  0.0097
 2574SOL    HW119358   2.639   3.528   5.404  0.8656 -0.1690  0.2669
 2574SOL    HW219359   2.571   3.400   5.369  2.1284  1.7492 -1.8412
 2575SOL     OW19360   2.241   2.634  13.132  0.2420  0.0867 -0.0660
 2575SOL    HW119361   2.156   2.663  13.164  1.0299 -0.2371  2.3118
 2575SOL    HW219362   2.243   2.542  13.159 -1.5965  0.5846  1.8009
 2576SOL     OW19363   0.217   0.498   8.237  0.0533  0.1499  0.3193
 2576SOL    HW119364   0.234   0.566   8.302  0.0838  0.7920 -0.3566
 2576SOL    HW219365   0.306   0.483   8.206  0.4872  1.5497  0.8811
 2577SOL     OW19366   1.508   3.208   5.909  0.4581  0.3606  0.3630
 2577SOL    HW119367   1.557   3.196   5.990  1.4430 -0.4488 -0.3562
 2577SOL    HW219368   1.450   3.133   5.917 -0.0043  0.5052 -1.6288
 2578SOL     OW19369   1.330   4.194  13.987  0.1513 -0.4878  0.5058
 2578SOL    HW119370   1.288   4.108  13.979 -0.2451 -0.1582 -0.9415
 2578SOL    HW219371   1.350   4.199  14.081  1.0734  3.6605  0.0612
 2579SOL     OW19372   1.623   3.901   6.370 -0.4514  0.0919  0.3253
 2579SOL    HW119373   1.688   3.968   6.351 -1.7993  2.0193  2.4365
 2579SOL    HW219374   1.548   3.954   6.396  0.8195  2.7803 -1.4963
 2580SOL     OW19375   3.735   0.357   5.538 -0.3789  0.2787 -0.6034
 2580SOL    HW119376   3.649   0.391   5.514 -1.1253 -0.2296  1.2603
 2580SOL    HW219377   3.744   0.291   5.469 -1.0958 -1.8546  1.3352
 2581SOL     OW19378   3.468   0.078   8.680 -0.3911  0.5265  0.5720
 2581SOL    HW119379   3.444   0.165   8.711  1.4698  1.0614  0.4816
 2581SOL    HW219380   3.537   0.054   8.742  0.0404  1.2222  0.3563
 2582SOL     OW19381   3.026   2.523   8.981  0.3669  0.8830 -0.3236
 2582SOL    HW119382   2.998   2.556   9.066  0.9765  1.3820 -0.3170
 2582SOL    HW219383   2.959   2.457   8.963  1.2799 -0.5528  1.4906
 2583SOL     OW19384   1.692   2.315  14.000  0.5139 -0.3758 -0.4422
 2583SOL    HW119385   1.670   2.395  14.047 -1.6219 -1.3055  0.1449
 2583SOL    HW219386   1.629   2.260  14.047  1.3879 -1.6085 -0.6886
 2584SOL     OW19387   4.586   0.360   2.195  0.6417 -0.4642 -0.6149
 2584SOL    HW119388   4.621   0.291   2.139 -0.0805 -0.2406 -1.3456
 2584SOL    HW219389   4.637   0.438   2.171 -0.4269 -0.8205 -4.0531
 2585SOL     OW19390   0.463   3.160   7.241  0.2299 -0.4523  0.0129
 2585SOL    HW119391   0.392   3.105   7.208 -1.4053  1.2438  0.7116
 2585SOL    HW219392   0.510   3.179   7.160  1.7672 -0.4302  0.9212
 2586SOL     OW19393   3.512   0.620  17.517  0.3633 -0.5447 -0.7042
 2586SOL    HW119394   3.571   0.650  17.586  1.5336 -0.4483 -1.7561
 2586SOL    HW219395   3.567   0.616  17.439  0.4532 -0.5912 -0.6366
 2587SOL     OW19396   2.195   4.058   7.665 -0.3488 -0.1795 -0.1509
 2587SOL    HW119397   2.240   4.001   7.728 -0.8831 -1.0720 -0.5783
 2587SOL    HW219398   2.110   4.017   7.681 -0.7120  1.1902  1.4672
 2588SOL     OW19399   1.544   2.664   6.866  0.0268 -0.0066  0.2074
 2588SOL    HW119400   1.627   2.616   6.868 -0.6661 -1.1391  1.0909
 2588SOL    HW219401   1.569   2.718   6.790 -0.8501  1.9439  1.3150
 2589SOL     OW19402   1.982   2.044   6.477  0.1706 -0.8225 -0.1025
 2589SOL    HW119403   1.969   1.951   6.463  0.0867 -1.3247  3.1783
 2589SOL    HW219404   1.944   2.060   6.564  2.3141 -1.6650  0.9962
 2590SOL     OW19405   1.210   0.435   2.541  0.4706 -0.0153 -0.2711
 2590SOL    HW119406   1.152   0.485   2.598  1.1083 -0.2620  0.5955
 2590SOL    HW219407   1.266   0.510   2.520 -2.2859  2.1016  0.0959
 2591SOL     OW19408   1.656   2.870  11.810  0.0422  0.5612  0.0171
 2591SOL    HW119409   1.623   2.798  11.757 -0.9705  2.1828 -1.5515
 2591SOL    HW219410   1.712   2.817  11.866 -1.5559 -2.4586 -1.2173
 2592SOL     OW19411   0.011   3.601  14.928  0.0478 -0.1443 -0.2032
 2592SOL    HW119412   0.030   3.531  14.866  0.2936  0.4423 -0.7876
 2592SOL    HW219413   4.655   3.577  14.940  1.1833 -3.4364  1.7227
 2593SOL     OW19414   4.430   1.607  10.441 -0.0358  0.2321 -0.0926
 2593SOL    HW119415   4.443   1.528  10.390 -1.2031 -0.3091  0.4517
 2593SOL    HW219416   4.517   1.600  10.481 -0.7619 -0.0193  1.4532
 2594SOL     OW19417   0.681   3.141  17.040  0.2109 -0.0669  0.2999
 2594SOL    HW119418   0.744   3.105  17.103 -0.6626  0.7525  1.6279
 2594SOL    HW219419   0.683   3.084  16.963  1.6634  0.1146  0.1993
 2595SOL     OW19420   4.620   4.153   4.719  0.1817 -0.4497  0.2273
 2595SOL    HW119421   4.622   4.063   4.686 -0.3787 -0.0736 -0.8597
 2595SOL    HW219422   4.548   4.148   4.782  0.7705  1.5842  1.0648
 2596SOL     OW19423   2.074   0.069  11.223 -0.3401 -0.7671 -0.0829
 2596SOL    HW119424   2.001   0.018  11.189 -1.3014 -0.8878  2.2387
 2596SOL    HW219425   2.044   0.152  11.186 -0.9506 -1.5304 -1.3192
 2597SOL     OW19426   3.777   0.173   2.234  0.5086 -0.3217  0.2460
 2597SOL    HW119427   3.787   0.252   2.286  0.0119  1.5739 -2.5860
 2597SOL    HW219428   3.803   0.212   2.151 -0.5215 -2.2196 -0.9621
 2598SOL     OW19429   4.719   4.126  17.508  0.0787 -0.0930  0.2344
 2598SOL    HW119430   0.056   4.130  17.445  0.8550 -1.5980  1.0234
 2598SOL    HW219431   0.037   4.121  17.587  0.5574  1.9488  0.0313
 2599SOL     OW19432   0.727   3.518   2.763  0.4153 -0.7979  0.3124
 2599SOL    HW119433   0.658   3.552   2.706  1.3708 -1.6603 -1.3755
 2599SOL    HW219434   0.773   3.601   2.778  1.3418 -1.6002  1.8987
 2600SOL     OW19435   2.636   3.142  12.254  0.0733 -0.3412  0.4109
 2600SOL    HW119436   2.556   3.090  12.259 -0.0893 -0.1541 -0.3394
 2600SOL    HW219437   2.601   3.224  12.220  2.3293  0.0087 -1.0199
 2601SOL     OW19438   0.346   1.461   2.093 -0.6653  0.0626  0.0379
 2601SOL    HW119439   0.261   1.453   2.136  0.0033  0.4444  1.4102
 2601SOL    HW219440   0.396   1.498   2.165 -0.5313 -1.6987  0.8403
 2602SOL     OW19441   2.285   3.902   6.087 -0.0629 -0.1830  0.0602
 2602SOL    HW119442   2.373   3.887   6.053 -0.6777  1.2775 -2.1824
 2602SOL    HW219443   2.228   3.849   6.030  0.9909 -0.8722 -0.3582
 2603SOL     OW19444   0.914   4.557   0.187 -0.1506 -0.7403 -0.8041
 2603SOL    HW119445   0.830   4.575   0.230 -0.4364  1.6691 -2.3271
 2603SOL    HW219446   0.956   4.499   0.250  0.4719  1.2815  0.6601
 2604SOL     OW19447   3.563   1.789   1.467  0.2723 -0.3267 -0.0797
 2604SOL    HW119448   3.639   1.734   1.447  0.0479 -1.2241  1.5488
 2604SOL    HW219449   3.593   1.879   1.475 -2.1855  0.5648 -0.7531
 2605SOL     OW19450   2.116   3.075   6.147 -0.0133  0.0407 -0.5261
 2605SOL    HW119451   2.159   3.009   6.200  1.6919  1.2258 -0.4209
 2605SOL    HW219452   2.146   3.048   6.060  0.3559 -2.0042  0.2448
 2606SOL     OW19453   3.771   1.555  12.349  0.1732  0.3224 -0.2592
 2606SOL    HW119454   3.704   1.599  12.401 -0.1221 -1.0240  0.4984
 2606SOL    HW219455   3.752   1.465  12.373 -2.2875  0.7268 -0.7298
 2607SOL     OW19456   2.665   4.030   6.280  0.4233 -0.2805 -0.4420
 2607SOL    HW119457   2.642   3.944   6.244 -0.0673  0.5890 -2.2064
 2607SOL    HW219458   2.578   4.066   6.269  0.9633  0.6537 -1.6720
 2608SOL     OW19459   2.537   1.273   2.828 -0.3112  0.3187  0.4291
 2608SOL    HW119460   2.568   1.189   2.861 -2.0549 -0.5492 -0.1493
 2608SOL    HW219461   2.600   1.301   2.762  1.8262 -0.4043  2.1680
 2609SOL     OW19462   2.276   0.088  13.058  0.9037  0.0979  0.0666
 2609SOL    HW119463   2.344   0.138  13.012  0.1649 -0.0339 -1.1881
 2609SOL    HW219464   2.231   0.040  12.988 -0.7198 -1.5988  2.2813
 2610SOL     OW19465   4.368   0.224  15.977  0.0841  0.2536  0.3827
 2610SOL    HW119466   4.290   0.276  15.997 -0.3516 -1.1228  2.3172
 2610SOL    HW219467   4.369   0.150  16.038  0.0633 -0.7120 -0.7882
 2611SOL     OW19468   1.443   0.244   5.338  0.0893 -0.4985  0.2139
 2611SOL    HW119469   1.359   0.198   5.328 -0.0224  0.3052 -2.5233
 2611SOL    HW219470   1.498   0.177   5.380  1.5350 -0.1386 -1.1152
 2612SOL     OW19471   3.030   1.928   2.482  0.1079  0.4379  0.3680
 2612SOL    HW119472   3.076   1.899   2.560 -1.0670 -1.1496  0.4510
 2612SOL    HW219473   3.050   2.022   2.489  0.8141  0.3787 -0.8139
 2613SOL     OW19474   3.951   4.268   5.323  0.3118 -0.0769  0.7244
 2613SOL    HW119475   3.951   4.191   5.381 -1.9731 -1.3607 -0.9916
 2613SOL    HW219476   3.859   4.275   5.301 -0.2200 -1.7767  2.3919
 2614SOL     OW19477   2.987   1.906   5.202 -0.2921 -0.0489 -0.4812
 2614SOL    HW119478   2.905   1.887   5.248  0.8999  0.1302  1.7101
 2614SOL    HW219479   3.035   1.949   5.272  0.3958 -0.0088 -0.9777
 2615SOL     OW19480   1.481   1.300   7.502  0.1508 -0.2677  0.2172
 2615SOL    HW119481   1.523   1.315   7.586  2.0472 -0.9096 -0.6289
 2615SOL    HW219482   1.390   1.284   7.528 -0.1426  0.0101 -0.6109
 2616SOL     OW19483   2.475   2.107   4.474 -0.1261 -0.3103  0.0636
 2616SOL    HW119484   2.539   2.177   4.470  1.1423 -1.4488  0.3998
 2616SOL    HW219485   2.488   2.054   4.395 -1.7534 -1.8594  0.8327
 2617SOL     OW19486   0.790   1.145   6.931  0.4956  0.2731 -0.1679
 2617SOL    HW119487   0.703   1.177   6.956 -0.1607  0.0888 -2.1922
 2617SOL    HW219488   0.765   1.058   6.901  0.8740 -0.1401  0.7397
 2618SOL     OW19489   0.955   1.966  16.223  0.0936  0.0464  0.0213
 2618SOL    HW119490   0.996   1.880  16.211  0.6575  0.1855  0.9177
 2618SOL    HW219491   0.894   1.956  16.296  1.0494  0.7300  0.9153
 2619SOL     OW19492   4.115   4.517  16.815  0.2534 -0.3634  0.5025
 2619SOL    HW119493   4.205   4.492  16.836  0.9162  0.3895 -1.3944
 2619SOL    HW219494   4.125   4.515  16.720  2.3194 -2.0365  0.7569
 2620SOL     OW19495   0.294   1.462  14.724 -0.2615  0.1254 -0.5035
 2620SOL    HW119496   0.259   1.510  14.799  0.5584 -0.0533 -0.0115
 2620SOL    HW219497   0.339   1.536  14.683  0.0671 -0.2332 -0.7975
 2621SOL     OW19498   2.241   4.353  12.988  0.8135 -0.0120  0.0522
 2621SOL    HW119499   2.190   4.273  12.972 -1.6031  1.4618  0.3923
 2621SOL    HW219500   2.184   4.403  12.929  0.6507 -0.1418  0.0967
 2622SOL     OW19501   4.607   1.830   3.154 -0.3407  0.6702  0.2911
 2622SOL    HW119502   4.669   1.790   3.215 -0.0733  0.6921  0.0344
 2622SOL    HW219503   4.621   1.919   3.186  1.2082  0.8998 -1.0508
 2623SOL     OW19504   1.693   3.083   3.315  0.0138  0.3098 -0.3163
 2623SOL    HW119505   1.690   3.175   3.291  0.2659  0.4281  0.0949
 2623SOL    HW219506   1.615   3.055   3.268  1.4512  1.0929 -3.1372
 2624SOL     OW19507   0.895   4.304   4.445 -0.1871  0.1878  0.1019
 2624SOL    HW119508   0.834   4.230   4.446 -0.8979  0.7705  0.9293
 2624SOL    HW219509   0.880   4.325   4.353  2.7189  0.4354 -0.3075
 2625SOL     OW19510   4.161   1.163   8.200  0.5576 -0.0745 -0.1681
 2625SOL    HW119511   4.139   1.170   8.107 -1.0212  0.4978  0.2476
 2625SOL    HW219512   4.245   1.208   8.191  1.0563 -1.1250 -0.7206
 2626SOL     OW19513   4.002   4.359   6.837  0.0665 -0.2284  0.1467
 2626SOL    HW119514   3.988   4.325   6.749 -0.3344 -0.2072  0.2027
 2626SOL    HW219515   3.962   4.287   6.886 -0.0413 -1.1000 -1.2218
 2627SOL     OW19516   2.880   1.212  15.049  0.0981  1.0453  0.7308
 2627SOL    HW119517   2.915   1.288  15.097 -0.2197  0.9637  1.0845
 2627SOL    HW219518   2.966   1.173  15.033 -1.1148 -1.5094  0.4456
 2628SOL     OW19519   1.674   0.113  11.325 -0.2006 -0.4170  0.4079
 2628SOL    HW119520   1.600   0.081  11.273  0.4441 -2.0817  0.5270
 2628SOL    HW219521   1.738   0.044  11.341  1.7634  1.2547 -0.1146
 2629SOL     OW19522   4.358   1.600   4.182  0.1897 -0.2819  0.3473
 2629SOL    HW119523   4.356   1.645   4.266 -1.3078  0.0402  0.1491
 2629SOL    HW219524   4.266   1.609   4.155 -0.4754 -0.4518  2.5493
 2630SOL     OW19525   2.523   4.310  15.599  0.0733  0.0191  0.0173
 2630SOL    HW119526   2.437   4.270  15.613 -1.4134  2.2735 -2.7804
 2630SOL    HW219527   2.505   4.397  15.562  0.0514 -0.5879 -1.3954
 2631SOL     OW19528   4.170   3.794   3.384  0.5642  0.2206  0.0925
 2631SOL    HW119529   4.132   3.869   3.337  0.6567 -0.2143 -0.6702
 2631SOL    HW219530   4.169   3.743   3.303  0.7375  0.0086  0.2232
 2632SOL     OW19531   1.704   0.648   4.279  0.1461  0.1554  0.3621
 2632SOL    HW119532   1.624   0.604   4.307 -0.8595  1.6228 -0.1875
 2632SOL    HW219533   1.747   0.663   4.363  1.3075 -0.2620 -0.1696
 2633SOL     OW19534   3.127   0.872   2.728 -0.4019  0.1273 -0.6479
 2633SOL    HW119535   3.154   0.783   2.706  1.2279  0.6961 -0.9346
 2633SOL    HW219536   3.200   0.923   2.693 -1.3246  1.1796 -1.0371
 2634SOL     OW19537   1.411   2.266   9.834 -0.0048 -0.3943 -0.2917
 2634SOL    HW119538   1.466   2.331   9.791  0.9904 -0.8690  0.2580
 2634SOL    HW219539   1.449   2.187   9.795  1.9721  0.0480  0.7440
 2635SOL     OW19540   1.488   2.244   2.369  0.3187 -0.2359  0.3787
 2635SOL    HW119541   1.408   2.267   2.321  1.9725  0.3737 -2.1228
 2635SOL    HW219542   1.557   2.273   2.310  0.7030 -1.6520  0.1264
 2636SOL     OW19543   1.624   1.924   7.372 -0.1217  0.2593 -0.7827
 2636SOL    HW119544   1.592   1.851   7.425  0.8001 -0.4831 -1.2348
 2636SOL    HW219545   1.665   1.981   7.437 -0.0568 -1.3883  0.6181
 2637SOL     OW19546   4.045   4.499   8.778 -0.6966 -0.2933 -0.2303
 2637SOL    HW119547   3.992   4.541   8.845 -1.7706 -1.2358 -0.4861
 2637SOL    HW219548   3.975   4.472   8.719  0.3520  1.6981 -2.4088
 2638SOL     OW19549   4.665   3.502   3.907  0.0893 -0.2012 -0.0024
 2638SOL    HW119550   4.650   3.557   3.830  1.3347  2.5136  1.6692
 2638SOL    HW219551   0.003   3.448   3.879  0.2883 -0.6195  1.3349
 2639SOL     OW19552   2.736   3.026   1.898 -0.2430  0.1412 -0.2820
 2639SOL    HW119553   2.672   3.074   1.846  0.0260  0.8180  0.0096
 2639SOL    HW219554   2.745   2.958   1.831  1.0212 -0.8034  0.8619
 2640SOL     OW19555   2.204   0.010   2.068 -0.5381  0.4156  0.0293
 2640SOL    HW119556   2.132   0.014   2.005 -0.9781  3.0419  0.6793
 2640SOL    HW219557   2.158   0.052   2.141 -0.4197  0.3018  0.1675
 2641SOL     OW19558   1.812   4.697   2.677  0.7136  0.5701  0.7491
 2641SOL    HW119559   1.814   4.606   2.647  0.4949  1.2983 -1.4743
 2641SOL    HW219560   1.720   4.712   2.698 -0.2961 -0.3393 -3.0948
 2642SOL     OW19561   1.490   1.998   4.938  0.2661 -0.9877 -0.3532
 2642SOL    HW119562   1.416   2.046   4.901  0.9500 -0.1592 -0.6353
 2642SOL    HW219563   1.553   2.060   4.902 -0.8112  1.1477  1.4374
 2643SOL     OW19564   1.258   3.057   5.034  0.6550 -0.3764 -0.1368
 2643SOL    HW119565   1.354   3.053   5.041  0.6258  0.8322  0.9714
 2643SOL    HW219566   1.235   3.081   5.124  0.1617  0.9819 -0.6176
 2644SOL     OW19567   2.972   0.712   4.042  0.3811 -0.2314  0.1960
 2644SOL    HW119568   2.883   0.727   4.012  0.6504 -2.3732 -1.6369
 2644SOL    HW219569   3.017   0.739   3.962 -2.0062 -0.6093 -1.2659
 2645SOL     OW19570   2.113   4.109   8.384  0.3109 -0.3293  0.2715
 2645SOL    HW119571   2.038   4.158   8.418 -1.2858 -2.4433 -0.1971
 2645SOL    HW219572   2.184   4.093   8.446 -0.1244  1.0340  1.1187
 2646SOL     OW19573   3.285   2.916  15.410 -0.3849 -0.4448 -0.3466
 2646SOL    HW119574   3.282   2.837  15.356  1.6198  0.9091 -2.4467
 2646SOL    HW219575   3.309   2.981  15.344  1.2924 -2.4939 -1.7754
 2647SOL     OW19576   2.516   0.741   7.591 -0.3357  0.1907  0.0425
 2647SOL    HW119577   2.565   0.715   7.669  2.0217  1.2918 -1.0863
 2647SOL    HW219578   2.500   0.652   7.561  1.5321 -0.0689 -0.1392
 2648SOL     OW19579   0.585   2.772   3.752  0.7549 -0.3447 -0.0011
 2648SOL    HW119580   0.642   2.769   3.830 -0.5495  1.0547  1.0084
 2648SOL    HW219581   0.589   2.865   3.732  2.5137  0.7138  5.0740
 2649SOL     OW19582   2.356   0.592  14.761  0.1457 -0.1323  0.1058
 2649SOL    HW119583   2.408   0.523  14.720  1.0515  0.0428  0.9564
 2649SOL    HW219584   2.310   0.611  14.679 -0.3272  1.2089  0.6856
 2650SOL     OW19585   1.070   2.524   5.933 -0.3088 -0.8163 -0.5218
 2650SOL    HW119586   1.043   2.605   5.888 -1.4034 -0.5037  0.7024
 2650SOL    HW219587   1.161   2.512   5.904  0.0654  0.7499 -0.0274
 2651SOL     OW19588   2.396   4.063   4.811  0.5102  0.1383  0.1025
 2651SOL    HW119589   2.363   4.009   4.740  2.1560  0.3618 -0.8412
 2651SOL    HW219590   2.425   3.993   4.870 -0.7830 -0.8045 -0.3813
 2652SOL     OW19591   3.760   4.571   6.346 -0.0581 -0.0543 -0.0530
 2652SOL    HW119592   3.679   4.540   6.386  0.1851  0.6515  0.9773
 2652SOL    HW219593   3.817   4.546   6.418  1.3284 -0.7546 -1.4035
 2653SOL     OW19594   3.174   1.986   7.060 -0.4579 -0.2348 -0.4378
 2653SOL    HW119595   3.098   2.019   7.012  0.0727  0.8263 -0.5456
 2653SOL    HW219596   3.131   1.975   7.144  0.5574 -1.3855 -0.0720
 2654SOL     OW19597   1.009   4.197   7.798 -0.0181  0.6726  0.4374
 2654SOL    HW119598   0.963   4.281   7.797 -0.0993  0.6077 -1.5582
 2654SOL    HW219599   1.056   4.208   7.715 -0.7043 -1.4973 -0.2520
 2655SOL     OW19600   2.485   0.357  17.687  0.3294 -1.0985  0.4038
 2655SOL    HW119601   2.503   0.417  17.615 -0.9396 -2.6410 -1.2017
 2655SOL    HW219602   2.391   0.368  17.702  0.5174 -0.5761  1.2120
 2656SOL     OW19603   4.207   4.604   4.215  0.1375 -0.2074  0.0627
 2656SOL    HW119604   4.196   4.584   4.308  2.2829 -0.0652  0.3488
 2656SOL    HW219605   4.146   4.679   4.215  1.2120  0.6672  1.0738
 2657SOL     OW19606   4.533   1.187   3.033 -0.3994 -0.0314  0.1264
 2657SOL    HW119607   4.475   1.206   3.107  0.0390  0.8540  0.2474
 2657SOL    HW219608   4.471   1.135   2.982  1.5133 -0.6477 -1.5590
 2658SOL     OW19609   1.757   2.439  11.486 -0.8374  0.0618  0.5265
 2658SOL    HW119610   1.841   2.485  11.478 -1.0825  0.2853 -0.7480
 2658SOL    HW219611   1.762   2.443  11.582  1.7238 -0.1243  0.3864
 2659SOL     OW19612   2.633   0.549  15.381  0.3977 -0.2281  0.0786
 2659SOL    HW119613   2.621   0.575  15.290 -3.6980 -1.3259  0.2712
 2659SOL    HW219614   2.631   0.638  15.417  2.7037 -0.0670 -0.2238
 2660SOL     OW19615   2.066   0.346   3.904 -0.0177  0.3033  0.1381
 2660SOL    HW119616   2.082   0.385   3.819 -0.8770  1.1116  0.3532
 2660SOL    HW219617   2.148   0.364   3.949  0.0179 -2.1071  1.0795
 2661SOL     OW19618   2.825   1.632   5.461 -0.2791  0.3684 -0.6070
 2661SOL    HW119619   2.762   1.575   5.505  1.7980 -0.1690  1.6990
 2661SOL    HW219620   2.886   1.575   5.413  0.7471  0.3848  0.7031
 2662SOL     OW19621   3.560   3.792   5.333 -0.1431 -0.3320  0.1795
 2662SOL    HW119622   3.525   3.791   5.244  0.3535 -1.1459  0.0011
 2662SOL    HW219623   3.491   3.840   5.380 -0.4601  0.1886 -0.8140
 2663SOL     OW19624   0.234   1.290  17.383  0.0648  0.3795  0.1643
 2663SOL    HW119625   0.307   1.259  17.437  0.5539  0.9169 -0.1999
 2663SOL    HW219626   0.283   1.335  17.315  2.1477  0.3980  1.6725
 2664SOL     OW19627   0.423   1.950   7.022 -0.0309  0.3944 -0.1302
 2664SOL    HW119628   0.367   1.941   7.099  1.0195  4.5450  1.1357
 2664SOL    HW219629   0.467   2.034   7.040  0.1811  0.2597 -0.0176
 2665SOL     OW19630   2.795   4.285   2.873  0.0479 -0.4965  0.6463
 2665SOL    HW119631   2.829   4.371   2.848  1.0635 -1.1095 -0.0638
 2665SOL    HW219632   2.868   4.223   2.864 -1.3293 -2.1504  0.8641
 2666SOL     OW19633   0.602   3.343  14.092 -0.0593 -0.1057  0.6134
 2666SOL    HW119634   0.556   3.322  14.173  0.6593  0.6158  1.2175
 2666SOL    HW219635   0.650   3.261  14.091  0.8356  0.4161 -1.7162
 2667SOL     OW19636   3.636   2.079  10.898  0.2169 -0.0207  0.3594
 2667SOL    HW119637   3.653   2.001  10.951  0.4814 -0.7664 -0.8084
 2667SOL    HW219638   3.617   2.049  10.809  0.4095  1.9751 -0.3603
 2668SOL     OW19639   2.778   0.031   4.949 -0.0628 -0.2708  0.3617
 2668SOL    HW119640   2.850   0.069   5.000  0.1060 -1.8024  1.2706
 2668SOL    HW219641   2.714   0.008   5.017  4.6041 -4.7094  3.2450
 2669SOL     OW19642   0.606   0.318   6.528 -0.4059  0.2969 -0.0602
 2669SOL    HW119643   0.662   0.242   6.539  3.1587  2.9549  0.1891
 2669SOL    HW219644   0.522   0.273   6.527 -0.9952  1.4273 -2.6982
 2670SOL     OW19645   1.909   0.596   2.436  0.4155  0.2019  0.0203
 2670SOL    HW119646   1.902   0.504   2.464  1.5044 -0.1479 -0.8076
 2670SOL    HW219647   1.970   0.578   2.364 -0.2674 -2.0627 -0.0029
 2671SOL     OW19648   4.680   2.096   1.520 -0.6303 -0.6110  0.4318
 2671SOL    HW119649   0.004   2.170   1.519 -0.1487 -1.0146 -1.3108
 2671SOL    HW219650   4.646   2.100   1.609  0.5177 -0.0449  0.8330
 2672SOL     OW19651   1.212   2.694   9.182  0.3608  0.1528 -0.4390
 2672SOL    HW119652   1.145   2.647   9.232  0.3995 -0.7592 -1.2469
 2672SOL    HW219653   1.196   2.655   9.096  0.2517  0.1679 -0.4245
 2673SOL     OW19654   3.698   1.393  16.394  0.0001 -0.0423 -0.0627
 2673SOL    HW119655   3.778   1.341  16.386 -0.5663 -0.5693 -2.1975
 2673SOL    HW219656   3.696   1.391  16.490 -0.5782 -0.0732 -0.0763
 2674SOL     OW19657   4.319   3.077   1.616  0.2006 -0.3562 -0.2025
 2674SOL    HW119658   4.384   3.009   1.599  0.9537  0.4672 -0.6358
 2674SOL    HW219659   4.269   3.044   1.690  0.1616  0.2395  0.0389
 2675SOL     OW19660   0.414   3.325   9.748 -0.3528  0.0917 -0.8143
 2675SOL    HW119661   0.380   3.414   9.759 -1.8515 -0.3268 -2.0494
 2675SOL    HW219662   0.495   3.343   9.700 -0.2735 -0.7647 -1.0034
 2676SOL     OW19663   1.760   4.317   5.205  0.5206  0.2546  0.1470
 2676SOL    HW119664   1.774   4.222   5.208  1.4101  0.4673  2.2511
 2676SOL    HW219665   1.673   4.318   5.244  1.7676 -0.0547  2.9652
 2677SOL     OW19666   3.968   3.477   5.966 -0.4159  0.0493  0.2297
 2677SOL    HW119667   4.039   3.478   5.902 -0.8633 -0.6649 -0.2784
 2677SOL    HW219668   3.917   3.406   5.927 -0.7229  0.9698 -1.0250
 2678SOL     OW19669   0.429   4.210  16.625 -0.2112  0.4057 -0.3989
 2678SOL    HW119670   0.397   4.134  16.674 -0.0232 -0.3521 -1.4335
 2678SOL    HW219671   0.374   4.286  16.642  1.3508  0.7733  2.8656
 2679SOL     OW19672   0.278   2.143  15.975 -0.1444 -0.2361 -0.4848
 2679SOL    HW119673   0.265   2.214  16.039 -0.1461  0.2083 -0.9835
 2679SOL    HW219674   0.331   2.085  16.029 -1.1077 -0.5502  0.1312
 2680SOL     OW19675   1.136   0.879  13.795 -0.2609  0.1634 -0.5248
 2680SOL    HW119676   1.136   0.821  13.871  0.4601  1.6429  0.5816
 2680SOL    HW219677   1.042   0.891  13.779 -0.3021  2.0111  1.1849
 2681SOL     OW19678   2.419   3.782   3.466 -0.1425  0.6143  0.1502
 2681SOL    HW119679   2.324   3.792   3.474 -0.4428 -1.4069 -0.9486
 2681SOL    HW219680   2.430   3.689   3.485 -1.9947  0.2618 -0.4619
 2682SOL     OW19681   2.723   4.431   3.909  0.5688  0.0193  0.1754
 2682SOL    HW119682   2.795   4.382   3.868  0.7498  1.5033 -1.3056
 2682SOL    HW219683   2.672   4.372   3.963 -0.1129 -0.9168 -1.4962
 2683SOL     OW19684   4.735   2.413   4.305 -0.0730 -0.6910 -0.2592
 2683SOL    HW119685   4.680   2.353   4.354  0.6397 -1.6413 -0.6339
 2683SOL    HW219686   0.015   2.376   4.218 -0.6707 -1.2807 -0.1131
 2684SOL     OW19687   2.081   0.362   6.244 -0.4798  0.1056 -0.4867
 2684SOL    HW119688   2.035   0.328   6.167 -1.0482 -1.4438  0.5218
 2684SOL    HW219689   2.155   0.301   6.251 -0.3299 -0.1122 -3.6573
 2685SOL     OW19690   0.899   3.456   4.197 -0.3733 -0.2536  0.0511
 2685SOL    HW119691   0.955   3.384   4.168 -0.3652  0.2556 -1.2112
 2685SOL    HW219692   0.952   3.504   4.260 -0.3880  0.7032 -0.6648
 2686SOL     OW19693   2.694   3.300   2.483  0.4269  0.0383  0.5560
 2686SOL    HW119694   2.692   3.231   2.550  2.9311  0.0989  0.7247
 2686SOL    HW219695   2.788   3.301   2.466  0.5531  1.0327  1.2463
 2687SOL     OW19696   3.122   3.615   0.577 -0.1660  0.0068 -0.1430
 2687SOL    HW119697   3.152   3.524   0.582  0.8959  0.2966 -1.2044
 2687SOL    HW219698   3.062   3.619   0.652 -1.6807 -4.2867 -1.1093
 2688SOL     OW19699   0.907   0.749  11.788  0.1734 -0.4462 -0.0683
 2688SOL    HW119700   0.912   0.711  11.700  0.2832  3.1469 -1.5914
 2688SOL    HW219701   0.820   0.714  11.809 -1.3872  2.0198 -2.4027
 2689SOL     OW19702   4.229   2.994   0.324 -0.3056  0.3380 -0.2790
 2689SOL    HW119703   4.222   3.035   0.410  4.0187  0.3025  0.1106
 2689SOL    HW219704   4.180   3.062   0.278 -0.1241  0.4174 -0.3571
 2690SOL     OW19705   1.733   4.089   5.587 -0.0721  0.0896  0.2660
 2690SOL    HW119706   1.647   4.117   5.619 -1.1342  1.5899 -3.9192
 2690SOL    HW219707   1.706   4.016   5.531 -2.7714  0.7256  0.7367
 2691SOL     OW19708   1.825   2.589   6.279 -0.2726  0.2023  0.1154
 2691SOL    HW119709   1.889   2.624   6.217 -0.7865  0.3684 -0.3166
 2691SOL    HW219710   1.821   2.499   6.245 -2.8069 -0.1738  1.4410
 2692SOL     OW19711   3.196   1.188   9.486  0.0099  0.2303 -0.0487
 2692SOL    HW119712   3.221   1.250   9.418  0.3387  0.4281  0.2576
 2692SOL    HW219713   3.266   1.190   9.551  1.0395  1.7147 -1.1989
 2693SOL     OW19714   3.087   4.283   4.842 -0.9262 -0.5517 -0.2280
 2693SOL    HW119715   3.086   4.291   4.747  2.6815 -0.1319 -0.2344
 2693SOL    HW219716   3.182   4.280   4.852 -0.7692  1.8291 -1.0459
 2694SOL     OW19717   3.614   1.269   5.062  0.8715 -0.1979 -0.6211
 2694SOL    HW119718   3.655   1.263   4.976  1.5897 -0.0576 -0.2823
 2694SOL    HW219719   3.681   1.315   5.112 -0.7034 -2.5369  3.6335
 2695SOL     OW19720   3.420   1.853   7.484  0.4247  0.1639 -0.2564
 2695SOL    HW119721   3.365   1.802   7.424  0.2945  1.2858 -1.0926
 2695SOL    HW219722   3.360   1.878   7.554  0.5968  0.9024 -0.3705
 2696SOL     OW19723   0.242   2.575   4.966 -0.3080 -0.0631 -0.0016
 2696SOL    HW119724   0.330   2.583   5.003 -0.2183  2.7585 -0.7847
 2696SOL    HW219725   0.202   2.648   5.013  0.8812 -0.6986  1.9787
 2697SOL     OW19726   2.105   3.698  10.228 -0.3316  0.7000 -0.5410
 2697SOL    HW119727   2.131   3.768  10.287 -0.8022  0.8909 -0.5635
 2697SOL    HW219728   2.123   3.723  10.137  1.8576 -1.1187 -0.6211
 2698SOL     OW19729   0.652   2.536   0.398  0.2055  0.4296 -0.4777
 2698SOL    HW119730   0.638   2.493   0.314  2.3470  0.9904 -1.1108
 2698SOL    HW219731   0.602   2.617   0.392  2.5084  1.9444  0.5929
 2699SOL     OW19732   1.449   4.297   8.205 -0.0038  0.5025  0.5234
 2699SOL    HW119733   1.431   4.222   8.149  0.3060  1.6557 -1.1184
 2699SOL    HW219734   1.372   4.348   8.180 -0.6287 -0.5120  0.4187
 2700SOL     OW19735   4.423   2.710   1.296 -0.3825 -0.5888  0.1018
 2700SOL    HW119736   4.515   2.702   1.269 -0.5955  0.4212 -0.9377
 2700SOL    HW219737   4.387   2.632   1.255  0.6061 -0.8408 -0.3012
 2701SOL     OW19738   1.960   2.412   2.706  0.4067 -0.1310  0.1029
 2701SOL    HW119739   1.945   2.318   2.695 -0.2534 -0.2712  2.1815
 2701SOL    HW219740   1.881   2.459   2.678  0.2476 -1.2530 -1.3356
 2702SOL     OW19741   4.604   3.143   4.725  0.0561  0.0697 -0.0220
 2702SOL    HW119742   4.645   3.152   4.640  0.7962 -0.6058  0.2716
 2702SOL    HW219743   4.539   3.214   4.724 -1.1083 -1.0163 -0.5159
 2703SOL     OW19744   4.359   2.578   8.175  0.6596 -0.4232  0.2250
 2703SOL    HW119745   4.417   2.546   8.245  2.2994 -0.7735 -1.3010
 2703SOL    HW219746   4.399   2.536   8.098 -1.7556 -0.2594 -1.1076
 2704SOL     OW19747   3.100   3.387  14.913  0.2612 -0.4861  0.2590
 2704SOL    HW119748   3.055   3.321  14.859  0.5359  0.9968 -1.7688
 2704SOL    HW219749   3.172   3.412  14.855  0.3802 -1.3630  0.0232
 2705SOL     OW19750   4.541   4.565  15.744 -0.1707 -0.0134  0.1967
 2705SOL    HW119751   4.478   4.538  15.812 -0.4555 -1.4466 -0.6409
 2705SOL    HW219752   4.624   4.534  15.780  0.0244  0.0413 -0.2112
 2706SOL     OW19753   3.331   3.423  12.864  0.1686 -0.1128 -0.2305
 2706SOL    HW119754   3.338   3.499  12.806 -0.2354  0.9057  1.0558
 2706SOL    HW219755   3.259   3.371  12.830 -1.5645  0.7549  2.1500
 2707SOL     OW19756   4.138   0.264   2.420  0.3111 -0.1188  0.3912
 2707SOL    HW119757   4.143   0.360   2.420 -0.6455 -0.0720 -1.6430
 2707SOL    HW219758   4.144   0.251   2.326  1.4648 -0.9257  0.5806
 2708SOL     OW19759   1.358   2.544   6.130 -0.1675 -0.1298  0.4748
 2708SOL    HW119760   1.368   2.608   6.200 -1.5978 -1.1870  1.6384
 2708SOL    HW219761   1.412   2.474   6.167  0.6442  0.4474  0.3772
 2709SOL     OW19762   1.715   0.977   3.845 -0.1593 -0.7259 -0.0404
 2709SOL    HW119763   1.645   0.926   3.886  0.3958 -0.8800  0.7135
 2709SOL    HW219764   1.753   1.012   3.925 -1.8816  0.7232  0.1344
 2710SOL     OW19765   2.640   0.445   4.616 -0.9388 -0.4068 -0.9783
 2710SOL    HW119766   2.708   0.510   4.632  0.8120 -2.7020  0.9286
 2710SOL    HW219767   2.583   0.486   4.552 -0.6511 -0.3112 -1.1753
 2711SOL     OW19768   1.658   0.421  10.988 -0.0999 -0.2873  0.3191
 2711SOL    HW119769   1.571   0.385  11.007  0.3618 -3.3928 -3.4613
 2711SOL    HW219770   1.725   0.354  11.000 -2.5234 -3.0321 -1.6297
 2712SOL     OW19771   3.610   0.859  15.440 -0.2629 -0.7064  0.4245
 2712SOL    HW119772   3.682   0.815  15.394 -0.2017  0.2668 -0.4079
 2712SOL    HW219773   3.577   0.918  15.372  2.3714 -2.0503 -2.0487
 2713SOL     OW19774   4.362   4.655   5.209  0.2386 -0.3729 -0.3374
 2713SOL    HW119775   4.296   4.587   5.226  1.3212 -0.9350  1.7060
 2713SOL    HW219776   4.324   0.000   5.243  2.0602  0.3427 -0.0301
 2714SOL     OW19777   0.197   1.351   7.529 -0.4266  0.6082 -0.7864
 2714SOL    HW119778   0.145   1.293   7.474 -0.9288 -0.1585  0.5027
 2714SOL    HW219779   0.137   1.376   7.600 -0.7898 -0.7718 -0.6101
 2715SOL     OW19780   1.001   1.871   7.301 -0.3842 -0.0532  0.2318
 2715SOL    HW119781   0.972   1.949   7.347  3.0203  1.6196 -0.5017
 2715SOL    HW219782   0.942   1.871   7.226 -1.9849 -0.9138  1.4933
 2716SOL     OW19783   4.577   2.186   6.951  0.6665  0.5042 -0.3434
 2716SOL    HW119784   4.646   2.234   6.906  1.2717 -0.0300  0.0219
 2716SOL    HW219785   4.507   2.246   6.975 -0.3326 -1.3657  1.4555
 2717SOL     OW19786   0.095   0.576   0.500  0.2616  0.2827  0.0395
 2717SOL    HW119787   0.002   0.568   0.520 -0.0956 -0.5556 -1.9473
 2717SOL    HW219788   0.121   0.487   0.524 -2.3761 -0.8318 -1.2579
 2718SOL     OW19789   1.437   0.966   1.950 -0.0552 -0.0572 -0.2104
 2718SOL    HW119790   1.520   0.953   1.904  1.5489 -1.1359  2.9573
 2718SOL    HW219791   1.451   0.898   2.016  4.4472  0.7508 -0.2973
 2719SOL     OW19792   1.604   1.056  12.626  0.4437 -0.2574 -0.2441
 2719SOL    HW119793   1.559   1.096  12.701 -1.6060  0.3785 -1.8202
 2719SOL    HW219794   1.537   0.998  12.590  1.3060 -1.4953  0.1243
 2720SOL     OW19795   2.289   1.343  10.827 -0.0557 -0.8420 -0.1498
 2720SOL    HW119796   2.383   1.360  10.817 -0.1403  0.3562  1.1961
 2720SOL    HW219797   2.285   1.252  10.858  0.7217 -0.6385  0.5441
 2721SOL     OW19798   3.551   2.524   5.256 -0.2574  0.5398 -0.2983
 2721SOL    HW119799   3.612   2.455   5.282 -1.2018 -1.4932 -3.5306
 2721SOL    HW219800   3.607   2.597   5.230 -2.4411  1.3956 -2.6064
 2722SOL     OW19801   0.301   3.250  15.106  0.4695 -0.0512  0.1767
 2722SOL    HW119802   0.300   3.346  15.111  0.2932 -0.0747  0.5754
 2722SOL    HW219803   0.222   3.224  15.154 -0.4983  1.9816 -0.2717
 2723SOL     OW19804   0.861   1.429  12.613 -0.3216 -0.2833  0.3207
 2723SOL    HW119805   0.833   1.367  12.680  0.3993 -1.0455 -0.0729
 2723SOL    HW219806   0.871   1.374  12.535 -2.4008 -0.4610  0.1729
 2724SOL     OW19807   2.991   2.519   5.850 -0.5139  0.2865  0.0718
 2724SOL    HW119808   2.933   2.582   5.892 -0.1790 -1.5333  3.2377
 2724SOL    HW219809   2.931   2.446   5.840  0.0738  0.1038 -2.1171
 2725SOL     OW19810   4.609   4.732   2.055 -0.4558  0.7514  0.5298
 2725SOL    HW119811   4.573   4.729   2.143  0.0071  0.9497  0.7287
 2725SOL    HW219812   4.672   0.069   2.060  0.2522  0.2892 -1.5352
 2726SOL     OW19813   2.029   4.563   9.344 -0.0721 -0.8164 -0.7891
 2726SOL    HW119814   2.117   4.600   9.334 -0.1910 -0.1061  0.8522
 2726SOL    HW219815   1.982   4.640   9.376  0.7473 -0.8740  0.5564
 2727SOL     OW19816   4.508   0.659  13.892 -0.1731 -0.6696 -0.1399
 2727SOL    HW119817   4.526   0.572  13.928  1.7891 -0.2429 -0.1019
 2727SOL    HW219818   4.566   0.664  13.816 -0.7304  0.1722 -0.5113
 2728SOL     OW19819   0.479   2.686   5.630  0.1912  0.0925  0.2272
 2728SOL    HW119820   0.483   2.751   5.701  2.1462 -1.5171  1.5661
 2728SOL    HW219821   0.559   2.637   5.646 -0.0686 -0.7898 -1.1873
 2729SOL     OW19822   4.570   1.891   6.570  0.4609  0.5086 -0.4781
 2729SOL    HW119823   4.613   1.919   6.489 -0.7533  2.4293 -0.4767
 2729SOL    HW219824   4.492   1.840   6.549  0.0830  1.4393 -1.3573
 2730SOL     OW19825   3.577   1.683   2.170 -0.7057  0.1602  0.2410
 2730SOL    HW119826   3.610   1.730   2.094  1.4787  0.5087  1.3958
 2730SOL    HW219827   3.523   1.622   2.120  2.9497 -2.1046 -0.9505
 2731SOL     OW19828   0.870   2.990   3.953 -0.2384  0.1754  0.2921
 2731SOL    HW119829   0.881   2.990   3.858 -1.1687  0.2240  0.1877
 2731SOL    HW219830   0.776   3.006   3.961 -0.1419  1.5192 -1.2116
 2732SOL     OW19831   1.361   4.326  17.463  0.3311 -0.2200 -0.8660
 2732SOL    HW119832   1.303   4.266  17.416  0.2120 -0.6348 -0.1754
 2732SOL    HW219833   1.364   4.293  17.552 -1.6508 -1.1308 -1.1326
 2733SOL     OW19834   2.279   0.894   3.851 -0.2645  0.3097 -0.4113
 2733SOL    HW119835   2.278   0.816   3.906  1.0205  1.1192  0.7588
 2733SOL    HW219836   2.365   0.931   3.870  0.3437 -0.9093 -0.7573
 2734SOL     OW19837   4.473   3.846   8.763  0.2532 -0.2584 -0.5030
 2734SOL    HW119838   4.435   3.918   8.812  0.1378 -0.4200 -0.3536
 2734SOL    HW219839   4.398   3.789   8.745  0.9706 -0.8815 -1.5762
 2735SOL     OW19840   3.147   0.101  11.498 -0.8631 -0.4716  0.5349
 2735SOL    HW119841   3.115   0.128  11.412 -1.8158  1.7416  1.5896
 2735SOL    HW219842   3.236   0.138  11.498 -0.2599 -1.9211  0.9292
 2736SOL     OW19843   4.130   0.575   2.855  0.0005 -0.3811 -0.2325
 2736SOL    HW119844   4.192   0.502   2.869 -0.5021 -1.1364 -1.8851
 2736SOL    HW219845   4.045   0.532   2.864  0.4748 -1.2141  0.3770
 2737SOL     OW19846   0.153   3.666   2.678 -0.0883  0.0100  0.3827
 2737SOL    HW119847   0.123   3.757   2.676 -1.5685 -0.4742  1.7532
 2737SOL    HW219848   0.245   3.686   2.657 -0.8736  2.6377 -0.6412
 2738SOL     OW19849   4.558   2.232   7.234 -0.3168 -0.0859  0.4589
 2738SOL    HW119850   4.597   2.197   7.153 -0.4688  0.0669  0.3192
 2738SOL    HW219851   4.630   2.224   7.296 -1.3462  1.5333  1.8389
 2739SOL     OW19852   0.618   4.071   5.848  0.6066 -0.2226  0.0843
 2739SOL    HW119853   0.584   4.029   5.927  0.1573 -1.3933 -0.7303
 2739SOL    HW219854   0.568   4.152   5.858  1.0374  0.2440 -1.5342
 2740SOL     OW19855   0.168   2.571   3.526  0.1370  0.4256  0.3497
 2740SOL    HW119856   0.077   2.597   3.544  0.4718  0.9975  1.2588
 2740SOL    HW219857   0.213   2.591   3.609  0.6261 -0.2857  0.2515
 2741SOL     OW19858   2.024   1.667  15.223 -0.2878 -0.4731 -0.0407
 2741SOL    HW119859   2.112   1.647  15.254 -0.0070  0.6285 -0.1328
 2741SOL    HW219860   2.034   1.739  15.161 -3.1534  0.8839  1.1071
 2742SOL     OW19861   1.887   1.358   7.564  0.1792  0.7863 -0.2912
 2742SOL    HW119862   1.868   1.293   7.496  0.2673  0.4112  0.0459
 2742SOL    HW219863   1.840   1.325   7.640  1.1445  1.1434  0.4642
 2743SOL     OW19864   4.441   2.097   8.968  0.0085 -0.1988  0.6840
 2743SOL    HW119865   4.530   2.108   8.935 -1.1800  0.7132 -2.2923
 2743SOL    HW219866   4.456   2.016   9.017 -1.7057 -0.2650  1.1154
 2744SOL     OW19867   2.591   0.589  15.699  0.3636 -0.1877 -0.4781
 2744SOL    HW119868   2.620   0.649  15.630 -1.9272  1.2569 -0.1980
 2744SOL    HW219869   2.575   0.508  15.649  1.2903 -1.4363  1.2521
 2745SOL     OW19870   0.729   0.951   0.862 -0.1091  0.0315 -0.1660
 2745SOL    HW119871   0.788   1.016   0.824  1.0878 -0.4757  0.8132
 2745SOL    HW219872   0.740   0.956   0.957 -1.0642 -0.9035 -0.0082
 2746SOL     OW19873   4.348   2.115   4.131 -0.2456 -0.1546 -0.5717
 2746SOL    HW119874   4.299   2.033   4.118  1.4270 -1.1461 -0.5596
 2746SOL    HW219875   4.277   2.176   4.113  1.3259  1.6387 -0.6501
 2747SOL     OW19876   0.101   3.448   1.023  0.5128 -0.6039  0.0979
 2747SOL    HW119877   0.134   3.407   1.103 -1.6950 -2.6235 -0.0122
 2747SOL    HW219878   0.091   3.540   1.051 -1.4376 -0.0819 -2.3134
 2748SOL     OW19879   2.091   0.708   1.770  0.2275 -0.0218 -0.2456
 2748SOL    HW119880   2.007   0.744   1.743 -0.1529 -0.4728  0.3442
 2748SOL    HW219881   2.060   0.644   1.833 -0.8120 -0.6239 -1.3705
 2749SOL     OW19882   0.091   3.609   4.316  0.5081  0.1929  0.5625
 2749SOL    HW119883   0.128   3.687   4.273 -0.6416  0.0958 -0.5989
 2749SOL    HW219884   0.175   3.566   4.333  0.1604 -0.9727 -0.6943
 2750SOL     OW19885   2.354   3.486   1.671 -0.0940 -0.2582 -0.1583
 2750SOL    HW119886   2.341   3.572   1.712  1.4578 -0.9020  1.6847
 2750SOL    HW219887   2.270   3.451   1.641 -1.3905  2.9045 -0.2330
 2751SOL     OW19888   4.486   1.088   3.551  0.8393 -0.3161 -0.1172
 2751SOL    HW119889   4.546   1.046   3.489 -1.0231 -2.3641 -0.5383
 2751SOL    HW219890   4.468   1.172   3.510  0.9629  0.6121  1.7564
 2752SOL     OW19891   2.453   4.331   4.530  0.3141  0.4616 -0.2825
 2752SOL    HW119892   2.432   4.379   4.610 -1.7377 -3.7497  1.7306
 2752SOL    HW219893   2.389   4.260   4.536  2.1069 -0.9715  1.8716
 2753SOL     OW19894   3.358   4.713   4.181  0.3992 -0.0380 -0.0694
 2753SOL    HW119895   3.267   4.688   4.168  1.1503 -3.5592  1.6504
 2753SOL    HW219896   3.361   0.036   4.257  1.0127 -0.0706 -0.0686
 2754SOL     OW19897   4.065   1.645   2.205  0.1741 -0.1788  0.1224
 2754SOL    HW119898   4.130   1.585   2.170  0.0749 -0.3047  0.1553
 2754SOL    HW219899   3.983   1.628   2.160  0.1980 -2.1863  0.8373
 2755SOL     OW19900   3.266   0.628   4.551  0.7019 -0.0129 -0.1970
 2755SOL    HW119901   3.197   0.578   4.508  1.7122  0.3445 -2.2342
 2755SOL    HW219902   3.220   0.704   4.587  4.3521  1.5782  1.0922
 2756SOL     OW19903   1.252   2.443   7.755 -0.0229 -0.5664  0.4566
 2756SOL    HW119904   1.343   2.417   7.774  0.0993 -1.2568 -1.0802
 2756SOL    HW219905   1.263   2.483   7.669  2.7458 -0.5798  0.7864
 2757SOL     OW19906   2.867   3.054   8.017  0.6790  0.6867  0.3084
 2757SOL    HW119907   2.845   3.129   7.961  0.0836  0.2040 -0.1112
 2757SOL    HW219908   2.884   3.099   8.100  2.3443  1.1054 -0.2738
 2758SOL     OW19909   4.366   0.674   8.600 -0.0126 -0.1772 -0.2330
 2758SOL    HW119910   4.344   0.632   8.683  0.1324  0.8609  0.3377
 2758SOL    HW219911   4.452   0.710   8.618 -0.2032  0.8879 -1.4111
 2759SOL     OW19912   4.332   2.690   8.779  0.2218  0.0556 -0.3023
 2759SOL    HW119913   4.385   2.661   8.705 -1.7289 -0.4975 -1.4826
 2759SOL    HW219914   4.243   2.667   8.750 -0.4716  1.0738  0.9867
 2760SOL     OW19915   1.697   2.199  11.981 -0.0721 -0.4417  0.5406
 2760SOL    HW119916   1.747   2.223  12.059  0.5089 -0.3604  0.1456
 2760SOL    HW219917   1.657   2.117  12.007  0.8194 -0.9951  0.1900
 2761SOL     OW19918   2.846   0.565   5.434 -0.5121 -0.4789  0.2433
 2761SOL    HW119919   2.812   0.653   5.421  0.4094 -0.2908 -0.8441
 2761SOL    HW219920   2.767   0.521   5.467 -0.2747 -0.2090  1.1661
 2762SOL     OW19921   2.678   3.534   4.347 -0.1906  0.0392 -0.2837
 2762SOL    HW119922   2.599   3.542   4.399 -1.3458  1.8413 -2.3259
 2762SOL    HW219923   2.717   3.620   4.363 -0.3925  0.1182 -0.2204
 2763SOL     OW19924   0.449   2.662   0.158 -0.1143  0.1931  0.1287
 2763SOL    HW119925   0.469   2.704   0.074 -0.0579  0.9591  0.5264
 2763SOL    HW219926   0.495   2.716   0.222  2.4869 -3.0619  0.9799
 2764SOL     OW19927   2.397   2.641   4.076  0.3108  0.5322 -0.3462
 2764SOL    HW119928   2.492   2.640   4.063  0.3031 -0.2163 -0.3263
 2764SOL    HW219929   2.393   2.726   4.121  2.2881 -1.1553  3.0791
 2765SOL     OW19930   0.736   3.621   9.533  0.3295  1.1663  0.1485
 2765SOL    HW119931   0.805   3.670   9.578  1.5786  2.1975 -2.8785
 2765SOL    HW219932   0.689   3.697   9.499  0.0683  0.0256 -2.0392
 2766SOL     OW19933   2.839   0.908   7.515 -0.0318  0.2373 -0.2273
 2766SOL    HW119934   2.907   0.874   7.457  0.0126 -0.3738  0.1725
 2766SOL    HW219935   2.893   0.952   7.580  0.8463  0.5634 -1.1866
 2767SOL     OW19936   4.266   2.479   3.629  0.5253 -0.5113  0.0135
 2767SOL    HW119937   4.350   2.521   3.648  0.0247  0.3243  0.3996
 2767SOL    HW219938   4.216   2.553   3.663  0.2965 -0.3141 -0.7547
 2768SOL     OW19939   3.143   3.491   7.925 -0.6047  0.7645  0.2571
 2768SOL    HW119940   3.236   3.484   7.945  0.0428  3.0366 -1.9910
 2768SOL    HW219941   3.127   3.408   7.881 -1.6832  0.4539  1.2300
 2769SOL     OW19942   3.085   0.462   4.423 -0.2658 -0.2461 -0.6548
 2769SOL    HW119943   3.038   0.544   4.404  0.3531  0.8886  2.7122
 2769SOL    HW219944   3.014   0.401   4.443  1.3474 -1.4845  1.2266
 2770SOL     OW19945   4.603   4.122   0.875 -0.2567 -0.5481 -0.2649
 2770SOL    HW119946   4.521   4.111   0.828 -2.8774 -0.3689  4.2664
 2770SOL    HW219947   4.582   4.200   0.926 -1.0237 -1.3141  0.5784
 2771SOL     OW19948   2.516   2.834   2.424  0.1367 -0.5033 -0.3508
 2771SOL    HW119949   2.540   2.816   2.333  2.3390  0.1156  0.1180
 2771SOL    HW219950   2.594   2.815   2.476 -0.5236 -4.7203 -0.9101
 2772SOL     OW19951   1.003   3.777  14.161  0.0745  0.3775  0.6046
 2772SOL    HW119952   1.022   3.684  14.152 -1.0127  0.1680  0.5173
 2772SOL    HW219953   1.086   3.799  14.204  0.6408  2.1797 -1.4141
 2773SOL     OW19954   0.791   3.121  12.615  0.2142 -0.4485 -0.7347
 2773SOL    HW119955   0.704   3.107  12.578 -0.5182 -0.0005  0.8215
 2773SOL    HW219956   0.790   3.095  12.707 -0.3749 -0.6477 -0.7927
 2774SOL     OW19957   0.435   3.124   7.992 -0.1958  0.3892  0.3612
 2774SOL    HW119958   0.412   3.215   8.012 -2.3069  0.2348 -1.2942
 2774SOL    HW219959   0.363   3.097   7.934  0.7641 -0.0508 -0.6435
 2775SOL     OW19960   1.564   0.086   1.949  0.0466 -0.3088  0.5302
 2775SOL    HW119961   1.542   0.094   1.857  0.4529  0.3983  0.4927
 2775SOL    HW219962   1.548   0.171   1.992 -0.1859  0.3004 -0.7621
 2776SOL     OW19963   2.514   0.054  17.584 -0.2915 -0.3948  1.0046
 2776SOL    HW119964   2.543   0.134  17.542 -0.7358 -1.2238 -0.8838
 2776SOL    HW219965   2.419   0.061  17.576 -0.2889 -0.6309  0.7351
 2777SOL     OW19966   4.042   0.811  10.928 -0.1402  0.2995 -0.7597
 2777SOL    HW119967   4.101   0.886  10.932 -0.0199  0.1586  0.0966
 2777SOL    HW219968   3.977   0.846  10.868 -1.3956 -0.7993 -0.0543
 2778SOL     OW19969   3.194   3.133  14.657 -0.1583 -0.4335 -0.0431
 2778SOL    HW119970   3.126   3.158  14.719  1.0046 -0.3195  1.2024
 2778SOL    HW219971   3.166   3.185  14.582  0.4229  1.2474  0.8835
 2779SOL     OW19972   2.342   1.416   2.726 -0.1254 -0.4396 -0.4248
 2779SOL    HW119973   2.400   1.480   2.685  0.5967 -0.4488  0.5599
 2779SOL    HW219974   2.411   1.380   2.782  1.6992  2.0071 -1.1011
 2780SOL     OW19975   2.431   2.631   5.210  0.2282  0.1113 -0.5614
 2780SOL    HW119976   2.508   2.577   5.195 -0.4473 -0.5131 -1.7642
 2780SOL    HW219977   2.364   2.564   5.196 -0.0044 -0.0045  1.0796
 2781SOL     OW19978   1.288   3.704   5.492 -0.4170  0.6898 -0.6144
 2781SOL    HW119979   1.375   3.673   5.520  0.5495  2.1128 -2.0126
 2781SOL    HW219980   1.266   3.739   5.578 -0.0455  0.7156 -0.5263
 2782SOL     OW19981   4.666   0.682   1.738  0.1671  0.1993  0.3689
 2782SOL    HW119982   4.732   0.612   1.740  1.4051  1.3740  0.4130
 2782SOL    HW219983   4.644   0.691   1.646  0.2986  1.1960  0.4411
 2783SOL     OW19984   1.885   1.921   6.989  0.2175 -0.4413 -0.4021
 2783SOL    HW119985   1.974   1.949   6.967  0.6426 -1.8478 -0.4247
 2783SOL    HW219986   1.845   1.937   6.903 -1.9689  2.2023  1.0940
 2784SOL     OW19987   0.931   1.118   5.676 -0.2352 -0.0874 -0.1849
 2784SOL    HW119988   0.845   1.154   5.654  0.0052  1.0617  0.7741
 2784SOL    HW219989   0.986   1.181   5.628  0.2623 -0.8222 -0.5792
 2785SOL     OW19990   3.749   0.412   7.577 -0.2555 -0.4515 -0.2298
 2785SOL    HW119991   3.844   0.415   7.566 -0.2280  0.0920  0.2094
 2785SOL    HW219992   3.729   0.464   7.654 -1.0504 -0.6423 -0.3036
 2786SOL     OW19993   4.691   3.947   9.082 -0.0122 -0.0898  0.4224
 2786SOL    HW119994   4.614   4.003   9.078  0.0390 -0.0361  0.1225
 2786SOL    HW219995   0.006   3.980   9.007  0.6542 -0.3454  0.7568
 2787SOL     OW19996   4.440   3.387   3.079 -0.0945  0.2473  0.2514
 2787SOL    HW119997   4.378   3.358   3.012  1.1301  0.2435 -0.8884
 2787SOL    HW219998   4.438   3.483   3.076 -1.7775  0.2289  0.3448
 2788SOL     OW19999   2.815   3.518   8.560 -0.3120 -0.1360  0.7325
 2788SOL    HW120000   2.880   3.541   8.626  0.7033  1.2819 -0.7650
 2788SOL    HW220001   2.861   3.456   8.505 -3.3570 -0.6726 -1.1920
 2789SOL     OW20002   3.250   3.480   9.855 -0.0497  0.0392 -0.3947
 2789SOL    HW120003   3.242   3.440   9.942  2.9888  0.8864  0.2921
 2789SOL    HW220004   3.342   3.453   9.851  0.9838  3.7295 -1.5421
 2790SOL     OW20005   3.839   3.812   5.099 -0.0433 -0.5075 -0.1424
 2790SOL    HW120006   3.849   3.753   5.024  0.2652 -1.2664  0.4937
 2790SOL    HW220007   3.892   3.763   5.162 -1.1014  0.2709  1.3582
 2791SOL     OW20008   0.543   0.346   4.962 -0.7077 -0.5847 -0.0082
 2791SOL    HW120009   0.522   0.366   5.053 -0.3138  0.6244 -0.1881
 2791SOL    HW220010   0.622   0.399   4.953 -0.9440  0.1075  1.9277
 2792SOL     OW20011   3.515   2.197   8.211 -0.4046  0.2541  0.3582
 2792SOL    HW120012   3.564   2.260   8.264 -0.6404  0.6596  0.0925
 2792SOL    HW220013   3.557   2.220   8.128  0.0330 -1.3548  0.1295
 2793SOL     OW20014   3.932   0.045  12.405  0.5650 -0.0307 -0.0931
 2793SOL    HW120015   3.842   0.068  12.428  0.6765  0.5134 -0.1960
 2793SOL    HW220016   3.909   0.007  12.320 -1.3900  3.9363 -1.3871
 2794SOL     OW20017   1.072   3.826  12.329 -0.8074 -0.1329 -0.1283
 2794SOL    HW120018   1.040   3.898  12.384  0.9682  0.0441  0.6648
 2794SOL    HW220019   1.009   3.757  12.352 -0.8138  1.4292  4.4678
 2795SOL     OW20020   1.187   1.068   4.035 -0.2904  0.5572 -0.3018
 2795SOL    HW120021   1.148   1.056   4.122  2.4031 -0.4887  0.7491
 2795SOL    HW220022   1.115   1.021   3.992  0.4508 -0.9677  0.1043
 2796SOL     OW20023   2.366   2.983  13.550  0.3776 -0.0408  0.1850
 2796SOL    HW120024   2.402   2.991  13.461  1.8522 -2.8847  0.5159
 2796SOL    HW220025   2.415   2.905  13.575  0.5870 -0.2464 -0.8699
 2797SOL     OW20026   2.671   1.984  13.248  0.4980 -0.3341  0.3587
 2797SOL    HW120027   2.767   1.976  13.246  0.3906 -1.5139  0.0773
 2797SOL    HW220028   2.662   2.044  13.322  0.5148 -0.8792  0.8008
 2798SOL     OW20029   0.921   0.566   3.400 -0.2198  0.1169 -0.5456
 2798SOL    HW120030   0.929   0.537   3.309 -0.8818 -1.7640 -0.0073
 2798SOL    HW220031   1.012   0.551   3.427 -0.8495  0.5766  1.8927
 2799SOL     OW20032   0.518   3.131   2.305 -0.0455  0.1666  0.2394
 2799SOL    HW120033   0.524   3.042   2.271  1.6000  0.1619  0.5622
 2799SOL    HW220034   0.453   3.166   2.243  0.8734 -0.0547 -0.8418
 2800SOL     OW20035   3.031   4.149   9.626  0.2406  0.2407 -0.2648
 2800SOL    HW120036   3.093   4.097   9.574  1.2167  1.3161 -0.1856
 2800SOL    HW220037   2.964   4.171   9.562  0.3368  0.5326 -0.2639
 2801SOL     OW20038   4.424   3.342   0.438 -0.5717  0.0652  0.0760
 2801SOL    HW120039   4.350   3.353   0.377  0.9371  2.9695 -1.2056
 2801SOL    HW220040   4.489   3.336   0.368 -3.9778 -0.1331 -3.1112
 2802SOL     OW20041   3.594   2.878   4.494 -0.3464 -0.6450  0.6964
 2802SOL    HW120042   3.505   2.902   4.521 -0.5567 -1.0657  0.3838
 2802SOL    HW220043   3.593   2.789   4.527  3.0266 -0.7755  0.4162
 2803SOL     OW20044   4.521   4.268   0.064  0.7013 -0.5164 -0.3804
 2803SOL    HW120045   4.592   4.204   0.071  0.8991 -0.3227 -0.6053
 2803SOL    HW220046   4.518   4.277  17.710 -2.0101  0.6530 -0.1655
 2804SOL     OW20047   2.825   4.094  14.205 -0.2580 -0.4651 -0.2568
 2804SOL    HW120048   2.908   4.062  14.172  1.7121  1.2646  2.9500
 2804SOL    HW220049   2.791   4.163  14.149  1.2780  0.1437 -0.4304
 2805SOL     OW20050   1.751   1.293   1.951 -0.1057  0.3803 -0.2617
 2805SOL    HW120051   1.709   1.352   2.014  1.0657  0.2743  0.6091
 2805SOL    HW220052   1.793   1.232   2.012  2.0309  1.4375 -0.6941
 2806SOL     OW20053   4.157   0.924   2.124 -0.1907  0.1062  0.6055
 2806SOL    HW120054   4.091   0.986   2.095 -0.9729 -0.4262  1.2317
 2806SOL    HW220055   4.217   0.972   2.181 -0.3351  1.1436 -0.1318
 2807SOL     OW20056   3.481   1.739   8.893 -0.3403  0.0187 -0.2761
 2807SOL    HW120057   3.574   1.756   8.907 -0.1921 -0.6856 -0.4273
 2807SOL    HW220058   3.482   1.643   8.890  0.2421  0.0413 -0.8562
 2808SOL     OW20059   2.275   0.741   7.974 -0.5428 -0.6646 -0.3739
 2808SOL    HW120060   2.184   0.715   7.956 -0.0875 -2.5827  0.1137
 2808SOL    HW220061   2.277   0.837   7.964 -1.1423 -0.8362 -2.1693
 2809SOL     OW20062   4.382   3.608   3.515 -0.1381  0.3227  0.4267
 2809SOL    HW120063   4.371   3.701   3.531  0.8374  0.5934 -0.4530
 2809SOL    HW220064   4.434   3.608   3.435  1.2217  1.4118  1.3157
 2810SOL     OW20065   0.667   2.565   9.278 -0.0642  0.3807 -0.5191
 2810SOL    HW120066   0.590   2.621   9.267  0.3863  1.0596 -0.2159
 2810SOL    HW220067   0.719   2.605   9.209  0.1717 -0.1511 -0.6537
 2811SOL     OW20068   3.915   0.967   6.499 -0.0585  0.1063  0.7963
 2811SOL    HW120069   3.877   0.998   6.418  0.5427 -0.0145  0.4652
 2811SOL    HW220070   3.853   0.903   6.533 -1.3586  1.3486  0.7553
 2812SOL     OW20071   1.977   0.751  17.023 -0.0513 -0.2565 -0.2502
 2812SOL    HW120072   1.910   0.734  17.089  1.1177  1.0339  1.2653
 2812SOL    HW220073   1.983   0.846  17.014  0.4296 -0.3312 -0.7004
 2813SOL     OW20074   3.307   2.630   1.194  0.1859  0.0712 -0.3205
 2813SOL    HW120075   3.360   2.577   1.135 -1.3021  0.0350 -1.6217
 2813SOL    HW220076   3.309   2.719   1.158 -0.1478 -0.7779 -2.4386
 2814SOL     OW20077   1.309   3.402   4.942  0.3034 -0.4159 -0.0562
 2814SOL    HW120078   1.274   3.444   5.021 -0.6057  0.3939 -0.8953
 2814SOL    HW220079   1.398   3.438   4.934 -0.1048  1.4305  3.7724
 2815SOL     OW20080   1.460   3.294   3.620 -0.6992 -0.1725  0.0722
 2815SOL    HW120081   1.451   3.240   3.541 -0.5895 -0.2217  0.0941
 2815SOL    HW220082   1.535   3.257   3.666 -1.2584 -0.9067  0.3922
 2816SOL     OW20083   3.184   2.074   6.158  0.6948  0.9049  0.0804
 2816SOL    HW120084   3.238   2.026   6.095 -0.0110  1.8651 -1.2583
 2816SOL    HW220085   3.249   2.085   6.227  0.9449 -1.2460  0.1919
 2817SOL     OW20086   4.424   0.720   4.071 -0.2077 -0.2023  0.2031
 2817SOL    HW120087   4.512   0.682   4.077 -0.1362  0.0529  0.8206
 2817SOL    HW220088   4.442   0.814   4.079 -1.9902  0.0194  1.5401
 2818SOL     OW20089   1.818   1.133  14.442  0.0546 -0.6589  0.3509
 2818SOL    HW120090   1.892   1.166  14.494  2.2624 -1.8019 -2.0750
 2818SOL    HW220091   1.838   1.040  14.433 -0.8353 -0.8055 -0.0472
 2819SOL     OW20092   2.053   2.887   1.402  0.2554 -0.5051 -0.0358
 2819SOL    HW120093   2.057   2.816   1.466 -0.4466 -0.3511  0.1886
 2819SOL    HW220094   2.140   2.874   1.365  0.5629  1.8257 -0.1193
 2820SOL     OW20095   2.442   4.259   9.801  0.1077  0.6535 -0.0045
 2820SOL    HW120096   2.502   4.202   9.753  0.4543  1.4063 -0.4805
 2820SOL    HW220097   2.489   4.339   9.775  0.6054  0.8580  1.5236
 2821SOL     OW20098   4.465   4.731   8.613 -0.0552  0.4879 -0.1738
 2821SOL    HW120099   4.544   4.682   8.636  0.9980  1.1655 -2.3618
 2821SOL    HW220100   4.475   4.699   8.524  0.6048  0.0190  0.0634
 2822SOL     OW20101   4.619   1.216   7.141  0.6030 -0.3424 -0.4001
 2822SOL    HW120102   4.569   1.217   7.223  0.7129  0.7197 -0.3398
 2822SOL    HW220103   4.591   1.301   7.106 -1.8164 -0.8943  0.1633
 2823SOL     OW20104   3.230   1.039   4.770 -0.7557 -0.0486 -0.5090
 2823SOL    HW120105   3.237   0.981   4.845 -0.1996  1.8227  0.8983
 2823SOL    HW220106   3.324   1.051   4.754 -0.9965  0.2818 -1.7262
 2824SOL     OW20107   2.120   0.473   3.671 -0.3310  0.2259  0.0536
 2824SOL    HW120108   2.034   0.486   3.631 -1.3768 -0.5630  2.0443
 2824SOL    HW220109   2.169   0.555   3.663 -2.2046  1.2370 -1.0538
 2825SOL     OW20110   3.920   3.762   8.373 -0.0981  0.5033 -0.0566
 2825SOL    HW120111   3.959   3.697   8.315 -0.7484 -0.9111  1.0921
 2825SOL    HW220112   3.845   3.786   8.318 -0.3196  1.1319  0.5199
 2826SOL     OW20113   1.484   3.917   3.425 -0.4254 -0.0706 -0.5700
 2826SOL    HW120114   1.497   3.827   3.394  2.0788  0.2483 -0.4491
 2826SOL    HW220115   1.543   3.962   3.365 -1.1991  0.9827 -0.5297
 2827SOL     OW20116   3.928   3.522   9.627 -0.2818  0.4505 -0.1024
 2827SOL    HW120117   3.888   3.436   9.645  0.3214  0.5780  1.8387
 2827SOL    HW220118   3.851   3.566   9.592 -1.0902 -0.3744  0.6109
 2828SOL     OW20119   1.553   4.066   7.718 -0.5725 -0.1954 -0.0877
 2828SOL    HW120120   1.631   4.013   7.702 -0.9414 -0.6466 -0.3841
 2828SOL    HW220121   1.508   4.051   7.635  0.6742 -1.0309 -0.6224
 2829SOL     OW20122   4.681   2.908   5.547  0.1509  0.1023 -0.0462
 2829SOL    HW120123   4.635   2.824   5.556  1.2936 -0.4116  1.0159
 2829SOL    HW220124   0.030   2.869   5.571 -0.2897 -1.2300 -0.6347
 2830SOL     OW20125   4.506   2.178  13.673  0.2270 -0.6261  0.2526
 2830SOL    HW120126   4.565   2.103  13.682  1.3343  0.1202 -0.6352
 2830SOL    HW220127   4.560   2.255  13.689 -1.7472  0.5187  1.3236
 2831SOL     OW20128   0.898   2.487   5.538 -0.4150 -0.1324 -0.2183
 2831SOL    HW120129   0.920   2.534   5.619 -0.8885 -1.5380  0.7218
 2831SOL    HW220130   0.869   2.398   5.559  0.8851 -0.0817  1.7484
 2832SOL     OW20131   0.394   1.113   7.164  0.3296  0.0342  0.1853
 2832SOL    HW120132   0.306   1.114   7.127  1.2201  2.2579 -1.8868
 2832SOL    HW220133   0.366   1.159   7.243 -0.0270 -0.8860  0.5956
 2833SOL     OW20134   2.482   0.288   2.177 -0.1424  0.4036 -0.2855
 2833SOL    HW120135   2.406   0.323   2.224  0.1309  0.1817  0.3242
 2833SOL    HW220136   2.557   0.309   2.232 -0.1366  0.2132 -0.2202
 2834SOL     OW20137   3.351   0.701   7.046  0.5369  0.0984 -0.1450
 2834SOL    HW120138   3.291   0.775   7.053  1.4962  0.7800  0.8231
 2834SOL    HW220139   3.294   0.629   7.075 -0.6973  1.0503 -0.1912
 2835SOL     OW20140   2.728   3.538  11.903 -0.2772 -0.6727 -0.6633
 2835SOL    HW120141   2.716   3.444  11.918 -0.4235 -0.5858 -0.2186
 2835SOL    HW220142   2.655   3.566  11.848 -0.2880  0.3069 -0.1575
 2836SOL     OW20143   3.267   3.489   4.860 -0.4474  0.3616 -0.5153
 2836SOL    HW120144   3.181   3.523   4.836  0.8831  1.9275 -3.0801
 2836SOL    HW220145   3.293   3.460   4.772 -1.5015  2.0379 -1.3758
 2837SOL     OW20146   2.479   3.904  14.039  0.5591 -0.0618  0.0310
 2837SOL    HW120147   2.407   3.895  14.101  1.7074 -1.1138  1.1993
 2837SOL    HW220148   2.452   3.984  13.995 -0.5861  1.1135  2.8899
 2838SOL     OW20149   1.680   3.197   6.130 -0.6533  0.0826  0.0924
 2838SOL    HW120150   1.740   3.262   6.092 -0.8999  0.5891  0.5660
 2838SOL    HW220151   1.643   3.254   6.198 -0.2964  0.6046 -0.1451
 2839SOL     OW20152   1.146   1.430   8.823  0.0343  0.2752 -0.3271
 2839SOL    HW120153   1.081   1.467   8.764 -0.4518 -0.0705 -0.0070
 2839SOL    HW220154   1.125   1.337   8.829 -2.3497  0.9038  0.8197
 2840SOL     OW20155   2.277   3.786   1.742  0.2235 -0.6403 -0.1794
 2840SOL    HW120156   2.367   3.816   1.755  0.3554 -2.4280  3.0129
 2840SOL    HW220157   2.231   3.867   1.765  1.5370  0.5307 -1.6325
 2841SOL     OW20158   2.945   4.293   7.715  0.0054  0.5305  0.4985
 2841SOL    HW120159   2.859   4.252   7.706  0.1748 -0.5220  3.5482
 2841SOL    HW220160   3.003   4.220   7.739 -1.9508 -1.5175 -0.9573
 2842SOL     OW20161   3.292   2.269   7.102  0.1715 -0.9272 -0.2500
 2842SOL    HW120162   3.310   2.189   7.152 -2.4380 -1.4473 -0.1557
 2842SOL    HW220163   3.217   2.299   7.152 -0.8138 -0.8784 -1.7456
 2843SOL     OW20164   3.032   0.850  14.788  0.3944 -0.5574 -0.7107
 2843SOL    HW120165   2.968   0.798  14.740  0.6315 -0.1279 -1.5010
 2843SOL    HW220166   3.110   0.801  14.764 -0.2458 -1.1677 -1.5576
 2844SOL     OW20167   4.060   3.105   9.165 -0.8724  0.4818  0.0132
 2844SOL    HW120168   4.042   3.146   9.250 -0.6380  1.7427 -0.5427
 2844SOL    HW220169   4.077   3.016   9.194 -0.0538  0.0830 -1.6782
 2845SOL     OW20170   3.478   0.285   8.408  0.4390 -0.3360  0.3140
 2845SOL    HW120171   3.569   0.284   8.379  0.7725 -0.1219  1.3520
 2845SOL    HW220172   3.445   0.220   8.346  0.1223  2.5628 -2.5471
 2846SOL     OW20173   1.667   2.923   7.840 -0.3018 -0.0524 -0.1640
 2846SOL    HW120174   1.743   2.965   7.879 -0.3131  0.9440 -1.2028
 2846SOL    HW220175   1.691   2.952   7.752  1.1580 -3.2642 -0.8144
 2847SOL     OW20176   1.811   3.957   4.156  0.1670  0.0521  0.1367
 2847SOL    HW120177   1.760   3.876   4.153 -2.3522  1.7641 -2.3932
 2847SOL    HW220178   1.863   3.962   4.075  0.0892 -2.0402 -0.0409
 2848SOL     OW20179   3.721   3.352   8.926  0.1287 -0.1890  0.3329
 2848SOL    HW120180   3.639   3.381   8.967  1.1963  0.9575  1.6641
 2848SOL    HW220181   3.761   3.437   8.909 -3.2305  1.2924 -0.3051
 2849SOL     OW20182   1.976   3.409   4.828  0.0747 -0.0035 -0.4906
 2849SOL    HW120183   1.940   3.481   4.880 -0.1066  0.0924 -0.7484
 2849SOL    HW220184   1.897   3.359   4.809  0.9351 -0.9237 -1.6624
 2850SOL     OW20185   3.749   2.244   4.880 -0.2356  0.3418 -0.0899
 2850SOL    HW120186   3.684   2.175   4.894 -1.7654  1.6642 -0.5772
 2850SOL    HW220187   3.802   2.192   4.820  0.4701 -1.2435  1.9221
 2851SOL     OW20188   3.858   4.014   1.997  0.2439  0.5826 -0.0327
 2851SOL    HW120189   3.851   3.971   1.911  1.1149 -1.5442  0.9656
 2851SOL    HW220190   3.767   4.015   2.027  0.3480  0.7764  0.2715
 2852SOL     OW20191   3.963   1.489   3.786 -0.0489  0.9853 -0.3210
 2852SOL    HW120192   3.996   1.577   3.806 -0.2772  1.0754 -0.3430
 2852SOL    HW220193   3.974   1.487   3.691  0.3972 -0.0138 -0.2415
 2853SOL     OW20194   2.943   1.377   3.932  0.3689  0.6484  0.3763
 2853SOL    HW120195   2.918   1.450   3.989 -0.1754  0.8049 -0.0607
 2853SOL    HW220196   3.017   1.422   3.892 -0.0467  0.7172 -0.3145
 2854SOL     OW20197   4.442   0.476   6.753 -0.0356  0.1159  0.5255
 2854SOL    HW120198   4.350   0.451   6.745 -0.4531  1.5856  0.6638
 2854SOL    HW220199   4.427   0.561   6.710 -0.9296  0.4025  1.4095
 2855SOL     OW20200   3.784   0.895   6.005  0.2777  0.0664  0.0082
 2855SOL    HW120201   3.775   0.930   5.917  1.1662  0.2837  0.0054
 2855SOL    HW220202   3.705   0.841   6.003 -0.6757  1.5836 -2.8835
 2856SOL     OW20203   4.174   0.141  16.259  0.6550  0.2087 -0.2856
 2856SOL    HW120204   4.090   0.185  16.243 -0.0149 -0.0301  2.5741
 2856SOL    HW220205   4.159   0.048  16.279 -2.0566 -0.0642 -3.6848
 2857SOL     OW20206   2.261   4.336   7.139  0.2838  0.4130  0.1788
 2857SOL    HW120207   2.287   4.382   7.059  1.6618 -1.1591 -0.2908
 2857SOL    HW220208   2.336   4.344   7.199  1.7285 -1.8690 -1.2688
 2858SOL     OW20209   2.813   4.064  15.220 -0.2082  0.0451 -0.1281
 2858SOL    HW120210   2.821   4.107  15.305  1.6219 -1.0566  0.2722
 2858SOL    HW220211   2.745   3.999  15.237 -0.5475  0.0557 -1.5068
 2859SOL     OW20212   0.925   4.590   4.222  0.0709 -0.5002  0.1843
 2859SOL    HW120213   0.847   4.632   4.185 -0.2391  0.5855  2.0952
 2859SOL    HW220214   0.938   4.630   4.308 -3.3632  2.0852 -0.4922
 2860SOL     OW20215   1.145   1.770   1.532  1.0501 -0.6259  0.5581
 2860SOL    HW120216   1.222   1.802   1.578  1.4337 -0.5700 -0.1376
 2860SOL    HW220217   1.147   1.683   1.573 -0.5790 -1.0532 -0.2506
 2861SOL     OW20218   4.668   2.927   6.501 -0.2020  0.2632 -0.3749
 2861SOL    HW120219   4.705   2.949   6.415  2.0921  1.2688  0.8451
 2861SOL    HW220220   4.730   2.967   6.563 -0.1963  0.2451 -0.3690
 2862SOL     OW20221   0.285   2.108   9.159  1.2710  0.1449 -0.3746
 2862SOL    HW120222   0.350   2.040   9.177 -1.3092 -1.9305  1.0846
 2862SOL    HW220223   0.202   2.076   9.197  0.5606  1.1881 -1.0760
 2863SOL     OW20224   1.579   4.202   6.391  0.5339  0.0373 -0.1181
 2863SOL    HW120225   1.536   4.224   6.309 -0.6063 -0.9862  0.1969
 2863SOL    HW220226   1.512   4.216   6.458  0.3220 -1.9443  0.0877
 2864SOL     OW20227   2.506   4.412   7.267 -0.6455 -0.2710 -0.1006
 2864SOL    HW120228   2.589   4.377   7.300 -1.8907 -1.9339  1.2446
 2864SOL    HW220229   2.466   4.435   7.351  1.5071  0.7362  0.6442
 2865SOL     OW20230   4.424   2.653   6.025  0.5048 -0.5283  0.0076
 2865SOL    HW120231   4.398   2.640   6.116  0.2042  0.3208  0.0381
 2865SOL    HW220232   4.365   2.583   5.999 -0.5657  0.6940 -0.8117
 2866SOL     OW20233   4.070   0.300  10.407  0.1703  0.1565  0.3220
 2866SOL    HW120234   4.079   0.212  10.370 -1.0850  0.5223 -0.8356
 2866SOL    HW220235   4.147   0.311  10.464  0.1497 -2.2644  0.8317
 2867SOL     OW20236   3.286   3.716   7.601  0.1646  0.4482  0.2350
 2867SOL    HW120237   3.282   3.733   7.695  2.2844 -1.0006  0.5933
 2867SOL    HW220238   3.192   3.730   7.589  0.2821  1.5180  0.5363
 2868SOL     OW20239   1.279   4.077   7.337 -0.0424 -0.0439 -0.2740
 2868SOL    HW120240   1.329   4.158   7.344 -0.7949  0.2690  1.2637
 2868SOL    HW220241   1.228   4.093   7.258 -0.0655 -1.4671 -0.5564
 2869SOL     OW20242   3.443   2.289   6.473 -0.0502 -0.2316  0.2452
 2869SOL    HW120243   3.502   2.222   6.506 -1.4988 -2.0828 -0.9076
 2869SOL    HW220244   3.385   2.291   6.549  0.0916  1.5438  0.3060
 2870SOL     OW20245   1.567   1.026   5.871  0.5308  0.2787 -0.4467
 2870SOL    HW120246   1.560   0.938   5.908 -0.2716  0.8847  0.8470
 2870SOL    HW220247   1.495   1.072   5.915  1.6936  0.3170  1.3917
 2871SOL     OW20248   3.153   0.723   2.322 -0.3134  0.4117 -0.3309
 2871SOL    HW120249   3.220   0.791   2.329  0.2390 -0.1269 -0.3870
 2871SOL    HW220250   3.204   0.644   2.341  0.4910  0.8563 -0.6408
 2872SOL     OW20251   3.908   4.642   7.765 -0.4187 -0.0792 -0.2584
 2872SOL    HW120252   3.988   4.643   7.818 -0.4274  1.6982 -0.2923
 2872SOL    HW220253   3.938   4.585   7.694  0.9274 -1.3480  1.3275
 2873SOL     OW20254   0.800   4.174   7.442 -0.2718 -0.4723  0.0231
 2873SOL    HW120255   0.721   4.176   7.496 -1.4410 -0.3553 -1.6888
 2873SOL    HW220256   0.778   4.107   7.377  1.5485 -1.4106  0.3749
 2874SOL     OW20257   2.324   2.212   3.648 -0.4097 -0.0548 -0.1961
 2874SOL    HW120258   2.256   2.145   3.645 -0.5919  0.2166 -1.7501
 2874SOL    HW220259   2.399   2.154   3.636 -0.7446  0.0820 -2.9546
 2875SOL     OW20260   1.188   4.366   3.784  0.2972  0.3590 -0.0456
 2875SOL    HW120261   1.124   4.402   3.845 -1.4324 -0.4060 -1.3967
 2875SOL    HW220262   1.141   4.387   3.703  0.5639  2.0892  0.2492
 2876SOL     OW20263   1.526   2.716   8.525 -0.1983  0.2195  0.3780
 2876SOL    HW120264   1.543   2.756   8.440  1.0362  0.8441  0.9232
 2876SOL    HW220265   1.591   2.753   8.585 -0.6404  2.0721 -0.3040
 2877SOL     OW20266   3.253   3.583  10.278 -0.0785 -0.0669 -0.0815
 2877SOL    HW120267   3.327   3.627  10.237 -0.5840  0.4591 -0.4224
 2877SOL    HW220268   3.286   3.497  10.305 -0.3768 -0.5682 -1.3299
 2878SOL     OW20269   3.702   1.903   3.205  0.3360  0.3593  0.1939
 2878SOL    HW120270   3.796   1.890   3.190 -0.0883 -2.3036 -0.1301
 2878SOL    HW220271   3.704   1.967   3.277  0.6854 -0.1521  0.6402
 2879SOL     OW20272   0.387   2.301   4.608 -0.3881 -0.0755 -0.4321
 2879SOL    HW120273   0.359   2.298   4.700  1.9301  0.7562  0.3181
 2879SOL    HW220274   0.302   2.280   4.570  0.0391 -1.7912 -0.4362
 2880SOL     OW20275   4.053   0.712   3.436 -0.3927 -0.2541 -0.1300
 2880SOL    HW120276   4.114   0.753   3.496  0.1673 -0.9421 -0.2386
 2880SOL    HW220277   3.982   0.774   3.456  2.0275  2.0273  1.3411
 2881SOL     OW20278   1.735   2.469   5.108  0.1023 -0.4590  0.3366
 2881SOL    HW120279   1.674   2.446   5.039  3.2723 -0.9206 -2.3022
 2881SOL    HW220280   1.679   2.508   5.176  0.6229  0.8058  0.0332
 2882SOL     OW20281   0.159   3.410   8.407 -0.5254  0.3549  0.7586
 2882SOL    HW120282   0.146   3.492   8.455 -2.2481 -0.0680  1.0388
 2882SOL    HW220283   0.155   3.346   8.479  1.5885  0.1656  0.6863
 2883SOL     OW20284   0.640   2.995   9.410  0.0024  0.2812  0.4031
 2883SOL    HW120285   0.674   3.050   9.480  2.0705  1.0672 -1.1961
 2883SOL    HW220286   0.624   3.060   9.341 -0.0951 -2.5268 -2.2400
 2884SOL     OW20287   3.658   3.923   4.299  0.2583 -0.4695 -0.4323
 2884SOL    HW120288   3.681   3.954   4.212  1.8308  0.8404  0.4703
 2884SOL    HW220289   3.746   3.920   4.336 -0.0618 -0.0668  0.3607
 2885SOL     OW20290   3.040   2.646   8.245  0.2791 -0.1708  0.1621
 2885SOL    HW120291   3.047   2.627   8.338  1.7565  0.8099  0.2535
 2885SOL    HW220292   3.065   2.560   8.212  1.5524 -0.2170  1.2848
 2886SOL     OW20293   2.077   3.389   2.410  0.0146 -0.3142 -0.2073
 2886SOL    HW120294   2.161   3.417   2.373 -0.7626  1.9780 -0.2537
 2886SOL    HW220295   2.092   3.294   2.414 -1.9355 -0.6233 -0.4927
 2887SOL     OW20296   2.364   3.405  15.361  0.0369  0.5350  0.0352
 2887SOL    HW120297   2.435   3.384  15.422 -0.3900  1.7911  0.9611
 2887SOL    HW220298   2.389   3.338  15.297  1.1512  1.6232 -0.6783
 2888SOL     OW20299   1.940   3.748   5.657 -0.0250  0.6054  0.0241
 2888SOL    HW120300   1.929   3.812   5.727  0.4732  0.1037  0.5615
 2888SOL    HW220301   1.881   3.682   5.691  1.3858 -1.6206 -1.8190
 2889SOL     OW20302   4.382   2.229   9.762 -0.6768  0.0420 -0.4353
 2889SOL    HW120303   4.289   2.232   9.739 -1.1105 -1.3183  1.1844
 2889SOL    HW220304   4.385   2.270   9.848  1.4543 -1.0032 -0.0000
 2890SOL     OW20305   2.545   1.694   6.707 -0.3731  0.1999  0.1566
 2890SOL    HW120306   2.465   1.725   6.666  0.1044  1.2606  0.0393
 2890SOL    HW220307   2.576   1.774   6.749 -0.6742  0.2080  0.3664
 2891SOL     OW20308   4.726   3.742  11.971  0.0797  0.1901 -0.0307
 2891SOL    HW120309   0.045   3.819  11.988 -2.6506  2.0487  0.2374
 2891SOL    HW220310   0.050   3.703  11.907  0.0696  0.3548 -0.1406
 2892SOL     OW20311   4.646   1.434   1.513  0.0588 -0.1676  0.0407
 2892SOL    HW120312   4.691   1.352   1.531  2.7897  0.7723 -2.5312
 2892SOL    HW220313   4.705   1.474   1.449 -0.4525  2.1103  0.9844
 2893SOL     OW20314   4.317   4.164  15.224  0.3815 -0.1982 -0.5865
 2893SOL    HW120315   4.331   4.249  15.183  0.1087  0.4027  0.5655
 2893SOL    HW220316   4.263   4.120  15.158  0.4020 -1.9692  0.5789
 2894SOL     OW20317   0.831   2.772   7.504  0.1846 -0.3903  0.1892
 2894SOL    HW120318   0.781   2.738   7.579  0.8983  0.3174  0.9889
 2894SOL    HW220319   0.910   2.772   7.558 -0.0273  1.4619  0.4842
 2895SOL     OW20320   3.700   1.915   9.474  0.2848  0.1828 -0.0670
 2895SOL    HW120321   3.667   1.883   9.391 -1.0046 -1.2480  0.9881
 2895SOL    HW220322   3.679   1.843   9.534 -0.8315  0.6080  0.0572
 2896SOL     OW20323   0.857   2.652   6.985 -0.2901  0.2177 -0.2390
 2896SOL    HW120324   0.855   2.705   7.065 -1.0431 -0.9254  0.5041
 2896SOL    HW220325   0.798   2.578   7.002 -1.6758  1.1444 -1.0083
 2897SOL     OW20326   3.775   4.537   5.322 -0.2706 -0.8831  0.1314
 2897SOL    HW120327   3.857   4.588   5.321 -0.8056 -0.0617 -1.1911
 2897SOL    HW220328   3.734   4.582   5.397 -2.3263 -2.0662 -0.2984
 2898SOL     OW20329   0.817   2.958   4.690  0.8151 -0.0285  0.7315
 2898SOL    HW120330   0.794   2.942   4.781 -0.6610  0.1101  0.3858
 2898SOL    HW220331   0.901   2.916   4.673  1.0251  0.6079  0.1649
 2899SOL     OW20332   0.294   0.102   5.480 -0.4637  0.0994  0.3421
 2899SOL    HW120333   0.303   0.195   5.500  0.4971 -0.1014  0.8799
 2899SOL    HW220334   0.211   0.084   5.524  0.6656  0.6364  2.7321
 2900SOL     OW20335   1.521   1.613  16.410 -0.3964 -0.1898  0.2268
 2900SOL    HW120336   1.479   1.545  16.463  2.3163 -2.8804 -1.0789
 2900SOL    HW220337   1.502   1.575  16.324 -1.5157  0.7187  0.0701
 2901SOL     OW20338   0.572   0.931   6.001  0.4327 -0.3506 -0.0227
 2901SOL    HW120339   0.535   1.010   5.962  0.7303 -1.1284 -1.8813
 2901SOL    HW220340   0.529   0.924   6.086  0.8131 -0.1229  0.1886
 2902SOL     OW20341   1.011   0.632  11.552  0.2722  0.5806 -0.4749
 2902SOL    HW120342   1.070   0.572  11.506 -2.4907 -1.0814 -1.8143
 2902SOL    HW220343   0.954   0.562  11.582  0.0789  0.3800 -1.3292
 2903SOL     OW20344   2.102   2.018   2.556 -0.6732  0.4534  0.3708
 2903SOL    HW120345   2.116   1.954   2.485  2.0134  0.8242  0.5755
 2903SOL    HW220346   2.180   2.072   2.552  1.1767 -2.1182  1.8054
 2904SOL     OW20347   1.136   2.157   0.233  0.0434  0.5417  0.2625
 2904SOL    HW120348   1.225   2.132   0.209  0.4932 -0.2703  2.8250
 2904SOL    HW220349   1.136   2.139   0.327  0.8970  0.1694  0.1882
 2905SOL     OW20350   0.830   1.605  12.097  0.4702 -0.2663  0.1260
 2905SOL    HW120351   0.841   1.654  12.179  1.1386  1.0971 -0.7859
 2905SOL    HW220352   0.848   1.515  12.127  0.1131 -0.4216 -0.1364
 2906SOL     OW20353   0.606   0.967   7.692 -0.5113 -0.1458  0.5317
 2906SOL    HW120354   0.572   1.052   7.661 -1.6865 -1.2610 -1.2394
 2906SOL    HW220355   0.535   0.908   7.667 -0.3578 -0.6702  1.3345
 2907SOL     OW20356   2.164   3.211   8.071 -0.1135 -0.4993 -0.2307
 2907SOL    HW120357   2.166   3.248   8.159 -0.9661 -1.1557  0.0588
 2907SOL    HW220358   2.128   3.123   8.076 -0.7953 -0.1580  0.8555
 2908SOL     OW20359   3.496   4.034   5.636 -0.0253  0.0077  0.1866
 2908SOL    HW120360   3.475   3.947   5.671  3.2123 -0.8222  0.1361
 2908SOL    HW220361   3.409   4.072   5.631  1.2327  2.5473 -2.1675
 2909SOL     OW20362   1.918   0.000   2.429  0.0430  0.2168  0.3548
 2909SOL    HW120363   1.918   4.727   2.524 -1.2521 -0.8624  0.2578
 2909SOL    HW220364   1.927   4.644   2.403  2.5410  0.4046  0.6205
 2910SOL     OW20365   4.247   2.949   7.857 -0.4681 -0.3494  0.2045
 2910SOL    HW120366   4.239   3.035   7.817 -0.7352 -1.7978 -2.8526
 2910SOL    HW220367   4.261   2.899   7.777 -0.8692 -0.3503  0.1315
 2911SOL     OW20368   0.140   1.398   3.656 -0.1854  0.0300 -0.6402
 2911SOL    HW120369   0.163   1.456   3.729  0.2831 -0.9489 -0.0102
 2911SOL    HW220370   0.049   1.403   3.683 -0.8330 -4.0976 -2.0435
 2912SOL     OW20371   4.186   2.012   8.835  0.3119  0.5824  0.3116
 2912SOL    HW120372   4.157   1.991   8.924 -1.8680 -1.3514 -0.8505
 2912SOL    HW220373   4.257   2.071   8.861  0.5857 -0.4210  1.8559
 2913SOL     OW20374   3.636   1.095   3.623  0.4738  0.0668  0.3936
 2913SOL    HW120375   3.623   1.004   3.649  0.7445 -0.5512 -1.5919
 2913SOL    HW220376   3.647   1.141   3.706  1.7836 -0.5123  0.5534
 2914SOL     OW20377   0.975   4.414   1.651  0.1559  0.4355 -0.0486
 2914SOL    HW120378   0.901   4.385   1.705 -1.0460  0.1532 -1.8834
 2914SOL    HW220379   0.956   4.507   1.666  1.8959  0.9621 -1.1504
 2915SOL     OW20380   0.182   3.866   1.730  0.2758  0.4830  0.4326
 2915SOL    HW120381   0.099   3.913   1.728  0.6348  1.0647 -0.6425
 2915SOL    HW220382   0.196   3.857   1.824 -1.4733 -0.1218  0.6287
 2916SOL     OW20383   1.705   4.645   1.552  0.1577 -0.1775 -0.2407
 2916SOL    HW120384   1.728   4.554   1.531 -0.8454 -0.6315  0.6320
 2916SOL    HW220385   1.611   4.637   1.562  0.2134  2.0015  1.9088
 2917SOL     OW20386   0.003   1.107   9.648 -0.0201 -0.4986  0.3927
 2917SOL    HW120387   0.040   1.071   9.568 -0.6849  0.5431 -0.3884
 2917SOL    HW220388   4.704   1.029   9.691 -0.7788  0.4884  1.5917
 2918SOL     OW20389   4.204   0.464  11.182  1.1088 -0.3145  0.2634
 2918SOL    HW120390   4.138   0.533  11.171 -0.3585 -1.8567 -0.6751
 2918SOL    HW220391   4.280   0.519  11.164 -0.1345  1.7249  1.2623
 2919SOL     OW20392   3.842   1.741   2.877  0.1468  0.4147  0.1103
 2919SOL    HW120393   3.835   1.742   2.781  0.5316 -1.0628  0.0577
 2919SOL    HW220394   3.763   1.701   2.914  0.0027 -0.6806 -1.3821
 2920SOL     OW20395   0.951   0.819   8.950  0.0440 -0.4578 -0.1323
 2920SOL    HW120396   0.858   0.837   8.938 -0.0253 -0.8288 -0.1479
 2920SOL    HW220397   0.974   0.821   8.857  0.6307  1.1639  0.0413
 2921SOL     OW20398   3.132   0.671   5.457 -0.5563  0.2953 -0.1488
 2921SOL    HW120399   3.043   0.636   5.462  0.3620 -2.1845 -0.8880
 2921SOL    HW220400   3.179   0.589   5.440  1.2309  0.9055  1.7722
 2922SOL     OW20401   2.375   3.311   1.353 -0.0637 -0.2108 -0.3775
 2922SOL    HW120402   2.403   3.398   1.325  0.5316 -0.2959 -0.0409
 2922SOL    HW220403   2.352   3.266   1.272  2.1068 -2.8823  0.5024
 2923SOL     OW20404   0.630   4.324   0.953 -0.0473  0.1654 -0.1360
 2923SOL    HW120405   0.604   4.325   1.045  0.7203  1.1014  0.0753
 2923SOL    HW220406   0.724   4.334   0.969  0.5147  0.9423 -3.9495
 2924SOL     OW20407   2.259   2.681  15.676 -0.0407 -0.5283 -0.1214
 2924SOL    HW120408   2.324   2.662  15.744 -0.4745  1.4006  0.8408
 2924SOL    HW220409   2.188   2.705  15.735  1.5251  1.9234  0.8069
 2925SOL     OW20410   2.268   3.191   8.402 -0.6534 -0.7683 -0.2471
 2925SOL    HW120411   2.228   3.202   8.488  1.8538 -0.3302  0.8555
 2925SOL    HW220412   2.223   3.117   8.363 -1.9264 -1.7751  3.1150
 2926SOL     OW20413   2.997   1.227  12.616 -0.2111 -0.4789  0.3663
 2926SOL    HW120414   3.032   1.154  12.566 -1.3473 -0.8827  0.1587
 2926SOL    HW220415   3.068   1.278  12.656 -2.0085  1.1215  1.5959
 2927SOL     OW20416   0.500   2.198  14.290 -0.2844 -0.6890  0.5924
 2927SOL    HW120417   0.474   2.196  14.198 -0.1161  0.8545  0.5059
 2927SOL    HW220418   0.457   2.115  14.311 -1.6777  0.4789  2.3840
 2928SOL     OW20419   4.589   1.390   2.865  0.0002 -0.0610  0.0161
 2928SOL    HW120420   4.563   1.323   2.928 -1.6121  2.1197  1.6865
 2928SOL    HW220421   4.562   1.341   2.788 -1.0836 -1.6991  1.4505
 2929SOL     OW20422   4.677   3.630   6.531 -0.1744  0.6711  0.4515
 2929SOL    HW120423   4.632   3.714   6.533 -1.0380  0.2893 -2.4130
 2929SOL    HW220424   4.650   3.588   6.613 -0.8293 -1.0674 -0.6484
 2930SOL     OW20425   1.060   2.182  16.387 -0.2507 -0.3846  0.3255
 2930SOL    HW120426   1.150   2.189  16.421 -0.3929  2.5752  0.1409
 2930SOL    HW220427   1.071   2.109  16.327 -3.7387 -1.1842  0.6597
 2931SOL     OW20428   3.512   4.336   3.417 -0.5100 -0.2360  0.1978
 2931SOL    HW120429   3.493   4.426   3.391 -0.8028 -0.3363  0.0701
 2931SOL    HW220430   3.561   4.311   3.339 -0.9056 -1.5533  0.3742
 2932SOL     OW20431   3.845   1.572   2.045  0.9513 -0.6453 -0.1812
 2932SOL    HW120432   3.802   1.644   1.999  0.0025 -1.0606  0.0466
 2932SOL    HW220433   3.830   1.489   1.999  0.8824  0.0691 -1.4436
 2933SOL     OW20434   3.633   4.593   5.577 -1.3129  0.0827  0.0560
 2933SOL    HW120435   3.577   4.517   5.597 -0.2970 -0.5086  0.6345
 2933SOL    HW220436   3.565   4.660   5.569 -1.2943  0.0428 -0.4368
 2934SOL     OW20437   4.700   4.151   7.165  0.8853  0.1041 -0.5027
 2934SOL    HW120438   0.006   4.223   7.212  0.0801  0.3810 -0.2059
 2934SOL    HW220439   0.026   4.080   7.186 -1.1377 -1.4022  0.3622
 2935SOL     OW20440   4.494   4.226   3.911  0.2353  0.1754  0.4705
 2935SOL    HW120441   4.544   4.181   3.978  1.8119 -3.1048 -2.8908
 2935SOL    HW220442   4.456   4.292   3.969  1.4432  0.2484  1.1753
 2936SOL     OW20443   2.614   0.352   6.157 -0.1037  0.7510  0.0193
 2936SOL    HW120444   2.574   0.365   6.071 -0.2180  1.9338  0.2506
 2936SOL    HW220445   2.695   0.402   6.153 -0.0309  0.6541  0.2836
 2937SOL     OW20446   2.106   1.868   7.287 -0.0511  0.3914  0.2483
 2937SOL    HW120447   2.156   1.800   7.331 -1.5559 -0.0170  1.3403
 2937SOL    HW220448   2.067   1.828   7.210  0.6013 -0.3237  0.2957
 2938SOL     OW20449   4.418   2.923   6.058 -0.1614  0.0093 -0.6064
 2938SOL    HW120450   4.426   2.829   6.046 -0.2788  0.0033 -0.6408
 2938SOL    HW220451   4.510   2.948   6.064 -0.6198  2.0410 -1.9234
 2939SOL     OW20452   2.295   1.335   4.208 -0.0456 -0.2306 -0.9402
 2939SOL    HW120453   2.357   1.329   4.280  1.2100 -0.3617 -2.0221
 2939SOL    HW220454   2.350   1.355   4.132  0.4011 -2.5296 -1.2335
 2940SOL     OW20455   4.420   1.221   9.060  0.0507  0.3580  0.2542
 2940SOL    HW120456   4.480   1.244   9.131 -0.6952  0.4789  0.8370
 2940SOL    HW220457   4.471   1.237   8.980 -0.1395 -0.1460  0.0357
 2941SOL     OW20458   0.339   0.725   5.539  0.0138 -0.1461  0.6840
 2941SOL    HW120459   0.401   0.689   5.601  1.1953 -0.1218 -0.4828
 2941SOL    HW220460   0.401   0.765   5.478 -2.8499 -2.3858 -3.6967
 2942SOL     OW20461   2.119   3.502   9.818  0.1250 -0.0398 -0.7121
 2942SOL    HW120462   2.151   3.412   9.829  3.1260  0.7852 -2.6190
 2942SOL    HW220463   2.190   3.553   9.856 -1.2316  0.2362  1.4255
 2943SOL     OW20464   0.628   0.693   7.822 -0.0804 -0.0418 -0.2807
 2943SOL    HW120465   0.544   0.684   7.865 -0.0772  1.9337  0.1447
 2943SOL    HW220466   0.579   0.708   7.741  0.1207  2.7822  0.1182
 2944SOL     OW20467   1.431   4.347  15.103 -0.3794 -0.4708 -0.0144
 2944SOL    HW120468   1.509   4.312  15.060 -0.5968 -0.7910 -0.1520
 2944SOL    HW220469   1.436   4.432  15.058  0.2738  0.1750  1.2787
 2945SOL     OW20470   1.814   0.758  11.978  0.6606  0.1331 -0.4660
 2945SOL    HW120471   1.785   0.744  11.887  0.9603 -3.4507 -0.0079
 2945SOL    HW220472   1.888   0.699  11.974  0.4986 -0.0617 -0.6024
 2946SOL     OW20473   0.901   0.457   5.760  0.0806  0.2014  0.2309
 2946SOL    HW120474   0.829   0.455   5.696 -0.2105  0.6560  0.5454
 2946SOL    HW220475   0.917   0.550   5.746  0.8454  0.0333  0.0267
 2947SOL     OW20476   1.596   3.640   6.984 -0.3117  0.2800 -0.3221
 2947SOL    HW120477   1.660   3.705   7.011 -0.1645 -0.0523  0.1288
 2947SOL    HW220478   1.652   3.564   6.969  1.0384  0.9601  1.3629
 2948SOL     OW20479   3.630   0.449   8.767  0.5939 -0.2489  0.0923
 2948SOL    HW120480   3.555   0.477   8.716 -0.3858 -1.1187  1.0488
 2948SOL    HW220481   3.709   0.474   8.720 -0.0308 -0.1047 -0.8784
 2949SOL     OW20482   2.554   2.327   5.848  0.3250 -0.0595  0.5387
 2949SOL    HW120483   2.526   2.401   5.901 -1.9347 -0.0564 -0.6922
 2949SOL    HW220484   2.643   2.333   5.883  0.5535 -3.0680  0.4560
 2950SOL     OW20485   2.592   3.759  16.338  0.4173 -0.0773 -0.1269
 2950SOL    HW120486   2.571   3.666  16.331 -0.5701  0.1829 -0.6362
 2950SOL    HW220487   2.572   3.776  16.430  1.6848  0.3281  0.0738
 2951SOL     OW20488   2.913   4.613   9.298  0.0583  0.3086  0.1051
 2951SOL    HW120489   2.964   4.669   9.239 -0.8417  0.2473 -0.7297
 2951SOL    HW220490   2.980   4.554   9.332  1.1716  1.3075 -0.3500
 2952SOL     OW20491   2.185   2.328   6.886  0.0875 -0.1464 -0.3353
 2952SOL    HW120492   2.223   2.412   6.911  2.6640 -0.6034 -2.7163
 2952SOL    HW220493   2.151   2.298   6.970  2.1518  1.2703  1.0068
 2953SOL     OW20494   4.614   3.675   8.965  0.1989 -0.7019  0.6228
 2953SOL    HW120495   4.672   3.737   9.009  0.3363 -0.5081  0.1752
 2953SOL    HW220496   4.590   3.725   8.886  2.1911  0.1819  0.5793
 2954SOL     OW20497   3.199   3.538   7.082  0.1641 -0.0564  0.0871
 2954SOL    HW120498   3.216   3.460   7.028  0.0078  0.5200 -0.7851
 2954SOL    HW220499   3.291   3.562   7.085  0.0071  0.6073 -0.5261
 2955SOL     OW20500   3.623   2.160   9.603  0.0837  0.2895 -0.4641
 2955SOL    HW120501   3.637   2.067   9.587  1.6507  0.2146  1.4052
 2955SOL    HW220502   3.533   2.176   9.572 -0.1018  1.9983  0.9782
 2956SOL     OW20503   0.292   1.886   8.110  0.1509 -0.6171  0.2555
 2956SOL    HW120504   0.226   1.864   8.044 -1.9863 -0.1367  2.2341
 2956SOL    HW220505   0.246   1.947   8.167 -0.5268 -1.8991  1.0760
 2957SOL     OW20506   2.842   2.609   6.386 -0.6093  0.0459  0.2007
 2957SOL    HW120507   2.875   2.688   6.344  1.2032 -0.2564  1.0477
 2957SOL    HW220508   2.765   2.599   6.330 -1.6395 -0.0251  1.6261
 2958SOL     OW20509   0.170   0.123   7.808 -0.0818 -0.5459  0.5878
 2958SOL    HW120510   0.237   0.143   7.873 -0.6921  4.5852 -0.3582
 2958SOL    HW220511   0.174   0.206   7.760  0.1341  0.1968  1.8921
 2959SOL     OW20512   4.707   0.534  14.915 -0.0044 -0.4820  0.4946
 2959SOL    HW120513   4.654   0.471  14.965 -2.5479  2.5079  1.5833
 2959SOL    HW220514   4.720   0.479  14.837 -0.6275  1.6841 -1.1257
 2960SOL     OW20515   0.575   3.684   4.428  0.0785 -0.4438 -0.2348
 2960SOL    HW120516   0.596   3.736   4.350  0.7194 -1.5294 -0.7797
 2960SOL    HW220517   0.620   3.600   4.419 -0.2527 -0.6590  0.1055
 2961SOL     OW20518   2.331   0.216   9.341  0.4759 -0.3434  0.2286
 2961SOL    HW120519   2.365   0.233   9.429 -0.7320  0.5366  0.5198
 2961SOL    HW220520   2.242   0.252   9.345  1.3355  2.0970 -2.2599
 2962SOL     OW20521   2.562   4.146   1.787 -0.0804 -0.4055 -0.9104
 2962SOL    HW120522   2.522   4.227   1.756 -1.4877 -1.1704 -1.0763
 2962SOL    HW220523   2.493   4.122   1.849  1.5889  0.4408  1.2948
 2963SOL     OW20524   3.547   2.507   7.124  0.0399 -0.4325 -0.5163
 2963SOL    HW120525   3.561   2.438   7.189  0.3361  0.0964 -0.0070
 2963SOL    HW220526   3.629   2.554   7.139 -0.3875  0.4947 -1.0722
 2964SOL     OW20527   2.203   3.860  10.016  0.3631  0.8061  0.0689
 2964SOL    HW120528   2.205   3.935   9.957  2.2796  0.5821 -0.1363
 2964SOL    HW220529   2.266   3.799   9.977 -1.0802 -0.7002  0.0685
 2965SOL     OW20530   1.361   0.405   1.647  0.4124 -0.6289  0.1986
 2965SOL    HW120531   1.318   0.337   1.595  2.5186 -0.7457 -1.4145
 2965SOL    HW220532   1.304   0.418   1.722 -0.0558 -3.0474  0.2686
 2966SOL     OW20533   2.741   1.760  13.566  0.3082  0.4702  0.1800
 2966SOL    HW120534   2.774   1.849  13.573 -0.4891  0.6639  1.4699
 2966SOL    HW220535   2.814   1.704  13.542  2.6710  3.2962  0.8382
 2967SOL     OW20536   4.556   2.997   7.712  0.3214 -0.3805 -0.6412
 2967SOL    HW120537   4.502   3.054   7.766  2.7948  1.9112 -0.6121
 2967SOL    HW220538   4.634   2.990   7.766 -0.8905  0.1594  1.1617
 2968SOL     OW20539   3.903   4.336   3.634  0.3089 -0.0864 -0.2881
 2968SOL    HW120540   3.892   4.273   3.705  2.0032 -0.4322 -0.3353
 2968SOL    HW220541   3.814   4.345   3.600 -0.0848  1.2994  1.1223
 2969SOL     OW20542   2.760   2.326   6.006  0.2258  0.8370  0.7542
 2969SOL    HW120543   2.705   2.320   6.084 -0.2955  1.9210  0.4674
 2969SOL    HW220544   2.847   2.349   6.040  1.1237  1.5534 -2.0235
 2970SOL     OW20545   3.531   2.818   5.436  0.6816  0.2524  0.1656
 2970SOL    HW120546   3.610   2.835   5.488  0.4540 -2.2361  1.3198
 2970SOL    HW220547   3.583   2.773   5.369  1.7297  1.4586  0.1534
 2971SOL     OW20548   2.274   2.507   4.650 -0.4132 -0.0384 -0.2686
 2971SOL    HW120549   2.194   2.463   4.620  1.0115 -1.9730 -1.2530
 2971SOL    HW220550   2.317   2.445   4.709  0.1353  1.7130  1.1400
 2972SOL     OW20551   4.542   2.439   8.651 -0.2224 -0.0780 -0.0083
 2972SOL    HW120552   4.533   2.468   8.742  0.4184 -0.1160  0.0642
 2972SOL    HW220553   4.472   2.374   8.650  0.7407 -1.1376  1.7345
 2973SOL     OW20554   1.586   0.386   7.925  0.1995 -0.2347  0.1982
 2973SOL    HW120555   1.592   0.359   8.016 -2.4679  0.0036  0.4506
 2973SOL    HW220556   1.633   0.312   7.888 -2.1448 -1.6594  0.0635
 2974SOL     OW20557   0.811   2.344   1.296  0.1924 -0.0089  0.5441
 2974SOL    HW120558   0.886   2.340   1.356 -0.5099  0.0587  1.4197
 2974SOL    HW220559   0.853   2.317   1.214 -0.5569 -0.1267  0.2035
 2975SOL     OW20560   3.909   2.389   3.736  0.0764 -0.7569 -0.2115
 2975SOL    HW120561   3.852   2.356   3.806 -0.2672 -2.6928 -1.4231
 2975SOL    HW220562   3.995   2.375   3.776 -0.8628 -0.9867  1.7235
 2976SOL     OW20563   0.111   2.017   5.590  0.0140 -0.1950  0.3986
 2976SOL    HW120564   0.029   2.051   5.554  1.0641  0.0804 -1.7997
 2976SOL    HW220565   0.088   2.016   5.682  0.6645  1.5406  0.5808
 2977SOL     OW20566   4.722   4.543  17.482  0.1009 -0.2609  0.1627
 2977SOL    HW120567   0.068   4.575  17.522  0.1248  2.1442 -1.7955
 2977SOL    HW220568   4.687   4.620  17.438 -0.0939 -0.3164  0.2223
 2978SOL     OW20569   3.702   0.597   4.741  0.4795  0.0768  0.1743
 2978SOL    HW120570   3.629   0.584   4.680 -1.4813  1.9364  2.1161
 2978SOL    HW220571   3.729   0.505   4.746  0.1390 -0.0398 -0.1112
 2979SOL     OW20572   2.987   3.297  11.827 -0.1098 -0.1961  0.6991
 2979SOL    HW120573   2.894   3.290  11.805  0.2067  0.5296 -0.8072
 2979SOL    HW220574   2.996   3.278  11.921 -2.0355 -0.2882  0.8597
 2980SOL     OW20575   4.732   4.033  10.562  0.0518  0.1805 -0.5575
 2980SOL    HW120576   0.066   4.093  10.592 -0.5660  2.0083 -2.8092
 2980SOL    HW220577   4.668   4.047  10.632  2.4621 -0.2331  1.7579
 2981SOL     OW20578   0.930   0.231   3.071 -0.2262  0.2855  0.0108
 2981SOL    HW120579   0.894   0.143   3.064 -0.1599  0.3119 -0.7068
 2981SOL    HW220580   0.869   0.256   3.141 -0.5749  1.0606 -0.5535
 2982SOL     OW20581   2.775   1.963   7.110 -0.4863  0.2157  0.3068
 2982SOL    HW120582   2.715   2.012   7.166  0.3676 -0.5314  1.8535
 2982SOL    HW220583   2.728   1.879   7.106 -0.2587 -0.0508  4.1175
 2983SOL     OW20584   3.148   2.632   0.403  0.1042 -0.3780 -0.1464
 2983SOL    HW120585   3.187   2.717   0.383 -0.0376  0.2331  2.1513
 2983SOL    HW220586   3.165   2.585   0.322 -1.7713 -0.2153 -0.6456
 2984SOL     OW20587   4.049   2.673   5.834 -0.2892 -0.2159 -0.5052
 2984SOL    HW120588   4.133   2.716   5.819 -0.1136  0.4102  2.3523
 2984SOL    HW220589   3.981   2.702   5.774 -0.2691 -0.9463 -0.8895
 2985SOL     OW20590   1.295   3.747   4.157 -0.2124  0.4858  0.9554
 2985SOL    HW120591   1.359   3.785   4.217 -0.2530  0.2219  1.1673
 2985SOL    HW220592   1.322   3.761   4.067  1.7017  2.6337  1.8786
 2986SOL     OW20593   1.477   0.818   2.878 -0.0244  0.1812 -0.2800
 2986SOL    HW120594   1.527   0.895   2.904 -1.8719  0.3955  2.7065
 2986SOL    HW220595   1.446   0.851   2.794  0.0163 -1.3914 -0.9045
 2987SOL     OW20596   1.598   1.994   9.968  0.3044 -0.4541 -0.1090
 2987SOL    HW120597   1.568   2.046  10.043  3.1420 -0.4048  1.0069
 2987SOL    HW220598   1.510   1.981   9.933 -0.2444 -0.8114  1.3862
 2988SOL     OW20599   2.867   2.234   8.760 -0.6011  0.1780 -0.1451
 2988SOL    HW120600   2.958   2.231   8.789 -0.5711  2.9415  0.0106
 2988SOL    HW220601   2.874   2.236   8.664  2.3909 -1.8174  0.0521
 2989SOL     OW20602   0.761   3.958  13.096  0.1535 -0.5091  0.2773
 2989SOL    HW120603   0.696   3.898  13.133 -0.0772 -0.1271  0.4947
 2989SOL    HW220604   0.837   3.938  13.150 -0.3484 -2.8372  0.0988
 2990SOL     OW20605   3.551   2.073   0.803 -0.4045 -0.0572 -0.3336
 2990SOL    HW120606   3.466   2.036   0.778 -0.1896 -1.6662  1.3484
 2990SOL    HW220607   3.563   2.129   0.727 -0.3393  2.0178  1.2300
 2991SOL     OW20608   0.793   1.317   8.858 -0.1830 -0.2838  0.0841
 2991SOL    HW120609   0.747   1.249   8.808  3.6516 -4.0399  1.6478
 2991SOL    HW220610   0.880   1.290   8.828 -0.0238 -0.0309  0.3183
 2992SOL     OW20611   2.400   4.204   9.460 -0.3224  0.3886 -0.0065
 2992SOL    HW120612   2.324   4.178   9.512  0.7971  1.2566  2.0950
 2992SOL    HW220613   2.402   4.299   9.472  0.7414  0.4668 -0.8773
 2993SOL     OW20614   3.156   4.666   5.029  0.4399 -0.2033  0.6220
 2993SOL    HW120615   3.173   4.682   4.936  1.9515  0.6984  1.0489
 2993SOL    HW220616   3.250   4.661   5.046  0.4977 -1.3327  0.0113
 2994SOL     OW20617   1.955   2.814   7.935 -0.1766 -0.4748  0.0978
 2994SOL    HW120618   1.924   2.890   7.984  0.3472  0.5511 -1.1442
 2994SOL    HW220619   2.045   2.848   7.928 -0.3510  0.0427  0.3771
 2995SOL     OW20620   3.837   0.391   7.949 -0.3325  0.4231 -0.1803
 2995SOL    HW120621   3.854   0.370   8.040 -0.2113 -0.2175 -0.3507
 2995SOL    HW220622   3.906   0.342   7.905 -1.2205 -0.0179 -1.0841
 2996SOL     OW20623   0.617   3.770   7.500 -0.3729  0.0199  0.5862
 2996SOL    HW120624   0.689   3.776   7.562  0.3322  1.3959 -0.3593
 2996SOL    HW220625   0.657   3.713   7.434 -1.3627 -0.2077  0.1766
 2997SOL     OW20626   1.688   3.084   8.566  0.5816  0.7006 -0.3102
 2997SOL    HW120627   1.598   3.053   8.566  0.4853  0.9811 -0.2221
 2997SOL    HW220628   1.723   3.025   8.633  0.5221  2.6791  1.4902
 2998SOL     OW20629   0.087   3.110  16.792 -0.3476  0.1905 -0.2419
 2998SOL    HW120630   0.170   3.067  16.813  0.0785 -0.4926 -3.2745
 2998SOL    HW220631   0.024   3.042  16.768 -2.2641  1.4332  1.2393
 2999SOL     OW20632   0.089   3.544   2.416 -0.3784 -0.1946  0.3264
 2999SOL    HW120633   0.171   3.497   2.403  0.1772  1.0671 -0.7109
 2999SOL    HW220634   0.105   3.584   2.501 -4.6047  1.5047  0.3606
 3000SOL     OW20635   0.271   3.647   7.992 -0.0396  0.2980 -0.4247
 3000SOL    HW120636   0.187   3.619   7.956 -0.4024  0.9495 -0.0894
 3000SOL    HW220637   0.249   3.728   8.038 -1.6716 -0.0245 -0.6282
 3001SOL     OW20638   0.659   3.524   6.188  0.8142 -0.1004  0.1780
 3001SOL    HW120639   0.620   3.528   6.275  3.1928 -1.5718  1.2871
 3001SOL    HW220640   0.747   3.492   6.206  2.0876  2.9733 -0.6474
 3002SOL     OW20641   1.018   2.620   5.322 -0.3664  0.7402  0.4868
 3002SOL    HW120642   0.989   2.710   5.336 -0.6262  0.6073  0.7723
 3002SOL    HW220643   0.984   2.574   5.398  0.1081  0.5538  0.5860
 3003SOL     OW20644   3.806   0.712   2.593 -0.5404 -0.3441 -0.1591
 3003SOL    HW120645   3.891   0.679   2.622 -0.2917  0.4413  0.0130
 3003SOL    HW220646   3.758   0.724   2.675  1.6994  1.0721  0.9731
 3004SOL     OW20647   2.887   3.968   9.288  0.2553 -0.4767  0.2936
 3004SOL    HW120648   2.806   4.012   9.260  0.8432 -0.3271 -1.1743
 3004SOL    HW220649   2.921   4.034   9.348 -0.6594  0.3757 -0.1193
 3005SOL     OW20650   0.763   2.224  15.998 -0.2586 -0.0008  0.4163
 3005SOL    HW120651   0.721   2.296  16.046 -0.7043 -0.8070  1.2386
 3005SOL    HW220652   0.730   2.144  16.039 -0.1428 -0.8482 -1.1225
 3006SOL     OW20653   1.341   4.641   2.073 -0.1981  0.9960 -0.2190
 3006SOL    HW120654   1.416   4.608   2.122 -0.9728 -0.1905  0.1945
 3006SOL    HW220655   1.376   4.721   2.036 -0.0239  0.6302 -0.8603
 3007SOL     OW20656   3.665   2.483  12.820  0.1745 -0.4572 -0.5834
 3007SOL    HW120657   3.573   2.505  12.807  0.3518 -0.2184 -1.4741
 3007SOL    HW220658   3.650   2.391  12.843 -1.5715  0.2019  0.8626
 3008SOL     OW20659   2.701   2.801   5.529  0.2973  0.4696  0.1254
 3008SOL    HW120660   2.636   2.822   5.461  1.9524  0.7833 -1.3539
 3008SOL    HW220661   2.692   2.868   5.597  0.0883  0.1486  0.4100
 3009SOL     OW20662   4.050   2.069   7.309  0.3512  0.4476  0.1120
 3009SOL    HW120663   4.128   2.019   7.282  0.6960  1.5671 -0.9530
 3009SOL    HW220664   4.069   2.154   7.271  0.9499  0.7204  1.0288
 3010SOL     OW20665   3.734   3.856   7.854 -0.2969 -0.3546 -0.1819
 3010SOL    HW120666   3.778   3.935   7.886 -0.1403  0.5625 -2.6642
 3010SOL    HW220667   3.769   3.862   7.765  1.3323 -0.1334  0.4622
 3011SOL     OW20668   2.820   0.525   6.148  0.4438  0.1623  0.3017
 3011SOL    HW120669   2.864   0.508   6.065 -1.3985  0.0637 -0.6520
 3011SOL    HW220670   2.807   0.619   6.134  1.0403  0.2262  0.2038
 3012SOL     OW20671   4.318   4.333  17.316  0.1327 -0.3316 -0.9468
 3012SOL    HW120672   4.268   4.372  17.387  0.7229  0.5886 -1.0414
 3012SOL    HW220673   4.404   4.315  17.355  0.7097 -0.3534 -2.2142
 3013SOL     OW20674   4.508   2.635  15.878 -0.5571  0.2644  0.0154
 3013SOL    HW120675   4.569   2.561  15.880  0.0123  0.6851 -2.3214
 3013SOL    HW220676   4.427   2.595  15.847  0.6281 -1.4660 -0.8302
 3014SOL     OW20677   3.513   4.606   7.819  0.6023 -0.0274  0.0205
 3014SOL    HW120678   3.565   4.546   7.766 -1.0785 -1.4231 -0.0545
 3014SOL    HW220679   3.482   4.666   7.752 -0.4290  0.3317  0.8137
 3015SOL     OW20680   3.403   1.747   3.584 -0.0724  0.4961  0.0392
 3015SOL    HW120681   3.402   1.687   3.509 -0.9756 -0.3032  0.6936
 3015SOL    HW220682   3.485   1.717   3.624 -1.1333  0.7176  2.3982
 3016SOL     OW20683   4.004   3.108   6.110  0.1374  0.3855  0.0880
 3016SOL    HW120684   3.966   3.025   6.140 -0.0401  0.7624  0.8721
 3016SOL    HW220685   4.043   3.143   6.189  0.9968 -3.6466  1.4364
 3017SOL     OW20686   0.230   1.936  11.633 -0.1238 -0.0632 -0.2785
 3017SOL    HW120687   0.279   1.988  11.570  0.7943  2.4960  2.5428
 3017SOL    HW220688   0.158   1.920  11.571 -1.9681  1.4571  1.4765
 3018SOL     OW20689   0.644   4.413  14.304 -0.0667 -0.3261 -0.1285
 3018SOL    HW120690   0.564   4.426  14.355 -0.4426 -0.6818 -0.6296
 3018SOL    HW220691   0.662   4.501  14.272 -0.9846  0.4874  1.5529
 3019SOL     OW20692   2.439   3.769   6.326  0.3000  0.7203  0.0776
 3019SOL    HW120693   2.372   3.830   6.295 -0.8361 -0.5476  0.0156
 3019SOL    HW220694   2.426   3.779   6.420  3.4305 -2.9375  0.8843
 3020SOL     OW20695   1.108   0.727  10.538  0.4279  0.6685 -0.2156
 3020SOL    HW120696   1.173   0.796  10.548  0.4369  0.7863 -1.0710
 3020SOL    HW220697   1.170   0.654  10.535 -2.2042 -1.5437 -0.9862
 3021SOL     OW20698   2.050   0.815  17.645 -0.1127 -0.0123 -0.7016
 3021SOL    HW120699   2.065   0.900  17.687  0.6086 -0.2527 -0.4688
 3021SOL    HW220700   2.096   0.831  17.563 -0.9470 -0.6076 -1.2867
 3022SOL     OW20701   4.192   4.272   2.757  0.5799 -0.3968 -0.1910
 3022SOL    HW120702   4.170   4.184   2.728  2.7189  0.3057 -3.9699
 3022SOL    HW220703   4.275   4.287   2.712  0.2057  0.1854 -0.6893
 3023SOL     OW20704   0.872   3.566  11.022 -0.2592  0.2542  0.3806
 3023SOL    HW120705   0.823   3.575  11.104  0.3889  1.5984  0.6086
 3023SOL    HW220706   0.960   3.596  11.042 -0.3301  0.5733  0.2079
 3024SOL     OW20707   4.653   0.348  14.689  0.0744  0.5795 -0.3282
 3024SOL    HW120708   4.603   0.267  14.697 -1.1374  1.3413 -0.1423
 3024SOL    HW220709   4.667   0.344  14.595  0.8195 -3.0392 -0.0763
 3025SOL     OW20710   0.646   3.065   1.136 -0.1549 -0.0039  0.9475
 3025SOL    HW120711   0.702   3.124   1.086 -0.6680  1.6004  2.2325
 3025SOL    HW220712   0.575   3.063   1.072  0.0331  0.6970  0.7146
 3026SOL     OW20713   4.651   3.547   1.981  0.1079 -0.1526  0.2535
 3026SOL    HW120714   4.594   3.623   1.971  0.5971  0.0678 -0.7905
 3026SOL    HW220715   4.711   3.552   1.906  1.5110  3.0324  1.6025
 3027SOL     OW20716   0.530   1.237   2.043  0.2178 -0.0470  0.1262
 3027SOL    HW120717   0.585   1.267   2.115 -0.4455 -1.7389  1.3371
 3027SOL    HW220718   0.494   1.323   2.023  0.4775  0.2089  0.7785
 3028SOL     OW20719   0.735   4.077   6.986 -0.5035 -0.5039  0.5077
 3028SOL    HW120720   0.736   3.983   7.004 -0.5023 -0.1938  2.1459
 3028SOL    HW220721   0.798   4.088   6.915 -0.2093  0.3352  0.9035
 3029SOL     OW20722   2.833   3.363   9.390 -0.0394  0.1398 -0.0059
 3029SOL    HW120723   2.808   3.431   9.452  2.5855  2.1433 -1.0951
 3029SOL    HW220724   2.829   3.409   9.306  0.2440  1.7385  0.8401
 3030SOL     OW20725   4.535   0.265   9.435 -0.2384  0.6933 -0.3428
 3030SOL    HW120726   4.520   0.238   9.526 -2.8117  2.9805 -0.0929
 3030SOL    HW220727   4.504   0.187   9.390 -2.5048  2.1715 -1.3148
 3031SOL     OW20728   1.773   2.302   3.211 -0.3744 -0.2017  0.5979
 3031SOL    HW120729   1.690   2.254   3.213  0.4139 -1.6712 -2.2135
 3031SOL    HW220730   1.817   2.265   3.134  1.0269  0.6287  1.0045
 3032SOL     OW20731   1.317   2.951   7.624 -0.4906  0.0262 -0.1578
 3032SOL    HW120732   1.346   3.026   7.677 -2.1010  0.4328  0.1508
 3032SOL    HW220733   1.235   2.925   7.666  0.6361 -0.7456  1.5412
 3033SOL     OW20734   0.659   3.471  11.687 -0.1525  0.1970 -0.0478
 3033SOL    HW120735   0.717   3.416  11.740 -1.8270 -0.7483  0.8305
 3033SOL    HW220736   0.625   3.538  11.747  1.0282  0.6021  0.1718
 3034SOL     OW20737   1.718   0.600   5.216  0.4214  0.1817 -0.3114
 3034SOL    HW120738   1.630   0.564   5.206  0.8479 -0.8567 -0.3117
 3034SOL    HW220739   1.711   0.664   5.287  1.2514 -1.6313  1.4009
 3035SOL     OW20740   1.437   3.813  16.536  0.0559 -0.3105 -0.0901
 3035SOL    HW120741   1.513   3.868  16.553 -0.0502  0.1633 -1.1642
 3035SOL    HW220742   1.469   3.756  16.466 -1.0782  0.7141 -1.4457
 3036SOL     OW20743   2.988   4.033   7.808 -0.0454 -0.4160 -0.0488
 3036SOL    HW120744   2.897   4.011   7.788 -0.1434 -0.9487  1.0178
 3036SOL    HW220745   3.025   3.945   7.801 -0.0177 -0.3554 -0.6312
 3037SOL     OW20746   0.933   2.537   6.736 -0.2553  0.4611 -0.2694
 3037SOL    HW120747   0.889   2.611   6.693 -2.0594  0.3818  1.4413
 3037SOL    HW220748   0.910   2.557   6.827 -2.6788  1.3487 -1.0600
 3038SOL     OW20749   2.922   3.050   5.023  0.2819 -0.2723  0.2652
 3038SOL    HW120750   2.878   2.976   5.065 -2.4415  2.0362  1.4733
 3038SOL    HW220751   2.937   3.008   4.938  0.3955  1.1506 -0.4158
 3039SOL     OW20752   2.246   0.494  11.408  0.2664 -0.2346 -0.6739
 3039SOL    HW120753   2.172   0.456  11.455 -0.4185  1.9257 -0.0493
 3039SOL    HW220754   2.197   0.534  11.337 -2.1290 -3.3609 -0.7913
 3040SOL     OW20755   0.327   3.486  11.967 -0.4708  0.7986  0.0349
 3040SOL    HW120756   0.261   3.551  11.944  0.2372  0.6997 -2.3330
 3040SOL    HW220757   0.400   3.519  11.915  1.5813 -2.2884  0.9486
 3041SOL     OW20758   0.852   3.332   3.642  0.1970 -0.1486 -0.1416
 3041SOL    HW120759   0.938   3.290   3.638  1.3033  2.1237 -0.3471
 3041SOL    HW220760   0.811   3.295   3.720 -0.9492 -0.7302 -1.0056
 3042SOL     OW20761   3.483   2.678   4.858  0.1546  0.0584  0.2678
 3042SOL    HW120762   3.534   2.598   4.852 -0.4002 -0.2643 -0.1894
 3042SOL    HW220763   3.543   2.746   4.889 -0.7231  1.4651 -1.0736
 3043SOL     OW20764   2.777   1.966   8.022  0.5470  0.3878 -0.1670
 3043SOL    HW120765   2.733   1.882   8.035  0.9339 -0.1608 -2.2953
 3043SOL    HW220766   2.804   1.985   8.112  1.9749  0.4751 -0.6006
 3044SOL     OW20767   4.553   0.775   2.689  0.3470  0.4900 -0.3836
 3044SOL    HW120768   4.483   0.768   2.753 -1.0704 -0.3243 -2.0105
 3044SOL    HW220769   4.557   0.870   2.671  0.6387  0.4531 -0.5221
 3045SOL     OW20770   0.426   0.726   7.159 -0.6114 -0.0506  0.0387
 3045SOL    HW120771   0.427   0.630   7.154 -0.8043 -0.0831  0.6082
 3045SOL    HW220772   0.356   0.752   7.220  0.5365 -1.0852  1.7989
 3046SOL     OW20773   0.054   0.103   8.731 -0.5177 -0.3382  0.0827
 3046SOL    HW120774   0.049   0.195   8.756 -0.3124 -0.0696 -0.8662
 3046SOL    HW220775   4.733   0.060   8.796  0.5403  0.7022  1.7109
 3047SOL     OW20776   1.296   3.233  16.243  0.5861 -0.4516 -0.4857
 3047SOL    HW120777   1.211   3.189  16.245  0.3752 -0.1273 -2.7382
 3047SOL    HW220778   1.353   3.178  16.298  1.0853 -0.9120 -1.4697
 3048SOL     OW20779   0.526   3.279   7.487  0.1910  0.3044 -0.1385
 3048SOL    HW120780   0.514   3.237   7.401 -0.5067  0.2839 -0.0369
 3048SOL    HW220781   0.531   3.201   7.542  2.2034  0.3291 -0.2906
 3049SOL     OW20782   1.517   4.575   3.103  0.3187  0.3410  0.0738
 3049SOL    HW120783   1.599   4.603   3.065  1.2849 -1.8353  0.5307
 3049SOL    HW220784   1.488   4.504   3.045  0.9314  0.4375 -0.3423
 3050SOL     OW20785   0.116   1.840   2.282 -0.2043 -0.5894 -0.2490
 3050SOL    HW120786   0.043   1.902   2.293  1.5325  0.9424  2.7062
 3050SOL    HW220787   0.099   1.805   2.195 -3.6211  2.8185 -0.9701
 3051SOL     OW20788   0.574   3.952   3.366 -0.1779  0.3807 -0.7279
 3051SOL    HW120789   0.571   4.047   3.377  0.9078  0.6632 -2.7886
 3051SOL    HW220790   0.616   3.944   3.280 -0.2214 -1.3656 -0.5922
 3052SOL     OW20791   1.398   1.547   6.859 -0.2213 -0.0367  0.3785
 3052SOL    HW120792   1.381   1.504   6.775  2.1174  2.8077 -1.5686
 3052SOL    HW220793   1.374   1.637   6.836  1.4291 -0.0748 -1.4870
 3053SOL     OW20794   2.907   1.402  12.965  0.1582  0.2371  0.1786
 3053SOL    HW120795   2.852   1.325  12.971 -1.0935  1.1960  0.9512
 3053SOL    HW220796   2.845   1.465  13.002  1.3295  0.0109  2.5015
 3054SOL     OW20797   4.299   0.501   5.662  0.6200 -0.8071  0.0651
 3054SOL    HW120798   4.310   0.415   5.621  1.1346 -1.4991  1.6442
 3054SOL    HW220799   4.363   0.554   5.615 -0.4126  1.6705  1.4521
 3055SOL     OW20800   0.529   2.770   0.430  0.3929  0.1502  0.5892
 3055SOL    HW120801   0.555   2.862   0.421  1.5931 -0.1788  0.6824
 3055SOL    HW220802   0.476   2.771   0.510 -0.1433 -1.5971  0.2591
 3056SOL     OW20803   1.843   0.207  11.927  0.5920  0.4271  0.6905
 3056SOL    HW120804   1.863   0.114  11.918 -1.9853 -0.0730  0.0795
 3056SOL    HW220805   1.877   0.234  12.012 -0.0718 -0.3201  1.1938
 3057SOL     OW20806   0.756   4.323   3.881 -0.3465 -0.5891 -0.4002
 3057SOL    HW120807   0.694   4.255   3.853  1.4095 -0.5946 -4.2552
 3057SOL    HW220808   0.831   4.288   3.833 -0.5639  0.5121 -1.5276
 3058SOL     OW20809   1.572   0.063   0.961  0.3477 -0.6394 -0.3298
 3058SOL    HW120810   1.557   0.157   0.957 -0.3069 -0.6202  2.3196
 3058SOL    HW220811   1.485   0.024   0.966  0.9651 -2.0717 -0.6574
 3059SOL     OW20812   0.500   0.466  14.140  1.3378 -0.9555  0.3562
 3059SOL    HW120813   0.410   0.481  14.111  1.4399 -1.3695 -0.1782
 3059SOL    HW220814   0.516   0.392  14.081  0.1460 -1.7921  1.0799
 3060SOL     OW20815   1.044   2.403  14.310  0.2993  0.3673  0.4667
 3060SOL    HW120816   0.995   2.473  14.354 -0.7264 -0.1669  0.1907
 3060SOL    HW220817   0.985   2.401  14.235 -0.0568 -1.6069  0.7907
 3061SOL     OW20818   4.476   3.893   9.736 -0.4973 -0.0220 -0.1964
 3061SOL    HW120819   4.523   3.811   9.749  1.0306  0.8015 -0.5523
 3061SOL    HW220820   4.409   3.883   9.803  1.6063  0.5650  1.9827
 3062SOL     OW20821   0.837   0.670   4.334 -0.1024 -0.3841 -0.5521
 3062SOL    HW120822   0.772   0.643   4.399  0.6453 -1.6908 -0.3432
 3062SOL    HW220823   0.811   0.759   4.311 -1.1744 -0.5712 -0.0394
 3063SOL     OW20824   3.483   0.626   0.078  0.2251  0.2039  0.0008
 3063SOL    HW120825   3.453   0.561   0.014 -1.4453 -2.0098  3.0129
 3063SOL    HW220826   3.477   0.567   0.153 -1.4527 -0.4318 -0.6114
 3064SOL     OW20827   1.809   4.235   7.609 -0.1470 -0.4422  0.4481
 3064SOL    HW120828   1.836   4.146   7.590  2.4552  0.2540  0.8850
 3064SOL    HW220829   1.793   4.230   7.704  0.4449  2.9476  0.7592
 3065SOL     OW20830   2.168   2.212   2.196  0.0219  1.1006  0.3696
 3065SOL    HW120831   2.146   2.125   2.228  0.9871  0.1294 -1.5761
 3065SOL    HW220832   2.168   2.196   2.101 -0.7842  0.4686  0.4733
 3066SOL     OW20833   2.854   1.577   4.102  0.2080  0.4244  0.0228
 3066SOL    HW120834   2.792   1.631   4.054  1.3718 -0.8230 -2.9067
 3066SOL    HW220835   2.819   1.596   4.189  1.4922 -0.0164  0.6445
 3067SOL     OW20836   0.296   2.943   5.213 -0.3213 -0.2973 -0.2440
 3067SOL    HW120837   0.246   2.878   5.262  0.2097 -0.7744 -0.3352
 3067SOL    HW220838   0.367   2.892   5.174  0.1833  1.0149 -1.0088
 3068SOL     OW20839   2.072   0.566   8.231  0.3012 -0.5228  0.8477
 3068SOL    HW120840   1.981   0.569   8.260  0.2423 -0.8364  0.6864
 3068SOL    HW220841   2.102   0.497   8.289 -0.3933 -2.9559 -1.7116
 3069SOL     OW20842   0.572   0.790   3.228 -0.6207 -0.0172 -0.6518
 3069SOL    HW120843   0.600   0.853   3.294  2.4496 -1.5029 -0.5482
 3069SOL    HW220844   0.601   0.715   3.280  0.5365 -0.6312 -2.1948
 3070SOL     OW20845   0.141   0.176   0.160 -0.0415 -0.0912  0.3101
 3070SOL    HW120846   0.100   0.143   0.240  2.5539 -1.7780  0.9536
 3070SOL    HW220847   0.234   0.193   0.179  0.9695 -1.4293 -3.4215
 3071SOL     OW20848   1.928   0.416   9.245 -0.0544  0.2295 -0.8305
 3071SOL    HW120849   1.878   0.492   9.276  0.5030  0.5547 -0.7365
 3071SOL    HW220850   1.870   0.396   9.171 -2.1836  0.3752  0.7780
 3072SOL     OW20851   1.157   0.404   1.839 -0.4205  0.1064  0.2976
 3072SOL    HW120852   1.078   0.447   1.871 -1.9020 -0.3298 -2.7620
 3072SOL    HW220853   1.142   0.316   1.873 -1.5338  0.4283  0.6433
 3073SOL     OW20854   3.837   2.584   3.058 -0.0090  0.4918  0.9593
 3073SOL    HW120855   3.824   2.491   3.076 -0.6298  0.2314 -0.8921
 3073SOL    HW220856   3.930   2.578   3.035  0.2475 -0.9348  2.3137
 3074SOL     OW20857   1.962   2.788   7.641  0.7689 -0.1931 -0.3143
 3074SOL    HW120858   1.959   2.797   7.736  0.1503  0.2130 -0.3699
 3074SOL    HW220859   1.994   2.874   7.614 -2.0118  1.2005  0.8036
 3075SOL     OW20860   0.634   1.376   1.370  0.1674 -0.6411 -0.0117
 3075SOL    HW120861   0.538   1.374   1.362  0.2786  2.3685 -2.1998
 3075SOL    HW220862   0.636   1.291   1.415  0.1355 -0.5109  0.2369
 3076SOL     OW20863   4.174   0.399   5.290 -0.4200  0.0465 -0.2775
 3076SOL    HW120864   4.126   0.450   5.356 -0.5343  0.3094 -0.5623
 3076SOL    HW220865   4.252   0.455   5.294 -1.6791  1.9285 -1.9234
 3077SOL     OW20866   0.734   4.031   2.387  0.3479  0.5708 -0.6529
 3077SOL    HW120867   0.684   3.959   2.349 -0.0522  0.7423 -0.4512
 3077SOL    HW220868   0.714   4.111   2.339  0.8139  2.2021  1.8183
 3078SOL     OW20869   2.798   4.173  16.854  0.0742  0.3235  0.3206
 3078SOL    HW120870   2.811   4.158  16.948  0.0387  0.3453  0.3290
 3078SOL    HW220871   2.888   4.160  16.825  0.5490  1.5838  1.2387
 3079SOL     OW20872   0.606   3.027  10.143  0.5506  0.0854  0.2083
 3079SOL    HW120873   0.672   2.986  10.087 -0.7657 -1.7244 -0.0442
 3079SOL    HW220874   0.531   2.966  10.143  1.5882 -1.1838  0.8527
 3080SOL     OW20875   3.920   3.608   2.073 -0.0644  0.2524  0.0948
 3080SOL    HW120876   3.980   3.539   2.102 -1.0457 -1.0688 -0.9728
 3080SOL    HW220877   3.853   3.612   2.141 -1.0876 -0.0421 -0.8825
 3081SOL     OW20878   4.707   0.445   6.212  0.1153 -0.4552 -0.4962
 3081SOL    HW120879   4.622   0.484   6.235  0.5250  0.1744 -0.0505
 3081SOL    HW220880   0.026   0.512   6.253  1.3380 -1.6174 -0.2324
 3082SOL     OW20881   4.401   2.211   9.231 -0.4153 -0.0391  0.1277
 3082SOL    HW120882   4.421   2.177   9.144  0.5892 -2.4333  1.3011
 3082SOL    HW220883   4.315   2.169   9.231 -0.5751  0.2804 -0.2985
 3083SOL     OW20884   0.555   2.251   1.245 -0.6460  0.4996  0.4607
 3083SOL    HW120885   0.550   2.211   1.332 -0.5241 -1.1257 -0.2851
 3083SOL    HW220886   0.647   2.271   1.261 -0.2990 -0.0083 -0.9446
 3084SOL     OW20887   0.261   3.388   1.548  0.0414  0.3714  0.1919
 3084SOL    HW120888   0.195   3.336   1.503  1.8238 -2.1302  0.5157
 3084SOL    HW220889   0.272   3.456   1.481 -2.9537  1.1232  0.4668
 3085SOL     OW20890   0.367   4.299   6.833 -0.2142  0.6510 -0.1029
 3085SOL    HW120891   0.401   4.213   6.859  2.3762  1.7766  0.2592
 3085SOL    HW220892   0.362   4.334   6.922 -0.5121  0.0092  0.1356
 3086SOL     OW20893   3.786   1.546   7.818 -0.2511  0.0076 -0.7618
 3086SOL    HW120894   3.799   1.583   7.731 -1.5617 -1.6346 -1.6459
 3086SOL    HW220895   3.853   1.478   7.829  1.1573  1.5944  0.6190
 3087SOL     OW20896   0.298   1.008   1.517 -0.1670  0.3545  0.0923
 3087SOL    HW120897   0.215   1.016   1.564  0.2637  0.2912  0.8623
 3087SOL    HW220898   0.270   1.051   1.436 -2.2909 -0.3744  0.4629
 3088SOL     OW20899   0.035   2.269   5.827  0.3542 -1.1784  0.1954
 3088SOL    HW120900   0.118   2.251   5.784  1.4421 -0.4397  1.9735
 3088SOL    HW220901   0.007   2.184   5.859 -2.7965  0.1036  0.9186
 3089SOL     OW20902   0.467   1.667  14.604 -0.1799 -0.5574  0.0914
 3089SOL    HW120903   0.509   1.679  14.519 -1.9832 -1.3675 -0.9244
 3089SOL    HW220904   0.465   1.753  14.646 -1.1443  0.7524 -2.6731
 3090SOL     OW20905   1.871   0.227   6.929 -0.1848 -0.0939  0.4124
 3090SOL    HW120906   1.892   0.253   7.019 -0.8364  1.6217  0.0578
 3090SOL    HW220907   1.943   0.168   6.905  2.1764  2.9031  0.1241
 3091SOL     OW20908   1.472   4.428   1.624 -0.4654  0.6773  0.3905
 3091SOL    HW120909   1.402   4.385   1.673  1.5819 -0.9038  1.9142
 3091SOL    HW220910   1.545   4.384   1.667 -1.3362 -0.5211  0.6542
 3092SOL     OW20911   2.744   3.537  10.767 -0.4584  1.0047 -0.0051
 3092SOL    HW120912   2.787   3.493  10.693 -1.2886  1.8899 -1.0191
 3092SOL    HW220913   2.810   3.601  10.794 -0.5493  0.4525  1.5334
 3093SOL     OW20914   1.323   3.807   2.977  0.1987 -0.1119 -0.4106
 3093SOL    HW120915   1.355   3.750   3.046  0.1314  0.8959  0.4522
 3093SOL    HW220916   1.402   3.817   2.923 -0.2338  1.6992 -0.7030
 3094SOL     OW20917   4.299   0.563   0.984  0.5068 -0.4106 -0.1050
 3094SOL    HW120918   4.281   0.471   0.999  0.1808 -0.3686 -0.2380
 3094SOL    HW220919   4.242   0.582   0.909 -1.2711  2.2934  1.9176
 3095SOL     OW20920   0.378   4.706  17.204  0.3273 -0.0228  0.1090
 3095SOL    HW120921   0.289   0.002  17.217 -0.2908 -1.5190 -0.4941
 3095SOL    HW220922   0.356   4.641  17.137 -0.6190 -1.0159  1.3891
 3096SOL     OW20923   1.110   0.700   4.293  0.2779 -0.4957  0.1083
 3096SOL    HW120924   1.124   0.795   4.288  0.5092 -0.5010  0.7270
 3096SOL    HW220925   1.019   0.698   4.323  0.6562  3.2241  1.5140
 3097SOL     OW20926   1.971   3.841   6.227  0.7149 -0.2146  0.0630
 3097SOL    HW120927   1.914   3.916   6.214  1.0714 -0.0486 -0.5562
 3097SOL    HW220928   2.023   3.825   6.148  1.6129  0.1291  0.5775
 3098SOL     OW20929   3.912   1.405   8.542  0.3407 -0.0315 -0.1264
 3098SOL    HW120930   3.967   1.329   8.556 -2.3898 -1.6662  1.7434
 3098SOL    HW220931   3.930   1.408   8.448  3.0533  0.3559  0.4044
 3099SOL     OW20932   1.491   0.782   6.169 -0.7076  0.1552  0.0114
 3099SOL    HW120933   1.408   0.792   6.123 -0.6713  1.6719  0.2955
 3099SOL    HW220934   1.470   0.810   6.258  0.2582  0.9025 -0.0031
 3100SOL     OW20935   3.677   3.649   4.477  0.1210 -1.1047 -0.6561
 3100SOL    HW120936   3.601   3.690   4.436 -0.4826 -2.0612 -0.5105
 3100SOL    HW220937   3.659   3.556   4.489  0.2089 -1.0005  0.2443
 3101SOL     OW20938   2.661   4.246   7.687  0.3607  0.2262 -0.2044
 3101SOL    HW120939   2.614   4.318   7.644 -0.1089  0.4882  0.7190
 3101SOL    HW220940   2.641   4.172   7.630 -1.8142  0.4931  0.2154
 3102SOL     OW20941   0.141   2.615  10.567 -0.4849  0.1553 -0.3429
 3102SOL    HW120942   0.180   2.604  10.480  0.2787 -1.5037  0.2242
 3102SOL    HW220943   0.221   2.629  10.618 -0.9121  0.4461  0.2477
 3103SOL     OW20944   3.599   2.822   4.225 -0.6655 -0.0694 -0.2540
 3103SOL    HW120945   3.556   2.887   4.169  1.5377  2.9215  1.5209
 3103SOL    HW220946   3.581   2.847   4.316 -3.5164 -1.9748 -0.2911
 3104SOL     OW20947   0.371   3.593   2.428  0.1621  0.5507 -0.2315
 3104SOL    HW120948   0.378   3.551   2.342  3.1117  0.0636  0.2547
 3104SOL    HW220949   0.379   3.515   2.484  0.0700  1.5748  1.2076
 3105SOL     OW20950   0.545   2.836   8.611 -0.2081  0.4299  0.2651
 3105SOL    HW120951   0.602   2.834   8.688  0.3959  0.3778 -0.1889
 3105SOL    HW220952   0.600   2.805   8.540  0.2644 -0.4134  1.0082
 3106SOL     OW20953   3.796   1.421  12.109  0.1026  0.1786 -0.2084
 3106SOL    HW120954   3.756   1.342  12.146  1.9475 -1.5737 -1.9344
 3106SOL    HW220955   3.791   1.478  12.185  0.5972  0.1056 -0.1214
 3107SOL     OW20956   3.379   0.109   4.920  0.2453 -0.2348 -0.0743
 3107SOL    HW120957   3.308   0.063   4.874  2.0157 -0.2517 -2.8221
 3107SOL    HW220958   3.441   0.120   4.848 -0.8451  0.7222 -0.8848
 3108SOL     OW20959   4.536   1.694   7.494 -0.6321 -0.1570 -0.3293
 3108SOL    HW120960   4.446   1.664   7.482 -0.2653 -0.7525 -1.6078
 3108SOL    HW220961   4.525   1.764   7.558  0.1989 -1.5271  1.3052
 3109SOL     OW20962   0.026   2.621   9.726  0.7053  0.4007  0.3964
 3109SOL    HW120963   0.061   2.660   9.646 -0.6034 -0.7890 -0.7787
 3109SOL    HW220964   0.081   2.542   9.724 -1.2795 -1.0122  0.9272
 3110SOL     OW20965   0.896   1.809   1.946 -0.4010  0.4149 -0.1528
 3110SOL    HW120966   0.917   1.753   1.871  0.8109  2.2245 -1.1546
 3110SOL    HW220967   0.842   1.745   1.993  0.3397 -0.3744 -0.3795
 3111SOL     OW20968   1.016   3.398  10.145  0.0688  0.3444  0.3729
 3111SOL    HW120969   0.969   3.354  10.074 -1.4873 -0.1299  1.6959
 3111SOL    HW220970   1.003   3.341  10.221  1.8553 -2.6607 -1.5888
 3112SOL     OW20971   3.379   2.671   8.659 -0.2776  0.7356 -0.1353
 3112SOL    HW120972   3.440   2.726   8.708  0.0611  2.5892 -2.6297
 3112SOL    HW220973   3.347   2.624   8.736 -1.3807 -0.6486 -1.4583
 3113SOL     OW20974   3.362   0.371   7.028 -0.3789  0.2852 -0.4552
 3113SOL    HW120975   3.299   0.384   6.957  0.4684  1.8026 -0.9093
 3113SOL    HW220976   3.305   0.422   7.085  0.0953 -1.3804  1.5208
 3114SOL     OW20977   0.386   2.666   3.002  0.3739 -0.8447 -0.2047
 3114SOL    HW120978   0.346   2.595   3.052 -0.1448 -1.5014 -1.5600
 3114SOL    HW220979   0.470   2.635   2.969  0.5232  2.2699 -2.7348
 3115SOL     OW20980   0.926   2.178  11.750 -0.4440 -0.2731  0.3472
 3115SOL    HW120981   1.015   2.207  11.729 -0.3061  0.6837  2.2140
 3115SOL    HW220982   0.876   2.228  11.685  0.0966 -0.0339  0.1179
 3116SOL     OW20983   1.512   4.726  11.872 -0.5201 -0.3333 -0.0003
 3116SOL    HW120984   1.575   4.654  11.868 -0.1036  0.0976 -1.2426
 3116SOL    HW220985   1.534   0.034  11.954 -1.0089 -2.9232  1.5239
 3117SOL     OW20986   4.630   4.364   6.650 -0.3570  0.1717 -0.3488
 3117SOL    HW120987   4.552   4.336   6.603 -0.9628 -0.0001  0.7469
 3117SOL    HW220988   4.601   4.353   6.741  0.8105  1.1608  0.1416
 3118SOL     OW20989   1.175   2.057  11.969  0.4700 -0.3449  0.1599
 3118SOL    HW120990   1.178   2.037  12.063  0.7409  1.9482  0.6294
 3118SOL    HW220991   1.207   1.975  11.931  0.0356 -0.9019  0.9961
 3119SOL     OW20992   4.344   2.879   9.028  0.2192 -0.0974 -0.4169
 3119SOL    HW120993   4.375   2.801   9.074 -0.1709  0.5165  0.8826
 3119SOL    HW220994   4.407   2.878   8.955  0.7016 -0.1554 -0.0012
 3120SOL     OW20995   3.904   3.231  17.684  0.1077  0.6062 -0.1804
 3120SOL    HW120996   3.974   3.226  17.619 -0.1900 -0.6179 -0.4080
 3120SOL    HW220997   3.829   3.189  17.641 -0.6876 -0.6274  2.3999
 3121SOL     OW20998   2.287   2.704   3.456 -0.3547  0.3052  0.7418
 3121SOL    HW120999   2.242   2.722   3.374  2.9687 -0.1387 -1.1611
 3121SOL    HW221000   2.260   2.613   3.469  0.3148 -0.2162 -1.5069
 3122SOL     OW21001   0.708   2.607   8.796 -0.6304  0.7005 -0.3177
 3122SOL    HW121002   0.736   2.698   8.797  0.3087  0.4244 -1.4728
 3122SOL    HW221003   0.624   2.607   8.842  0.1608  0.5891  1.1430
 3123SOL     OW21004   1.887   4.263  17.018 -0.0956  0.2067  0.2229
 3123SOL    HW121005   1.933   4.338  17.055  0.4167 -0.5458  1.1230
 3123SOL    HW221006   1.846   4.307  16.944 -1.3001 -1.1230  0.0957
 3124SOL     OW21007   4.384   2.021  14.079 -0.1644 -0.0563 -0.6737
 3124SOL    HW121008   4.477   2.031  14.062  0.0639 -1.2175 -0.1323
 3124SOL    HW221009   4.380   1.927  14.060  1.5720  0.0906 -1.7537
 3125SOL     OW21010   1.385   4.735   6.910 -0.1521 -0.1859 -0.2444
 3125SOL    HW121011   1.366   4.647   6.944 -0.3019  0.6701  1.8827
 3125SOL    HW221012   1.478   4.724   6.891 -0.4025 -1.1232 -0.9756
 3126SOL     OW21013   3.812   1.506  12.672 -0.8699 -0.0294  0.3001
 3126SOL    HW121014   3.755   1.572  12.712  0.2077  0.9089  0.2667
 3126SOL    HW221015   3.749   1.460  12.616  0.6347 -1.7627  0.0141
 3127SOL     OW21016   4.017   1.393   7.742  0.1770 -0.6429  0.0843
 3127SOL    HW121017   4.100   1.440   7.733 -0.5259  0.4222 -0.6861
 3127SOL    HW221018   4.004   1.372   7.650 -0.3053  1.9687 -0.4345
 3128SOL     OW21019   3.911   3.883   9.609 -0.4286 -0.0813 -0.0216
 3128SOL    HW121020   4.004   3.883   9.633 -0.7989 -1.5976  1.3602
 3128SOL    HW221021   3.904   3.828   9.531 -0.0773 -0.4212  0.1858
 3129SOL     OW21022   0.303   3.494   7.432  0.3359  0.6129 -0.2636
 3129SOL    HW121023   0.315   3.401   7.411  0.3350  0.7368 -0.7980
 3129SOL    HW221024   0.253   3.512   7.353  0.6741 -2.2103 -1.1374
 3130SOL     OW21025   1.727   0.297   1.686 -0.0833  0.3854 -0.3231
 3130SOL    HW121026   1.661   0.228   1.687 -0.5547  0.8470  0.4198
 3130SOL    HW221027   1.679   0.371   1.648 -1.4147 -0.4903 -0.3467
 3131SOL     OW21028   0.666   1.943   4.157 -0.1642  0.2011  0.1797
 3131SOL    HW121029   0.700   1.939   4.246 -1.5768 -0.5579  0.6805
 3131SOL    HW221030   0.577   1.908   4.158  0.1233 -0.4519  1.9929
 3132SOL     OW21031   4.473   3.103  15.892  0.1222  0.5185  0.1131
 3132SOL    HW121032   4.425   3.070  15.816 -0.2509 -0.6896  0.8557
 3132SOL    HW221033   4.441   3.056  15.969  2.0301 -0.1269  0.5130
 3133SOL     OW21034   1.359   3.969   9.058 -0.2877 -0.2092  0.4118
 3133SOL    HW121035   1.335   3.942   9.146 -1.7110 -1.6424 -0.4051
 3133SOL    HW221036   1.455   3.970   9.062 -0.2895 -2.3819  1.3367
 3134SOL     OW21037   4.459   2.735  12.225  0.2999  0.5419 -0.0985
 3134SOL    HW121038   4.531   2.712  12.284 -0.5473  0.0322  0.7407
 3134SOL    HW221039   4.383   2.737  12.284  0.5446  0.7391  0.2065
 3135SOL     OW21040   0.990   0.472   6.033  0.3776 -0.3746  0.2465
 3135SOL    HW121041   0.968   0.453   5.942 -1.9169  0.1721  0.6837
 3135SOL    HW221042   0.927   0.415   6.077 -2.1701  2.1312 -0.1299
 3136SOL     OW21043   4.570   3.373  13.322  0.0093 -0.8920 -0.4879
 3136SOL    HW121044   4.495   3.314  13.323 -1.7916  1.3940  0.6408
 3136SOL    HW221045   4.583   3.385  13.416  0.9470 -3.6841 -0.2708
 3137SOL     OW21046   0.763   2.367   0.616  0.9928 -0.2093 -0.2802
 3137SOL    HW121047   0.838   2.425   0.603 -1.2844  2.5169 -1.3902
 3137SOL    HW221048   0.703   2.393   0.547  0.2668 -3.2048 -0.7786
 3138SOL     OW21049   1.966   0.024   9.064  0.2831 -0.1798 -0.4525
 3138SOL    HW121050   1.935   0.058   8.980  1.4048  1.0678 -0.3614
 3138SOL    HW221051   2.060   0.040   9.064  0.4505 -1.1145 -0.5641
 3139SOL     OW21052   4.133   2.548  15.571  0.0739  0.1767  0.2510
 3139SOL    HW121053   4.079   2.599  15.511 -1.3852 -0.4061  1.0593
 3139SOL    HW221054   4.092   2.462  15.565 -0.2553  0.2881  0.9316
 3140SOL     OW21055   1.221   3.696   4.583 -0.0251  0.7381  0.6352
 3140SOL    HW121056   1.241   3.771   4.527  4.4713 -0.9036 -0.0261
 3140SOL    HW221057   1.251   3.726   4.669 -0.4164  1.7619  0.4073
 3141SOL     OW21058   1.066   0.092   7.506 -0.4152  0.3100  0.4821
 3141SOL    HW121059   1.122   0.024   7.543  1.3358  1.4680 -0.0289
 3141SOL    HW221060   1.032   0.127   7.588 -0.3310  0.8007  0.3055
 3142SOL     OW21061   3.882   3.725   8.055 -0.0009  0.2192  0.4725
 3142SOL    HW121062   3.846   3.721   7.966  0.4076  1.2428  0.2564
 3142SOL    HW221063   3.945   3.653   8.051 -1.1123 -0.8370  1.9449
 3143SOL     OW21064   2.830   3.393  10.544 -0.6564  0.0024  0.3646
 3143SOL    HW121065   2.826   3.305  10.582 -1.5629 -0.1148 -0.0296
 3143SOL    HW221066   2.812   3.380  10.451 -0.6886  0.6521  0.2830
 3144SOL     OW21067   1.576   4.485   6.541  0.8806 -0.6096  0.6006
 3144SOL    HW121068   1.648   4.430   6.570  3.0225  1.2955 -1.0088
 3144SOL    HW221069   1.562   4.454   6.451 -2.2558  0.1739  0.8268
 3145SOL     OW21070   2.968   2.383   4.462  0.1484 -0.3844  0.0323
 3145SOL    HW121071   3.025   2.306   4.467  1.2244  0.4265  0.0796
 3145SOL    HW221072   2.987   2.416   4.375  0.3785  0.3298  0.3577
 3146SOL     OW21073   0.410   4.492   0.938  0.3728  0.0812 -0.3616
 3146SOL    HW121074   0.487   4.437   0.928 -1.1645 -1.9286 -1.0890
 3146SOL    HW221075   0.418   4.538   1.022  0.0289  0.3371 -0.4678
 3147SOL     OW21076   1.312   4.591   4.598  0.0843  0.2399  0.0135
 3147SOL    HW121077   1.371   4.568   4.526 -2.0909 -1.4141 -1.2093
 3147SOL    HW221078   1.230   4.545   4.579 -0.4131  1.3207 -0.4259
 3148SOL     OW21079   0.307   1.768   5.827  0.0025 -0.1388 -0.1845
 3148SOL    HW121080   0.266   1.709   5.764  0.4299 -0.3803 -0.2367
 3148SOL    HW221081   0.325   1.709   5.900 -0.7396  0.6133  0.6143
 3149SOL     OW21082   2.018   0.071   7.730  0.1715  0.5852 -0.0956
 3149SOL    HW121083   1.997   0.048   7.820  0.8681  2.6782  0.6095
 3149SOL    HW221084   2.074   0.001   7.696 -0.4464  1.0924 -2.1617
 3150SOL     OW21085   0.576   1.198  13.628  0.1414 -0.7110  0.0462
 3150SOL    HW121086   0.548   1.149  13.706  2.5322  1.2550  2.1488
 3150SOL    HW221087   0.654   1.235  13.668 -0.8286 -1.0153  2.2233
 3151SOL     OW21088   3.372   0.992   0.864 -0.2567 -0.5510  0.1195
 3151SOL    HW121089   3.346   1.033   0.781  1.0619 -4.7727 -2.4108
 3151SOL    HW221090   3.315   0.915   0.862  1.3432 -1.7794  1.8343
 3152SOL     OW21091   4.487   1.071   1.760 -0.2002  0.3149  0.3690
 3152SOL    HW121092   4.410   1.101   1.808 -1.5116 -1.2213 -0.7557
 3152SOL    HW221093   4.440   1.024   1.691 -0.6462 -0.5405  1.2520
 3153SOL     OW21094   2.144   0.958   8.571 -0.4227 -0.2920 -0.4459
 3153SOL    HW121095   2.194   1.001   8.501  2.0859 -1.5354  0.5768
 3153SOL    HW221096   2.181   1.001   8.648  0.6958 -2.0470  0.0018
 3154SOL     OW21097   0.950   1.571   8.715  0.0657 -0.4091 -0.0050
 3154SOL    HW121098   0.997   1.650   8.688 -2.1874  1.8685  2.7224
 3154SOL    HW221099   0.891   1.555   8.641 -0.6733  1.3170  0.2249
 3155SOL     OW21100   4.114   2.460   1.830 -0.4951 -0.1807 -0.3891
 3155SOL    HW121101   4.067   2.497   1.755 -3.1230 -3.7305 -0.4936
 3155SOL    HW221102   4.190   2.421   1.786 -0.6483 -0.0262 -0.7964
 3156SOL     OW21103   3.538   3.537   2.965  0.2251 -0.0402 -0.1491
 3156SOL    HW121104   3.476   3.466   2.950  0.3366 -0.2699  0.4758
 3156SOL    HW221105   3.514   3.566   3.053  0.8369 -0.0427  0.0222
 3157SOL     OW21106   3.305   0.588   6.559  0.3531 -0.0490 -0.3666
 3157SOL    HW121107   3.344   0.626   6.638 -0.0367 -2.8292  1.1922
 3157SOL    HW221108   3.372   0.525   6.530  1.2894  0.2438  1.1346
 3158SOL     OW21109   4.266   2.443  15.225  0.1987 -0.4257  0.3491
 3158SOL    HW121110   4.281   2.352  15.248  1.2701 -0.0069  1.3413
 3158SOL    HW221111   4.357   2.470  15.209  0.4601 -1.3958  0.2299
 3159SOL     OW21112   0.513   3.084   2.846 -0.5139  0.1933  0.1361
 3159SOL    HW121113   0.529   3.070   2.753  1.7160 -0.1660  0.5807
 3159SOL    HW221114   0.546   3.173   2.860  2.9271 -0.8422 -1.4841
 3160SOL     OW21115   1.300   3.707   6.289  0.1712 -0.4693 -0.5476
 3160SOL    HW121116   1.388   3.688   6.256  0.4637  1.2451 -0.7464
 3160SOL    HW221117   1.314   3.788   6.339 -0.6387 -1.0868  0.6905
 3161SOL     OW21118   4.517   2.011   2.585  0.3265 -0.1292 -0.1787
 3161SOL    HW121119   4.434   1.968   2.605  0.6316 -0.1691  1.0022
 3161SOL    HW221120   4.540   2.046   2.671 -0.8507  0.3933 -0.0762
 3162SOL     OW21121   0.988   3.219   6.387  0.1519  0.1237 -0.4949
 3162SOL    HW121122   0.965   3.136   6.429 -1.3491  1.7064  1.8111
 3162SOL    HW221123   1.063   3.196   6.333 -0.0425 -0.7308 -0.3985
 3163SOL     OW21124   0.618   1.007   5.074 -0.3144 -0.7213 -1.1084
 3163SOL    HW121125   0.656   0.926   5.107 -1.1517 -0.6539  0.0169
 3163SOL    HW221126   0.700   1.057   5.069  0.0634 -1.1651  0.5689
 3164SOL     OW21127   3.309   0.295   4.062 -0.0981 -0.0249 -0.0739
 3164SOL    HW121128   3.335   0.317   4.151 -2.3205 -0.0845  0.5877
 3164SOL    HW221129   3.239   0.359   4.052  2.4883  2.6565 -1.2816
 3165SOL     OW21130   1.903   4.240  14.713 -0.7554 -0.0413 -0.1707
 3165SOL    HW121131   1.960   4.268  14.641 -2.3595 -0.6937 -1.7142
 3165SOL    HW221132   1.871   4.170  14.656 -0.4962 -1.4348  1.4119
 3166SOL     OW21133   0.068   2.635  13.940 -0.2617 -0.7343  0.1394
 3166SOL    HW121134   0.134   2.616  13.873 -0.8338  0.7883 -0.8556
 3166SOL    HW221135   0.001   2.577  13.906 -0.0284  0.4455 -2.2967
 3167SOL     OW21136   4.175   2.220   3.346  0.1132 -0.3847 -0.1022
 3167SOL    HW121137   4.123   2.140   3.335  0.8996 -1.0902  1.4347
 3167SOL    HW221138   4.157   2.266   3.264  0.6214 -1.4272 -0.7993
 3168SOL     OW21139   2.291   3.468   7.974 -0.0447  0.1221  0.5011
 3168SOL    HW121140   2.351   3.430   7.910 -0.7107  2.1592 -1.3344
 3168SOL    HW221141   2.239   3.393   8.003  0.8267 -1.5564 -2.2615
 3169SOL     OW21142   4.085   4.380  16.539  0.0437 -0.1536 -0.3729
 3169SOL    HW121143   4.134   4.314  16.491 -0.9964 -2.3352  1.5838
 3169SOL    HW221144   4.012   4.328  16.572  0.3637  0.5623  1.4749
 3170SOL     OW21145   4.032   2.049  14.137 -0.5928  0.4877 -0.1570
 3170SOL    HW121146   4.055   2.007  14.053 -1.6722  1.7153 -1.0622
 3170SOL    HW221147   4.038   2.142  14.117 -0.4692  0.9436  2.0094
 3171SOL     OW21148   2.709   0.825   1.510 -0.2877 -0.2464  0.1276
 3171SOL    HW121149   2.629   0.868   1.540 -1.3782 -1.3810 -1.2088
 3171SOL    HW221150   2.723   0.769   1.587  1.3619 -0.0292 -0.0186
 3172SOL     OW21151   0.379   0.940  14.660  0.5221 -0.0724 -0.3701
 3172SOL    HW121152   0.382   0.884  14.737 -1.9258  1.6545  0.9830
 3172SOL    HW221153   0.435   0.886  14.603  0.1402 -0.5655 -0.2789
 3173SOL     OW21154   2.544   1.283   3.120  0.3031 -0.0627 -0.4193
 3173SOL    HW121155   2.624   1.302   3.072  0.3917  3.6810  1.2224
 3173SOL    HW221156   2.501   1.264   3.036 -1.1412 -0.8174  0.5019
 3174SOL     OW21157   2.500   2.141  12.031  0.4287  0.3144  0.2648
 3174SOL    HW121158   2.466   2.229  12.016  0.0263  0.2585  0.8872
 3174SOL    HW221159   2.463   2.110  12.113  1.2938 -0.2616  0.4348
 3175SOL     OW21160   1.045   4.558   2.279 -0.4068  0.4742 -0.3558
 3175SOL    HW121161   1.097   4.546   2.358  1.1281  0.3215 -1.3783
 3175SOL    HW221162   1.016   4.467   2.269  1.1290 -0.1907  1.4327
 3176SOL     OW21163   4.230   3.878   8.070  0.0069  0.5287  0.1449
 3176SOL    HW121164   4.242   3.813   8.139  0.8790  0.2868 -0.2393
 3176SOL    HW221165   4.312   3.875   8.022 -0.1147 -2.3660  0.1358
 3177SOL     OW21166   2.264   4.695   2.529 -0.6780  0.4201 -0.3717
 3177SOL    HW121167   2.327   4.624   2.517 -2.1048 -0.6337 -1.6493
 3177SOL    HW221168   2.301   0.019   2.594 -3.4691 -0.3789  1.9468
 3178SOL     OW21169   1.908   4.274   9.702  0.2734  0.4291 -0.0656
 3178SOL    HW121170   1.998   4.280   9.733  0.7891 -0.9142 -1.3065
 3178SOL    HW221171   1.909   4.326   9.622  0.9936 -0.2666 -0.5134
 3179SOL     OW21172   0.237   1.734  16.824 -0.2795 -0.1258  0.0932
 3179SOL    HW121173   0.190   1.687  16.892  0.0637 -1.1906 -0.4037
 3179SOL    HW221174   0.309   1.749  16.885 -0.9198 -1.5502  1.2010
 3180SOL     OW21175   3.698   1.710   3.679 -0.0114  0.2998 -0.8689
 3180SOL    HW121176   3.758   1.782   3.660 -2.3266  2.5050  0.1588
 3180SOL    HW221177   3.740   1.633   3.642  1.7072  1.3001 -0.9951
 3181SOL     OW21178   2.769   1.459   1.431 -0.1901  0.0244  0.1615
 3181SOL    HW121179   2.728   1.376   1.407 -1.0287  1.7418 -4.3245
 3181SOL    HW221180   2.710   1.521   1.389  1.6396  0.7370 -1.3898
 3182SOL     OW21181   0.890   2.704   8.191 -0.5094 -0.3948  0.2272
 3182SOL    HW121182   0.797   2.707   8.166  0.1667 -2.3385 -2.4247
 3182SOL    HW221183   0.890   2.728   8.284 -0.2163 -0.8673  0.3506
 3183SOL     OW21184   2.025   1.010  15.357 -0.0811  0.1017 -0.3965
 3183SOL    HW121185   2.082   1.031  15.430  0.5839  0.5323 -1.0354
 3183SOL    HW221186   2.045   1.077  15.292  0.4340  2.3214  2.0668
 3184SOL     OW21187   1.464   3.336   0.445 -0.4461  0.0345  1.1835
 3184SOL    HW121188   1.374   3.350   0.418 -0.0672 -0.6477 -0.4088
 3184SOL    HW221189   1.509   3.386   0.377 -1.3807  0.9960  1.2728
 3185SOL     OW21190   1.339   2.885   4.587  0.2517 -0.0167  0.5136
 3185SOL    HW121191   1.384   2.827   4.648  1.8163  0.8611  0.2180
 3185SOL    HW221192   1.362   2.972   4.621 -0.2308  1.1441 -2.1373
 3186SOL     OW21193   0.648   4.688  15.289 -0.5864 -0.4913 -0.7101
 3186SOL    HW121194   0.643   0.046  15.269  0.6568 -0.0684  1.0069
 3186SOL    HW221195   0.739   4.682  15.261  0.1567  1.3750  1.3253
 3187SOL     OW21196   2.082   1.584   3.039 -0.3563 -0.0664 -0.5447
 3187SOL    HW121197   2.094   1.495   3.007 -0.6469  0.2122 -1.4385
 3187SOL    HW221198   2.111   1.630   2.960  0.5472 -0.2839 -0.3415
 3188SOL     OW21199   4.157   0.518  17.600  0.2349 -0.2033  0.6476
 3188SOL    HW121200   4.143   0.601  17.554 -0.9805  0.0507  1.4761
 3188SOL    HW221201   4.113   0.534  17.683  0.6130 -0.5300  0.9147
 3189SOL     OW21202   3.663   2.484   4.796 -0.3691  0.2334 -0.0974
 3189SOL    HW121203   3.749   2.516   4.770 -0.2408  1.1062  1.3707
 3189SOL    HW221204   3.703   2.404   4.832  2.4711  2.0412  0.7618
 3190SOL     OW21205   2.666   2.586   8.394 -0.4373  0.4162  0.1806
 3190SOL    HW121206   2.690   2.554   8.481  1.7563  1.4836 -0.0428
 3190SOL    HW221207   2.708   2.532   8.328 -2.8279  0.8985 -1.7158
 3191SOL     OW21208   2.020   2.785  12.623  0.0710 -0.6566  0.2026
 3191SOL    HW121209   2.007   2.714  12.687 -1.2739 -0.9652 -0.3973
 3191SOL    HW221210   1.982   2.865  12.660 -0.1387 -1.1915  1.1406
 3192SOL     OW21211   4.574   3.609   2.889 -0.2308 -0.1547  0.1072
 3192SOL    HW121212   4.527   3.571   2.815 -0.8918  0.2421  0.3202
 3192SOL    HW221213   4.628   3.537   2.922  1.4937  0.1417 -2.0408
 3193SOL     OW21214   2.539   3.400  15.624  0.4264 -0.7830  0.0949
 3193SOL    HW121215   2.580   3.345  15.691  0.4534 -0.0460  0.6788
 3193SOL    HW221216   2.585   3.483  15.620  0.7438 -0.9605  0.0129
 3194SOL     OW21217   3.834   3.266   9.682 -0.7892  0.7183 -0.0638
 3194SOL    HW121218   3.756   3.213   9.694 -0.5438 -0.1408 -2.1820
 3194SOL    HW221219   3.858   3.271   9.774  1.2848  1.4929 -0.6403
 3195SOL     OW21220   4.104   2.299   2.829  0.0661 -0.2694 -0.0382
 3195SOL    HW121221   4.015   2.333   2.815 -0.4447 -1.3154  0.6561
 3195SOL    HW221222   4.088   2.205   2.821 -0.9741 -0.1443  0.5144
 3196SOL     OW21223   4.262   1.350   0.543  0.2174 -0.3685 -0.1319
 3196SOL    HW121224   4.322   1.417   0.512 -1.1178  1.7079  1.8015
 3196SOL    HW221225   4.194   1.353   0.477  1.0296  4.1439 -0.7439
 3197SOL     OW21226   0.566   2.885   6.692  0.2935 -0.6045 -0.2955
 3197SOL    HW121227   0.503   2.907   6.624  0.1112  0.0348  0.0843
 3197SOL    HW221228   0.612   2.825   6.634 -2.9072 -1.9255 -1.4733
 3198SOL     OW21229   1.315   3.956  16.931  0.5064  0.2750  0.0291
 3198SOL    HW121230   1.320   3.904  16.851 -0.7973  1.1295 -0.5943
 3198SOL    HW221231   1.220   3.952  16.940  0.4430  2.1363  0.0938
 3199SOL     OW21232   2.319   0.332  15.704 -0.4260  0.7186  0.0128
 3199SOL    HW121233   2.276   0.344  15.619  0.8240  0.4180 -0.6460
 3199SOL    HW221234   2.411   0.321  15.682 -0.2774  2.0610 -0.0391
 3200SOL     OW21235   1.323   0.134   7.739 -0.2495 -0.3012  0.2942
 3200SOL    HW121236   1.233   0.103   7.750  0.1771 -1.5281  0.2636
 3200SOL    HW221237   1.318   0.226   7.765  0.0466  0.2956 -1.8104
 3201SOL     OW21238   2.115   4.073   3.667  1.1310 -0.3295 -0.2891
 3201SOL    HW121239   2.067   4.069   3.585  0.1144 -0.2279  0.3034
 3201SOL    HW221240   2.179   4.140   3.640  2.0480 -0.5547  1.2841
 3202SOL     OW21241   1.731   1.549   6.310  0.1870  0.4252  0.0556
 3202SOL    HW121242   1.710   1.465   6.270 -3.2420  1.4102 -0.1681
 3202SOL    HW221243   1.820   1.517   6.325 -0.7761 -1.9293  0.7056
 3203SOL     OW21244   4.096   0.738   2.653 -0.7394 -0.3297 -0.3005
 3203SOL    HW121245   4.108   0.704   2.564 -1.0726  0.1847 -0.5468
 3203SOL    HW221246   4.118   0.659   2.701 -0.9272  0.0318  0.3754
 3204SOL     OW21247   1.342   0.029  14.244  0.6988  0.6459  0.2371
 3204SOL    HW121248   1.398   0.069  14.178 -2.3121 -0.7003 -3.1171
 3204SOL    HW221249   1.304   4.687  14.205  0.0061 -0.5246  3.1961
 3205SOL     OW21250   1.002   0.371  16.380 -0.7078  0.3996 -0.0271
 3205SOL    HW121251   0.924   0.317  16.374  0.0699 -0.9137  1.8908
 3205SOL    HW221252   0.976   0.460  16.353  1.4798  0.4803 -1.8896
 3206SOL     OW21253   3.968   1.396  12.880 -0.5998  0.2158  0.5629
 3206SOL    HW121254   3.931   1.425  12.797  1.3118 -1.8822 -1.0290
 3206SOL    HW221255   4.021   1.322  12.852  0.9792  1.4022  0.4155
 3207SOL     OW21256   3.369   2.664   3.068 -0.3116  0.9873 -0.3525
 3207SOL    HW121257   3.452   2.711   3.078  0.8153 -0.9664 -0.5069
 3207SOL    HW221258   3.399   2.577   3.095 -0.4971  0.0714 -3.1092
 3208SOL     OW21259   0.074   3.971   0.763  0.0525 -0.3334 -0.4113
 3208SOL    HW121260   0.133   4.043   0.741 -0.4844 -0.2217 -1.4929
 3208SOL    HW221261   0.013   4.011   0.826  1.0495  0.6767 -0.0892
 3209SOL     OW21262   0.921   3.296   7.110 -0.3664 -0.3137  0.1166
 3209SOL    HW121263   0.956   3.349   7.181 -1.0190  1.0017 -0.5587
 3209SOL    HW221264   0.881   3.369   7.064  0.1633  0.1076  0.3210
 3210SOL     OW21265   1.166   4.709   6.554 -0.0530  0.1785  0.1042
 3210SOL    HW121266   1.187   0.061   6.586  0.1080  0.0429  0.3693
 3210SOL    HW221267   1.075   4.707   6.583 -0.0096  2.3774  0.4052
 3211SOL     OW21268   2.369   1.013   6.666  0.4109  0.3314 -0.0819
 3211SOL    HW121269   2.367   0.923   6.632 -0.1484  0.7230 -1.0524
 3211SOL    HW221270   2.463   1.025   6.659  0.3589  0.5422 -0.3974
 3212SOL     OW21271   0.604   3.737   3.925  0.0217 -0.4795 -0.3786
 3212SOL    HW121272   0.668   3.669   3.942 -2.5461 -2.4617  1.2510
 3212SOL    HW221273   0.543   3.685   3.872 -0.4110  0.1906 -0.5472
 3213SOL     OW21274   4.134   2.907   2.269  0.2897 -0.1141 -0.0430
 3213SOL    HW121275   4.041   2.904   2.291  0.5895  0.1407  1.2639
 3213SOL    HW221276   4.168   2.928   2.356  0.3235 -0.0411 -0.0736
 3214SOL     OW21277   2.600   2.182   3.948 -0.2514  0.2369  0.6851
 3214SOL    HW121278   2.595   2.237   3.871  1.4543 -1.9619 -0.9984
 3214SOL    HW221279   2.532   2.217   4.005 -1.4530  0.3579 -0.8346
 3215SOL     OW21280   4.492   0.792   5.179 -0.1352 -0.2313 -0.3010
 3215SOL    HW121281   4.481   0.706   5.139  0.8788 -0.9640  1.0170
 3215SOL    HW221282   4.584   0.780   5.205 -1.1264  0.1518  3.3007
 3216SOL     OW21283   3.141   0.760   8.103  0.3232 -0.6107  0.1856
 3216SOL    HW121284   3.125   0.853   8.123 -0.2982 -0.7469  0.3340
 3216SOL    HW221285   3.214   0.741   8.162  0.0041 -1.2522  0.3725
 3217SOL     OW21286   4.589   2.855  14.517  0.1312  0.0159 -0.7624
 3217SOL    HW121287   4.678   2.873  14.546 -1.2336  3.6405  1.1843
 3217SOL    HW221288   4.549   2.912  14.583  2.5442 -0.9126  1.5256
 3218SOL     OW21289   3.613   2.559  16.442  0.0065 -0.2627 -0.4078
 3218SOL    HW121290   3.557   2.592  16.512  2.1970 -0.1017  1.2885
 3218SOL    HW221291   3.661   2.494  16.493 -0.0560  0.3948  0.4897
 3219SOL     OW21292   3.622   4.644   0.231  0.2385 -0.0250  0.8141
 3219SOL    HW121293   3.713   4.634   0.204  0.0901  0.0013  0.2998
 3219SOL    HW221294   3.623   0.002   0.254  2.0487  0.0510  0.4073
 3220SOL     OW21295   0.599   3.742   3.564 -0.2124  0.4454  0.9591
 3220SOL    HW121296   0.596   3.823   3.515 -1.3104 -0.7823 -0.9976
 3220SOL    HW221297   0.674   3.753   3.622  1.0334  0.5172 -0.6704
 3221SOL     OW21298   1.962   1.923  17.247  0.4179  0.1050  0.1477
 3221SOL    HW121299   1.965   1.827  17.255  0.4311  0.3653  3.4143
 3221SOL    HW221300   1.868   1.931  17.233  0.7048 -1.1317 -2.3627
 3222SOL     OW21301   4.689   2.895   0.669 -0.1055  0.7942  0.0593
 3222SOL    HW121302   4.721   2.857   0.587  1.2184  0.9385  0.5002
 3222SOL    HW221303   4.685   2.987   0.643  0.9719  1.0398  0.7737
 3223SOL     OW21304   4.638   1.983   7.792 -0.2768  0.8374  0.4677
 3223SOL    HW121305   4.545   2.003   7.784 -0.8409 -1.5371  1.1217
 3223SOL    HW221306   4.667   1.957   7.705 -0.1359  3.1364 -0.1684
 3224SOL     OW21307   4.421   0.556   7.799 -0.1380  0.1486 -0.3883
 3224SOL    HW121308   4.365   0.598   7.865 -0.7936  0.2080 -0.9860
 3224SOL    HW221309   4.489   0.527   7.860  0.1154  0.0832 -0.7073
 3225SOL     OW21310   1.169   4.022   5.239 -0.2818  1.2841 -0.4372
 3225SOL    HW121311   1.143   4.085   5.172 -1.5014  1.2315 -0.0200
 3225SOL    HW221312   1.115   3.944   5.226  1.2336 -0.1783  1.9779
 3226SOL     OW21313   2.823   3.590  17.685 -0.4783  0.2112 -0.9271
 3226SOL    HW121314   2.781   3.657  17.739 -0.7269  0.0780 -0.9582
 3226SOL    HW221315   2.797   3.630  17.602  1.0916  0.4620 -1.2992
 3227SOL     OW21316   0.086   1.477   9.056 -0.9047 -0.4427 -0.5925
 3227SOL    HW121317   0.009   1.524   9.023 -1.6381 -1.0070  0.3285
 3227SOL    HW221318   0.086   1.488   9.151 -0.8266 -1.2261 -0.5012
 3228SOL     OW21319   2.399   1.745  16.424 -0.4163  0.2416  0.1312
 3228SOL    HW121320   2.463   1.800  16.380  1.0478  0.2335  2.2508
 3228SOL    HW221321   2.313   1.769  16.389  0.6576  0.8148 -2.1497
 3229SOL     OW21322   4.225   1.517   6.908 -0.6381  0.3762  0.8686
 3229SOL    HW121323   4.279   1.446   6.941  0.5882  0.8080 -0.1898
 3229SOL    HW221324   4.137   1.489   6.933  0.1043  0.9201  4.1510
 3230SOL     OW21325   0.575   3.797   6.610  0.0794  0.0290  0.0131
 3230SOL    HW121326   0.613   3.854   6.543 -0.9269 -0.5616 -1.0627
 3230SOL    HW221327   0.516   3.741   6.559 -2.7535  1.8807  1.2273
 3231SOL     OW21328   1.693   0.256   8.794 -0.3043 -0.0327  0.6495
 3231SOL    HW121329   1.631   0.256   8.721 -1.6248  0.3267  1.7723
 3231SOL    HW221330   1.645   0.205   8.860 -0.6770  0.3797  0.7006
 3232SOL     OW21331   4.105   4.452   4.735 -0.4828  0.1421 -0.1618
 3232SOL    HW121332   4.163   4.509   4.685 -1.6795  0.3916 -1.2809
 3232SOL    HW221333   4.080   4.513   4.804 -1.2168 -0.6645  0.2906
 3233SOL     OW21334   0.244   3.788   5.940  0.2316  0.1631  0.1031
 3233SOL    HW121335   0.153   3.813   5.955  0.3905  1.0237 -0.4220
 3233SOL    HW221336   0.227   3.719   5.875 -1.0870 -0.6299  1.2773
 3234SOL     OW21337   4.598   4.269   3.649  0.1965 -0.3127  0.1204
 3234SOL    HW121338   4.604   4.279   3.744  1.4490 -1.9784  0.2158
 3234SOL    HW221339   4.526   4.207   3.638 -1.8120  1.8684  0.8603
 3235SOL     OW21340   4.642   3.537   4.719 -0.2622 -0.6265 -0.0370
 3235SOL    HW121341   4.568   3.480   4.696 -1.2680 -0.0192  1.6874
 3235SOL    HW221342   4.716   3.484   4.690 -0.2013 -1.2158  1.1881
 3236SOL     OW21343   0.078   4.454   8.981  0.4679 -0.3817  0.1204
 3236SOL    HW121344   0.096   4.370   9.023  0.8083 -1.2819 -1.8394
 3236SOL    HW221345   0.135   4.452   8.904 -0.9295  0.0968 -0.9187
 3237SOL     OW21346   2.429   3.529   1.974  0.0411 -0.5275 -0.1208
 3237SOL    HW121347   2.350   3.582   1.987 -0.4625 -1.3724  0.2120
 3237SOL    HW221348   2.497   3.588   2.008 -3.4440  2.7478  1.1678
 3238SOL     OW21349   2.237   0.721   8.794 -0.4122 -0.8674 -0.4640
 3238SOL    HW121350   2.314   0.753   8.746 -1.5310  0.4506 -1.4108
 3238SOL    HW221351   2.168   0.776   8.755  1.2048 -0.0328 -2.1833
 3239SOL     OW21352   3.208   3.345   9.481 -0.4773 -0.6215 -0.3279
 3239SOL    HW121353   3.214   3.264   9.532  0.8002 -0.7414 -0.6441
 3239SOL    HW221354   3.135   3.385   9.527  1.0309  0.8309  0.7891
 3240SOL     OW21355   3.420   1.929   9.968 -0.5333 -0.0077  0.0983
 3240SOL    HW121356   3.367   1.910  10.045 -0.8804  0.5175 -0.0112
 3240SOL    HW221357   3.495   1.878   9.997 -0.7073  0.2535  1.0041
 3241SOL     OW21358   4.637   1.016   8.366 -0.2917 -0.6178 -0.3792
 3241SOL    HW121359   4.563   1.056   8.412 -0.3518 -0.6750 -0.4268
 3241SOL    HW221360   4.696   1.087   8.340 -0.4613 -0.2830  0.1426
 3242SOL     OW21361   3.975   3.095  10.639  0.2202 -0.2974 -0.1983
 3242SOL    HW121362   3.941   3.133  10.558 -0.0230  0.0852  0.0871
 3242SOL    HW221363   4.055   3.051  10.610  0.4111 -0.8602  1.2202
 3243SOL     OW21364   3.795   2.861   7.026 -0.3746 -0.0862  0.2585
 3243SOL    HW121365   3.760   2.948   7.010  2.0223  1.1518  1.8826
 3243SOL    HW221366   3.778   2.815   6.943 -3.3655  0.2008  0.7118
 3244SOL     OW21367   4.546   3.265  17.032 -0.0788 -0.7140 -0.4227
 3244SOL    HW121368   4.634   3.300  17.025 -0.7005  1.0809  0.6773
 3244SOL    HW221369   4.516   3.274  16.942 -0.7947  0.0925 -0.1073
 3245SOL     OW21370   2.584   2.276   3.222  0.4338 -0.0858  0.7017
 3245SOL    HW121371   2.491   2.290   3.238  0.5010  0.3664  0.6959
 3245SOL    HW221372   2.589   2.289   3.127 -0.1027  0.8106  0.7943
 3246SOL     OW21373   3.731   4.682   7.383 -0.5791  0.4308 -0.0265
 3246SOL    HW121374   3.800   0.004   7.416 -0.2816 -0.5544  1.0743
 3246SOL    HW221375   3.736   4.701   7.290  0.6812  0.7260  0.1023
 3247SOL     OW21376   1.329   3.144   1.643  0.4447 -0.0306  0.4480
 3247SOL    HW121377   1.359   3.169   1.556  4.3519 -0.3980  1.6873
 3247SOL    HW221378   1.259   3.209   1.644  0.5550  0.1310 -1.7884
 3248SOL     OW21379   1.876   3.287   2.257  0.6932 -0.0900  0.1574
 3248SOL    HW121380   1.932   3.332   2.320  0.8732 -0.6227  0.3791
 3248SOL    HW221381   1.835   3.365   2.220  0.0644  0.0770  1.2116
 3249SOL     OW21382   4.252   3.660   8.738  0.2145  0.2473  0.3641
 3249SOL    HW121383   4.281   3.577   8.776 -0.3432 -0.2014 -0.1893
 3249SOL    HW221384   4.204   3.634   8.659 -1.2793  0.9021  1.0682
 3250SOL     OW21385   3.285   1.333   6.477  0.4659 -0.1681  0.0554
 3250SOL    HW121386   3.285   1.250   6.429  1.2680  0.3332 -0.8242
 3250SOL    HW221387   3.201   1.313   6.519 -0.5044  1.2925 -1.2092
 3251SOL     OW21388   1.464   2.984   8.343  0.2888 -0.4169 -0.0859
 3251SOL    HW121389   1.416   2.931   8.279 -0.3730 -1.2367  1.0837
 3251SOL    HW221390   1.391   3.031   8.384  2.0427  1.4034  0.9477
 3252SOL     OW21391   0.784   0.470   5.047  0.4395  0.3007 -1.0406
 3252SOL    HW121392   0.818   0.501   5.130  0.6419 -1.6335 -0.3923
 3252SOL    HW221393   0.856   0.492   4.988  2.0450 -0.2585  0.7234
 3253SOL     OW21394   3.731   2.167  12.372  0.2191  0.0703  0.4597
 3253SOL    HW121395   3.751   2.076  12.392  0.1770 -0.2728 -1.1439
 3253SOL    HW221396   3.763   2.176  12.283  0.6241 -1.0819  0.5002
 3254SOL     OW21397   0.832   2.061   2.419 -0.4397  0.8249  0.7108
 3254SOL    HW121398   0.878   2.009   2.485 -1.2380 -0.8634 -0.0547
 3254SOL    HW221399   0.780   1.997   2.371  3.2928 -0.4946 -1.5071
 3255SOL     OW21400   2.208   0.635   5.988 -0.2470  0.3110 -0.2531
 3255SOL    HW121401   2.299   0.655   5.965 -0.1415 -0.3968 -0.4595
 3255SOL    HW221402   2.188   0.554   5.941 -0.9485  0.2663  0.1411
 3256SOL     OW21403   4.644   3.749  15.268  0.0161  0.5520  0.0953
 3256SOL    HW121404   4.645   3.657  15.242  0.5781  0.7431 -0.5649
 3256SOL    HW221405   4.601   3.742  15.353  2.6616  1.5546  1.5268
 3257SOL     OW21406   1.903   1.186   9.782  0.6392  0.3348 -0.7212
 3257SOL    HW121407   1.977   1.228   9.739  0.4515  1.4009  0.0028
 3257SOL    HW221408   1.939   1.196   9.871 -1.3093 -1.0275  0.2181
 3258SOL     OW21409   4.017   2.508  14.275  0.2650  0.3358 -0.6395
 3258SOL    HW121410   4.046   2.470  14.357  1.5947  2.7820  0.0134
 3258SOL    HW221411   4.058   2.445  14.215  0.7643  0.2075 -0.1636
 3259SOL     OW21412   0.265   1.109   9.783 -0.7597  0.3652  0.4583
 3259SOL    HW121413   0.192   1.152   9.739 -1.4368 -2.3619 -1.0494
 3259SOL    HW221414   0.217   1.048   9.839 -1.2701 -0.7918 -1.2641
 3260SOL     OW21415   2.531   3.767   4.665  0.7931  0.4504 -0.2157
 3260SOL    HW121416   2.541   3.672   4.662  1.4593  0.5239 -0.3509
 3260SOL    HW221417   2.529   3.785   4.759 -4.0022 -0.0525 -0.2530
 3261SOL     OW21418   3.283   2.468   8.420  0.6139  0.4826 -0.2778
 3261SOL    HW121419   3.304   2.443   8.330  0.8490  0.2846 -0.1674
 3261SOL    HW221420   3.359   2.428   8.463  0.4649  0.8758  0.3526
 3262SOL     OW21421   0.606   1.490   1.815 -0.1692  0.0255 -0.3823
 3262SOL    HW121422   0.567   1.412   1.773 -2.8987  1.1973 -0.0521
 3262SOL    HW221423   0.692   1.456   1.839  0.6696  1.6101 -1.1159
 3263SOL     OW21424   1.788   2.034  11.755  0.2858 -0.0214 -0.4565
 3263SOL    HW121425   1.853   1.983  11.803  0.8025 -0.0408 -1.1587
 3263SOL    HW221426   1.764   2.098  11.822  2.9864  0.7096 -0.1815
 3264SOL     OW21427   2.907   0.423   2.609 -0.3402 -0.7012 -0.2680
 3264SOL    HW121428   2.963   0.441   2.684  0.9248  0.1081 -1.4042
 3264SOL    HW221429   2.956   0.360   2.556  0.4564 -1.7043  1.6646
 3265SOL     OW21430   0.648   3.049   3.416 -0.0052  0.3110 -0.3756
 3265SOL    HW121431   0.617   3.064   3.326  1.0581 -0.3123 -0.8476
 3265SOL    HW221432   0.684   2.961   3.410  1.4157  0.8106  0.7390
 3266SOL     OW21433   3.592   1.175   3.877  0.5048 -0.8904  0.1889
 3266SOL    HW121434   3.556   1.252   3.922  4.2773  1.4736 -0.7958
 3266SOL    HW221435   3.585   1.101   3.937 -1.1295 -0.7315  0.1758
 3267SOL     OW21436   0.965   1.351   9.881 -0.0941 -0.1436  0.7243
 3267SOL    HW121437   0.978   1.439   9.845  2.4021 -0.7876  0.0815
 3267SOL    HW221438   1.021   1.348   9.959  1.2464 -0.5791 -0.2679
 3268SOL     OW21439   0.097   1.896  11.386  0.5699 -0.2642  0.3815
 3268SOL    HW121440   0.038   1.952  11.336  0.6528 -0.7627 -0.2811
 3268SOL    HW221441   0.164   1.877  11.321  1.2136 -0.7177  1.1781
 3269SOL     OW21442   2.613   2.274   6.248  0.5704  0.3755 -0.4447
 3269SOL    HW121443   2.596   2.278   6.342 -1.5846 -0.8909 -0.7845
 3269SOL    HW221444   2.567   2.193   6.226  1.1675 -0.1498  0.2567
 3270SOL     OW21445   1.545   0.519   6.149  0.5820  0.2168  0.1847
 3270SOL    HW121446   1.588   0.604   6.158  0.0606  0.5411 -0.3686
 3270SOL    HW221447   1.474   0.537   6.088 -0.2305  1.3434  1.4632
 3271SOL     OW21448   2.290   0.127   8.739 -0.3091  0.2945  0.2870
 3271SOL    HW121449   2.212   0.118   8.683  1.0766 -1.0632 -1.4007
 3271SOL    HW221450   2.304   0.220   8.724 -1.0948  0.0370 -2.0985
 3272SOL     OW21451   4.282   1.793  14.640  0.6535 -0.5743  0.1943
 3272SOL    HW121452   4.294   1.876  14.686  1.7147  0.0035 -1.1075
 3272SOL    HW221453   4.258   1.733  14.710 -3.1133  1.5615  0.7025
 3273SOL     OW21454   1.578   3.471   3.431 -0.3211  0.1696 -0.0475
 3273SOL    HW121455   1.627   3.474   3.513 -0.1358  0.0797 -0.1550
 3273SOL    HW221456   1.611   3.387   3.399  0.3701  0.5512 -0.3325
 3274SOL     OW21457   0.695   3.753   2.642  0.1278  0.1534 -0.5343
 3274SOL    HW121458   0.627   3.779   2.580  0.7058  1.9593 -0.3989
 3274SOL    HW221459   0.739   3.836   2.660 -1.7900  1.4168 -1.7282
 3275SOL     OW21460   0.430   0.417   5.186 -0.4829 -0.0902 -0.0034
 3275SOL    HW121461   0.477   0.499   5.174 -0.6937 -0.1867 -1.4637
 3275SOL    HW221462   0.458   0.401   5.276  0.1627 -2.2697 -0.5760
 3276SOL     OW21463   4.732   1.333   4.239 -0.2484  0.2701  0.4936
 3276SOL    HW121464   0.064   1.366   4.299 -0.3023 -2.1194  1.8699
 3276SOL    HW221465   0.044   1.328   4.157 -0.2449 -2.0591  0.6389
 3277SOL     OW21466   2.954   4.470  11.764 -0.3204  0.4893  0.0629
 3277SOL    HW121467   2.998   4.392  11.729  0.5973  0.4760  1.2588
 3277SOL    HW221468   2.929   4.525  11.689 -2.2091  0.1558  0.4322
 3278SOL     OW21469   4.096   0.361  11.496  0.5218 -0.2584  0.4749
 3278SOL    HW121470   4.041   0.427  11.538  0.3747  1.0223 -1.7583
 3278SOL    HW221471   4.164   0.417  11.457 -0.5176  2.0850  2.0198
 3279SOL     OW21472   4.193   2.041   6.298 -0.2541  0.1286  0.3336
 3279SOL    HW121473   4.258   2.071   6.362  0.9079 -1.0226 -0.3028
 3279SOL    HW221474   4.256   2.003   6.237 -0.3861  0.2530  0.1216
 3280SOL     OW21475   1.155   1.008   2.855  0.4011  0.1335  0.4401
 3280SOL    HW121476   1.135   1.023   2.948  0.1162 -2.6158  0.8442
 3280SOL    HW221477   1.235   1.061   2.852 -0.3683  1.1895 -1.2327
 3281SOL     OW21478   3.225   3.257   5.057 -0.3334 -0.4613  0.1561
 3281SOL    HW121479   3.243   3.335   5.006 -0.1473 -1.3913 -1.2066
 3281SOL    HW221480   3.134   3.274   5.083 -0.0164  0.3151  0.7482
 3282SOL     OW21481   3.832   4.475   2.120 -0.3504  0.5734 -0.4802
 3282SOL    HW121482   3.754   4.487   2.174 -0.8039  0.6796 -1.1492
 3282SOL    HW221483   3.880   4.397   2.149  0.4081  0.7908 -1.1751
 3283SOL     OW21484   1.853   3.720   3.512  0.1282  0.3451  0.0258
 3283SOL    HW121485   1.829   3.630   3.533  1.1915  0.3066  1.0304
 3283SOL    HW221486   1.809   3.768   3.583 -1.0044  1.5884 -1.5028
 3284SOL     OW21487   1.171   1.934   5.168  0.3431 -0.5630  0.5770
 3284SOL    HW121488   1.165   1.838   5.166 -0.6209 -0.4840 -0.3722
 3284SOL    HW221489   1.197   1.945   5.077 -1.7416  2.1166  0.3328
 3285SOL     OW21490   4.407   1.052   6.653  0.3915 -0.4137 -0.3578
 3285SOL    HW121491   4.311   1.046   6.650  0.5220 -3.2880  1.2234
 3285SOL    HW221492   4.432   0.972   6.698  1.6861  0.2485  0.1008
 3286SOL     OW21493   1.581   0.270  17.661  0.3633 -0.2659 -0.0701
 3286SOL    HW121494   1.624   0.184  17.663  0.0995 -0.3958 -0.0451
 3286SOL    HW221495   1.654   0.331  17.672 -0.7613  1.0501  0.0849
 3287SOL     OW21496   2.792   4.584  15.189  0.0017  0.0510 -0.4542
 3287SOL    HW121497   2.745   4.664  15.210  0.3076 -0.4670  2.1658
 3287SOL    HW221498   2.731   4.544  15.126 -1.5035 -0.4826  1.3349
 3288SOL     OW21499   2.055   3.436   3.653 -0.2715  0.1822  0.3618
 3288SOL    HW121500   2.059   3.369   3.722 -0.1133  1.3001  1.4240
 3288SOL    HW221501   1.981   3.405   3.600  1.1496 -0.3405 -1.3201
 3289SOL     OW21502   3.896   1.750   5.566  0.4801  0.3168 -0.2623
 3289SOL    HW121503   3.827   1.814   5.581 -0.0419 -0.3578  0.2344
 3289SOL    HW221504   3.843   1.672   5.552  0.0702  0.7967 -1.3681
 3290SOL     OW21505   4.009   4.654   4.951  0.3866 -0.6050 -0.6057
 3290SOL    HW121506   3.915   4.675   4.948  0.5019 -0.4051 -3.1192
 3290SOL    HW221507   4.006   4.572   5.001  1.5733  0.0332  0.4717
 3291SOL     OW21508   2.955   0.612  16.829  0.6953 -0.2075 -0.1242
 3291SOL    HW121509   2.932   0.519  16.830 -2.9185  0.6828  0.0879
 3291SOL    HW221510   2.917   0.646  16.748 -2.1335 -0.5900  1.0334
 3292SOL     OW21511   3.249   1.192  12.107 -0.1980 -0.6072 -0.0504
 3292SOL    HW121512   3.204   1.245  12.173  1.2705  1.0302 -0.3412
 3292SOL    HW221513   3.253   1.111  12.158 -0.7557 -0.1109  0.7744
 3293SOL     OW21514   3.734   0.696   5.286  0.6370 -0.3150 -0.1234
 3293SOL    HW121515   3.713   0.750   5.209  0.1390 -0.8148 -0.3333
 3293SOL    HW221516   3.829   0.686   5.276  0.6081  0.7885 -1.6186
 3294SOL     OW21517   2.975   2.368   4.142 -0.2310  0.2335  0.9095
 3294SOL    HW121518   2.893   2.405   4.111  0.4298  1.2755  0.4466
 3294SOL    HW221519   2.938   2.283   4.167  2.0552 -1.4514 -1.4308
 3295SOL     OW21520   3.295   2.882   2.907 -0.1768 -0.2634 -0.8134
 3295SOL    HW121521   3.311   2.807   2.963  3.0322 -0.1174 -1.5743
 3295SOL    HW221522   3.378   2.906   2.866 -0.4445  1.8090 -0.1458
 3296SOL     OW21523   3.745   2.866   3.472 -0.2440 -0.1772 -0.4985
 3296SOL    HW121524   3.798   2.805   3.421 -1.0267  0.8743 -2.5893
 3296SOL    HW221525   3.781   2.853   3.560  3.7895  0.4172 -2.1016
 3297SOL     OW21526   0.662   1.439   0.683 -1.0677  0.1355  0.4326
 3297SOL    HW121527   0.573   1.460   0.712  0.6333  4.5934  2.3549
 3297SOL    HW221528   0.717   1.490   0.742  2.9346  0.8057 -3.9134
 3298SOL     OW21529   2.394   0.358   5.278  0.4312 -0.5860 -0.4543
 3298SOL    HW121530   2.322   0.295   5.274 -1.4108  1.5152 -0.1694
 3298SOL    HW221531   2.343   0.439   5.281  0.5828 -0.5332  0.5208
 3299SOL     OW21532   1.748   0.847   7.445  0.0040 -0.7977 -0.1111
 3299SOL    HW121533   1.658   0.863   7.418  0.4691  0.5963 -0.8190
 3299SOL    HW221534   1.776   0.775   7.389 -0.9912 -1.9713  0.9075
 3300SOL     OW21535   0.300   0.292   9.207  0.2145  0.2883  0.3727
 3300SOL    HW121536   0.347   0.356   9.260 -0.3606 -0.3025  1.5816
 3300SOL    HW221537   0.355   0.278   9.130 -0.5475 -0.4921 -0.0337
 3301SOL     OW21538   2.279   3.964   0.846 -0.4911 -0.3934  0.3466
 3301SOL    HW121539   2.355   3.909   0.831 -1.1161 -1.0033 -0.6574
 3301SOL    HW221540   2.314   4.036   0.794  0.5220  0.0722  1.6988
 3302SOL     OW21541   0.468   4.064   6.470 -0.4964 -0.2406  0.1620
 3302SOL    HW121542   0.436   4.054   6.380 -2.7895  0.2937  0.9023
 3302SOL    HW221543   0.388   4.047   6.520  0.5161  1.8334  2.4726
 3303SOL     OW21544   4.548   2.049   6.078  0.1405  0.2965 -0.3550
 3303SOL    HW121545   4.461   2.011   6.065  0.8647 -1.9122  1.2388
 3303SOL    HW221546   4.600   1.990   6.023  1.5186 -1.1299  2.4822
 3304SOL     OW21547   3.158   0.964   9.708 -0.4741 -0.4353 -0.2482
 3304SOL    HW121548   3.099   1.034   9.682  0.1683 -0.1598 -0.9578
 3304SOL    HW221549   3.109   0.881   9.702 -0.9489 -0.1261 -0.6148
 3305SOL     OW21550   3.245   4.226   8.211 -0.1232  0.3403 -0.2128
 3305SOL    HW121551   3.201   4.293   8.158  2.0236  0.4659 -1.8481
 3305SOL    HW221552   3.339   4.236   8.194 -0.5193  1.9407 -1.4827
 3306SOL     OW21553   4.437   1.672   6.751 -0.2870  0.1071  0.5061
 3306SOL    HW121554   4.400   1.593   6.790  1.2503  0.3079  2.3749
 3306SOL    HW221555   4.530   1.655   6.766  0.3207  0.1145 -3.1738
 3307SOL     OW21556   3.598   0.866   1.316 -0.4623 -0.1299  0.0856
 3307SOL    HW121557   3.554   0.782   1.326 -2.1417  0.6947 -0.3749
 3307SOL    HW221558   3.633   0.896   1.400 -2.5640  2.0295  0.2111
 3308SOL     OW21559   4.642   1.886  17.038  0.4830 -0.1464  0.7771
 3308SOL    HW121560   4.645   1.829  16.961  1.1239  0.3229  0.4576
 3308SOL    HW221561   4.557   1.861  17.075 -0.3163 -0.0430 -0.9979
 3309SOL     OW21562   0.231   1.230   1.913  0.0275  0.0169 -0.0719
 3309SOL    HW121563   0.233   1.311   1.863  1.1837  1.6883  2.7294
 3309SOL    HW221564   0.282   1.262   1.987 -1.5447  0.9036  0.6185
 3310SOL     OW21565   0.684   3.046   1.989 -0.0120 -0.1127 -0.3325
 3310SOL    HW121566   0.717   3.005   2.069 -1.9409  0.7972  0.9278
 3310SOL    HW221567   0.589   3.051   2.002 -0.0849 -0.5570 -0.6956
 3311SOL     OW21568   1.673   3.714   4.167  0.3771  0.6152 -0.5052
 3311SOL    HW121569   1.702   3.622   4.169  1.6839  1.0288 -0.3295
 3311SOL    HW221570   1.654   3.709   4.074 -1.4023 -1.3144 -0.0368
 3312SOL     OW21571   1.470   2.135   7.744 -0.1025  0.2428  0.5204
 3312SOL    HW121572   1.463   2.149   7.838 -1.1104 -2.8549  0.8988
 3312SOL    HW221573   1.509   2.217   7.714 -0.2021  0.9339  2.3165
 3313SOL     OW21574   0.015   3.092   3.364  0.3099  0.5171  0.2686
 3313SOL    HW121575   0.058   3.008   3.350  2.2958  1.4347  0.9190
 3313SOL    HW221576   0.008   3.120   3.273 -0.9590 -0.4147  0.0640
 3314SOL     OW21577   3.264   4.274   9.469 -0.3611  0.1309 -0.0906
 3314SOL    HW121578   3.282   4.212   9.540  1.1457  1.1611  0.4385
 3314SOL    HW221579   3.321   4.348   9.489  0.7069 -1.1670  1.7055
 3315SOL     OW21580   0.802   1.580   0.887  0.3153 -0.4351  0.0576
 3315SOL    HW121581   0.796   1.675   0.892 -1.2783 -0.7391  3.3519
 3315SOL    HW221582   0.873   1.569   0.950 -0.2642 -1.1409  0.5785
 3316SOL     OW21583   1.424   1.391   1.102 -0.2887  0.2974 -0.3153
 3316SOL    HW121584   1.411   1.350   1.016 -0.1823 -0.0169 -0.1844
 3316SOL    HW221585   1.353   1.351   1.153 -0.8409  0.9406 -0.5912
 3317SOL     OW21586   2.467   0.521   9.378 -0.0952 -0.2566  0.2810
 3317SOL    HW121587   2.454   0.614   9.398  1.1247  0.4959 -2.3708
 3317SOL    HW221588   2.386   0.494   9.335 -1.4774 -0.9418  3.3897
 3318SOL     OW21589   0.256   0.601   2.259  0.4068  0.0627 -0.0467
 3318SOL    HW121590   0.271   0.536   2.327  3.2871  1.2338  0.4205
 3318SOL    HW221591   0.311   0.669   2.299 -1.0264  0.2806  1.5557
 3319SOL     OW21592   1.029   1.050   8.401 -0.2578  0.0497  0.2602
 3319SOL    HW121593   1.059   0.961   8.417  0.7560  0.1685 -0.9538
 3319SOL    HW221594   1.097   1.108   8.435 -1.5260  1.5089  0.3081
 3320SOL     OW21595   3.716   1.830   6.642  0.0086 -0.7170 -0.2223
 3320SOL    HW121596   3.768   1.767   6.692  2.0376  0.6442 -0.6030
 3320SOL    HW221597   3.654   1.866   6.706  0.5794  2.8928 -1.6930
 3321SOL     OW21598   0.514   0.666   7.564 -0.7035  0.5493  0.2265
 3321SOL    HW121599   0.462   0.585   7.566  0.9140 -0.4954  0.3019
 3321SOL    HW221600   0.449   0.719   7.519 -1.2116 -0.3516 -0.1116
 3322SOL     OW21601   4.072   0.908   0.763 -0.5561 -0.0233  0.1697
 3322SOL    HW121602   3.987   0.951   0.767  0.9290  2.5882  3.3008
 3322SOL    HW221603   4.075   0.858   0.844 -0.9903  1.1892  0.9213
 3323SOL     OW21604   1.558   1.298   5.782 -0.7812  0.0339 -0.4541
 3323SOL    HW121605   1.575   1.206   5.804 -0.5771  0.2286  0.1943
 3323SOL    HW221606   1.585   1.336   5.866  0.3305 -1.8910  0.0624
 3324SOL     OW21607   0.268   3.422  10.724  0.1730  0.3192 -0.1909
 3324SOL    HW121608   0.260   3.458  10.636  0.4232  0.8093 -0.0166
 3324SOL    HW221609   0.222   3.485  10.780  1.5364  1.2801 -0.1475
 3325SOL     OW21610   1.815   0.855   4.873 -0.3121  0.1253  0.0032
 3325SOL    HW121611   1.841   0.874   4.783 -0.3010 -0.3213 -0.0878
 3325SOL    HW221612   1.741   0.795   4.864  0.1219 -0.6632  1.6313
 3326SOL     OW21613   1.182   1.557   3.068 -0.1556 -0.2340 -0.0795
 3326SOL    HW121614   1.178   1.462   3.059  1.6198 -0.4262  1.0206
 3326SOL    HW221615   1.198   1.584   2.978  1.8051 -1.0456  0.0087
 3327SOL     OW21616   0.823   0.615   6.993 -0.2716 -0.1897  0.1026
 3327SOL    HW121617   0.787   0.578   7.074  2.8028 -0.8531  1.2000
 3327SOL    HW221618   0.910   0.637   7.027 -0.8591  0.8708  0.9280
 3328SOL     OW21619   4.215   3.905   8.446 -0.3190 -0.3523  0.2463
 3328SOL    HW121620   4.211   3.988   8.398  0.1071  1.5447  3.5365
 3328SOL    HW221621   4.279   3.864   8.387  0.4171 -1.0151  1.5166
 3329SOL     OW21622   0.590   1.726   7.402 -0.0066  0.0558 -0.0685
 3329SOL    HW121623   0.588   1.704   7.309  1.6006 -0.2793 -0.0256
 3329SOL    HW221624   0.524   1.666   7.436 -1.9366  1.5075 -1.2792
 3330SOL     OW21625   3.975   0.270   2.659  0.2020 -0.1351 -0.0035
 3330SOL    HW121626   4.047   0.266   2.721  1.2106  1.3792 -1.0715
 3330SOL    HW221627   4.028   0.269   2.579 -0.1510 -1.0000 -0.2378
 3331SOL     OW21628   2.060   1.059   3.886 -0.0018 -0.1854  0.0058
 3331SOL    HW121629   2.140   1.007   3.887 -0.2563 -0.5545  1.0132
 3331SOL    HW221630   2.080   1.144   3.925  0.3301 -0.1713 -0.1924
 3332SOL     OW21631   1.561   0.235   6.179 -0.5071  0.7581  0.3125
 3332SOL    HW121632   1.561   0.200   6.090  0.9472  0.0380  0.5887
 3332SOL    HW221633   1.519   0.320   6.166 -1.5029  0.1060 -0.7432
 3333SOL     OW21634   0.784   3.660   7.307 -0.1756  0.0672 -0.5791
 3333SOL    HW121635   0.858   3.662   7.247 -0.3189 -4.2040 -0.8950
 3333SOL    HW221636   0.776   3.567   7.324 -0.6696 -0.2535 -2.5874
 3334SOL     OW21637   0.697   2.219   8.465 -0.0368 -0.0235  0.3963
 3334SOL    HW121638   0.709   2.155   8.535  0.5483  1.3187  1.5106
 3334SOL    HW221639   0.645   2.284   8.512  0.8396  1.3674 -0.5511
 3335SOL     OW21640   0.587   1.215   0.908 -1.0524 -0.6035  0.3737
 3335SOL    HW121641   0.624   1.222   0.820 -0.7173 -0.1762  0.5519
 3335SOL    HW221642   0.657   1.167   0.953  0.6346  1.1505 -0.3694
 3336SOL     OW21643   3.148   2.520   3.135 -0.0743  0.6360  0.3483
 3336SOL    HW121644   3.222   2.572   3.103  0.0992  1.3428  1.8808
 3336SOL    HW221645   3.106   2.494   3.053 -0.7594 -1.5232  1.3760
 3337SOL     OW21646   1.157   0.946   5.662  0.9369  0.1625  0.3262
 3337SOL    HW121647   1.213   1.020   5.638  0.5711  0.4789  0.4312
 3337SOL    HW221648   1.086   0.989   5.710  1.1943  1.0499 -0.0665
 3338SOL     OW21649   0.781   2.179   1.686  0.0848  0.0268 -0.2565
 3338SOL    HW121650   0.811   2.158   1.597  1.1037 -1.5376  0.4451
 3338SOL    HW221651   0.707   2.119   1.697  1.7204 -2.0361 -0.4694
 3339SOL     OW21652   2.305   0.826  11.405 -0.1737  0.0026  0.2351
 3339SOL    HW121653   2.304   0.909  11.454  1.5108  1.5070 -2.3197
 3339SOL    HW221654   2.268   0.768  11.472  0.4390 -0.4644  0.1632
 3340SOL     OW21655   4.651   2.763   7.317  0.0810 -0.3360  0.3139
 3340SOL    HW121656   4.567   2.762   7.362 -0.2103 -0.5995 -0.2273
 3340SOL    HW221657   4.698   2.807   7.388  0.0531  2.4672 -1.4131
 3341SOL     OW21658   2.558   1.195   0.260 -0.4433 -0.3802 -0.4915
 3341SOL    HW121659   2.611   1.274   0.251 -1.6890  0.2420 -2.3169
 3341SOL    HW221660   2.485   1.224   0.206 -0.3704  2.5845  1.0219
 3342SOL     OW21661   4.719   4.214   8.226 -0.4670 -0.7664  0.6347
 3342SOL    HW121662   0.004   4.139   8.281 -1.8288 -1.6311 -0.0203
 3342SOL    HW221663   0.071   4.249   8.211 -0.4254 -0.7924  0.8241
 3343SOL     OW21664   3.414   3.000  15.180 -0.3813  0.1133 -0.4655
 3343SOL    HW121665   3.504   2.969  15.183 -0.8131 -0.8578  1.9610
 3343SOL    HW221666   3.408   3.040  15.093 -0.5640  0.5283 -0.2626
 3344SOL     OW21667   1.335   1.634   5.577  0.2624 -0.2412 -0.2209
 3344SOL    HW121668   1.343   1.566   5.643  0.0807 -1.0225 -1.0116
 3344SOL    HW221669   1.290   1.705   5.624 -2.0604 -1.3991 -0.7161
 3345SOL     OW21670   3.130   1.459  12.486 -0.1122  0.1643 -0.3246
 3345SOL    HW121671   3.201   1.521  12.505 -0.9630  1.7939 -2.4773
 3345SOL    HW221672   3.050   1.510  12.481 -1.6115 -2.1326  0.3315
 3346SOL     OW21673   4.304   4.169   4.213 -0.0708  0.3625 -0.4879
 3346SOL    HW121674   4.282   4.083   4.176 -1.8748  1.2637 -1.4816
 3346SOL    HW221675   4.319   4.144   4.304  1.4495  0.4402 -0.7107
 3347SOL     OW21676   4.324   4.280   6.579 -0.4599 -0.1561  0.9523
 3347SOL    HW121677   4.303   4.267   6.671  0.4133  1.4587  1.3752
 3347SOL    HW221678   4.258   4.222   6.541 -1.2781  0.3686  1.5903
 3348SOL     OW21679   3.517   2.744   6.545 -0.2076  0.0541 -0.3422
 3348SOL    HW121680   3.588   2.741   6.482 -1.7126 -1.1538 -1.9578
 3348SOL    HW221681   3.439   2.727   6.493 -0.7828 -0.6461  0.7300
 3349SOL     OW21682   0.584   1.277   4.874  0.5769 -0.9356  0.0034
 3349SOL    HW121683   0.533   1.271   4.793  0.1593 -1.4102  0.3039
 3349SOL    HW221684   0.528   1.229   4.934 -0.5424  2.7714  1.9452
 3350SOL     OW21685   2.635   3.971  16.158  0.4913  0.2923  0.1107
 3350SOL    HW121686   2.634   3.903  16.225 -0.4725  0.7647  0.5687
 3350SOL    HW221687   2.549   4.008  16.176  0.1848 -0.3655 -0.0072
 3351SOL     OW21688   0.737   3.746   8.240  0.0035 -0.1380 -0.5022
 3351SOL    HW121689   0.827   3.777   8.231  0.5568 -0.8449  2.4914
 3351SOL    HW221690   0.737   3.716   8.331 -0.5280  3.5301  0.7005
 3352SOL     OW21691   3.403   2.915   5.807  0.7755 -0.4296  0.3236
 3352SOL    HW121692   3.469   2.985   5.809  0.4910 -0.2057  1.3289
 3352SOL    HW221693   3.330   2.946   5.859  0.2232  0.6827 -1.1109
 3353SOL     OW21694   2.018   2.668   5.604 -0.1690 -1.0508  0.1180
 3353SOL    HW121695   1.958   2.624   5.664 -1.5359  1.5843  0.6725
 3353SOL    HW221696   2.047   2.598   5.545 -0.0113 -0.3672 -0.6123
 3354SOL     OW21697   2.612   3.807  15.028 -0.0953 -0.8057 -0.0843
 3354SOL    HW121698   2.696   3.791  15.072 -0.9398 -2.9481  0.7258
 3354SOL    HW221699   2.571   3.853  15.102  1.9037 -0.1778  0.6305
 3355SOL     OW21700   3.044   0.305   8.386 -0.3883 -0.0913  0.3666
 3355SOL    HW121701   2.981   0.243   8.424  0.8315 -0.4903  1.7288
 3355SOL    HW221702   3.068   0.259   8.306  1.2242  1.9097 -0.2975
 3356SOL     OW21703   3.990   0.739   5.143  0.5886  0.4590  0.0694
 3356SOL    HW121704   3.961   0.829   5.127 -0.2578  0.1594 -0.0972
 3356SOL    HW221705   4.079   0.758   5.114  1.4047  0.7172  2.8001
 3357SOL     OW21706   4.182   0.643   0.735  0.1607  0.1036  0.4218
 3357SOL    HW121707   4.141   0.556   0.726 -0.1209  0.1521  1.2545
 3357SOL    HW221708   4.234   0.634   0.655  1.6888 -0.9382  1.5387
 3358SOL     OW21709   3.143   0.368   8.729  0.1146  0.3931 -0.1826
 3358SOL    HW121710   3.221   0.340   8.776 -0.7949 -2.3223 -0.3299
 3358SOL    HW221711   3.165   0.370   8.636 -3.1413 -0.8181 -0.9711
 3359SOL     OW21712   1.933   1.599   7.041  0.0825  0.1602  0.1829
 3359SOL    HW121713   1.886   1.625   7.120  0.8707 -1.3185  1.1309
 3359SOL    HW221714   1.915   1.676   6.986  0.2557  0.4402  0.5224
 3360SOL     OW21715   1.391   4.709  11.635  0.4402 -0.2066 -0.1715
 3360SOL    HW121716   1.425   4.705  11.725 -1.2679 -0.9099  0.4484
 3360SOL    HW221717   1.455   4.645  11.605  2.0364  1.1233  0.4280
 3361SOL     OW21718   1.339   4.166   3.306  0.6697  0.3992 -0.8221
 3361SOL    HW121719   1.270   4.201   3.363  0.7008 -1.4207  0.3394
 3361SOL    HW221720   1.306   4.076   3.307  0.0490  0.6313 -0.0959
 3362SOL     OW21721   0.718   1.789   3.857  0.1244 -0.4389  0.3354
 3362SOL    HW121722   0.666   1.775   3.936  0.0223  1.5721  0.6200
 3362SOL    HW221723   0.648   1.811   3.795  0.8160  1.0195  0.0719
 3363SOL     OW21724   3.422   2.561  10.113  0.2223  0.0571  0.0670
 3363SOL    HW121725   3.442   2.485  10.169  1.9244  1.0407  0.7852
 3363SOL    HW221726   3.327   2.558  10.103 -0.0668  0.3025  2.7469
 3364SOL     OW21727   1.508   0.634   3.786 -0.0845 -0.5946 -0.2658
 3364SOL    HW121728   1.532   0.590   3.868 -0.5226 -2.0486 -0.9113
 3364SOL    HW221729   1.541   0.573   3.720  0.3600 -0.3502 -0.2682
 3365SOL     OW21730   3.420   0.232   1.481  0.3870 -0.1771  0.3070
 3365SOL    HW121731   3.513   0.230   1.457  0.1626 -0.1744 -0.5710
 3365SOL    HW221732   3.429   0.203   1.572 -1.5564  0.8408  0.8196
 3366SOL     OW21733   0.437   1.138  13.144 -0.1256 -0.5390  0.7727
 3366SOL    HW121734   0.397   1.071  13.199 -2.2012 -0.1365 -0.2086
 3366SOL    HW221735   0.367   1.203  13.154  0.9588  0.7263  0.0862
 3367SOL     OW21736   0.807   4.201  12.414 -0.0836  0.6982  0.8436
 3367SOL    HW121737   0.868   4.207  12.488 -0.6088  0.1580  1.3231
 3367SOL    HW221738   0.826   4.115  12.376 -0.8034  0.1814  1.6776
 3368SOL     OW21739   1.419   0.893  10.096  0.6095 -0.0098 -0.9909
 3368SOL    HW121740   1.482   0.945  10.047 -0.4688  2.5208  0.3280
 3368SOL    HW221741   1.345   0.953  10.088  0.1982 -0.4195 -0.2665
 3369SOL     OW21742   1.584   0.042   3.371  0.1772  0.2407 -0.1040
 3369SOL    HW121743   1.543   4.694   3.392  1.9152 -0.8786 -1.1345
 3369SOL    HW221744   1.602   0.024   3.279  2.4007  0.5657  0.2737
 3370SOL     OW21745   4.420   2.402   4.522  0.0843  0.6896  0.4423
 3370SOL    HW121746   4.460   2.335   4.467  0.9192  0.5962  1.1583
 3370SOL    HW221747   4.376   2.453   4.454 -0.2607  1.3452  1.1573
 3371SOL     OW21748   1.315   2.580   9.462 -0.1756  0.4261  0.2061
 3371SOL    HW121749   1.371   2.621   9.528 -1.4646  0.4608  1.2711
 3371SOL    HW221750   1.247   2.646   9.452  1.3227  1.7828 -1.1448
 3372SOL     OW21751   0.762   1.439  14.891  0.2226 -0.2967  0.1333
 3372SOL    HW121752   0.691   1.403  14.839  0.3113  0.6424 -0.6392
 3372SOL    HW221753   0.836   1.425  14.832  2.0020 -1.9855  2.7787
 3373SOL     OW21754   3.260   1.343   7.775  0.0530 -0.2376  0.6875
 3373SOL    HW121755   3.215   1.272   7.820 -1.6274  1.3888  1.5496
 3373SOL    HW221756   3.302   1.288   7.709  0.1477 -1.1638  1.5259
 3374SOL     OW21757   2.213   1.967   6.352 -0.0492 -0.0615  0.2189
 3374SOL    HW121758   2.163   1.977   6.271 -0.2875  1.2263  0.5307
 3374SOL    HW221759   2.141   1.990   6.410 -0.0473  1.0351 -0.2107
 3375SOL     OW21760   4.014   0.710   5.535 -0.3459  0.3391  0.3238
 3375SOL    HW121761   4.008   0.718   5.630  1.3967  1.7799  0.3251
 3375SOL    HW221762   4.017   0.616   5.516  0.4720  0.2916  0.7094
 3376SOL     OW21763   0.436   3.222   5.538 -0.4405 -0.6198 -0.6542
 3376SOL    HW121764   0.402   3.273   5.612  0.5355  0.8229 -1.1995
 3376SOL    HW221765   0.385   3.242   5.460  2.0376  0.8895 -1.8986
 3377SOL     OW21766   1.255   3.778   6.735 -0.1646  0.4338  0.1120
 3377SOL    HW121767   1.330   3.749   6.683  1.6953 -0.1601  3.1377
 3377SOL    HW221768   1.288   3.864   6.761  1.2758  0.1487 -0.7669
 3378SOL     OW21769   3.365   4.308   9.932  0.2918 -0.4998  0.3736
 3378SOL    HW121770   3.292   4.311   9.993 -0.1778 -1.9098 -0.1046
 3378SOL    HW221771   3.342   4.233   9.877 -1.6210 -0.5405  1.2495
 3379SOL     OW21772   3.396   1.325   2.514 -0.2145 -0.4067 -0.5874
 3379SOL    HW121773   3.312   1.325   2.467 -0.3167 -1.8098 -0.4151
 3379SOL    HW221774   3.382   1.247   2.568  1.0057  0.0461  0.3846
 3380SOL     OW21775   1.086   3.621   8.318  0.1782  0.4402 -0.1576
 3380SOL    HW121776   1.026   3.605   8.391  1.1310 -1.3751  0.2428
 3380SOL    HW221777   1.141   3.542   8.320  0.6661  0.8578  2.4408
 3381SOL     OW21778   2.992   0.509   3.306 -0.1997  0.1120 -0.0793
 3381SOL    HW121779   2.938   0.532   3.231 -0.6778  0.3777  0.3513
 3381SOL    HW221780   2.935   0.483   3.378 -1.1240 -1.3777 -1.3594
 3382SOL     OW21781   4.637   0.625   3.885 -0.5875  0.4002  0.6268
 3382SOL    HW121782   4.609   0.692   3.823  0.4117 -0.1021 -0.3751
 3382SOL    HW221783   4.702   0.678   3.931 -3.0940  0.5066  4.0299
 3383SOL     OW21784   4.203   0.320   2.173  0.0330 -0.0140 -0.4911
 3383SOL    HW121785   4.246   0.384   2.116 -1.0749  0.2267 -1.0680
 3383SOL    HW221786   4.129   0.296   2.117 -0.5375 -1.1408  0.7631
 3384SOL     OW21787   4.494   3.775  12.619 -0.0963  0.5860 -0.0428
 3384SOL    HW121788   4.460   3.755  12.532  0.3151 -0.2150 -0.0149
 3384SOL    HW221789   4.431   3.726  12.671  0.3793 -0.2455 -0.2568
 3385SOL     OW21790   2.679   0.428   9.524  0.1877 -0.1212  0.0180
 3385SOL    HW121791   2.619   0.388   9.587 -1.4329  0.7771 -0.9576
 3385SOL    HW221792   2.628   0.490   9.472  0.2008  1.8355  2.3148
 3386SOL     OW21793   4.689   1.547   7.782  0.7056  0.4132 -0.0166
 3386SOL    HW121794   4.635   1.624   7.762 -1.2055 -0.1262  3.0149
 3386SOL    HW221795   4.632   1.493   7.837 -1.6136  3.0641  0.2079
 3387SOL     OW21796   2.826   0.164   8.485 -0.1199 -0.0718 -0.2375
 3387SOL    HW121797   2.850   0.097   8.549  1.2495 -0.2157 -0.9130
 3387SOL    HW221798   2.738   0.130   8.467 -0.1843 -0.7745  1.3685
 3388SOL     OW21799   2.740   4.634   5.656 -0.2014 -0.7533 -0.1529
 3388SOL    HW121800   2.777   4.674   5.577 -0.1048 -1.5688 -0.5280
 3388SOL    HW221801   2.819   4.605   5.701 -1.9349  0.7692  3.8026
 3389SOL     OW21802   0.757   4.616   3.825  0.0258  0.1716 -0.6354
 3389SOL    HW121803   0.681   4.664   3.858  0.4085  0.5598 -0.3140
 3389SOL    HW221804   0.740   4.530   3.863  1.0156  0.5268  0.5899
 3390SOL     OW21805   4.128   2.190   9.596 -0.6160 -0.2431 -0.4296
 3390SOL    HW121806   4.140   2.272   9.549  1.8602 -0.8140 -0.7655
 3390SOL    HW221807   4.189   2.129   9.554 -1.8521 -2.6955  1.3327
 3391SOL     OW21808   2.443   0.771  17.300 -0.2154 -0.6644 -0.1996
 3391SOL    HW121809   2.399   0.745  17.219  1.7540 -1.6003 -0.9672
 3391SOL    HW221810   2.535   0.790  17.285  0.0061 -0.9724  0.7770
 3392SOL     OW21811   2.539   4.318   4.181 -0.3331  0.0313 -0.3497
 3392SOL    HW121812   2.473   4.354   4.122 -1.0630  0.7120  0.8950
 3392SOL    HW221813   2.511   4.364   4.260 -2.9309  2.0332 -2.4457
 3393SOL     OW21814   2.767   0.508   6.878 -0.7073 -0.3949  0.4719
 3393SOL    HW121815   2.716   0.578   6.920  1.1655  0.9745  0.4319
 3393SOL    HW221816   2.836   0.562   6.841 -0.7159 -0.2274  0.7020
 3394SOL     OW21817   0.408   0.790   1.692 -0.3482 -0.0857 -0.1958
 3394SOL    HW121818   0.345   0.812   1.760 -1.5185  1.6849 -1.8486
 3394SOL    HW221819   0.383   0.866   1.640 -0.3078  0.3696  0.4526
 3395SOL     OW21820   0.850   4.111   2.058 -0.1377  0.6170 -0.2893
 3395SOL    HW121821   0.898   4.068   1.987 -0.9595 -0.4787 -0.1828
 3395SOL    HW221822   0.921   4.159   2.100  0.2602  1.3222 -1.7499
 3396SOL     OW21823   3.630   1.358  12.541  0.0087 -0.1136  0.4395
 3396SOL    HW121824   3.617   1.309  12.622 -2.3326 -0.5918 -0.2397
 3396SOL    HW221825   3.562   1.325  12.483 -0.1464  0.3616  0.3505
 3397SOL     OW21826   1.481   2.956   2.198 -0.2551  0.3343  0.5006
 3397SOL    HW121827   1.465   2.923   2.286  2.8591  0.4301  1.1077
 3397SOL    HW221828   1.488   3.051   2.213  0.3449  0.6301 -1.7105
 3398SOL     OW21829   2.027   4.185   5.078  0.0260 -0.1940 -0.1320
 3398SOL    HW121830   2.115   4.207   5.108  1.1891 -0.2652 -3.4290
 3398SOL    HW221831   2.012   4.110   5.136 -0.0505  0.0846  0.2063
 3399SOL     OW21832   1.268   4.095   2.905  0.3021 -0.0866 -0.3345
 3399SOL    HW121833   1.173   4.081   2.910  0.1325  1.5537  1.1909
 3399SOL    HW221834   1.304   4.022   2.954  3.5794 -0.0477 -2.7211
 3400SOL     OW21835   2.503   3.805   5.880  0.0435 -0.1996 -0.0303
 3400SOL    HW121836   2.458   3.811   5.796  0.5652 -3.5850 -0.5731
 3400SOL    HW221837   2.555   3.884   5.866 -1.6554  0.4827 -2.4594
 3401SOL     OW21838   1.161   0.348  10.885  0.4294 -0.0657 -0.2166
 3401SOL    HW121839   1.111   0.348  10.804 -1.4692  0.9035  0.9615
 3401SOL    HW221840   1.222   0.418  10.860  1.1265 -0.9684 -1.0423
 3402SOL     OW21841   4.027   1.196   7.951 -0.4575 -0.2799 -0.6421
 3402SOL    HW121842   3.938   1.203   7.985  0.1657 -0.6976  1.0267
 3402SOL    HW221843   4.029   1.254   7.874  0.4391 -0.4140 -0.7288
 3403SOL     OW21844   4.390   4.603   7.248 -0.2332  0.8102 -0.5530
 3403SOL    HW121845   4.400   4.517   7.206  3.5424 -0.1761  2.3560
 3403SOL    HW221846   4.302   4.582   7.278  0.5894  0.2726  1.4413
 3404SOL     OW21847   3.321   4.402  14.709 -0.1509  0.1112  0.6897
 3404SOL    HW121848   3.342   4.379  14.619  1.2197 -0.1235  1.0672
 3404SOL    HW221849   3.264   4.328  14.730  1.1213 -0.7813  1.0320
 3405SOL     OW21850   2.440   3.810   9.678 -0.4824 -0.2010  0.0561
 3405SOL    HW121851   2.514   3.845   9.629 -1.2781  0.2627 -0.8315
 3405SOL    HW221852   2.403   3.890   9.715  0.2385  0.2494 -0.1876
 3406SOL     OW21853   4.520   3.855   6.950 -0.0699 -0.6026  0.2354
 3406SOL    HW121854   4.598   3.846   7.004  0.4700  1.1997 -0.2470
 3406SOL    HW221855   4.546   3.793   6.882  0.3301 -0.2819  0.0909
 3407SOL     OW21856   1.312   1.288   8.191 -0.5769 -0.5725  0.0152
 3407SOL    HW121857   1.389   1.285   8.248  0.4748  1.0479 -1.3166
 3407SOL    HW221858   1.335   1.344   8.117  0.8163 -1.0284  0.1080
 3408SOL     OW21859   4.710   3.372   8.838 -0.0844 -0.3223  0.1163
 3408SOL    HW121860   4.695   3.301   8.776 -0.1259  1.1967 -1.5990
 3408SOL    HW221861   4.620   3.385   8.867 -0.5643  1.3903 -2.1386
 3409SOL     OW21862   2.879   1.304   2.399 -0.3779 -0.2320 -0.2416
 3409SOL    HW121863   2.962   1.262   2.420  0.4328  1.3832 -0.1552
 3409SOL    HW221864   2.841   1.242   2.337 -1.0494  0.2019 -0.2653
 3410SOL     OW21865   2.974   0.765   3.592 -0.2863 -0.4384  0.4228
 3410SOL    HW121866   2.894   0.716   3.574 -0.1437 -0.0660 -1.1705
 3410SOL    HW221867   2.965   0.846   3.541 -2.1255 -1.9337 -1.5878
 3411SOL     OW21868   1.633   1.285   8.889 -0.1733 -0.2457  0.5232
 3411SOL    HW121869   1.558   1.303   8.947 -0.7637 -0.8217 -0.0574
 3411SOL    HW221870   1.696   1.233   8.938 -0.6038 -0.6994  0.5915
 3412SOL     OW21871   1.932   0.269  16.115  0.6169  0.4451  0.4936
 3412SOL    HW121872   1.929   0.208  16.188  0.2211 -2.0166 -1.5732
 3412SOL    HW221873   2.011   0.241  16.068 -0.0724  1.2252 -1.1324
 3413SOL     OW21874   3.215   3.533  17.074  0.4436  0.4589  0.4184
 3413SOL    HW121875   3.175   3.586  17.143  1.9134  1.2295  0.6921
 3413SOL    HW221876   3.140   3.500  17.025 -0.3130  2.3095  0.3071
 3414SOL     OW21877   4.558   3.550   3.308  0.3944 -0.2904  0.1900
 3414SOL    HW121878   4.647   3.539   3.342 -0.0476  0.8720  1.7354
 3414SOL    HW221879   4.553   3.489   3.234  1.4277  1.8546 -1.6733
 3415SOL     OW21880   0.314   1.904   6.619 -0.5368  0.3274  0.1696
 3415SOL    HW121881   0.406   1.875   6.614 -0.8720 -1.0009  1.7624
 3415SOL    HW221882   0.273   1.819   6.637 -0.0159 -0.4105 -2.0947
 3416SOL     OW21883   2.521   3.873   8.273 -0.1049  0.4646  0.1754
 3416SOL    HW121884   2.504   3.804   8.337  0.0248  1.1462  0.9487
 3416SOL    HW221885   2.573   3.830   8.205 -2.4880 -0.8870 -0.7810
 3417SOL     OW21886   2.043   0.143   3.208 -0.7991  0.4443 -0.0392
 3417SOL    HW121887   1.971   0.167   3.266  0.2119 -0.8810  1.7476
 3417SOL    HW221888   1.994   0.142   3.125 -1.7522 -0.3470  0.5392
 3418SOL     OW21889   0.484   3.815   2.507 -0.3522  0.3932 -0.7972
 3418SOL    HW121890   0.442   3.741   2.464  0.2286 -0.1014 -0.5169
 3418SOL    HW221891   0.425   3.887   2.487 -0.8529  0.2542  0.2274
 3419SOL     OW21892   0.852   3.059   8.218  0.1681  0.1408 -0.6172
 3419SOL    HW121893   0.849   3.112   8.138 -0.0324  0.7627 -0.1942
 3419SOL    HW221894   0.760   3.031   8.224  0.3419 -0.5385 -1.1050
 3420SOL     OW21895   3.374   4.150   6.572 -0.6856 -0.1513  0.4096
 3420SOL    HW121896   3.306   4.206   6.533 -0.4397  0.4323  0.8104
 3420SOL    HW221897   3.408   4.206   6.642 -0.4696  2.2854 -1.6328
 3421SOL     OW21898   2.506   3.887  16.601  0.1385 -0.2196 -0.5002
 3421SOL    HW121899   2.495   3.980  16.623 -0.2140 -0.3535 -0.1073
 3421SOL    HW221900   2.587   3.871  16.649  1.0006 -1.5889 -2.4142
 3422SOL     OW21901   1.906   3.446  16.867 -0.5442  0.2284 -0.0354
 3422SOL    HW121902   1.837   3.428  16.803  0.6850  2.5932 -1.9929
 3422SOL    HW221903   1.939   3.356  16.875 -2.7559 -0.6015 -0.1643
 3423SOL     OW21904   3.106   2.146   3.118  0.7066 -0.6094  0.1233
 3423SOL    HW121905   3.053   2.193   3.054 -0.9046 -2.5081  0.0586
 3423SOL    HW221906   3.116   2.202   3.194 -1.8460  0.5669 -0.4420
 3424SOL     OW21907   2.603   4.099   0.044 -0.0023  0.3990  0.2508
 3424SOL    HW121908   2.669   4.084  17.717 -0.2627  2.8482 -0.5687
 3424SOL    HW221909   2.599   4.013   0.085  1.0799  1.3517  2.3169
 3425SOL     OW21910   1.485   4.463   6.290  0.1259 -0.1124  0.0757
 3425SOL    HW121911   1.409   4.506   6.329 -0.6928  0.9514 -2.6726
 3425SOL    HW221912   1.455   4.428   6.206 -0.7973  0.3025  0.2340
 3426SOL     OW21913   2.261   3.689  15.402  0.0184 -0.4024 -0.4257
 3426SOL    HW121914   2.345   3.656  15.434 -0.4004 -2.4148 -1.4556
 3426SOL    HW221915   2.250   3.636  15.324  3.0166 -1.3462 -0.1920
 3427SOL     OW21916   3.297   3.212   6.276  0.5064 -0.0499 -0.4955
 3427SOL    HW121917   3.362   3.210   6.205  1.8886  1.5298  0.7353
 3427SOL    HW221918   3.307   3.305   6.299  0.2136  0.1652 -1.2429
 3428SOL     OW21919   2.518   3.557  15.058  0.1913 -1.0561 -0.1280
 3428SOL    HW121920   2.552   3.645  15.045  0.8956 -1.4389 -0.8894
 3428SOL    HW221921   2.595   3.507  15.031  0.4404  0.0080 -1.3721
 3429SOL     OW21922   1.563   3.637   9.754 -0.3159 -0.3168  0.4438
 3429SOL    HW121923   1.627   3.626   9.824 -0.6586 -1.7630  0.5368
 3429SOL    HW221924   1.504   3.562   9.764  0.4840 -0.9652  0.3259
 3430SOL     OW21925   0.052   4.054   9.917  0.5171  0.3467  0.3646
 3430SOL    HW121926   0.087   4.121   9.975  0.4292  1.4020 -0.8009
 3430SOL    HW221927   0.030   3.984   9.978 -2.0857 -1.2841 -2.4536
 3431SOL     OW21928   2.986   1.252   4.426 -0.5715  0.3881 -0.9446
 3431SOL    HW121929   3.080   1.242   4.437 -0.6028 -0.1830 -1.2114
 3431SOL    HW221930   2.962   1.159   4.424  1.4676 -0.2020  1.8126
 3432SOL     OW21931   1.957   4.696   5.734 -0.1157  0.1966  0.0128
 3432SOL    HW121932   1.907   4.726   5.809 -1.5524  2.2039 -1.7377
 3432SOL    HW221933   1.898   4.632   5.694 -1.4674  1.5046 -0.0987
 3433SOL     OW21934   0.326   4.000   2.077 -0.0231  0.4944  0.1565
 3433SOL    HW121935   0.315   3.931   2.011  0.7965  0.1302  0.4047
 3433SOL    HW221936   0.420   3.998   2.093 -0.2060 -0.3070  1.1278
 3434SOL     OW21937   2.531   0.328   3.894  0.1738  0.1307  0.4068
 3434SOL    HW121938   2.557   0.369   3.811 -1.2615  0.4071  0.0906
 3434SOL    HW221939   2.577   0.244   3.891 -2.7758 -1.4696  0.4010
 3435SOL     OW21940   1.323   3.192   3.180 -0.0314  0.3442  0.1604
 3435SOL    HW121941   1.278   3.139   3.115 -0.5782  1.2632 -0.2143
 3435SOL    HW221942   1.363   3.263   3.130  1.3935 -0.2602  0.4270
 3436SOL     OW21943   3.675   3.085   4.660  0.2001  0.3871  0.2155
 3436SOL    HW121944   3.722   3.007   4.691  1.2954  0.2371 -1.7818
 3436SOL    HW221945   3.621   3.044   4.592  0.1914 -0.0937  0.5113
 3437SOL     OW21946   2.151   3.852  14.987  0.2957  0.3172 -0.1441
 3437SOL    HW121947   2.062   3.818  14.974  0.6363 -0.5213 -0.3488
 3437SOL    HW221948   2.194   3.799  14.919 -1.2880  0.2809 -1.1326
 3438SOL     OW21949   2.555   1.638   8.933  0.3255  0.7464  0.1320
 3438SOL    HW121950   2.646   1.609   8.920 -0.1580 -0.7377  0.0896
 3438SOL    HW221951   2.532   1.562   8.987 -0.1482 -0.1757 -1.3591
 3439SOL     OW21952   2.747   1.341   7.044 -0.4814  0.7738  0.1342
 3439SOL    HW121953   2.663   1.380   7.070 -2.1205 -1.7608 -1.3626
 3439SOL    HW221954   2.786   1.335   7.131 -1.7932 -0.9227  0.6015
 3440SOL     OW21955   3.276   3.346  13.559 -0.1333 -0.3247 -1.0105
 3440SOL    HW121956   3.359   3.328  13.513 -0.3788  2.1639 -2.4245
 3440SOL    HW221957   3.228   3.271  13.526 -3.4880  1.2426  0.2609
 3441SOL     OW21958   2.685   3.254  12.517 -0.2213 -0.1760 -0.4237
 3441SOL    HW121959   2.717   3.185  12.576 -1.2414  0.0789  0.4265
 3441SOL    HW221960   2.689   3.215  12.430  0.4545 -0.7007 -0.1616
 3442SOL     OW21961   4.717   1.221   2.062 -0.0098  0.0968 -0.5636
 3442SOL    HW121962   0.025   1.302   2.090 -2.1103  1.1330 -0.2769
 3442SOL    HW221963   0.049   1.192   2.000  0.6987 -3.1481  1.7280
 3443SOL     OW21964   3.495   3.674  10.436 -0.0754  0.5209  0.4317
 3443SOL    HW121965   3.577   3.663  10.484  1.1477  0.6020 -1.6258
 3443SOL    HW221966   3.489   3.585  10.402  1.6827  1.3239 -2.0244
 3444SOL     OW21967   0.361   3.345   2.596 -0.0274 -0.7031  0.1170
 3444SOL    HW121968   0.409   3.263   2.612  0.2323 -0.4253  0.7794
 3444SOL    HW221969   0.270   3.318   2.583  0.0801 -1.8523  1.6636
 3445SOL     OW21970   1.242   1.152   1.916 -0.3483  0.4689 -0.0244
 3445SOL    HW121971   1.261   1.182   2.005  0.0879  1.4632 -0.4481
 3445SOL    HW221972   1.302   1.079   1.906  0.0083  0.6838  0.5910
 3446SOL     OW21973   1.122   1.641   4.074  0.4537  0.5284  0.1121
 3446SOL    HW121974   1.076   1.724   4.058 -0.1292 -0.3703 -2.7862
 3446SOL    HW221975   1.136   1.601   3.989  1.3050  1.1850 -0.0618
 3447SOL     OW21976   2.412   0.540   3.438 -0.0194  0.3514  0.4328
 3447SOL    HW121977   2.446   0.620   3.478 -2.9508  1.6937  0.2379
 3447SOL    HW221978   2.464   0.535   3.358 -1.6349  2.0647 -0.7292
 3448SOL     OW21979   1.031   1.947  14.575  0.2397 -0.3712 -0.1891
 3448SOL    HW121980   1.055   1.905  14.657 -0.9102  1.4028  1.0524
 3448SOL    HW221981   0.940   1.918  14.573  0.1728 -0.0848 -1.7695
 3449SOL     OW21982   0.915   3.321  13.927  0.0677 -0.1284 -0.6804
 3449SOL    HW121983   0.863   3.241  13.928 -2.1960  1.3958  1.6314
 3449SOL    HW221984   0.873   3.394  13.881  1.9971 -0.1679 -2.5600
 3450SOL     OW21985   1.572   2.103   3.250  0.0227  0.0182  0.1472
 3450SOL    HW121986   1.518   2.171   3.289  0.8434  1.3716 -1.1012
 3450SOL    HW221987   1.499   2.051   3.218 -0.5770  1.3570 -0.6280
 3451SOL     OW21988   1.178   0.909   6.583  0.3475 -0.1042 -0.3379
 3451SOL    HW121989   1.161   1.002   6.572 -1.0566 -0.6001 -2.4037
 3451SOL    HW221990   1.135   0.900   6.668  0.1223  0.8946 -0.3473
 3452SOL     OW21991   4.296   0.162  14.589 -0.0480  0.1016  0.5950
 3452SOL    HW121992   4.392   0.159  14.593 -0.1032  0.1888  1.8794
 3452SOL    HW221993   4.283   0.212  14.670 -0.3130 -0.2452  0.7668
 3453SOL     OW21994   1.734   3.354   4.727  0.6369 -0.0876 -0.2847
 3453SOL    HW121995   1.712   3.263   4.708  2.5134 -0.8176  0.9427
 3453SOL    HW221996   1.695   3.401   4.654 -1.1252  0.3145  0.9166
 3454SOL     OW21997   3.532   2.869   2.738  0.5156  0.2715 -0.4581
 3454SOL    HW121998   3.551   2.777   2.758 -2.0902  0.1360  1.5079
 3454SOL    HW221999   3.614   2.911   2.714  2.1945 -3.0454 -0.4927
 3455SOL     OW22000   1.977   2.325   3.946  0.1510 -0.2504 -0.3378
 3455SOL    HW122001   1.972   2.411   3.904 -4.4007 -0.0125  0.7609
 3455SOL    HW222002   2.073   2.319   3.942  0.1977 -0.5699  1.2206
 3456SOL     OW22003   2.795   2.933  13.376  0.1885 -0.1001 -0.0608
 3456SOL    HW122004   2.882   2.971  13.388 -0.9677  2.2160  1.0317
 3456SOL    HW222005   2.756   3.002  13.322  3.8490  0.6713 -1.7335
 3457SOL     OW22006   3.426   1.011   2.510  0.3612 -0.2685 -0.2166
 3457SOL    HW122007   3.408   0.958   2.433 -0.6696  0.6950 -0.6346
 3457SOL    HW222008   3.470   1.083   2.465  0.5525 -0.5560 -0.4904
 3458SOL     OW22009   2.077   3.687   7.076  0.1656  0.3120  0.0400
 3458SOL    HW122010   2.107   3.644   6.995 -0.7346  0.7446 -0.5237
 3458SOL    HW222011   2.129   3.651   7.148 -1.7752 -1.3998  0.5889
 3459SOL     OW22012   0.709   0.274   3.814 -0.3266 -0.5917  0.6771
 3459SOL    HW122013   0.671   0.187   3.820  0.8878 -1.4687 -4.5813
 3459SOL    HW222014   0.770   0.272   3.741  0.8750  1.8681  1.5977
 3460SOL     OW22015   3.755   1.519   6.755 -0.2911 -0.6575  0.5513
 3460SOL    HW122016   3.832   1.495   6.807 -0.4004  0.9943  1.4814
 3460SOL    HW222017   3.752   1.444   6.696 -0.6135  0.7014 -1.1431
 3461SOL     OW22018   0.287   2.090   8.345 -0.3364 -0.3313 -0.3340
 3461SOL    HW122019   0.309   2.078   8.438 -4.9337 -2.3642  0.5045
 3461SOL    HW222020   0.373   2.066   8.311 -0.7092 -1.7834 -0.2302
 3462SOL     OW22021   4.515   3.680   2.361 -0.0974  0.5808 -0.3524
 3462SOL    HW122022   4.597   3.652   2.320 -0.2188  1.2397 -1.0479
 3462SOL    HW222023   4.512   3.773   2.336  1.4850  0.7870  0.1920
 3463SOL     OW22024   0.998   3.083  14.203 -0.0521 -0.6505 -0.1569
 3463SOL    HW122025   0.907   3.111  14.192 -1.1119 -3.4095  1.6589
 3463SOL    HW222026   0.985   3.009  14.263  1.1320  0.8274  1.9124
 3464SOL     OW22027   4.086   1.469   2.434 -0.0308  0.3526  0.0400
 3464SOL    HW122028   4.028   1.457   2.358  1.5988 -2.5483 -0.7422
 3464SOL    HW222029   4.026   1.436   2.500 -1.9143  2.2432 -0.7100
 3465SOL     OW22030   3.022   4.608  11.282  0.0722 -0.0969  0.5835
 3465SOL    HW122031   2.934   4.587  11.250 -0.0321  2.0885 -0.5803
 3465SOL    HW222032   3.068   4.607  11.198  0.6759 -1.6993  0.9303
 3466SOL     OW22033   2.617   4.505  12.931  0.9278  0.3168  0.4901
 3466SOL    HW122034   2.701   4.493  12.886  0.1994  0.2292 -0.8402
 3466SOL    HW222035   2.553   4.454  12.882 -0.7857  0.4199  2.6410
 3467SOL     OW22036   1.905   2.834   1.684  0.5693  0.4771 -0.0383
 3467SOL    HW122037   1.984   2.783   1.666 -0.4605 -1.3422  0.5771
 3467SOL    HW222038   1.938   2.888   1.756  1.9137 -2.1044  1.2715
 3468SOL     OW22039   0.115   3.200   8.592 -0.2442  0.5795 -0.0881
 3468SOL    HW122040   0.128   3.127   8.532  3.2941  4.1142 -3.5925
 3468SOL    HW222041   0.035   3.169   8.635 -0.2741 -0.3661 -0.8469
 3469SOL     OW22042   2.091   4.393   6.714  0.5077  0.3259  0.1887
 3469SOL    HW122043   2.053   4.383   6.801 -1.2766 -1.8278 -0.8302
 3469SOL    HW222044   2.169   4.341   6.734 -0.1675  0.0756  2.1314
 3470SOL     OW22045   1.643   4.042   8.069 -0.2627 -0.3273 -0.3589
 3470SOL    HW122046   1.550   4.038   8.050 -0.2351 -1.0831 -0.3344
 3470SOL    HW222047   1.668   4.121   8.021  2.5419 -0.3079  1.0861
 3471SOL     OW22048   4.080   0.016   1.736  0.2426 -0.4725 -0.0796
 3471SOL    HW122049   4.045   4.729   1.650  1.4218  0.5093 -0.8198
 3471SOL    HW222050   4.094   4.670   1.782  0.3209 -1.1649 -1.3182
 3472SOL     OW22051   4.679   0.216  12.286 -0.2516  0.1246 -0.9863
 3472SOL    HW122052   4.698   0.137  12.236  0.6270  0.2104 -0.7970
 3472SOL    HW222053   4.645   0.270  12.215  2.9222  2.0182 -1.0681
 3473SOL     OW22054   0.173   1.227   5.200 -0.0044 -0.2115 -0.1652
 3473SOL    HW122055   0.162   1.162   5.131  0.7629 -2.2274  1.6095
 3473SOL    HW222056   0.122   1.298   5.161 -0.2851 -0.4807 -0.2903
 3474SOL     OW22057   0.157   3.227  13.516  0.5304  0.8305 -0.1512
 3474SOL    HW122058   0.125   3.157  13.574 -1.2123  1.1523 -0.7199
 3474SOL    HW222059   0.128   3.299  13.572 -1.1866  1.5409 -1.9703
 3475SOL     OW22060   4.216   0.545   4.269  0.3867 -0.0671 -0.0765
 3475SOL    HW122061   4.180   0.461   4.240 -0.1393  0.2575 -0.3660
 3475SOL    HW222062   4.302   0.514   4.298 -0.0798 -0.4532  0.9141
 3476SOL     OW22063   2.109   3.062   1.619  0.1264 -0.2379 -0.2130
 3476SOL    HW122064   2.090   2.998   1.551  1.8089 -0.8950 -0.0452
 3476SOL    HW222065   2.167   3.018   1.681 -0.5287  1.0553  1.3132
 3477SOL     OW22066   3.533   1.317   5.713 -0.0085 -0.3929 -0.7725
 3477SOL    HW122067   3.546   1.402   5.754 -3.2656 -0.6036  0.7297
 3477SOL    HW222068   3.477   1.276   5.780 -0.1997  2.9041  1.0856
 3478SOL     OW22069   2.120   1.085   7.590  0.0712 -0.3989 -0.1789
 3478SOL    HW122070   2.049   1.076   7.526  0.7774 -0.0298 -1.0185
 3478SOL    HW222071   2.197   1.094   7.535  0.4720  0.0496  0.4615
 3479SOL     OW22072   0.703   1.596  17.162 -0.6290  0.4790  0.0115
 3479SOL    HW122073   0.664   1.597  17.075 -0.3452 -0.2639 -0.1259
 3479SOL    HW222074   0.645   1.531  17.202 -0.0993 -0.5157 -0.8285
 3480SOL     OW22075   3.075   0.964   7.667  0.0957  0.0663  1.0835
 3480SOL    HW122076   3.112   0.882   7.698  0.8413 -0.6172 -1.5695
 3480SOL    HW222077   3.080   1.009   7.751 -0.3806  0.6508  0.7984
 3481SOL     OW22078   0.182   0.263   0.508  0.1061  0.3609  0.1234
 3481SOL    HW122079   0.210   0.247   0.598  2.5310 -1.1010 -0.8906
 3481SOL    HW222080   0.087   0.261   0.516  0.3285 -3.6473  1.5376
 3482SOL     OW22081   3.633   2.878   4.984 -0.1440  0.4986  0.2717
 3482SOL    HW122082   3.571   2.950   4.969 -0.8361  0.3418  2.4505
 3482SOL    HW222083   3.714   2.918   4.950  0.0374 -1.7337 -1.9767
 3483SOL     OW22084   3.699   3.712   6.306  0.1393  0.3945  0.3236
 3483SOL    HW122085   3.691   3.639   6.246 -2.8151 -1.1178  2.5736
 3483SOL    HW222086   3.628   3.776   6.295 -0.4102  0.0424  1.8451
 3484SOL     OW22087   1.634   4.411   2.755  0.3446 -0.7528 -0.0447
 3484SOL    HW122088   1.640   4.323   2.718 -2.2007 -0.7015 -0.6182
 3484SOL    HW222089   1.575   4.402   2.831 -1.1409 -2.3427 -1.3850
 3485SOL     OW22090   4.149   3.189   6.325 -0.1064 -0.6582  0.2958
 3485SOL    HW122091   4.158   3.262   6.386 -0.3062 -0.7573  0.4452
 3485SOL    HW222092   4.224   3.134   6.346  0.9006  0.0296 -1.4307
 3486SOL     OW22093   2.256   4.029   1.843 -0.0279 -0.1140  0.5017
 3486SOL    HW122094   2.302   4.021   1.927  0.1847 -0.8466  0.3190
 3486SOL    HW222095   2.184   4.082   1.877  0.9959  1.4244  0.2504
 3487SOL     OW22096   0.526   0.552   1.947  0.0643 -0.1018  0.0468
 3487SOL    HW122097   0.441   0.519   1.976 -0.4938  1.5964  0.3436
 3487SOL    HW222098   0.570   0.469   1.929  0.8987  0.4040 -0.2354
 3488SOL     OW22099   1.905   3.894   8.467 -0.3365  0.4428 -0.3681
 3488SOL    HW122100   1.942   3.837   8.535  3.2606  0.1690 -2.5540
 3488SOL    HW222101   1.958   3.973   8.473  0.7129 -0.2285 -0.8553
 3489SOL     OW22102   4.594   1.543   1.826 -0.0632  0.3695  0.0851
 3489SOL    HW122103   4.651   1.496   1.765 -0.4396 -1.4690  1.1537
 3489SOL    HW222104   4.580   1.470   1.887  0.8944 -0.2160 -0.3816
 3490SOL     OW22105   2.501   4.397   1.702  0.0915 -0.0127  0.0216
 3490SOL    HW122106   2.519   4.405   1.608 -0.7149 -1.2410 -0.2371
 3490SOL    HW222107   2.562   4.452   1.751 -0.4043  0.6382 -0.1009
 3491SOL     OW22108   3.739   0.078  13.575  0.3937  0.1373 -0.3778
 3491SOL    HW122109   3.747   0.116  13.487 -0.1459 -1.0328 -0.9359
 3491SOL    HW222110   3.766   4.723  13.561  0.0071  0.4611 -3.2925
 3492SOL     OW22111   0.710   3.717  10.861  0.8932  0.6755  0.3239
 3492SOL    HW122112   0.779   3.683  10.919  2.2249 -0.5529 -1.9783
 3492SOL    HW222113   0.712   3.653  10.790  0.8454 -0.9511  1.7898
 3493SOL     OW22114   1.065   1.939   4.746  0.1628  0.9483 -0.2080
 3493SOL    HW122115   1.052   1.981   4.831 -0.7362 -0.6628  0.4479
 3493SOL    HW222116   0.996   1.873   4.747  2.1117 -1.0725  0.3025
 3494SOL     OW22117   1.860   1.583   5.427 -0.1958  0.6590 -0.1475
 3494SOL    HW122118   1.802   1.529   5.480  0.0023 -2.5571 -3.2000
 3494SOL    HW222119   1.835   1.671   5.454 -1.0194  0.3036  0.2698
 3495SOL     OW22120   4.538   1.786  14.850 -0.3347  0.0792 -0.4802
 3495SOL    HW122121   4.467   1.724  14.869  0.1809 -0.9045 -1.7848
 3495SOL    HW222122   4.613   1.730  14.873  0.2579  0.2872 -1.9178
 3496SOL     OW22123   2.860   2.513   5.169 -0.8339 -0.1908  0.8869
 3496SOL    HW122124   2.765   2.507   5.155 -0.2847 -2.3368 -2.0634
 3496SOL    HW222125   2.865   2.496   5.263 -0.9972 -0.5765  0.8269
 3497SOL     OW22126   2.226   4.343   4.763 -0.2271  0.0518 -0.0098
 3497SOL    HW122127   2.150   4.400   4.755 -0.2909  0.1738  1.5127
 3497SOL    HW222128   2.193   4.256   4.741 -0.1148  0.0695 -0.2564
 3498SOL     OW22129   1.075   0.941  17.480 -0.3933 -0.2102 -0.4871
 3498SOL    HW122130   1.033   1.013  17.526  1.4805  0.2499  0.4880
 3498SOL    HW222131   1.166   0.950  17.508 -0.3036 -2.6925 -0.0037
 3499SOL     OW22132   0.910   4.611   0.837 -1.1867  0.0787 -0.2407
 3499SOL    HW122133   0.963   4.636   0.762 -0.1598 -3.0288 -0.5437
 3499SOL    HW222134   0.832   4.570   0.800 -0.0290 -2.4827  0.1747
 3500SOL     OW22135   4.706   4.650   5.746  0.0076  0.5150 -0.0957
 3500SOL    HW122136   4.733   4.569   5.789 -3.0316 -0.0228  0.8314
 3500SOL    HW222137   4.612   4.640   5.761 -0.1102  0.0491 -1.1090
 3501SOL     OW22138   0.402   0.421   7.631  0.0970  0.2411  0.5456
 3501SOL    HW122139   0.310   0.396   7.639  0.0848  0.2654  0.4820
 3501SOL    HW222140   0.447   0.340   7.654 -2.8051 -0.8990  2.1764
 3502SOL     OW22141   4.170   3.047   4.117 -0.4833 -0.3359  0.4936
 3502SOL    HW122142   4.218   3.126   4.144 -0.4651 -0.3345  0.4579
 3502SOL    HW222143   4.202   3.037   4.027 -1.0657 -1.9221  0.4689
 3503SOL     OW22144   2.219   3.923   3.257 -0.4561  0.4759 -0.0586
 3503SOL    HW122145   2.155   3.989   3.284 -0.9006 -0.2747  0.7111
 3503SOL    HW222146   2.163   3.848   3.242 -2.9460  2.1629  0.8204
 3504SOL     OW22147   1.170   4.604   2.863  0.2686 -0.0331  0.5665
 3504SOL    HW122148   1.199   4.539   2.799 -0.4739  0.1062  0.0796
 3504SOL    HW222149   1.151   4.553   2.942 -1.2596  0.5073  0.5588
 3505SOL     OW22150   2.928   2.677   4.476  0.3767 -0.8454 -0.0222
 3505SOL    HW122151   2.992   2.744   4.501 -1.1435  1.2621 -1.8332
 3505SOL    HW222152   2.962   2.595   4.512 -1.3137 -0.4500  2.4692
 3506SOL     OW22153   0.600   3.319   1.007 -0.3405  0.1312  0.2246
 3506SOL    HW122154   0.680   3.346   0.962 -1.3873  0.8249 -1.2051
 3506SOL    HW222155   0.624   3.341   1.097 -0.3574 -0.6944  0.4271
 3507SOL     OW22156   3.994   1.708  12.393 -0.5490 -0.2365  0.8414
 3507SOL    HW122157   3.950   1.768  12.453  1.7231  2.4196 -0.1595
 3507SOL    HW222158   3.924   1.660  12.348 -0.7218 -0.8848  1.7880
 3508SOL     OW22159   3.962   3.681   7.358  0.5467  0.5397  0.1283
 3508SOL    HW122160   4.049   3.659   7.322  0.8785  0.8511  0.7423
 3508SOL    HW222161   3.942   3.757   7.304  0.5026  0.0205 -0.5904
 3509SOL     OW22162   1.979   4.360   9.017 -0.0544 -0.0582  0.0183
 3509SOL    HW122163   2.061   4.408   9.007  0.1821 -0.2332  1.1006
 3509SOL    HW222164   1.917   4.430   9.038  0.3805  0.6350 -1.0529
 3510SOL     OW22165   1.420   4.617  14.552 -0.1821  0.0711 -0.1725
 3510SOL    HW122166   1.368   4.635  14.474  1.0208 -0.8996 -1.1953
 3510SOL    HW222167   1.408   4.692  14.609  2.0392 -0.3992  0.9158
 3511SOL     OW22168   3.594   4.556   2.548 -0.0905 -0.3169 -0.1228
 3511SOL    HW122169   3.538   4.570   2.624  1.8249  0.5380  1.1262
 3511SOL    HW222170   3.647   4.635   2.561  0.1553 -0.1214 -2.3078
 3512SOL     OW22171   3.941   0.270  16.236 -0.2655 -0.0627  0.1243
 3512SOL    HW122172   3.939   0.328  16.160 -2.3121  0.0266  0.2267
 3512SOL    HW222173   3.846   0.278  16.251  0.0289 -0.3518  2.2600
 3513SOL     OW22174   2.679   3.880  14.323  0.2420 -0.3016 -0.1086
 3513SOL    HW122175   2.642   3.926  14.248  0.9304 -0.3586 -0.4820
 3513SOL    HW222176   2.770   3.907  14.320  0.3121 -0.5487 -0.2347
 3514SOL     OW22177   0.503   2.050   0.762  0.0298 -0.0824 -0.2893
 3514SOL    HW122178   0.544   2.040   0.676  2.0897 -0.8363  0.7758
 3514SOL    HW222179   0.537   2.134   0.793  0.7465 -0.0343 -1.2012
 3515SOL     OW22180   0.511   2.796   5.100  0.2683  0.0539 -0.0412
 3515SOL    HW122181   0.574   2.836   5.040  0.7434  2.3527  1.9397
 3515SOL    HW222182   0.565   2.788   5.179 -0.5277 -0.0653  0.4959
 3516SOL     OW22183   0.801   2.281   1.011  0.0365  0.0285 -0.2940
 3516SOL    HW122184   0.735   2.250   1.074 -0.2803  0.7565 -0.2676
 3516SOL    HW222185   0.853   2.202   0.997  0.9108  0.8038 -1.4660
 3517SOL     OW22186   3.090   0.312   0.832 -0.1297 -0.5577 -0.6546
 3517SOL    HW122187   3.021   0.371   0.863  0.6175 -0.1057  0.1428
 3517SOL    HW222188   3.029   0.239   0.817  0.3513 -0.8895 -0.9602
 3518SOL     OW22189   0.217   2.278   8.147 -0.1394 -0.2648 -0.1660
 3518SOL    HW122190   0.153   2.248   8.083 -0.0614 -2.5257  0.8283
 3518SOL    HW222191   0.252   2.199   8.188 -1.1427 -1.0194 -0.7795
 3519SOL     OW22192   4.391   3.368  15.097 -0.6187  0.2842  0.1768
 3519SOL    HW122193   4.444   3.411  15.030  0.7156 -0.4338  0.7715
 3519SOL    HW222194   4.450   3.368  15.173  3.4548 -2.6238 -2.9980
 3520SOL     OW22195   0.635   4.272   2.182  0.4242 -0.1059 -0.3757
 3520SOL    HW122196   0.636   4.253   2.088 -1.5063 -0.6550 -0.2827
 3520SOL    HW222197   0.709   4.333   2.190  1.0014 -0.5619 -2.0830
 3521SOL     OW22198   0.043   0.172  14.862  0.4075  0.1542 -0.1064
 3521SOL    HW122199   4.707   0.216  14.816  0.5924  1.2424  0.6585
 3521SOL    HW222200   0.109   0.240  14.873  0.5555  0.0603 -0.4190
 3522SOL     OW22201   0.082   1.204   3.332 -0.0214 -0.3432 -0.1817
 3522SOL    HW122202   0.160   1.226   3.383  1.6687 -0.7391 -2.5751
 3522SOL    HW222203   0.104   1.220   3.240  0.4361 -1.0755 -0.1998
 3523SOL     OW22204   1.402   3.767   7.982  0.5769 -0.4634  0.3977
 3523SOL    HW122205   1.317   3.748   8.022 -1.2972  2.0806 -2.4190
 3523SOL    HW222206   1.372   3.843   7.933  1.4324 -0.3392  0.0711
 3524SOL     OW22207   0.529   4.055   7.757  0.4617  0.0644 -0.4324
 3524SOL    HW122208   0.564   4.111   7.689  1.3647  0.5737  0.4529
 3524SOL    HW222209   0.448   4.021   7.719  2.0342 -3.2379 -0.8684
 3525SOL     OW22210   3.064   2.663   8.534 -0.1348  0.6435 -0.1264
 3525SOL    HW122211   3.149   2.621   8.516 -0.1227  1.2952 -1.6004
 3525SOL    HW222212   3.081   2.697   8.622 -0.5434  0.3124  0.0795
 3526SOL     OW22213   1.873   2.869   7.015 -0.3009  0.5723 -0.4169
 3526SOL    HW122214   1.927   2.885   7.093 -1.7144 -0.7672  0.8501
 3526SOL    HW222215   1.801   2.931   7.015  1.1751  2.2731 -2.7100
 3527SOL     OW22216   3.530   0.504   3.199  0.0301  0.9985 -0.0516
 3527SOL    HW122217   3.450   0.539   3.161 -0.5562  0.0187  0.2719
 3527SOL    HW222218   3.548   0.570   3.267  0.0791 -0.3528  1.2496
 3528SOL     OW22219   0.408   0.516   1.565  0.5055  0.6077 -0.3994
 3528SOL    HW122220   0.497   0.490   1.544  0.4280 -0.5608  0.7523
 3528SOL    HW222221   0.424   0.609   1.582 -1.0154  0.6401  0.9195
 3529SOL     OW22222   2.911   1.044   2.749 -0.3994  0.6507  0.1669
 3529SOL    HW122223   2.968   0.967   2.742 -0.4657  0.2979  3.3730
 3529SOL    HW222224   2.833   1.003   2.712  0.0681 -0.5304  0.4646
 3530SOL     OW22225   1.831   0.658  10.920 -0.4743 -0.3439  0.6455
 3530SOL    HW122226   1.806   0.727  10.981  0.5200 -0.0038  0.6661
 3530SOL    HW222227   1.757   0.597  10.917 -0.9072  0.1287  2.1092
 3531SOL     OW22228   2.681   3.815   3.331 -0.1909  0.6598  0.0153
 3531SOL    HW122229   2.631   3.756   3.387 -0.2094  1.6423  1.0361
 3531SOL    HW222230   2.620   3.888   3.322  1.1612  1.7047 -0.7483
 3532SOL     OW22231   3.315   3.719   9.254  0.0700 -0.6288 -0.2967
 3532SOL    HW122232   3.281   3.796   9.209  0.8641 -0.6565 -0.9429
 3532SOL    HW222233   3.236   3.668   9.269 -1.9588  2.8055  0.6224
 3533SOL     OW22234   2.987   3.502   6.338 -0.3652 -0.2862 -0.2810
 3533SOL    HW122235   2.991   3.597   6.351 -1.5211 -0.5139  1.7642
 3533SOL    HW222236   2.897   3.477   6.316 -0.1400 -0.4656 -0.9927
 3534SOL     OW22237   2.542   0.465   7.519 -0.0207  0.8127 -0.1222
 3534SOL    HW122238   2.496   0.432   7.597  0.1662 -2.9867 -1.6505
 3534SOL    HW222239   2.488   0.444   7.443 -0.8407  1.0742  0.3824
 3535SOL     OW22240   0.273   4.294   1.201 -0.1215 -0.0893 -0.5580
 3535SOL    HW122241   0.231   4.244   1.271  0.0707 -1.0164 -1.1088
 3535SOL    HW222242   0.327   4.362   1.242 -0.2179  1.2238 -2.6018
 3536SOL     OW22243   2.735   4.158   8.274 -0.0991 -0.9464  0.1622
 3536SOL    HW122244   2.656   4.162   8.220 -0.2689  0.2800  0.4896
 3536SOL    HW222245   2.801   4.146   8.206  0.7333  0.1281  0.7872
 3537SOL     OW22246   0.327   3.573   4.649  0.5587  0.2456 -0.4444
 3537SOL    HW122247   0.322   3.524   4.566 -1.3502 -0.5706  0.1501
 3537SOL    HW222248   0.421   3.576   4.665  0.6969  0.8632 -1.3341
 3538SOL     OW22249   3.218   3.816   2.237  1.3477 -0.8015 -0.0411
 3538SOL    HW122250   3.157   3.874   2.191  1.2791 -0.9298 -0.1127
 3538SOL    HW222251   3.224   3.736   2.185  0.3965 -0.7341 -0.2631
 3539SOL     OW22252   0.382   2.956  14.907  0.5481  0.1913  0.0947
 3539SOL    HW122253   0.411   3.014  14.977 -2.2217  2.0579 -0.3244
 3539SOL    HW222254   0.413   3.011  14.835 -0.4251 -0.7690 -1.0523
 3540SOL     OW22255   3.736   4.430   9.070 -0.0894  0.4799 -0.2653
 3540SOL    HW122256   3.671   4.480   9.021 -0.8376  1.5663  1.8223
 3540SOL    HW222257   3.732   4.358   9.008  0.9223 -0.4168  0.7121
 3541SOL     OW22258   2.869   3.083   6.541 -0.5933  0.2206  0.5122
 3541SOL    HW122259   2.847   3.174   6.523  1.1430  0.5946  0.2900
 3541SOL    HW222260   2.961   3.089   6.565 -0.5122 -1.3098  0.6095
 3542SOL     OW22261   0.230   0.972   0.245 -0.3262 -0.2126  0.3587
 3542SOL    HW122262   0.211   0.880   0.260 -2.6172  0.4847  1.8160
 3542SOL    HW222263   0.146   1.001   0.210  0.0673  0.2691 -0.1777
 3543SOL     OW22264   0.244   4.004   3.462  0.1714 -0.3514  0.3107
 3543SOL    HW122265   0.149   4.016   3.457  0.3730  0.0346 -2.8324
 3543SOL    HW222266   0.265   4.002   3.368 -0.2449  0.9540  0.1875
 3544SOL     OW22267   2.756   2.452   2.751 -0.6400  0.2179 -0.1423
 3544SOL    HW122268   2.707   2.525   2.789  1.4014  1.5256 -0.0016
 3544SOL    HW222269   2.812   2.504   2.693 -0.0132 -1.2630 -0.8570
 3545SOL     OW22270   2.156   0.948   1.975 -0.3391  0.2823 -0.4723
 3545SOL    HW122271   2.165   0.973   1.883 -0.7127 -1.2933 -0.9378
 3545SOL    HW222272   2.233   0.891   1.983  0.0043  1.0730  1.9193
 3546SOL     OW22273   1.936   3.002  12.763 -0.4506  0.2324  0.4946
 3546SOL    HW122274   2.006   3.006  12.828  1.0892  0.8786 -1.2137
 3546SOL    HW222275   1.859   3.028  12.813 -0.8755  0.8233 -0.4629
 3547SOL     OW22276   3.755   4.116   3.012 -0.4983  0.3880  0.2188
 3547SOL    HW122277   3.708   4.065   2.947  0.9532  0.5203 -0.9215
 3547SOL    HW222278   3.830   4.159   2.970  0.5804 -0.6011  1.1429
 3548SOL     OW22279   3.096   0.093   5.852  0.2092  0.3041  0.3124
 3548SOL    HW122280   3.179   0.053   5.876  0.3335  0.0238 -0.5620
 3548SOL    HW222281   3.040   0.069   5.926 -1.0915 -0.2079 -0.8198
 3549SOL     OW22282   3.039   0.375   5.378  0.0313 -0.2411  0.4171
 3549SOL    HW122283   3.027   0.395   5.285  0.4496 -0.5499  0.3003
 3549SOL    HW222284   2.982   0.444   5.413  1.9916  1.4812  0.1313
 3550SOL     OW22285   2.522   2.587   0.717 -0.1149  0.3902  0.0691
 3550SOL    HW122286   2.582   2.643   0.668 -1.3021  0.6008 -1.1524
 3550SOL    HW222287   2.464   2.568   0.644  1.3817  0.0434 -1.0426
 3551SOL     OW22288   0.499   1.877   5.373 -0.1486  0.2426  0.2827
 3551SOL    HW122289   0.521   1.784   5.384 -1.1216 -0.2510 -1.7984
 3551SOL    HW222290   0.491   1.898   5.466  0.2116  0.3009  0.3005
 3552SOL     OW22291   0.819   4.300   8.397  0.5798 -0.1314  0.1638
 3552SOL    HW122292   0.736   4.278   8.355  1.3299 -0.8066 -0.9751
 3552SOL    HW222293   0.861   4.357   8.332 -0.3671  1.1010  0.6462
 3553SOL     OW22294   3.766   0.335   0.892  0.3534  0.0399 -0.5410
 3553SOL    HW122295   3.681   0.312   0.930 -0.3204  0.6805 -1.6526
 3553SOL    HW222296   3.763   0.430   0.890 -1.5816 -0.0521 -2.4008
 3554SOL     OW22297   1.046   0.999   6.220  0.5696  0.0716  0.1170
 3554SOL    HW122298   1.064   1.060   6.292 -3.7988  1.6586 -0.1081
 3554SOL    HW222299   0.958   1.016   6.186  0.3763 -1.1711 -0.0157
 3555SOL     OW22300   1.765   0.372   7.395  0.8212  0.2795  0.1833
 3555SOL    HW122301   1.687   0.416   7.365  0.6642  0.9558  1.5872
 3555SOL    HW222302   1.718   0.314   7.455  1.9669  0.9032  1.6797
 3556SOL     OW22303   4.472   1.486   7.207  0.1309  0.3868  0.7167
 3556SOL    HW122304   4.478   1.440   7.290  2.2583 -0.6275 -0.0086
 3556SOL    HW222305   4.376   1.491   7.207  0.1732  1.2358 -0.3832
 3557SOL     OW22306   4.275   1.616   3.488  0.2992 -0.3243 -0.3432
 3557SOL    HW122307   4.205   1.634   3.426  1.1857 -1.2758 -1.6434
 3557SOL    HW222308   4.296   1.706   3.513  0.7183 -0.6753  0.5682
 3558SOL     OW22309   0.359   2.564   1.315 -0.4883 -0.1795 -0.2962
 3558SOL    HW122310   0.446   2.532   1.339 -1.1590 -1.9787 -0.2421
 3558SOL    HW222311   0.369   2.654   1.285 -0.6700  0.3463  1.2172
 3559SOL     OW22312   2.547   3.448  16.667 -0.6477  0.3034 -0.4141
 3559SOL    HW122313   2.520   3.365  16.706  0.2887 -0.9915 -2.5047
 3559SOL    HW222314   2.584   3.492  16.744 -0.3244  0.1480 -0.4806
 3560SOL     OW22315   4.686   4.464   4.835  0.1950 -0.5043  0.5717
 3560SOL    HW122316   0.013   4.450   4.905 -0.1814  1.6924  1.3430
 3560SOL    HW222317   4.602   4.448   4.877  0.2196 -0.1666  0.7441
 3561SOL     OW22318   0.461   1.340  15.841 -0.2725  0.4002 -0.5659
 3561SOL    HW122319   0.511   1.333  15.760 -0.1052 -1.8798 -0.2868
 3561SOL    HW222320   0.442   1.433  15.833 -0.8715  0.1933 -1.5570
 3562SOL     OW22321   0.444   4.445   7.142 -0.3834 -0.3347  0.0138
 3562SOL    HW122322   0.442   4.495   7.061  1.5434  0.1078  0.2559
 3562SOL    HW222323   0.539   4.432   7.144 -0.4557 -0.7764  0.6865
 3563SOL     OW22324   2.435   2.844   3.762  0.3783  0.0240 -0.5675
 3563SOL    HW122325   2.433   2.896   3.843  2.5432 -5.0351  2.7389
 3563SOL    HW222326   2.388   2.903   3.704 -0.3608 -0.7695 -0.7768
 3564SOL     OW22327   0.668   2.166  12.539 -0.6803 -0.5926 -0.0153
 3564SOL    HW122328   0.586   2.189  12.583 -0.4458  0.2220 -0.0086
 3564SOL    HW222329   0.693   2.254  12.512  1.1442 -1.0391  0.2361
 3565SOL     OW22330   1.323   0.556  10.884  0.3992  0.1306 -0.0181
 3565SOL    HW122331   1.314   0.583  10.976 -0.5686  0.6428 -0.2634
 3565SOL    HW222332   1.322   0.644  10.845 -2.0998 -0.1007 -0.4728
 3566SOL     OW22333   3.984   3.189   1.748 -0.5816  0.2448  0.1185
 3566SOL    HW122334   4.060   3.223   1.701 -0.8015 -1.2663 -1.3648
 3566SOL    HW222335   3.953   3.266   1.796 -2.0689 -1.5628  2.0493
 3567SOL     OW22336   3.569   2.686   9.679 -0.1001  0.2391  0.2003
 3567SOL    HW122337   3.656   2.724   9.674  0.2635 -0.7081 -0.6652
 3567SOL    HW222338   3.579   2.609   9.737  1.4156 -1.3928 -2.2383
 3568SOL     OW22339   4.700   3.177   4.458  0.4229 -0.2445  0.4017
 3568SOL    HW122340   4.671   3.093   4.422  0.2945 -0.8511  1.9105
 3568SOL    HW222341   4.675   3.232   4.385 -0.5185  0.5270  1.3017
 3569SOL     OW22342   4.691   3.969  12.595 -0.2939  0.4176  0.3586
 3569SOL    HW122343   4.656   4.020  12.669  0.9795 -0.1420  1.3466
 3569SOL    HW222344   4.614   3.915  12.583 -0.4396  0.8890 -0.8180
 3570SOL     OW22345   2.976   4.246  16.617 -0.1007 -0.7052 -0.1937
 3570SOL    HW122346   3.066   4.216  16.623  0.4273  1.3944  2.3146
 3570SOL    HW222347   2.966   4.306  16.691  0.7748  0.0538 -0.6972
 3571SOL     OW22348   0.475   1.417  17.239  0.6685  0.2398 -0.2851
 3571SOL    HW122349   0.477   1.454  17.327  0.7150  0.3434 -0.3287
 3571SOL    HW222350   0.509   1.329  17.255 -2.4789 -1.0988 -1.1381
 3572SOL     OW22351   3.341   2.462   8.141  0.1985  0.2790  0.2792
 3572SOL    HW122352   3.360   2.550   8.173  1.3160  0.4368 -0.8482
 3572SOL    HW222353   3.429   2.424   8.132 -0.4678 -0.7898 -1.7452
 3573SOL     OW22354   2.882   3.618  11.594 -0.1619 -0.1591  0.3248
 3573SOL    HW122355   2.802   3.662  11.622 -0.8233 -0.7878 -0.5914
 3573SOL    HW222356   2.939   3.694  11.606  0.7062 -0.5367 -1.4531
 3574SOL     OW22357   0.730   1.461   3.770  0.0038 -0.1914 -0.1393
 3574SOL    HW122358   0.819   1.426   3.768  0.4266  0.7327  3.2253
 3574SOL    HW222359   0.747   1.545   3.812 -0.7671  0.1154 -0.4290
 3575SOL     OW22360   3.205   1.324   5.075 -0.2144 -0.4946 -0.6075
 3575SOL    HW122361   3.153   1.259   5.028  0.9006  0.7454 -3.5483
 3575SOL    HW222362   3.279   1.269   5.102 -1.5303 -1.5843  0.7407
 3576SOL     OW22363   2.743   4.408   5.339 -0.6196  0.3299 -0.3973
 3576SOL    HW122364   2.780   4.485   5.381 -0.2113 -1.0831  1.8429
 3576SOL    HW222365   2.818   4.381   5.287  0.4155 -0.3346  1.4356
 3577SOL     OW22366   2.449   0.901  14.182 -0.2215 -0.1282  0.7073
 3577SOL    HW122367   2.378   0.931  14.125  1.0813  2.2020  0.2975
 3577SOL    HW222368   2.463   0.816  14.140  1.8553  1.6685 -2.2208
 3578SOL     OW22369   2.281   4.691   0.048  0.3238  0.4230 -0.1356
 3578SOL    HW122370   2.258   4.706  17.698 -1.8822  2.6249  0.7538
 3578SOL    HW222371   2.207   4.714   0.105  0.4147  2.6570 -0.9045
 3579SOL     OW22372   2.879   0.351   7.078 -0.3563  0.2170  0.0455
 3579SOL    HW122373   2.820   0.403   7.133  2.4470  1.3790  1.9362
 3579SOL    HW222374   2.836   0.371   6.995  0.7231  0.9344 -0.3322
 3580SOL     OW22375   3.901   4.359  10.869  0.6840 -0.3721 -0.1423
 3580SOL    HW122376   3.863   4.290  10.924 -2.5280  0.7625 -0.9631
 3580SOL    HW222377   3.889   4.429  10.933  1.8663  0.0612 -0.3905
 3581SOL     OW22378   3.219   2.554   5.718 -0.1494  0.2791  0.2772
 3581SOL    HW122379   3.274   2.549   5.796  0.5805 -1.3715 -0.3327
 3581SOL    HW222380   3.130   2.539   5.751  0.6409 -0.5892  2.0481
 3582SOL     OW22381   1.075   3.570  10.464  0.1436  0.1188 -0.2536
 3582SOL    HW122382   1.093   3.661  10.485  0.1716 -0.2294  1.2572
 3582SOL    HW222383   0.981   3.565  10.483 -0.4519  0.5005 -3.1268
 3583SOL     OW22384   3.393   4.721   6.020 -0.1267 -0.0896  0.1749
 3583SOL    HW122385   3.356   4.668   6.090 -2.2186  2.0727  0.7168
 3583SOL    HW222386   3.418   0.068   6.062 -0.0444 -0.3481  0.6344
 3584SOL     OW22387   4.598   4.108   9.730 -0.1090 -0.7913  0.2449
 3584SOL    HW122388   4.672   4.081   9.785 -1.4449 -1.6691  1.6315
 3584SOL    HW222389   4.539   4.034   9.744 -1.3848  0.1187 -0.2993
 3585SOL     OW22390   1.562   4.487  17.134 -0.1061 -0.3396  0.5996
 3585SOL    HW122391   1.513   4.469  17.054  0.7031 -1.1134  0.2830
 3585SOL    HW222392   1.496   4.530  17.189  0.5790  1.5490 -0.0364
 3586SOL     OW22393   3.152   3.910   5.861  0.1972  0.8072 -0.3462
 3586SOL    HW122394   3.066   3.873   5.880  0.3289  0.3672 -0.6054
 3586SOL    HW222395   3.159   3.957   5.944  2.5791 -0.7953  0.3627
 3587SOL     OW22396   1.020   2.285   9.908  0.0305 -0.1601  0.1307
 3587SOL    HW122397   0.949   2.249   9.962  0.3913 -0.1663  0.6000
 3587SOL    HW222398   1.091   2.222   9.913 -0.3030 -0.5055  0.5191
 3588SOL     OW22399   3.592   1.230  12.779 -0.5424  0.1907  0.2682
 3588SOL    HW122400   3.523   1.164  12.783 -1.0396  0.8684  2.8305
 3588SOL    HW222401   3.575   1.276  12.861  1.2674  0.2272  0.6225
 3589SOL     OW22402   1.535   4.518   8.869  0.5719  0.0617  0.3848
 3589SOL    HW122403   1.613   4.546   8.822 -0.8026  1.7124 -0.9122
 3589SOL    HW222404   1.521   4.431   8.830  1.5198 -1.0252  2.4483
 3590SOL     OW22405   1.900   1.176   8.512 -0.6989 -0.0868  0.0466
 3590SOL    HW122406   1.988   1.205   8.489 -1.0901  0.8515 -0.2480
 3590SOL    HW222407   1.860   1.201   8.429  0.5855 -1.1205 -0.8824
 3591SOL     OW22408   1.434   3.873   7.503  0.0377 -0.5170  0.4078
 3591SOL    HW122409   1.437   3.790   7.456  0.3894  0.9562 -2.2004
 3591SOL    HW222410   1.340   3.885   7.514  0.0898  0.2133  0.0515
 3592SOL     OW22411   4.638   3.091   1.391  0.7164 -0.0630  0.3673
 3592SOL    HW122412   4.567   3.034   1.421  1.8982 -1.1098  1.1386
 3592SOL    HW222413   4.624   3.172   1.440 -0.3435  0.9348 -1.5918
 3593SOL     OW22414   4.584   4.631   3.427  0.1682 -0.3356  0.5111
 3593SOL    HW122415   4.638   4.699   3.386  1.7471 -1.1632  1.2256
 3593SOL    HW222416   4.535   4.684   3.490  3.4340  3.9864 -0.5719
 3594SOL     OW22417   0.377   1.542   1.558 -0.4158 -0.0807 -0.3111
 3594SOL    HW122418   0.301   1.596   1.580 -0.3604 -0.9716  2.0847
 3594SOL    HW222419   0.388   1.505   1.646 -1.3696 -0.7958 -0.4975
 3595SOL     OW22420   1.489   1.001   8.282  0.4964 -0.3914  0.0659
 3595SOL    HW122421   1.495   1.056   8.360  1.1085  0.9809 -0.9484
 3595SOL    HW222422   1.486   1.074   8.220 -3.0879 -0.3530  0.2719
 3596SOL     OW22423   2.245   1.675   4.136 -0.1143 -0.1334  0.0884
 3596SOL    HW122424   2.252   1.643   4.045 -2.5701  1.9064 -0.8152
 3596SOL    HW222425   2.307   1.611   4.170 -0.7429  0.7398  2.8539
 3597SOL     OW22426   2.927   1.042  17.064  0.0819  0.0054  0.3675
 3597SOL    HW122427   3.002   1.095  17.088 -1.5545  3.2441 -1.5719
 3597SOL    HW222428   2.969   0.977  17.008  1.6916  2.2752 -1.0329
 3598SOL     OW22429   3.763   2.239   8.973  0.1911  0.2056  0.0313
 3598SOL    HW122430   3.745   2.197   8.889 -0.4637  0.6239 -0.0372
 3598SOL    HW222431   3.702   2.313   8.978 -1.1167 -0.7357 -1.9648
 3599SOL     OW22432   1.700   0.898  10.769 -0.5510 -0.0927 -0.2768
 3599SOL    HW122433   1.718   0.882  10.861  0.6271  1.6540 -0.1990
 3599SOL    HW222434   1.786   0.935  10.750 -0.0758 -0.4633  1.2117
 3600SOL     OW22435   4.633   2.447  16.683 -0.6096  0.1699  0.2840
 3600SOL    HW122436   4.607   2.516  16.623  0.3171  1.1489  1.0265
 3600SOL    HW222437   4.709   2.405  16.643 -0.0283  3.4334 -1.9978
 3601SOL     OW22438   3.215   0.729   0.851  0.3009  0.5179 -0.0124
 3601SOL    HW122439   3.231   0.637   0.829 -0.9532  0.3502 -0.2375
 3601SOL    HW222440   3.157   0.745   0.777  1.3864 -0.0818 -0.9957
 3602SOL     OW22441   2.087   0.910   1.511  0.2153  0.9485 -0.0509
 3602SOL    HW122442   2.133   0.838   1.553  0.0919  0.1355 -1.2962
 3602SOL    HW222443   2.046   0.868   1.434 -0.2612 -0.1750  0.8085
 3603SOL     OW22444   2.181   3.755   7.471  0.5450  0.2898 -0.2963
 3603SOL    HW122445   2.183   3.732   7.564 -0.5313 -3.7810 -1.2435
 3603SOL    HW222446   2.103   3.702   7.452 -0.2562  1.1215  0.7568
 3604SOL     OW22447   4.060   1.674  10.904  0.2805 -0.2870  0.3269
 3604SOL    HW122448   4.003   1.722  10.844  1.5610 -0.1480 -0.7586
 3604SOL    HW222449   3.994   1.630  10.959 -1.1843 -0.6353 -1.7120
 3605SOL     OW22450   2.487   2.510   4.460  0.1646  0.7271  0.2332
 3605SOL    HW122451   2.420   2.516   4.527 -1.0296  1.3532 -1.0274
 3605SOL    HW222452   2.526   2.596   4.477  0.1174  0.9403 -0.7160
 3606SOL     OW22453   2.048   3.207   7.142  0.0169  0.5223  0.3306
 3606SOL    HW122454   1.970   3.239   7.096  0.7104  1.4421 -0.2153
 3606SOL    HW222455   2.031   3.233   7.232 -0.9053 -2.7707  1.0955
 3607SOL     OW22456   0.274   1.104   4.589 -0.0383 -0.1464 -0.4735
 3607SOL    HW122457   0.247   1.023   4.545  1.2453 -0.4642 -0.6607
 3607SOL    HW222458   0.227   1.174   4.544  1.2314 -0.3859 -2.1638
 3608SOL     OW22459   0.974   3.733  15.386  0.0182 -0.0413  0.1304
 3608SOL    HW122460   0.880   3.734  15.407  0.0469  0.2772  0.2501
 3608SOL    HW222461   0.980   3.802  15.320 -0.4299 -0.7348 -0.6313
 3609SOL     OW22462   1.212   3.878   1.908 -0.0931 -0.0882  0.6337
 3609SOL    HW122463   1.304   3.850   1.909 -0.1776 -0.5327 -3.2786
 3609SOL    HW222464   1.182   3.832   1.986 -0.9219 -2.5485 -1.1313
 3610SOL     OW22465   1.025   0.161   1.915 -0.2885  0.1656 -0.6107
 3610SOL    HW122466   1.058   0.160   2.005 -2.7321  1.0839  0.3016
 3610SOL    HW222467   0.941   0.116   1.928 -1.4541  1.8146 -2.4133
 3611SOL     OW22468   3.604   4.212  15.448  0.5692  0.0023  0.2560
 3611SOL    HW122469   3.581   4.263  15.370 -0.3263  1.3737  1.4139
 3611SOL    HW222470   3.633   4.129  15.410  0.5280  0.2995 -0.4417
 3612SOL     OW22471   2.454   3.515  17.015  0.5802 -0.2801  0.5331
 3612SOL    HW122472   2.391   3.553  16.954  1.7680 -0.8547 -1.0429
 3612SOL    HW222473   2.472   3.438  16.961  0.8624 -0.5928  1.0782
 3613SOL     OW22474   1.946   2.453   7.220 -0.6952 -0.9724  0.0433
 3613SOL    HW122475   1.914   2.382   7.277 -0.2712 -1.9083 -0.8879
 3613SOL    HW222476   2.040   2.445   7.236 -0.9706 -0.6449  1.8100
 3614SOL     OW22477   1.039   1.958   0.626 -0.4710 -0.1383  0.2575
 3614SOL    HW122478   1.049   2.053   0.630  1.2861 -0.2135 -1.8355
 3614SOL    HW222479   1.118   1.940   0.574  0.2546  0.7263  1.0608
 3615SOL     OW22480   2.455   1.691  13.424  0.2440  0.2573  0.2187
 3615SOL    HW122481   2.538   1.712  13.467  0.6135  0.5933 -0.6488
 3615SOL    HW222482   2.497   1.650  13.348  1.0943  0.3606  0.6237
 3616SOL     OW22483   3.318   2.819   9.441  0.3759  0.0062 -0.0016
 3616SOL    HW122484   3.273   2.865   9.511 -0.7804 -0.9744 -0.0936
 3616SOL    HW222485   3.365   2.887   9.394 -1.4290  1.1719 -0.1063
 3617SOL     OW22486   4.457   0.769   4.569  0.1308 -0.2383 -0.4347
 3617SOL    HW122487   4.511   0.722   4.505 -2.3144  1.3052 -3.5822
 3617SOL    HW222488   4.462   0.855   4.528 -0.3557  0.1052  0.2248
 3618SOL     OW22489   2.114   2.829   8.444 -0.2752 -0.0656  0.7588
 3618SOL    HW122490   2.101   2.892   8.514  1.0561  0.2022  0.7627
 3618SOL    HW222491   2.155   2.757   8.491 -0.3155 -0.2758  0.4734
 3619SOL     OW22492   1.425   3.954   5.270  0.1925 -0.5228  0.3773
 3619SOL    HW122493   1.411   3.879   5.212 -2.1986 -0.4361  0.8702
 3619SOL    HW222494   1.339   3.995   5.264  1.1020  0.9433 -2.6526
 3620SOL     OW22495   0.910   0.324   2.211 -0.0585  0.0131 -0.2599
 3620SOL    HW122496   0.978   0.258   2.225 -0.2913  0.2833  2.2946
 3620SOL    HW222497   0.892   0.369   2.294  2.6296  0.9986 -0.2097
 3621SOL     OW22498   1.711   0.934  12.959 -0.1303  0.2332  0.4313
 3621SOL    HW122499   1.714   0.884  12.877  0.3728 -1.5630  1.5560
 3621SOL    HW222500   1.757   1.017  12.944 -0.9562  1.0657  2.4605
 3622SOL     OW22501   3.383   1.898  12.291 -0.4890  0.1471 -0.2720
 3622SOL    HW122502   3.326   1.851  12.231  1.1530 -1.8919 -0.2561
 3622SOL    HW222503   3.399   1.973  12.235 -2.5247  1.1224  0.4537
 3623SOL     OW22504   0.797   2.258   4.747 -0.2971  0.2805 -0.2534
 3623SOL    HW122505   0.797   2.350   4.773 -2.6307  0.4630 -0.8173
 3623SOL    HW222506   0.775   2.222   4.833  2.5457  0.2491  0.4558
 3624SOL     OW22507   1.527   1.879   2.948 -0.0639  0.6820 -0.2044
 3624SOL    HW122508   1.475   1.884   3.028 -0.7928  0.4176 -0.6710
 3624SOL    HW222509   1.580   1.800   2.963 -1.8014 -0.2421  1.0257
 3625SOL     OW22510   3.620   1.294   7.563 -0.1132  0.6218 -0.3365
 3625SOL    HW122511   3.651   1.382   7.543 -0.6040  0.7023 -0.7394
 3625SOL    HW222512   3.648   1.277   7.653 -4.2422  3.6188  1.5186
 3626SOL     OW22513   0.826   2.469  10.629  0.7143  0.5922 -0.0329
 3626SOL    HW122514   0.778   2.482  10.711  0.9550 -0.5047  0.2772
 3626SOL    HW222515   0.808   2.379  10.602 -1.5156  1.3411 -1.0094
 3627SOL     OW22516   3.367   2.087   7.335  0.0613  0.2874  0.0650
 3627SOL    HW122517   3.388   2.017   7.397  1.1574  0.7772  0.2467
 3627SOL    HW222518   3.318   2.141   7.396  1.4788  1.1310  0.4525
 3628SOL     OW22519   2.144   4.201  10.412  0.0710  0.0927  0.5858
 3628SOL    HW122520   2.081   4.150  10.461 -0.7655  1.2250  0.6831
 3628SOL    HW222521   2.219   4.216  10.469 -0.8348  1.9221  1.2694
 3629SOL     OW22522   0.735   3.415   7.409 -0.6527 -0.2604 -0.9945
 3629SOL    HW122523   0.647   3.393   7.437  0.7410 -2.0571  1.9525
 3629SOL    HW222524   0.746   3.346   7.344 -2.2656  1.4762 -3.1041
 3630SOL     OW22525   1.683   3.484   1.397  0.1448 -0.0930 -0.0723
 3630SOL    HW122526   1.691   3.390   1.412  1.5930  0.0109 -0.2274
 3630SOL    HW222527   1.656   3.494   1.305 -0.5047  2.5011  0.3868
 3631SOL     OW22528   3.605   3.779   2.015 -0.1304 -0.6975  0.7768
 3631SOL    HW122529   3.577   3.856   2.064  1.8263 -0.5313  1.6264
 3631SOL    HW222530   3.672   3.740   2.070  0.5660  0.2766  0.6235
 3632SOL     OW22531   3.286   3.183   7.978  0.1801  0.1255  0.5643
 3632SOL    HW122532   3.355   3.249   7.982  0.2749  0.0313  0.4704
 3632SOL    HW222533   3.248   3.193   8.065 -1.4160 -1.6726  0.0503
 3633SOL     OW22534   1.661   1.876   3.797  0.4132  0.0818 -0.2635
 3633SOL    HW122535   1.712   1.942   3.844 -0.3756 -0.0298  0.7532
 3633SOL    HW222536   1.586   1.859   3.854  1.7263  0.4451  1.5898
 3634SOL     OW22537   4.567   3.156  14.453 -0.7726  0.1025 -0.0822
 3634SOL    HW122538   4.517   3.151  14.535  2.5702  0.5687  1.9836
 3634SOL    HW222539   4.656   3.150  14.488 -0.5151  0.1275 -0.7231
 3635SOL     OW22540   2.561   3.340   1.565  0.0237  0.3629  0.3188
 3635SOL    HW122541   2.513   3.303   1.491  1.4573  1.9383 -1.3669
 3635SOL    HW222542   2.492   3.396   1.602 -2.2358 -0.6119 -2.3859
 3636SOL     OW22543   3.813   0.661  13.967  0.3915  1.1224 -0.0043
 3636SOL    HW122544   3.890   0.616  14.002  0.9513  1.7814 -0.3896
 3636SOL    HW222545   3.775   0.600  13.904 -1.2117  1.8068  0.2831
 3637SOL     OW22546   0.314   3.662   3.326 -0.2036 -0.3579  0.9144
 3637SOL    HW122547   0.241   3.695   3.275 -0.6583 -1.3069  0.9490
 3637SOL    HW222548   0.376   3.735   3.335 -0.7482  0.1636  0.4007
 3638SOL     OW22549   2.606   1.086  14.047  0.4665  0.2440 -0.1939
 3638SOL    HW122550   2.587   1.159  14.106 -2.0005 -0.9115  0.4428
 3638SOL    HW222551   2.554   1.014  14.083  1.2628 -0.5871 -0.6993
 3639SOL     OW22552   1.828   3.405  10.498  0.2155  0.6462  0.2650
 3639SOL    HW122553   1.858   3.321  10.463  3.5676  1.2289  1.7660
 3639SOL    HW222554   1.911   3.451  10.485  1.2234 -1.0582  0.6713
 3640SOL     OW22555   3.643   1.418  13.242 -0.3484  0.1638  0.6464
 3640SOL    HW122556   3.733   1.429  13.212 -0.8120 -1.3723 -1.3156
 3640SOL    HW222557   3.655   1.349  13.307  2.3280 -0.0507 -0.0809
 3641SOL     OW22558   1.236   1.478   1.892  0.7081 -0.0366  0.3352
 3641SOL    HW122559   1.317   1.466   1.842  1.2761  0.3665  1.1670
 3641SOL    HW222560   1.182   1.406   1.859 -0.6805  1.7101 -1.2164
 3642SOL     OW22561   0.930   0.423  14.602  0.2081 -0.1217  0.9216
 3642SOL    HW122562   0.848   0.395  14.563  0.3230  0.5699  0.1664
 3642SOL    HW222563   0.951   0.372  14.680 -1.3063  1.5165  2.4030
 3643SOL     OW22564   2.700   1.498   6.039  0.5872 -0.1198  0.0588
 3643SOL    HW122565   2.673   1.416   6.080 -2.8726  0.7823 -0.4362
 3643SOL    HW222566   2.727   1.553   6.112  0.2408 -0.2483  0.2790
 3644SOL     OW22567   3.363   1.283  12.441  0.6057 -0.3379  0.0237
 3644SOL    HW122568   3.340   1.192  12.422 -0.5346 -0.1379  0.4425
 3644SOL    HW222569   3.291   1.337  12.411  1.1925 -0.0556 -0.8713
 3645SOL     OW22570   0.043   1.234   8.971 -0.3958  0.5315 -0.1225
 3645SOL    HW122571   0.089   1.200   9.047 -2.6418 -1.9737  0.1019
 3645SOL    HW222572   0.070   1.325   8.987 -1.1560  1.0573 -1.8285
 3646SOL     OW22573   2.123   2.015   3.669 -0.4269  0.0904  0.3642
 3646SOL    HW122574   2.094   1.983   3.584  1.7179  1.9277 -1.0548
 3646SOL    HW222575   2.055   1.993   3.733 -0.8053  1.1027  0.3143
 3647SOL     OW22576   4.563   2.488   4.755 -0.5025 -0.4601 -0.3181
 3647SOL    HW122577   4.531   2.456   4.671  0.9032  2.2616 -1.8521
 3647SOL    HW222578   4.637   2.543   4.729 -0.7865  0.2192  0.3286
 3648SOL     OW22579   2.366   1.130   0.731 -0.4553 -0.0448 -0.1219
 3648SOL    HW122580   2.435   1.144   0.796 -0.5790  1.1833 -0.2511
 3648SOL    HW222581   2.346   1.037   0.739  0.2796 -0.4560 -2.8833
 3649SOL     OW22582   4.333   1.030   3.282  0.1474 -0.5012 -0.0103
 3649SOL    HW122583   4.242   1.004   3.269  0.0285  0.5636 -1.2655
 3649SOL    HW222584   4.329   1.119   3.248  2.3645  0.5708  2.5679
 3650SOL     OW22585   1.434   1.019   0.179 -0.0843  0.2974  0.2110
 3650SOL    HW122586   1.489   0.945   0.204 -1.3558 -1.7466 -3.0392
 3650SOL    HW222587   1.470   1.039   0.093  0.3009 -1.4776 -0.0303
 3651SOL     OW22588   4.078   2.682   4.621 -0.4474 -0.4743 -0.3533
 3651SOL    HW122589   4.149   2.743   4.642  0.1126 -1.3414  0.2486
 3651SOL    HW222590   4.040   2.720   4.541  1.5742  0.7341 -0.7403
 3652SOL     OW22591   1.331   0.664   4.839 -0.2858 -0.7408  0.0516
 3652SOL    HW122592   1.270   0.685   4.910 -2.8203 -0.9516 -2.0610
 3652SOL    HW222593   1.300   0.582   4.802 -1.1477  0.4465 -1.8961
 3653SOL     OW22594   0.881   3.763   3.115  0.3238 -0.5717  0.3469
 3653SOL    HW122595   0.957   3.752   3.058  1.5410  1.4076  1.5747
 3653SOL    HW222596   0.921   3.733   3.197  0.6435 -1.1043 -0.0038
 3654SOL     OW22597   1.494   1.819   7.925 -0.2699 -0.2102  0.3427
 3654SOL    HW122598   1.461   1.843   8.012 -5.4826  3.6439 -2.6633
 3654SOL    HW222599   1.448   1.885   7.872  2.0816  0.9864 -0.2076
 3655SOL     OW22600   4.291   4.194   4.853  0.3409 -0.1730 -0.4316
 3655SOL    HW122601   4.205   4.159   4.878  0.2832  1.0462  1.0859
 3655SOL    HW222602   4.343   4.121   4.886 -0.8822 -0.9404 -0.1662
 3656SOL     OW22603   3.287   0.283  16.494 -0.3494 -0.2457  0.1943
 3656SOL    HW122604   3.271   0.268  16.587 -1.8931 -2.4230 -0.4377
 3656SOL    HW222605   3.206   0.321  16.462 -0.6669 -1.0796  0.0094
 3657SOL     OW22606   0.999   0.951   3.860 -0.1055 -0.0163 -0.0942
 3657SOL    HW122607   0.993   0.870   3.810 -2.3155 -0.4464  0.8748
 3657SOL    HW222608   0.959   0.908   3.935  0.1816 -0.3617 -0.1373
 3658SOL     OW22609   0.997   1.252  14.246 -0.0974  0.4863 -0.4813
 3658SOL    HW122610   1.023   1.163  14.221  0.9001  0.7922 -0.5576
 3658SOL    HW222611   1.053   1.257  14.324  0.5906  0.0079 -0.9357
 3659SOL     OW22612   0.900   1.604  14.515 -0.8153  0.4332  0.1562
 3659SOL    HW122613   0.884   1.693  14.484  0.1128  1.1207  1.6801
 3659SOL    HW222614   0.993   1.617  14.533 -0.8178  0.9763 -0.2107
 3660SOL     OW22615   4.263   0.246  12.089  0.0769  0.3892  0.1074
 3660SOL    HW122616   4.183   0.240  12.141  1.3518 -1.9579  1.7872
 3660SOL    HW222617   4.260   0.338  12.063  0.6384 -0.0039 -1.3675
 3661SOL     OW22618   1.239   2.249   3.985 -0.3152  0.4560  0.1499
 3661SOL    HW122619   1.230   2.342   4.007 -0.6634  0.6819 -0.9267
 3661SOL    HW222620   1.332   2.231   3.996  0.4005  3.0378 -1.6001
 3662SOL     OW22621   4.557   3.624   8.065 -0.2368  0.1918  0.4757
 3662SOL    HW122622   4.546   3.716   8.039 -0.2536  0.1810  0.4440
 3662SOL    HW222623   4.641   3.599   8.026 -0.2947  0.3741  0.2304
 3663SOL     OW22624   1.204   2.585   6.778  0.0247  0.2377  0.0903
 3663SOL    HW122625   1.168   2.636   6.851 -1.8473 -1.3428  0.2587
 3663SOL    HW222626   1.119   2.549   6.752  0.2996 -0.5810  0.3574
 3664SOL     OW22627   4.063   4.287   9.040  0.3167  0.3314  0.3777
 3664SOL    HW122628   4.036   4.215   8.983 -0.3081 -0.5970  1.8497
 3664SOL    HW222629   4.082   4.350   8.970  0.8292 -1.3794 -1.0403
 3665SOL     OW22630   2.583   2.132   3.473  0.2601  0.0342 -0.1057
 3665SOL    HW122631   2.609   2.195   3.406  2.3653 -0.0632  0.6172
 3665SOL    HW222632   2.523   2.073   3.426 -2.5589  2.4617  0.4557
 3666SOL     OW22633   3.443   4.204   2.702  0.6302 -0.2066 -0.1752
 3666SOL    HW122634   3.529   4.162   2.694  0.0838 -1.9239  2.9133
 3666SOL    HW222635   3.437   4.257   2.622  0.0414  1.4811  1.0088
 3667SOL     OW22636   0.778   3.981   4.611  0.2826 -0.5988  0.4967
 3667SOL    HW122637   0.704   4.006   4.667  0.0043 -0.0774 -0.0935
 3667SOL    HW222638   0.757   4.022   4.527  0.3651  0.8391  1.1740
 3668SOL     OW22639   0.694   1.730   3.446 -0.0687  0.0429  0.3332
 3668SOL    HW122640   0.667   1.793   3.379  0.9311 -0.0450 -0.1492
 3668SOL    HW222641   0.789   1.734   3.451  0.0306  0.2973 -1.7484
 3669SOL     OW22642   0.266   1.840   8.874  0.3802 -0.0207 -0.6790
 3669SOL    HW122643   0.341   1.787   8.847 -0.0503  0.1804 -2.2428
 3669SOL    HW222644   0.310   1.920   8.902 -0.5185 -0.4257  1.9249
 3670SOL     OW22645   4.346   0.750  12.334 -0.0055 -0.5620 -0.2757
 3670SOL    HW122646   4.384   0.838  12.334  1.0399 -1.0120 -1.4105
 3670SOL    HW222647   4.430   0.710  12.314  0.6658  0.4454  0.5361
 3671SOL     OW22648   2.579   0.547   8.627  0.0156 -0.3404  0.6323
 3671SOL    HW122649   2.527   0.626   8.616  0.4466 -0.0517  0.6890
 3671SOL    HW222650   2.586   0.540   8.722  0.8423 -1.2420  0.5021
 3672SOL     OW22651   2.415   0.062   2.736  0.5303  0.1014 -0.1004
 3672SOL    HW122652   2.427   0.037   2.828 -0.5428  0.2302  0.0756
 3672SOL    HW222653   2.508   0.068   2.714  0.2344  0.2166 -1.3235
 3673SOL     OW22654   4.345   2.306   7.004  0.1765 -0.2734 -0.4511
 3673SOL    HW122655   4.315   2.395   6.987  3.4158  1.3375  2.1883
 3673SOL    HW222656   4.329   2.263   6.920 -0.3577  2.9216 -1.9934
 3674SOL     OW22657   0.096   3.269   0.831  0.0532  0.0932  0.1039
 3674SOL    HW122658   0.191   3.256   0.837 -0.0414 -0.3876  0.5803
 3674SOL    HW222659   0.090   3.336   0.899 -0.1366 -1.2091  1.3667
 3675SOL     OW22660   1.796   4.067   3.504 -0.5784  0.1703  0.3047
 3675SOL    HW122661   1.747   4.042   3.426  0.9309 -0.7766 -0.3565
 3675SOL    HW222662   1.740   4.023   3.567 -0.8904  1.6601  1.0693
 3676SOL     OW22663   0.967   1.697   3.409 -0.2222  0.4672 -0.6331
 3676SOL    HW122664   1.011   1.612   3.415 -0.3623  0.4500  0.1128
 3676SOL    HW222665   1.039   1.757   3.392 -1.5085  1.5882 -2.1201
 3677SOL     OW22666   3.337   0.730   5.646 -0.1304 -0.1244  0.5681
 3677SOL    HW122667   3.404   0.725   5.578  0.1261  0.5179  0.7724
 3677SOL    HW222668   3.253   0.718   5.601 -0.0316  0.6688  0.1723
 3678SOL     OW22669   0.653   0.493  16.436  0.4026  0.0643 -0.0100
 3678SOL    HW122670   0.721   0.558  16.455  2.6870 -1.6455 -2.3247
 3678SOL    HW222671   0.662   0.496  16.341  1.5044  0.2906  0.0999
 3679SOL     OW22672   1.363   1.890   5.868  0.6051  0.4798 -0.4436
 3679SOL    HW122673   1.380   1.969   5.918 -1.0193 -0.5923  1.7928
 3679SOL    HW222674   1.320   1.924   5.789 -1.9342 -1.2276  0.2167
 3680SOL     OW22675   1.187   0.509   3.355 -0.2860  0.0175 -0.6982
 3680SOL    HW122676   1.171   0.434   3.299 -1.6178 -0.5033  0.3792
 3680SOL    HW222677   1.282   0.515   3.360 -0.5328  1.5979  2.5702
 3681SOL     OW22678   0.090   0.969   4.392 -0.3288 -0.2335  0.0228
 3681SOL    HW122679   0.096   0.897   4.330 -1.2496 -0.4932  0.2415
 3681SOL    HW222680   0.013   1.016   4.361 -0.8852 -2.1910 -1.5960
 3682SOL     OW22681   4.429   4.687  14.862  0.0360 -0.8395  0.0376
 3682SOL    HW122682   4.461   4.650  14.945 -1.5367 -0.0059  1.0240
 3682SOL    HW222683   4.334   4.686  14.851  0.3206 -1.6486 -2.4181
 3683SOL     OW22684   3.754   4.584   8.188 -0.4008 -0.1840  0.0306
 3683SOL    HW122685   3.848   4.601   8.179 -0.0796 -1.6405  0.6021
 3683SOL    HW222686   3.762   4.557   8.279  5.0143 -0.5989 -0.5406
 3684SOL     OW22687   0.498   0.378  17.485 -0.0678 -0.0621 -0.5934
 3684SOL    HW122688   0.564   0.374  17.554 -1.1290 -0.0317  0.4124
 3684SOL    HW222689   0.551   0.358  17.407  2.6058  0.9348  0.9919
 3685SOL     OW22690   2.594   0.048   5.846  0.1456 -0.0226 -1.5030
 3685SOL    HW122691   2.535   4.712   5.871 -1.9153  1.4298 -2.2373
 3685SOL    HW222692   2.636   0.022   5.764  0.9897  1.3215 -1.5037
 3686SOL     OW22693   3.580   2.168  17.473 -0.0947  0.1275 -0.2633
 3686SOL    HW122694   3.672   2.191  17.484 -0.0957 -0.4349  0.9989
 3686SOL    HW222695   3.589   2.093  17.415  0.8398  0.1969 -0.2169
 3687SOL     OW22696   3.062   0.835   4.559  0.3469  0.4018  0.2846
 3687SOL    HW122697   3.109   0.918   4.562 -2.3904  1.9784  0.2027
 3687SOL    HW222698   3.051   0.829   4.464  3.1041 -1.6212  0.1153
 3688SOL     OW22699   1.725   3.681   9.536  0.3178  0.0115 -0.3308
 3688SOL    HW122700   1.659   3.656   9.601  1.9323 -0.2261  1.2052
 3688SOL    HW222701   1.687   3.762   9.500 -1.0224  0.2276  1.5565
 3689SOL     OW22702   0.485   2.270  14.705  0.1459  0.4537 -0.2963
 3689SOL    HW122703   0.409   2.294  14.652  0.9982  1.3881 -1.0996
 3689SOL    HW222704   0.499   2.178  14.680 -0.6162  0.1341  0.4462
 3690SOL     OW22705   2.283   2.627  15.089 -0.1612 -0.1028 -0.0932
 3690SOL    HW122706   2.305   2.688  15.019  2.2026 -0.9570 -0.0845
 3690SOL    HW222707   2.210   2.675  15.129 -1.0058  0.0680 -1.8491
 3691SOL     OW22708   3.098   0.226   1.657  0.2095  0.8617 -0.3224
 3691SOL    HW122709   3.174   0.252   1.606 -0.6605 -0.8021 -2.4876
 3691SOL    HW222710   3.053   0.167   1.595 -0.3879  1.0460 -0.0700
 3692SOL     OW22711   4.040   3.368   0.667 -0.5009  0.4977  0.5095
 3692SOL    HW122712   3.972   3.408   0.721 -1.4377 -2.0223  1.2179
 3692SOL    HW222713   4.016   3.385   0.576 -0.4354  2.0595  0.7919
 3693SOL     OW22714   2.425   3.113   2.811  0.1036  0.4911 -0.3451
 3693SOL    HW122715   2.437   3.029   2.855 -3.9317 -0.6134 -1.4088
 3693SOL    HW222716   2.404   3.083   2.723  1.9187  1.2871 -1.0509
 3694SOL     OW22717   1.313   4.307   9.073 -0.3621  0.2011 -0.0366
 3694SOL    HW122718   1.406   4.295   9.093 -0.3711  0.9006  0.4271
 3694SOL    HW222719   1.297   4.235   9.012 -1.1076  2.0610 -2.0440
 3695SOL     OW22720   4.581   2.131  10.028  0.0048  0.2495 -0.2108
 3695SOL    HW122721   4.632   2.068   9.976  0.9698  0.1093  0.9130
 3695SOL    HW222722   4.514   2.072  10.063  1.5296 -0.9014  0.7418
 3696SOL     OW22723   0.851   4.022   1.361 -0.2773  0.1217  0.0453
 3696SOL    HW122724   0.832   3.939   1.405  1.2612 -0.2039  0.0656
 3696SOL    HW222725   0.946   4.020   1.360 -0.2031  2.8055  1.5342
 3697SOL     OW22726   3.512   3.590   3.488  0.0864  0.4024  0.4881
 3697SOL    HW122727   3.419   3.600   3.509  0.1528 -0.1286  1.0500
 3697SOL    HW222728   3.514   3.597   3.393  1.5879 -0.1161  0.4787
 3698SOL     OW22729   2.635   3.611  14.365 -0.0494  0.0481  0.3553
 3698SOL    HW122730   2.634   3.589  14.272 -1.3594  1.9256 -0.0598
 3698SOL    HW222731   2.688   3.691  14.372  0.3029  0.0236 -1.9048
 3699SOL     OW22732   2.159   3.099   9.203  0.2990  0.5552  0.2867
 3699SOL    HW122733   2.163   3.018   9.253  0.4716  0.4765  0.1453
 3699SOL    HW222734   2.184   3.166   9.266 -0.3195  0.7773  0.3003
 3700SOL     OW22735   2.607   0.173   4.587  0.5353  0.0391 -0.3400
 3700SOL    HW122736   2.596   0.268   4.585 -0.6759 -0.0956 -0.0024
 3700SOL    HW222737   2.557   0.166   4.667 -0.4456 -0.9051 -1.0439
 3701SOL     OW22738   3.617   1.672  10.629  0.3295 -0.2134  0.3217
 3701SOL    HW122739   3.571   1.694  10.547 -0.5011  1.0723  1.1356
 3701SOL    HW222740   3.685   1.607  10.609 -1.0423 -1.4321 -0.4191
 3702SOL     OW22741   0.858   1.190   0.993  0.2580 -0.5844  0.3109
 3702SOL    HW122742   0.877   1.267   1.047 -2.3191 -0.3346  0.8565
 3702SOL    HW222743   0.922   1.210   0.925  1.3765  0.6177  1.7431
 3703SOL     OW22744   1.021   4.551  14.178  0.2265  0.3535 -0.6394
 3703SOL    HW122745   1.086   4.555  14.107 -0.1350  2.8018 -0.8566
 3703SOL    HW222746   1.070   4.521  14.253 -3.3406 -1.3130  1.0406
 3704SOL     OW22747   4.713   2.558   7.900  0.4535  0.2643  0.7056
 3704SOL    HW122748   0.028   2.622   7.951 -0.6132 -0.0183  2.1260
 3704SOL    HW222749   0.049   2.494   7.891 -0.3035 -0.5701  0.6291
 3705SOL     OW22750   0.858   2.231   0.182  0.1171 -0.2437  0.2597
 3705SOL    HW122751   0.872   2.306   0.124  1.2596 -0.9016 -0.3224
 3705SOL    HW222752   0.952   2.216   0.194  0.9423  3.0065 -2.1206
 3706SOL     OW22753   2.508   1.035  12.204 -0.3883 -0.3366  0.4305
 3706SOL    HW122754   2.481   1.105  12.264  1.0216  0.5283  0.0629
 3706SOL    HW222755   2.601   1.027  12.226  0.1212  0.8113 -1.2740
 3707SOL     OW22756   0.509   1.550   1.049 -0.0368  0.0695  0.3568
 3707SOL    HW122757   0.558   1.481   1.005 -0.0769 -0.2098  0.7450
 3707SOL    HW222758   0.570   1.581   1.117  0.0985 -2.3132  1.3050
 3708SOL     OW22759   3.123   0.024   7.874  0.4401  0.3850  0.4067
 3708SOL    HW122760   3.068   4.683   7.857 -0.4057  1.0374  0.1510
 3708SOL    HW222761   3.179   4.730   7.946  1.4988  1.6153  0.0983
 3709SOL     OW22762   4.399   1.408   0.821 -0.0209  0.1747  0.0345
 3709SOL    HW122763   4.352   1.348   0.763  0.3465  1.0629 -1.1812
 3709SOL    HW222764   4.335   1.476   0.842 -0.6166 -0.5462  0.5743
 3710SOL     OW22765   0.998   0.682   2.383 -0.4931  0.6697  0.3314
 3710SOL    HW122766   0.993   0.588   2.403  3.5728  0.6394  1.1356
 3710SOL    HW222767   1.081   0.682   2.336 -1.1215  0.6749 -0.7692
 3711SOL     OW22768   0.419   1.176  17.544 -0.6882  0.9413 -0.7577
 3711SOL    HW122769   0.505   1.143  17.516 -0.1927  1.4362  0.2006
 3711SOL    HW222770   0.409   1.111  17.613 -0.0166  1.0418 -0.5598
 3712SOL     OW22771   3.772   2.712  16.282  0.0278 -0.0340  0.1323
 3712SOL    HW122772   3.686   2.670  16.287  0.2946 -0.5383  0.4418
 3712SOL    HW222773   3.799   2.696  16.372  3.2364 -1.0612 -1.0118
 3713SOL     OW22774   2.690   0.248  11.914  0.2897 -0.1528  0.3666
 3713SOL    HW122775   2.658   0.227  12.001  1.0883 -4.2201 -0.3354
 3713SOL    HW222776   2.644   0.186  11.858  1.4879  0.3593 -1.2103
 3714SOL     OW22777   1.246   4.087   2.176  0.2003 -0.0843  0.5448
 3714SOL    HW122778   1.337   4.115   2.167  0.0663  0.5486  1.1828
 3714SOL    HW222779   1.201   4.135   2.107  0.1668 -0.8242  0.0473
 3715SOL     OW22780   0.243   1.793   7.454 -0.0714  0.4133 -0.0656
 3715SOL    HW122781   0.306   1.734   7.495  0.7454  2.2187  1.3047
 3715SOL    HW222782   0.169   1.737   7.431  2.5286 -1.9864 -2.5911
 3716SOL     OW22783   4.455   4.698  10.007 -0.8543  0.3651  0.2454
 3716SOL    HW122784   4.381   4.640   9.990 -0.8741  0.0433  1.4025
 3716SOL    HW222785   4.482   4.721   9.918  2.9750 -1.4464  0.9007
 3717SOL     OW22786   0.610   1.674   4.095  0.2201  0.1289  0.2606
 3717SOL    HW122787   0.588   1.585   4.125  2.6412 -0.3395  0.5988
 3717SOL    HW222788   0.521   1.695   4.067  1.1629  1.4469 -1.7330
 3718SOL     OW22789   2.054   2.341  13.627  0.2382  0.5044 -0.1450
 3718SOL    HW122790   2.112   2.272  13.659  0.3221 -0.0357 -1.4600
 3718SOL    HW222791   2.119   2.412  13.632  0.8241 -0.1791  1.8220
 3719SOL     OW22792   4.061   2.434   7.858 -0.4402  0.6122  0.0364
 3719SOL    HW122793   4.113   2.447   7.938 -0.6295 -0.4758  0.3373
 3719SOL    HW222794   3.984   2.488   7.876 -1.0265  0.0433 -0.7584
 3720SOL     OW22795   0.365   3.095   6.249 -0.4162  0.6861  0.3252
 3720SOL    HW122796   0.273   3.068   6.256  0.1589 -1.0921  0.9247
 3720SOL    HW222797   0.363   3.186   6.219 -0.2565  0.8637  0.8668
 3721SOL     OW22798   4.364   0.308   7.121 -0.1234  0.1460 -0.8823
 3721SOL    HW122799   4.384   0.267   7.037 -0.1496 -1.8134  0.0824
 3721SOL    HW222800   4.424   0.258   7.177 -0.3485 -0.3952 -1.1314
 3722SOL     OW22801   2.325   1.675   5.274  0.6120  0.1223  0.3951
 3722SOL    HW122802   2.336   1.620   5.352  0.7825 -0.4564 -0.0346
 3722SOL    HW222803   2.282   1.749   5.316  0.7957 -0.6896  2.0109
 3723SOL     OW22804   4.090   4.292   4.091 -0.7577  0.0627 -0.1110
 3723SOL    HW122805   4.034   4.287   4.168  1.2570  0.7863  1.4018
 3723SOL    HW222806   4.157   4.232   4.126 -2.3488 -0.7460  1.5117
 3724SOL     OW22807   0.704   3.434   9.338  0.0293  0.2644  0.2943
 3724SOL    HW122808   0.669   3.475   9.417 -0.7479  0.3398 -0.0914
 3724SOL    HW222809   0.758   3.504   9.301 -0.5073  1.3116  1.5345
 3725SOL     OW22810   1.758   2.548  16.379  0.4071  0.0575  0.3177
 3725SOL    HW122811   1.708   2.499  16.314  0.6032  0.9526 -0.5032
 3725SOL    HW222812   1.835   2.493  16.391  2.1788  2.3981 -0.4891
 3726SOL     OW22813   0.819   1.978   5.230 -0.6260 -0.3170 -0.7838
 3726SOL    HW122814   0.833   1.915   5.160  1.9680 -0.6576  0.0625
 3726SOL    HW222815   0.752   2.029   5.185  0.2005  1.6519  0.2442
 3727SOL     OW22816   2.483   1.048   8.605  0.2275  0.1521 -0.4642
 3727SOL    HW122817   2.521   1.072   8.520 -0.2553  0.2649 -0.6452
 3727SOL    HW222818   2.507   1.127   8.652 -1.8887  0.9612 -0.7374
 3728SOL     OW22819   0.873   2.632  14.366  0.9070 -0.5410  0.2398
 3728SOL    HW122820   0.876   2.726  14.347 -0.4336 -0.9120 -1.8202
 3728SOL    HW222821   0.866   2.635  14.461 -0.8787  1.1426  0.0414
 3729SOL     OW22822   1.714   1.025   7.671  0.2437 -0.3829  0.3672
 3729SOL    HW122823   1.786   0.981   7.717  1.7462  1.3213 -0.3534
 3729SOL    HW222824   1.694   0.953   7.611  0.4661 -1.8632  2.0650
 3730SOL     OW22825   0.919   0.351   4.577 -0.1416 -0.2391  0.9399
 3730SOL    HW122826   0.956   0.350   4.489 -0.2616 -0.0062  0.8845
 3730SOL    HW222827   0.920   0.256   4.590 -1.3083 -0.6912 -2.3481
 3731SOL     OW22828   4.127   4.129  10.153 -0.1970  0.0582  0.2506
 3731SOL    HW122829   4.086   4.043  10.153  3.3005 -1.6074 -1.1385
 3731SOL    HW222830   4.137   4.130  10.248  1.2102 -0.9924  0.1104
 3732SOL     OW22831   4.335   1.393   4.625 -0.3347  0.4823  0.4405
 3732SOL    HW122832   4.385   1.316   4.652 -0.6426 -0.0277 -0.4395
 3732SOL    HW222833   4.355   1.390   4.531  0.4607 -1.1310  0.6653
 3733SOL     OW22834   0.224   3.165   5.349 -0.2439  0.8193  0.1702
 3733SOL    HW122835   0.133   3.193   5.357 -0.0871  1.3215  0.1855
 3733SOL    HW222836   0.212   3.100   5.279 -1.2269 -0.5712  1.6073
 3734SOL     OW22837   4.470   1.713   7.794  0.3096 -0.2173  0.2288
 3734SOL    HW122838   4.445   1.676   7.878 -1.2226  1.5962  0.5914
 3734SOL    HW222839   4.408   1.786   7.790  1.2834  0.6800  1.6137
 3735SOL     OW22840   1.443   4.038   3.664 -0.1142  0.0707 -1.1431
 3735SOL    HW122841   1.348   4.045   3.660 -0.3127 -2.0880 -0.4139
 3735SOL    HW222842   1.466   3.975   3.595 -1.0151 -1.0827 -0.3949
 3736SOL     OW22843   0.990   4.060  17.607  0.4400 -0.6417  0.0454
 3736SOL    HW122844   0.944   4.141  17.631 -0.4778 -1.3950  0.8437
 3736SOL    HW222845   1.081   4.086  17.591 -0.2753  1.8005 -0.0740
 3737SOL     OW22846   3.544   1.354   6.062  0.4001  0.2706 -0.5449
 3737SOL    HW122847   3.494   1.274   6.082 -1.4297  1.4216 -0.5191
 3737SOL    HW222848   3.615   1.351   6.126  0.1309  2.0214 -0.1824
 3738SOL     OW22849   0.402   2.112   8.930 -0.3856  0.1065  0.2416
 3738SOL    HW122850   0.351   2.131   9.010 -1.6459  1.7575 -0.9422
 3738SOL    HW222851   0.484   2.158   8.948 -0.5761 -0.0473  1.5693
 3739SOL     OW22852   3.670   2.093   2.449  0.5658 -0.1085  0.0451
 3739SOL    HW122853   3.721   2.043   2.385  0.0960 -0.0992 -0.3297
 3739SOL    HW222854   3.656   2.016   2.504 -1.1423  0.3648  0.2449
 3740SOL     OW22855   0.047   2.077   9.665 -0.4685  0.1354 -0.1364
 3740SOL    HW122856   0.089   2.046   9.745 -0.7094  1.3255  0.4423
 3740SOL    HW222857   0.122   2.074   9.605  0.0639  1.3045  0.4792
 3741SOL     OW22858   1.899   3.823   3.919  0.2193 -0.2753  0.2453
 3741SOL    HW122859   1.952   3.743   3.920 -1.3987 -1.3623 -1.2171
 3741SOL    HW222860   1.855   3.829   3.835  2.4197  1.1072 -0.8131
 3742SOL     OW22861   2.156   1.815  16.262 -0.0947  0.0742  0.3649
 3742SOL    HW122862   2.092   1.745  16.250 -0.9331  0.6673  1.3216
 3742SOL    HW222863   2.143   1.865  16.182  1.5766  1.3779  0.9091
 3743SOL     OW22864   1.322   1.505   1.503  0.1770  0.5535  0.1572
 3743SOL    HW122865   1.380   1.484   1.577  0.5036  0.3404 -0.1585
 3743SOL    HW222866   1.385   1.534   1.436 -0.7334 -0.8375 -1.2802
 3744SOL     OW22867   0.213   0.242  17.478 -0.3293 -0.2271 -0.1640
 3744SOL    HW122868   0.308   0.234  17.486 -0.2969  0.3271 -0.0309
 3744SOL    HW222869   0.214   0.263  17.385 -0.5118 -0.9245 -0.3230
 3745SOL     OW22870   4.528   2.495  11.860  0.4464  0.1916  0.2212
 3745SOL    HW122871   4.439   2.474  11.888  0.7892  1.2009  2.0901
 3745SOL    HW222872   4.565   2.408  11.878  1.5926  1.0392  2.0402
 3746SOL     OW22873   2.237   4.316   3.345 -0.2617  0.1863  0.0362
 3746SOL    HW122874   2.256   4.253   3.415 -1.3569 -0.4781 -0.2575
 3746SOL    HW222875   2.303   4.382   3.366  0.6457 -0.7152  0.0341
 3747SOL     OW22876   2.373   1.887  11.471  0.3631 -0.1708 -0.1950
 3747SOL    HW122877   2.391   1.904  11.379  1.4911  1.3324  0.3077
 3747SOL    HW222878   2.405   1.967  11.513 -1.1746 -0.2538  1.1284
 3748SOL     OW22879   4.698   2.648  16.877  0.1553  0.0368  0.2184
 3748SOL    HW122880   4.685   2.557  16.848  1.8399 -0.8309  2.1770
 3748SOL    HW222881   4.627   2.649  16.941 -1.7296  0.5539 -1.8483
 3749SOL     OW22882   0.277   3.096   9.681  0.2276 -0.3620 -0.3243
 3749SOL    HW122883   0.334   3.166   9.711 -0.8279 -0.0753  0.9641
 3749SOL    HW222884   0.277   3.034   9.754 -0.8970  1.7780  1.4599
 3750SOL     OW22885   2.333   1.791   7.684 -0.1975 -0.2106  0.0629
 3750SOL    HW122886   2.347   1.720   7.620 -0.5346 -0.0723 -0.1646
 3750SOL    HW222887   2.239   1.805   7.680 -0.2387 -0.5054 -0.0464
 3751SOL     OW22888   2.831   0.386  15.429  1.2007  0.2936 -0.0075
 3751SOL    HW122889   2.747   0.428  15.410  0.8113 -0.6670 -0.4342
 3751SOL    HW222890   2.877   0.458  15.471  1.6157 -0.0730  0.1762
 3752SOL     OW22891   3.740   3.824   5.796 -0.0962  0.5700 -0.1420
 3752SOL    HW122892   3.673   3.756   5.794  0.9561 -0.4881  0.9170
 3752SOL    HW222893   3.771   3.823   5.706  0.4354 -0.7667  0.0580
 3753SOL     OW22894   0.029   0.724   5.937  0.0948 -0.4099 -0.0235
 3753SOL    HW122895   0.106   0.759   5.980  1.5713 -0.3739 -2.6562
 3753SOL    HW222896   0.059   0.741   5.847  0.5454  2.4252  0.6867
 3754SOL     OW22897   2.024   1.770   5.683  0.6160  0.1463 -0.1967
 3754SOL    HW122898   1.976   1.753   5.764 -0.1707 -0.7464 -0.8511
 3754SOL    HW222899   1.947   1.782   5.627  2.0682 -0.6640 -2.3435
 3755SOL     OW22900   2.285   4.071   4.461 -0.0232 -0.7565  0.0271
 3755SOL    HW122901   2.266   4.006   4.528 -1.1116  0.2551  0.7104
 3755SOL    HW222902   2.213   4.125   4.494  0.6520  0.4683 -0.5014
 3756SOL     OW22903   1.413   1.110  14.679  0.2034 -0.3484  0.0782
 3756SOL    HW122904   1.495   1.069  14.704  0.3341  0.1262  0.4289
 3756SOL    HW222905   1.427   1.136  14.588 -2.0091  0.5331 -0.0109
 3757SOL     OW22906   0.080   0.178  10.513 -0.4554  0.4868  0.4390
 3757SOL    HW122907   0.027   0.165  10.435  0.8641  1.8048 -0.6892
 3757SOL    HW222908   0.136   0.246  10.476  0.5691  0.5551  2.1148
 3758SOL     OW22909   4.213   3.487  16.828 -0.2490  0.0350  0.7490
 3758SOL    HW122910   4.200   3.575  16.792  1.4407 -0.3908 -0.8748
 3758SOL    HW222911   4.304   3.479  16.802 -0.7406  1.0231 -1.3593
 3759SOL     OW22912   2.887   1.960  15.172  0.1112 -0.3984 -0.0072
 3759SOL    HW122913   2.917   1.985  15.085 -1.5264 -0.5407 -0.6159
 3759SOL    HW222914   2.792   1.952  15.160  0.1485 -0.6049 -0.1497
 3760SOL     OW22915   0.148   1.180   3.863 -0.5159  0.6516 -0.0392
 3760SOL    HW122916   0.116   1.244   3.799  2.2849  2.2415  0.1140
 3760SOL    HW222917   0.151   1.098   3.812  2.0036  0.8120 -0.1678
 3761SOL     OW22918   2.124   2.863  15.080 -0.1628 -0.2252  0.2424
 3761SOL    HW122919   2.093   2.806  15.010 -0.1927  0.9901 -0.7299
 3761SOL    HW222920   2.041   2.902  15.106 -0.6034  0.1479 -1.7655
 3762SOL     OW22921   1.701   2.065  17.249  0.0293 -0.9367  0.3756
 3762SOL    HW122922   1.669   2.151  17.223  0.0268 -1.3483 -0.9951
 3762SOL    HW222923   1.645   2.006  17.198 -1.9251 -0.1903  1.6743
 3763SOL     OW22924   4.171   2.718   4.064 -0.5341 -0.0779 -0.0682
 3763SOL    HW122925   4.084   2.681   4.080 -1.0118  1.4519  0.9138
 3763SOL    HW222926   4.201   2.722   4.155  1.2519  0.8343 -0.6840
 3764SOL     OW22927   4.207   3.601   8.462  0.0399  0.1270  0.7093
 3764SOL    HW122928   4.146   3.656   8.413 -0.7067  0.6200  2.1922
 3764SOL    HW222929   4.284   3.647   8.426 -1.0043  0.2516 -1.3580
 3765SOL     OW22930   2.711   3.266  11.930 -0.0711  0.1538 -0.1421
 3765SOL    HW122931   2.770   3.232  11.997 -0.4150  0.1643  0.1680
 3765SOL    HW222932   2.666   3.189  11.896  0.6902  0.6627 -2.3056
 3766SOL     OW22933   1.443   3.201   4.571 -0.1009 -0.0330 -0.5663
 3766SOL    HW122934   1.363   3.237   4.609 -0.1271 -1.2384  0.5325
 3766SOL    HW222935   1.483   3.159   4.647  1.0843  1.4619 -0.3862
 3767SOL     OW22936   1.911   0.932   6.921  0.1919  0.5670 -0.2017
 3767SOL    HW122937   1.974   0.933   6.849 -0.9858 -0.2460 -1.2501
 3767SOL    HW222938   1.971   0.925   6.994 -1.1475 -1.3102  0.7120
 3768SOL     OW22939   3.981   1.810  12.662  0.7885 -0.5632 -0.1609
 3768SOL    HW122940   4.075   1.825  12.654  0.5457  0.5628 -0.8999
 3768SOL    HW222941   3.966   1.813  12.756 -2.5322 -0.1122 -0.6975
 3769SOL     OW22942   3.243   1.817   1.567  0.3319 -0.1353 -0.8483
 3769SOL    HW122943   3.223   1.904   1.534  2.3594  0.4309 -0.5692
 3769SOL    HW222944   3.193   1.768   1.501 -0.0960  1.0628 -1.4082
 3770SOL     OW22945   2.900   0.034  11.794 -0.7276 -0.0766  0.5420
 3770SOL    HW122946   2.837   0.013  11.863  1.5524 -1.7139  2.1201
 3770SOL    HW222947   2.834   0.051  11.726 -0.2873  0.0775  0.1511
 3771SOL     OW22948   2.701   2.322  14.677  0.0706  0.6689  0.1045
 3771SOL    HW122949   2.725   2.263  14.605  3.1352  1.0189  0.8691
 3771SOL    HW222950   2.608   2.301  14.688  0.4326  0.6594  3.0422
 3772SOL     OW22951   3.980   3.267  12.971 -0.0633  0.2007 -0.4741
 3772SOL    HW122952   3.905   3.325  12.985  1.3882  1.6589  1.2451
 3772SOL    HW222953   3.930   3.195  12.933  1.0327 -0.0719 -1.3876
 3773SOL     OW22954   1.617   4.199   1.660  0.1691 -0.2405 -0.2906
 3773SOL    HW122955   1.572   4.120   1.629  0.0738  0.4786 -2.0218
 3773SOL    HW222956   1.656   4.176   1.744 -4.2180 -0.6096  1.6475
 3774SOL     OW22957   3.088   4.071  13.196 -0.0189 -0.4295 -0.4239
 3774SOL    HW122958   3.092   3.981  13.163 -1.2694 -0.8333  0.5348
 3774SOL    HW222959   3.003   4.102  13.163 -0.0197  0.2393  0.2094
 3775SOL     OW22960   3.858   1.390   2.257  0.3591  0.4847  0.0548
 3775SOL    HW122961   3.766   1.372   2.275 -0.1462  0.1630 -2.8059
 3775SOL    HW222962   3.853   1.476   2.215  2.5944  0.1102 -0.9866
 3776SOL     OW22963   1.900   3.058   4.290 -0.1259 -0.0206 -0.0408
 3776SOL    HW122964   1.853   2.974   4.299 -1.7515  0.8831 -0.1178
 3776SOL    HW222965   1.824   3.116   4.297  0.2525  0.7290 -2.4163
 3777SOL     OW22966   1.936   2.090   3.062 -0.5198  0.5952 -0.0692
 3777SOL    HW122967   1.846   2.056   3.058 -1.2152  2.3847  0.2006
 3777SOL    HW222968   1.978   2.050   2.986 -0.7808 -0.2037  0.2058
 3778SOL     OW22969   3.865   3.283   5.532 -0.1110 -0.0815  0.1257
 3778SOL    HW122970   3.804   3.295   5.605 -1.2331  0.3088 -0.8832
 3778SOL    HW222971   3.813   3.259   5.456  1.1892 -0.8913 -0.4946
 3779SOL     OW22972   3.631   0.104   3.617 -0.2241  0.5154 -0.3267
 3779SOL    HW122973   3.587   0.130   3.536  1.3917  0.5002 -1.1973
 3779SOL    HW222974   3.574   0.137   3.686  2.6214 -0.6208  2.5635
 3780SOL     OW22975   1.815   4.182  13.771  0.2717  0.4187 -0.1017
 3780SOL    HW122976   1.731   4.186  13.818  1.3471  1.1585  1.7481
 3780SOL    HW222977   1.884   4.166  13.836 -0.7598 -2.2507  0.3176
 3781SOL     OW22978   1.725   0.213   3.739  0.1861  0.4374  0.0734
 3781SOL    HW122979   1.676   0.203   3.658  2.1522 -2.3315 -0.7775
 3781SOL    HW222980   1.775   0.132   3.740  1.0459  0.9737  0.7278
 3782SOL     OW22981   4.145   4.588  16.319 -0.8606  0.4205 -0.0995
 3782SOL    HW122982   4.073   4.534  16.351 -1.4472 -0.2006 -2.4173
 3782SOL    HW222983   4.205   4.549  16.383 -0.9639  1.3040  0.5361
 3783SOL     OW22984   0.404   3.680  16.671  0.4260 -0.2588  0.0497
 3783SOL    HW122985   0.365   3.732  16.600 -0.0870 -0.1257  0.4304
 3783SOL    HW222986   0.491   3.720  16.666  0.3007  0.0249  0.1555
 3784SOL     OW22987   3.303   0.381   0.985  0.1929  0.1966  0.1865
 3784SOL    HW122988   3.225   0.339   0.947 -0.9548  1.6308  0.9434
 3784SOL    HW222989   3.265   0.453   1.035  0.4887  0.1003  0.5473
 3785SOL     OW22990   4.301   2.480   1.456 -0.1995  0.6997 -0.8429
 3785SOL    HW122991   4.250   2.561   1.465  0.5448  1.1876 -1.0528
 3785SOL    HW222992   4.288   2.454   1.364  1.5398  2.0486 -1.4699
 3786SOL     OW22993   1.105   3.071   7.827  0.1431 -0.1788 -0.0505
 3786SOL    HW122994   1.101   3.139   7.894 -0.5918 -0.1855 -0.0898
 3786SOL    HW222995   1.093   2.998   7.888  0.5699  0.5665  0.9121
 3787SOL     OW22996   3.108   3.072   3.039  0.3147  0.1057 -1.1142
 3787SOL    HW122997   3.182   3.031   2.993  0.0142 -0.5656 -1.0053
 3787SOL    HW222998   3.098   3.149   2.983  0.0731  1.1853  0.4272
 3788SOL     OW22999   3.891   1.223  16.280 -0.1662  0.8357  0.0618
 3788SOL    HW123000   3.901   1.160  16.208  2.0367  0.9698  0.2430
 3788SOL    HW223001   3.917   1.168  16.353 -2.2565 -0.3870 -0.1197
 3789SOL     OW23002   4.019   0.429   6.493  0.1021 -0.7548 -0.1167
 3789SOL    HW123003   4.096   0.447   6.546 -0.6392 -1.0451  1.0573
 3789SOL    HW223004   3.956   0.418   6.564 -0.8881  0.4591 -0.8137
 3790SOL     OW23005   2.086   0.744   7.421  0.9538 -0.0222 -0.2766
 3790SOL    HW123006   2.154   0.765   7.484  0.9327 -1.4128  0.2098
 3790SOL    HW223007   2.050   0.665   7.461  1.7447  0.6566  1.7561
 3791SOL     OW23008   3.577   0.875   3.737  0.0995  0.2968  0.3778
 3791SOL    HW123009   3.604   0.783   3.747  1.3522  0.7691  1.2657
 3791SOL    HW223010   3.539   0.905   3.819  0.7376  4.1683 -0.7833
 3792SOL     OW23011   2.214   3.046   6.998  0.0502 -0.5616 -0.2560
 3792SOL    HW123012   2.163   3.018   6.922  0.5889 -1.5370 -0.2486
 3792SOL    HW223013   2.155   3.074   7.068 -0.0712  0.7794 -0.8833
 3793SOL     OW23014   4.680   3.651   0.808 -0.2242  0.0682 -0.2928
 3793SOL    HW123015   4.641   3.665   0.894 -0.2417 -1.0185 -0.1209
 3793SOL    HW223016   4.619   3.584   0.776 -0.2321  0.9848 -2.1970
 3794SOL     OW23017   2.911   3.951   6.030  0.2950 -0.4252 -0.1156
 3794SOL    HW123018   2.819   3.925   6.040  0.5325 -0.8648  0.9359
 3794SOL    HW223019   2.896   4.044   6.013  1.8520  0.1553  1.7731
 3795SOL     OW23020   2.888   3.418   4.465 -0.3501  0.2909 -0.1004
 3795SOL    HW123021   2.812   3.451   4.416 -1.2792 -3.2003 -0.9958
 3795SOL    HW223022   2.939   3.374   4.397  1.9446 -0.2558  1.9948
 3796SOL     OW23023   0.117   2.249  15.264 -0.1881  0.2669 -0.0674
 3796SOL    HW123024   0.119   2.188  15.338 -0.5800 -0.6377 -0.8133
 3796SOL    HW223025   0.165   2.190  15.206  0.4940  0.4298  0.3261
 3797SOL     OW23026   0.949   3.895   8.615  0.0801  0.6023 -0.2406
 3797SOL    HW123027   1.005   3.889   8.693  2.4878  0.0249 -2.0145
 3797SOL    HW223028   0.986   3.972   8.574 -0.8483  1.3437  0.3137
 3798SOL     OW23029   2.947   2.600   3.373  0.5305  0.2092  0.5568
 3798SOL    HW123030   3.035   2.622   3.344  0.0991  0.3384 -0.6945
 3798SOL    HW223031   2.973   2.562   3.456  1.2745 -0.6022 -0.0606
 3799SOL     OW23032   3.215   3.318  15.257  0.4697  0.2365  0.9247
 3799SOL    HW123033   3.268   3.300  15.334 -0.8073 -1.5105  1.3850
 3799SOL    HW223034   3.252   3.245  15.206 -2.8960 -2.1983  1.9815
 3800SOL     OW23035   0.100   3.056   6.262  0.0820 -0.7625  0.4270
 3800SOL    HW123036   0.056   3.136   6.234  3.4615  1.2570  0.8633
 3800SOL    HW223037   0.045   3.005   6.203  0.2668  1.9900 -2.1260
 3801SOL     OW23038   1.022   0.442   7.640 -0.1857 -0.2606 -0.2831
 3801SOL    HW123039   0.995   0.517   7.587 -1.8437 -0.1976  0.6664
 3801SOL    HW223040   1.113   0.447   7.609  0.3561  1.1507  1.5506
 3802SOL     OW23041   4.379   0.375   1.371 -0.0068 -0.0399 -0.0315
 3802SOL    HW123042   4.430   0.354   1.293 -0.8313 -0.2809 -0.5081
 3802SOL    HW223043   4.432   0.335   1.440 -0.7458 -0.1726  0.4543
 3803SOL     OW23044   4.380   0.448   3.893 -0.1124  0.2423 -0.4433
 3803SOL    HW123045   4.429   0.375   3.932  0.1673 -0.2922 -1.7984
 3803SOL    HW223046   4.440   0.517   3.919 -1.2745  1.4853 -1.0473
 3804SOL     OW23047   2.835   4.176  14.932 -0.8915  0.5950  0.5809
 3804SOL    HW123048   2.792   4.091  14.921  0.6461 -0.1766  0.5322
 3804SOL    HW223049   2.851   4.167  15.026 -1.4685  0.5525  0.6754
 3805SOL     OW23050   3.495   2.696  16.662 -0.3963  0.1117 -0.0058
 3805SOL    HW123051   3.436   2.737  16.725 -0.2831 -0.9617  0.7997
 3805SOL    HW223052   3.563   2.650  16.712  0.3901 -0.0741 -1.2417
 3806SOL     OW23053   3.821   1.797   4.727  0.3096 -0.2530 -0.5404
 3806SOL    HW123054   3.880   1.852   4.779 -2.7201  1.1001  1.4889
 3806SOL    HW223055   3.766   1.865   4.687 -0.8288 -0.0537  1.3288
 3807SOL     OW23056   3.129   2.526   5.084 -0.5897  0.1660  0.1231
 3807SOL    HW123057   3.166   2.538   4.997 -1.6798 -1.2139 -0.5338
 3807SOL    HW223058   3.035   2.543   5.073 -0.4828  0.9200  0.3676
 3808SOL     OW23059   2.269   3.580  16.845 -0.4166 -0.0918 -0.1326
 3808SOL    HW123060   2.220   3.531  16.780  0.8046 -0.2523 -0.9317
 3808SOL    HW223061   2.228   3.666  16.840 -2.0728 -0.9019 -0.4468
 3809SOL     OW23062   1.843   1.020   4.068 -0.3285  0.4111 -0.9412
 3809SOL    HW123063   1.923   1.004   4.019 -1.7670  0.7554 -3.4190
 3809SOL    HW223064   1.819   1.112   4.053  0.8784  1.0502  1.1270
 3810SOL     OW23065   3.573   1.512   1.177  0.0846  0.6320  0.4227
 3810SOL    HW123066   3.649   1.532   1.231  0.4895  0.9083 -0.2536
 3810SOL    HW223067   3.529   1.597   1.181 -0.5529  0.2352  2.1341
 3811SOL     OW23068   2.913   2.112   5.045  0.1702 -0.0293  0.2328
 3811SOL    HW123069   2.943   2.089   4.957 -0.4472  1.3913 -0.3444
 3811SOL    HW223070   2.937   2.031   5.089 -1.9491 -1.9765 -2.2110
 3812SOL     OW23071   2.578   1.542   2.300 -0.0407 -0.0397  0.2113
 3812SOL    HW123072   2.578   1.559   2.395 -1.9787  0.5130  0.1152
 3812SOL    HW223073   2.501   1.484   2.298 -0.2133  0.2340 -0.7127
 3813SOL     OW23074   2.454   1.959   5.924  0.3751  0.0809  0.4544
 3813SOL    HW123075   2.404   1.913   5.857  0.7092 -1.0435  0.9865
 3813SOL    HW223076   2.514   1.889   5.949  0.6448  0.3687  0.6186
 3814SOL     OW23077   2.714   3.805  12.897  0.3524  0.1539  0.5873
 3814SOL    HW123078   2.797   3.830  12.855 -0.2868  1.3556  0.0338
 3814SOL    HW223079   2.705   3.882  12.953 -0.0516 -0.5165  1.4349
 3815SOL     OW23080   3.253   0.289   7.470  0.2165 -0.2623  0.6029
 3815SOL    HW123081   3.194   0.258   7.401 -0.3330  1.4185  0.3126
 3815SOL    HW223082   3.213   0.259   7.552  0.3513 -1.5625  0.1912
 3816SOL     OW23083   0.292   1.619  14.970 -0.3619 -0.1935  0.0467
 3816SOL    HW123084   0.342   1.701  14.970 -2.9786  1.4039  0.9306
 3816SOL    HW223085   0.321   1.591  15.057  0.9682  0.2926 -0.2318
 3817SOL     OW23086   4.118   3.659   6.889 -0.1001  0.6978 -0.3997
 3817SOL    HW123087   4.176   3.594   6.928 -0.5871 -0.5345 -1.7420
 3817SOL    HW223088   4.044   3.673   6.948  0.1572 -1.8644  0.5169
 3818SOL     OW23089   3.812   1.355  11.861 -0.7548  0.0538 -0.3939
 3818SOL    HW123090   3.783   1.445  11.847 -2.8129 -0.3069  1.4924
 3818SOL    HW223091   3.813   1.362  11.957 -0.2846 -2.0658 -0.2380
 3819SOL     OW23092   4.159   3.360  11.443  0.1623 -0.0046 -0.5316
 3819SOL    HW123093   4.072   3.321  11.447 -0.4758  1.5206  0.2734
 3819SOL    HW223094   4.177   3.379  11.535 -0.1800 -0.0232 -0.4630
 3820SOL     OW23095   0.516   0.396   4.369  0.2381 -0.4656  0.0711
 3820SOL    HW123096   0.594   0.376   4.318 -0.2394  0.5680 -1.0669
 3820SOL    HW223097   0.465   0.316   4.357 -4.3331  2.7454 -1.7254
 3821SOL     OW23098   0.332   2.938   7.493  0.1437 -0.4355  0.4684
 3821SOL    HW123099   0.347   2.936   7.587  0.4085 -3.0480  0.3870
 3821SOL    HW223100   0.406   2.889   7.458 -0.8217 -0.4940 -1.5128
 3822SOL     OW23101   1.501   3.657   3.247  0.4238 -0.6212  0.0715
 3822SOL    HW123102   1.433   3.609   3.201 -1.2248  0.4985  1.3053
 3822SOL    HW223103   1.523   3.599   3.320  2.8712  0.3121  0.0722
 3823SOL     OW23104   3.382   0.991   4.276 -0.2559  0.2175 -0.1491
 3823SOL    HW123105   3.423   0.918   4.320  0.6394  0.7805 -0.0551
 3823SOL    HW223106   3.441   1.063   4.299  2.5147 -2.0133 -0.3288
 3824SOL     OW23107   3.588   2.826   0.824  0.0055  0.3220 -0.3271
 3824SOL    HW123108   3.683   2.835   0.820 -0.1282  0.4876 -2.9657
 3824SOL    HW223109   3.571   2.768   0.898  1.1690  1.8936  1.1792
 3825SOL     OW23110   1.297   2.534   3.995  0.1110 -0.6917  0.1255
 3825SOL    HW123111   1.356   2.535   3.920  0.3357  3.5109  0.3506
 3825SOL    HW223112   1.295   2.628   4.015  2.9591 -0.8007  0.9433
 3826SOL     OW23113   0.108   2.103   4.897  0.3630 -0.2565  0.3503
 3826SOL    HW123114   0.023   2.067   4.923 -1.5913  2.0356 -2.8756
 3826SOL    HW223115   0.174   2.050   4.940  0.9375  0.3627  0.2247
 3827SOL     OW23116   2.158   1.996  16.050 -0.3054  0.2607 -0.3638
 3827SOL    HW123117   2.176   2.054  16.123 -0.3119 -1.5536  1.0841
 3827SOL    HW223118   2.067   2.012  16.027 -0.7864 -0.3182  1.1889
 3828SOL     OW23119   2.264   3.061   5.646  0.2873  0.2405 -0.5341
 3828SOL    HW123120   2.325   3.077   5.574  1.1331  0.4998  0.2394
 3828SOL    HW223121   2.194   3.125   5.632  0.2831 -0.2371 -2.6578
 3829SOL     OW23122   0.856   1.748  17.524  0.1752  0.2335 -0.0407
 3829SOL    HW123123   0.926   1.812  17.538 -0.0722  0.5370 -0.1836
 3829SOL    HW223124   0.784   1.806  17.500 -0.7370 -1.3672 -1.1423
 3830SOL     OW23125   0.139   4.450   9.518 -0.4172  0.1660  0.1973
 3830SOL    HW123126   0.208   4.491   9.466 -0.9631  2.9052  1.5938
 3830SOL    HW223127   0.067   4.511   9.502  1.3773  2.4484  0.7986
 3831SOL     OW23128   3.913   0.572   1.619 -0.1241 -0.6524 -0.3883
 3831SOL    HW123129   3.900   0.586   1.525  1.0451 -2.3584 -0.8171
 3831SOL    HW223130   3.869   0.489   1.636 -3.4063  1.4346  1.3741
 3832SOL     OW23131   2.826   4.181   9.450 -0.4523 -0.3446 -0.5588
 3832SOL    HW123132   2.744   4.131   9.447 -1.3342  1.1163 -0.7014
 3832SOL    HW223133   2.786   4.267   9.436  1.9447  0.8888  0.3135
 3833SOL     OW23134   3.390   4.007  13.308  0.3828  0.4385 -0.0013
 3833SOL    HW123135   3.322   4.055  13.357  0.1704  1.8531 -1.6747
 3833SOL    HW223136   3.396   4.039  13.218 -3.1659 -0.1994 -0.4661
 3834SOL     OW23137   0.656   1.028   3.311 -0.2925 -0.2513  0.5514
 3834SOL    HW123138   0.679   1.120   3.323  4.0048 -1.8179  4.0655
 3834SOL    HW223139   0.736   0.987   3.343  1.9556  3.8038  0.1481
 3835SOL     OW23140   4.415   4.526   4.769 -0.7347 -0.0638 -0.1723
 3835SOL    HW123141   4.389   4.456   4.709  0.0280 -1.5847  1.2661
 3835SOL    HW223142   4.476   4.576   4.715 -2.0728 -2.1794 -3.7063
 3836SOL     OW23143   1.786   4.513   9.197  0.3674  0.0136  0.3538
 3836SOL    HW123144   1.868   4.553   9.225  1.2871 -1.4777 -0.2491
 3836SOL    HW223145   1.721   4.566   9.244  0.7110  0.1224  0.7028
 3837SOL     OW23146   4.360   0.568   5.317 -0.4353 -0.4441  0.6579
 3837SOL    HW123147   4.341   0.656   5.347 -1.4556 -0.6115  0.5104
 3837SOL    HW223148   4.455   0.570   5.325 -0.4666  4.3517 -0.2931
 3838SOL     OW23149   2.941   0.381   1.807  0.8491  0.1594  0.1644
 3838SOL    HW123150   2.994   0.327   1.748  1.1497  0.7704 -0.1242
 3838SOL    HW223151   2.938   0.463   1.757 -0.1411 -0.7750 -1.2931
 3839SOL     OW23152   3.852   0.682   3.676 -0.3400  0.6458 -0.2862
 3839SOL    HW123153   3.808   0.701   3.759 -0.4939  0.6978 -0.3797
 3839SOL    HW223154   3.940   0.716   3.690  0.4470 -1.0160 -1.1617
 3840SOL     OW23155   2.769   4.480   1.947  0.6444 -0.2203  0.3058
 3840SOL    HW123156   2.773   4.526   1.863 -1.4248 -0.4791  0.0687
 3840SOL    HW223157   2.673   4.473   1.951  0.5821  0.1385 -0.6009
 3841SOL     OW23158   0.546   1.279  14.322  0.3950 -0.1137 -0.3694
 3841SOL    HW123159   0.590   1.352  14.365  2.4835 -1.6256  0.0926
 3841SOL    HW223160   0.533   1.228  14.403  0.6359  1.4914  0.6709
 3842SOL     OW23161   3.442   2.384   3.152 -0.7114 -0.0435 -0.2408
 3842SOL    HW123162   3.431   2.304   3.102  1.8565 -0.2695 -0.4386
 3842SOL    HW223163   3.528   2.382   3.194 -0.9721 -1.4227  0.2307
 3843SOL     OW23164   1.786   4.052   6.150  0.3647 -0.4001  0.1270
 3843SOL    HW123165   1.787   4.147   6.146 -0.4826 -0.4291 -0.9300
 3843SOL    HW223166   1.778   4.027   6.057  0.7521 -1.4721  0.3766
 3844SOL     OW23167   0.238   3.010   0.225 -0.3041  0.2204  0.1921
 3844SOL    HW123168   0.242   2.946   0.154  0.1260  1.7816 -1.2003
 3844SOL    HW223169   0.152   2.985   0.259 -0.8835 -1.1310 -2.2936
 3845SOL     OW23170   1.070   3.751   2.891 -0.2935  0.1648 -0.1652
 3845SOL    HW123171   1.148   3.789   2.930  0.0019  0.5764 -1.1633
 3845SOL    HW223172   1.098   3.659   2.891 -0.6320  0.0545 -1.1188
 3846SOL     OW23173   3.380   1.100   6.059 -0.8490  0.0342  0.3103
 3846SOL    HW123174   3.377   1.024   6.001 -1.2545 -1.2271  1.9720
 3846SOL    HW223175   3.350   1.169   5.999  0.7812 -0.9155 -1.5863
 3847SOL     OW23176   0.411   1.352   5.149  0.7495 -0.3928 -0.0112
 3847SOL    HW123177   0.454   1.369   5.233  0.9326 -0.7270 -0.0376
 3847SOL    HW223178   0.336   1.298   5.175  1.0684 -0.1360  1.4564
 3848SOL     OW23179   4.571   3.877   2.857  0.6450  0.2297 -0.3762
 3848SOL    HW123180   4.570   3.784   2.878 -0.2995  0.2801 -0.1959
 3848SOL    HW223181   4.598   3.873   2.765 -0.9814 -0.8645 -0.8038
 3849SOL     OW23182   4.194   4.349  10.378  0.5982 -0.3192 -0.0855
 3849SOL    HW123183   4.179   4.264  10.418  0.8977 -0.3998 -0.1440
 3849SOL    HW223184   4.176   4.415  10.445  0.6338 -1.8108  1.3669
 3850SOL     OW23185   2.980   1.484   4.544 -0.4085  0.2033  0.1427
 3850SOL    HW123186   2.984   1.447   4.633  1.5936 -1.0052 -0.4457
 3850SOL    HW223187   2.964   1.400   4.500  1.9819  1.0487 -2.3567
 3851SOL     OW23188   1.536   3.435  13.832 -0.1812 -0.8533 -0.6109
 3851SOL    HW123189   1.581   3.352  13.849  0.5087 -0.0916  1.3676
 3851SOL    HW223190   1.446   3.404  13.848  0.1957 -2.3142 -1.3483
 3852SOL     OW23191   3.440   2.414   4.367 -0.6360  0.0738  0.2201
 3852SOL    HW123192   3.356   2.433   4.325 -2.5307  0.4332  4.1796
 3852SOL    HW223193   3.485   2.353   4.308 -0.5180  0.4822 -0.1113
 3853SOL     OW23194   1.359   0.332   2.792  0.4417  0.6359 -0.1664
 3853SOL    HW123195   1.288   0.281   2.831  1.5451 -0.6143  0.1831
 3853SOL    HW223196   1.312   0.377   2.722 -1.0024 -0.2780  0.2298
 3854SOL     OW23197   2.774   3.493   8.120 -0.1454  0.6000  0.1409
 3854SOL    HW123198   2.823   3.412   8.104 -1.4549  0.1513 -1.6485
 3854SOL    HW223199   2.693   3.452   8.150 -0.4030  0.6199 -0.5234
 3855SOL     OW23200   3.850   3.599   4.916  0.4142 -0.3805 -0.2138
 3855SOL    HW123201   3.770   3.559   4.950  0.1465  0.3002 -0.0645
 3855SOL    HW223202   3.897   3.515   4.913  2.3094  0.7274 -1.2706
 3856SOL     OW23203   2.121   0.103   6.832  0.2624 -0.1819  0.2497
 3856SOL    HW123204   2.136   0.070   6.744  1.4177 -0.2954  0.4826
 3856SOL    HW223205   2.205   0.148   6.840 -0.2093  0.7611 -0.0712
 3857SOL     OW23206   3.420   4.373   7.183 -0.3250  0.2960 -0.4365
 3857SOL    HW123207   3.416   4.455   7.133  1.1922 -0.0941 -1.1835
 3857SOL    HW223208   3.327   4.364   7.204 -0.1383  2.0752  1.1385
 3858SOL     OW23209   3.939   3.400   7.764 -0.2128  0.5792  0.4690
 3858SOL    HW123210   3.884   3.452   7.705 -0.1360 -0.5745 -0.6104
 3858SOL    HW223211   3.934   3.311   7.730 -0.0665  0.4647  0.7514
 3859SOL     OW23212   3.014   3.043   4.120 -0.4162  0.0824  0.1638
 3859SOL    HW123213   2.978   3.080   4.040  2.5932 -0.1797 -1.3286
 3859SOL    HW223214   3.070   2.975   4.082  2.2711  2.2492  0.2243
 3860SOL     OW23215   3.117   2.084   5.830 -0.4227  0.4640  0.0495
 3860SOL    HW123216   3.147   1.994   5.819 -1.3239  0.0285  1.2246
 3860SOL    HW223217   3.196   2.124   5.867  1.6321 -2.3149 -1.3680
 3861SOL     OW23218   1.745   3.756   1.059 -0.5767  0.0822 -0.3058
 3861SOL    HW123219   1.771   3.832   1.110 -0.3551 -0.6697  0.7024
 3861SOL    HW223220   1.658   3.743   1.096 -0.1906  2.7550  1.5561
 3862SOL     OW23221   0.955   4.641   6.179  0.0538  0.1848 -0.2071
 3862SOL    HW123222   1.010   4.683   6.245  2.1352 -0.8084 -1.3256
 3862SOL    HW223223   0.964   4.548   6.198  0.5904  0.8055  2.6627
 3863SOL     OW23224   1.541   2.194  11.481  0.3905  0.2614  0.2471
 3863SOL    HW123225   1.584   2.275  11.509 -2.0945  1.5099  0.4703
 3863SOL    HW223226   1.599   2.153  11.417 -2.2937 -0.5154 -1.7319
 3864SOL     OW23227   2.966   2.659  17.714 -0.0899  0.1287  0.6840
 3864SOL    HW123228   2.931   2.692  17.631 -0.7600 -1.2946  0.4149
 3864SOL    HW223229   2.995   2.738   0.020 -0.8948  2.2003 -2.2995
 3865SOL     OW23230   3.720   2.713  12.228 -0.3557 -0.2587  0.2302
 3865SOL    HW123231   3.784   2.765  12.276  1.2939 -0.2202 -2.0210
 3865SOL    HW223232   3.716   2.633  12.281 -0.3342  0.0164  0.6470
 3866SOL     OW23233   3.186   2.704   5.298 -0.2768 -0.0513  0.0845
 3866SOL    HW123234   3.254   2.744   5.244  0.6242 -0.3704  0.9755
 3866SOL    HW223235   3.156   2.639   5.234 -3.6088 -1.3032  2.9172
 3867SOL     OW23236   2.603   4.255   2.073  0.2343  0.1402  0.4372
 3867SOL    HW123237   2.680   4.281   2.023  0.9795  0.5422  1.7884
 3867SOL    HW223238   2.645   4.184   2.122  1.8588  1.3410  0.7857
 3868SOL     OW23239   0.972   0.554   3.110  0.2038 -0.2084 -0.5452
 3868SOL    HW123240   0.929   0.550   3.025 -1.2978 -0.6215  0.2407
 3868SOL    HW223241   1.036   0.624   3.095  1.2125 -1.2097 -0.8973
 3869SOL     OW23242   3.745   3.164   7.489 -0.3886  0.2249 -0.1719
 3869SOL    HW123243   3.701   3.249   7.492  1.8430  1.3314  1.2446
 3869SOL    HW223244   3.664   3.113   7.496  0.8819 -1.4853  1.9995
 3870SOL     OW23245   1.317   2.966   4.335 -0.1017 -0.1714 -0.2782
 3870SOL    HW123246   1.340   2.917   4.414  0.0583 -1.8344 -1.3733
 3870SOL    HW223247   1.258   3.031   4.373 -0.1488  0.7531 -1.9318
 3871SOL     OW23248   1.436   1.514  12.963 -0.7422 -0.4369 -0.5369
 3871SOL    HW123249   1.401   1.474  12.883 -0.5351 -2.5014  0.3895
 3871SOL    HW223250   1.495   1.450  13.006 -2.6362 -2.4993 -1.0103
 3872SOL     OW23251   4.373   1.311   5.052  0.1360 -0.3015 -0.2585
 3872SOL    HW123252   4.437   1.239   5.047 -1.8672 -2.1923  1.3438
 3872SOL    HW223253   4.409   1.344   5.134 -0.5663  1.1605 -0.5438
 3873SOL     OW23254   1.706   1.017   4.318  0.0231  0.1195  0.1764
 3873SOL    HW123255   1.756   1.075   4.376 -0.3264 -1.4382  2.0239
 3873SOL    HW223256   1.768   0.983   4.254  0.8505  2.1562 -0.1186
 3874SOL     OW23257   0.805   2.446  12.568 -0.1739  0.2769 -0.4395
 3874SOL    HW123258   0.899   2.440  12.552  0.1091  0.4272  1.1372
 3874SOL    HW223259   0.812   2.515  12.635  1.1105  1.9007 -2.2297
 3875SOL     OW23260   0.554   0.874  12.714  0.2475 -0.0000 -0.0704
 3875SOL    HW123261   0.584   0.784  12.698  0.9611  0.4623 -1.3238
 3875SOL    HW223262   0.633   0.918  12.682  0.2142 -0.3032 -0.5570
 3876SOL     OW23263   2.356   1.637  10.029  0.7607 -0.1307 -0.0711
 3876SOL    HW123264   2.322   1.554  10.060  0.7390 -0.2176 -0.3241
 3876SOL    HW223265   2.451   1.630  10.038  0.3678 -1.5256  2.7473
 3877SOL     OW23266   2.363   3.038   2.540  0.1148 -0.2660  0.0418
 3877SOL    HW123267   2.382   2.950   2.573 -0.9451  0.0265  1.4820
 3877SOL    HW223268   2.432   3.058   2.477 -0.5156 -3.4477 -1.6311
 3878SOL     OW23269   4.688   3.578   6.048 -0.0216  0.0027 -0.4158
 3878SOL    HW123270   4.699   3.583   6.143  0.3560  0.2114 -0.4694
 3878SOL    HW223271   4.623   3.510   6.030  0.6940 -0.7125 -0.3346
 3879SOL     OW23272   0.046   2.285   4.640  0.1882 -0.1075  0.1229
 3879SOL    HW123273   0.067   2.291   4.733  1.6334 -2.0040 -0.0860
 3879SOL    HW223274   0.003   2.200   4.646  1.3659 -0.6455  1.0695
 3880SOL     OW23275   3.304   0.630  14.473 -0.4055  0.1885 -0.1186
 3880SOL    HW123276   3.313   0.670  14.386  0.1823  0.3783  0.0336
 3880SOL    HW223277   3.335   0.543  14.449 -0.0827  1.2333 -3.5536
 3881SOL     OW23278   3.025   2.290   5.219  0.1277 -0.1106  0.2640
 3881SOL    HW123279   2.979   2.233   5.158  0.8835  0.1074 -0.5111
 3881SOL    HW223280   3.042   2.370   5.170 -4.4034  0.9114  0.3482
 3882SOL     OW23281   0.137   3.298   2.209  0.2739 -0.2665 -0.5855
 3882SOL    HW123282   0.128   3.203   2.218 -1.0776 -0.0628  0.2033
 3882SOL    HW223283   0.080   3.331   2.278 -0.2056  0.2973 -1.2580
 3883SOL     OW23284   2.215   3.483  14.661 -0.5850 -0.2425 -0.0971
 3883SOL    HW123285   2.280   3.516  14.599 -0.2428  2.3678  1.6743
 3883SOL    HW223286   2.179   3.564  14.697 -1.1646 -0.9666  0.9541
 3884SOL     OW23287   2.276   3.114   7.579 -0.5123  0.0821  0.4309
 3884SOL    HW123288   2.271   3.140   7.671  0.8304 -0.4473  0.6536
 3884SOL    HW223289   2.363   3.076   7.569 -0.3475 -0.2976  3.3729
 3885SOL     OW23290   1.487   4.218   2.137 -0.0927 -0.4731  0.6102
 3885SOL    HW123291   1.564   4.229   2.193  1.6889 -0.0542 -1.8844
 3885SOL    HW223292   1.535   4.262   2.066 -0.5584  0.0750  0.6406
 3886SOL     OW23293   1.822   4.210   2.515 -0.1025 -0.0252 -0.1180
 3886SOL    HW123294   1.911   4.176   2.515 -0.7990 -1.8452 -1.3315
 3886SOL    HW223295   1.795   4.195   2.605 -2.1565  1.9581 -0.3802
 3887SOL     OW23296   0.148   1.026   1.753  0.0721  0.2797 -0.4248
 3887SOL    HW123297   0.178   1.084   1.823  0.1808  0.1474 -0.3611
 3887SOL    HW223298   0.068   0.991   1.793 -0.7949  0.8827 -1.6248
 3888SOL     OW23299   3.371   3.721   4.559  0.1493 -0.0449 -0.2820
 3888SOL    HW123300   3.390   3.763   4.644 -0.7884  0.2126 -0.1970
 3888SOL    HW223301   3.277   3.737   4.567 -0.1511 -1.5965 -0.7946
 3889SOL     OW23302   0.181   3.582   5.189  0.0107 -0.2230 -0.4948
 3889SOL    HW123303   0.144   3.666   5.217  2.5579  0.1016  1.8804
 3889SOL    HW223304   0.112   3.573   5.123 -0.0117 -1.0748 -0.3479
 3890SOL     OW23305   1.769   2.069   7.574  0.5300  0.5230 -0.2335
 3890SOL    HW123306   1.853   2.034   7.603  1.3253  2.3065 -0.4156
 3890SOL    HW223307   1.739   2.101   7.659 -0.2384  0.2234 -0.3924
 3891SOL     OW23308   3.661   0.613   5.722  0.1135 -0.7099 -0.4482
 3891SOL    HW123309   3.604   0.639   5.650 -1.2460  0.8369  1.2158
 3891SOL    HW223310   3.662   0.518   5.706 -0.1758 -0.9588  1.0158
 3892SOL     OW23311   3.034   1.662   3.877  0.3529 -0.0624 -0.0952
 3892SOL    HW123312   2.945   1.652   3.843  0.1368 -1.3547  0.8595
 3892SOL    HW223313   3.046   1.755   3.860  2.4291 -0.9390 -3.3343
 3893SOL     OW23314   2.412   2.490   6.036 -0.5567  0.3445 -0.1658
 3893SOL    HW123315   2.342   2.555   6.025 -0.0722  0.8445 -0.2725
 3893SOL    HW223316   2.407   2.475   6.130  1.0592 -0.0609 -0.1461
 3894SOL     OW23317   2.979   1.036   7.036  0.5629 -0.1193  0.0930
 3894SOL    HW123318   2.961   1.080   7.119  1.1745 -0.7829  0.5790
 3894SOL    HW223319   2.917   1.068   6.972 -0.5379  1.5198  1.9822
 3895SOL     OW23320   4.131   1.610   1.560 -0.2933  0.8274 -0.4671
 3895SOL    HW123321   4.224   1.587   1.556 -0.6708 -0.8108 -0.0103
 3895SOL    HW223322   4.131   1.673   1.488 -1.2711  2.0000  0.5613
 3896SOL     OW23323   2.931   0.878  16.624  0.2709  0.1829  0.0051
 3896SOL    HW123324   2.943   0.938  16.698 -1.4906  1.2232 -0.5560
 3896SOL    HW223325   2.867   0.925  16.570 -0.1741 -2.5553 -1.8649
 3897SOL     OW23326   2.119   1.315   3.987  0.1374  0.5707  0.4715
 3897SOL    HW123327   2.185   1.329   4.055  1.8603  0.4909 -1.1841
 3897SOL    HW223328   2.064   1.393   3.994 -0.2010  0.2796  1.0886
 3898SOL     OW23329   2.704   3.276   7.496 -0.0649  0.2983  0.3062
 3898SOL    HW123330   2.679   3.368   7.490  0.8559  0.6740  2.2323
 3898SOL    HW223331   2.653   3.235   7.427  0.8646 -0.0955 -0.1463
 3899SOL     OW23332   1.342   4.175   6.538 -0.3137  0.1093 -0.4197
 3899SOL    HW123333   1.253   4.161   6.505  0.5647 -2.8718 -1.5440
 3899SOL    HW223334   1.344   4.115   6.613 -2.3992  0.8370  0.2117
 3900SOL     OW23335   3.459   4.655  10.961 -0.2104  0.0995 -0.1283
 3900SOL    HW123336   3.484   4.563  10.955 -0.8343 -0.0915  0.1609
 3900SOL    HW223337   3.415   4.653  11.046 -1.5046 -0.9626 -0.8175
 3901SOL     OW23338   3.968   0.985  16.035 -1.0250  0.1028  0.4876
 3901SOL    HW123339   4.045   0.946  15.993 -0.8283  0.7936  0.2247
 3901SOL    HW223340   3.895   0.938  15.994  0.3153  0.6610 -2.5116
 3902SOL     OW23341   1.795   2.647  13.248  0.3416  0.2644 -0.6627
 3902SOL    HW123342   1.811   2.696  13.167  2.0477  2.5635  1.0577
 3902SOL    HW223343   1.705   2.616  13.247  0.8275 -1.1837  3.3845
 3903SOL     OW23344   3.601   4.036   2.090 -0.5433  0.3079  0.6359
 3903SOL    HW123345   3.577   4.048   2.182 -1.6418 -0.3762  0.4448
 3903SOL    HW223346   3.591   4.123   2.052  1.9369 -0.0812 -0.8640
 3904SOL     OW23347   3.330   0.925   3.597  0.3797 -0.3608  0.6183
 3904SOL    HW123348   3.419   0.928   3.631  1.2601  0.9161 -1.8191
 3904SOL    HW223349   3.275   0.970   3.661  0.2731  0.0271  0.2518
 3905SOL     OW23350   2.728   0.831   8.706 -0.0617  0.1451  0.6784
 3905SOL    HW123351   2.662   0.768   8.676 -0.3491  0.4723  0.6167
 3905SOL    HW223352   2.779   0.845   8.627 -1.0885 -2.2529 -0.4044
 3906SOL     OW23353   2.459   2.010   3.082 -0.0365  0.5004 -0.2411
 3906SOL    HW123354   2.522   1.973   3.020 -0.3885  2.4106 -1.7407
 3906SOL    HW223355   2.444   2.085   3.024  0.1148  0.9035  0.2396
 3907SOL     OW23356   3.022   1.982   7.279  0.1773 -0.2212  0.9484
 3907SOL    HW123357   3.007   2.072   7.309  0.8810 -0.0935  0.9174
 3907SOL    HW223358   2.943   1.972   7.226  0.6408  1.9630 -0.1368
 3908SOL     OW23359   2.340   0.570  15.849  0.4975 -0.1768 -0.0777
 3908SOL    HW123360   2.412   0.625  15.817  0.8275 -0.2881  0.4603
 3908SOL    HW223361   2.341   0.494  15.791  1.9270 -0.9219  0.9167
 3909SOL     OW23362   2.669   3.433   0.973 -0.2962 -0.3708  0.1718
 3909SOL    HW123363   2.752   3.436   1.020 -0.0033  0.5545 -0.4273
 3909SOL    HW223364   2.608   3.473   1.035 -1.3391 -1.6326 -0.0462
 3910SOL     OW23365   1.433   2.141   5.955  0.8962  0.2514 -0.1340
 3910SOL    HW123366   1.421   2.112   6.045  1.3405  1.0557  0.1764
 3910SOL    HW223367   1.369   2.212   5.949  1.2873  0.7395  1.4302
 3911SOL     OW23368   1.160   2.164   5.561 -0.1641 -0.2521 -0.0698
 3911SOL    HW123369   1.249   2.198   5.551  0.4814 -2.2671 -1.1249
 3911SOL    HW223370   1.106   2.178   5.483 -2.3411  1.2681  1.7154
 3912SOL     OW23371   2.670   1.713  17.029  0.1414  0.1543  0.4502
 3912SOL    HW123372   2.718   1.790  16.998 -2.3398  2.4969  2.4397
 3912SOL    HW223373   2.655   1.673  16.943 -0.5791  0.0988  0.6073
 3913SOL     OW23374   0.282   2.311   4.863 -0.1250  0.5644  0.2146
 3913SOL    HW123375   0.260   2.396   4.900  0.5880  1.3051 -1.0757
 3913SOL    HW223376   0.218   2.252   4.903  0.5316 -1.4113 -1.5938
 3914SOL     OW23377   3.680   2.763   2.033  0.3894  0.0635  0.2948
 3914SOL    HW123378   3.712   2.844   1.993  1.4605 -0.8735 -0.7030
 3914SOL    HW223379   3.584   2.770   2.030  0.2273 -3.4964 -1.6542
 3915SOL     OW23380   0.981   3.843   5.821 -0.2410  0.0227 -0.0105
 3915SOL    HW123381   0.919   3.868   5.753  0.0637  0.4493 -0.1276
 3915SOL    HW223382   0.937   3.874   5.900 -1.8399  2.6288 -1.9326
 3916SOL     OW23383   2.408   2.766   5.936 -0.1938  0.6396 -0.2689
 3916SOL    HW123384   2.482   2.724   5.892 -1.6638 -1.2591 -0.9830
 3916SOL    HW223385   2.452   2.819   6.002  1.0986 -0.0404 -0.5808
 3917SOL     OW23386   0.484   0.198   7.332 -0.0584  0.3339 -0.3225
 3917SOL    HW123387   0.552   0.241   7.384  1.5196 -3.4555  0.7835
 3917SOL    HW223388   0.524   0.203   7.245  1.5217 -0.2056  0.3843
 3918SOL     OW23389   3.879   3.673   6.568 -0.2207  0.1722  0.0717
 3918SOL    HW123390   3.951   3.630   6.521 -1.4323 -1.7278 -0.0557
 3918SOL    HW223391   3.815   3.688   6.498  0.6453  0.9891 -0.5445
 3919SOL     OW23392   0.875   3.206   7.964  0.6604 -0.3245 -0.2203
 3919SOL    HW123393   0.803   3.262   7.937  0.0646 -0.9773  0.0265
 3919SOL    HW223394   0.857   3.120   7.926 -2.2962  0.1977  0.0247
 3920SOL     OW23395   2.820   3.270   2.966 -0.1633 -0.5132 -0.1108
 3920SOL    HW123396   2.760   3.323   2.914  0.7820 -1.0325 -1.7315
 3920SOL    HW223397   2.771   3.187   2.973 -2.1938  0.8152  1.4468
 3921SOL     OW23398   0.919   4.330  17.666  0.1930  0.1437  0.0803
 3921SOL    HW123399   0.843   4.385  17.688 -0.8191 -0.0004 -3.1029
 3921SOL    HW223400   0.949   4.320   0.015 -0.8039  1.1920  0.5295
 3922SOL     OW23401   0.709   3.224   5.425  0.2489  0.6889 -0.3489
 3922SOL    HW123402   0.697   3.304   5.476  0.9329  1.0688 -0.7769
 3922SOL    HW223403   0.642   3.173   5.469  0.6927  0.8955  0.5694
 3923SOL     OW23404   4.515   1.846   9.874 -0.9638  0.2404  0.3426
 3923SOL    HW123405   4.460   1.900   9.816  0.3354 -2.0165 -2.9996
 3923SOL    HW223406   4.447   1.810   9.930  1.2084 -0.6118  2.4196
 3924SOL     OW23407   1.025   2.275   7.243  0.4505  0.1834 -0.0211
 3924SOL    HW123408   1.096   2.296   7.182  0.1125 -0.4440 -0.6335
 3924SOL    HW223409   1.015   2.348   7.303 -0.4592 -0.1196  0.2022
 3925SOL     OW23410   0.865   0.090   0.527  0.1562 -0.1623  0.3498
 3925SOL    HW123411   0.922   0.098   0.450  1.5094  1.1509  1.5082
 3925SOL    HW223412   0.798   0.150   0.495 -1.3315 -2.0553 -0.1158
 3926SOL     OW23413   3.030   3.085  11.674  0.4100 -0.1491  0.5226
 3926SOL    HW123414   3.025   3.158  11.735  0.4854 -1.0137  1.5731
 3926SOL    HW223415   2.965   3.019  11.697  1.7412 -2.2162 -1.6255
 3927SOL     OW23416   4.567   2.597   6.425  0.4983  0.2155  0.1488
 3927SOL    HW123417   4.505   2.661   6.390  1.4567  1.5444  0.8712
 3927SOL    HW223418   4.641   2.615   6.367  0.2527 -1.1902 -0.5945
 3928SOL     OW23419   3.703   1.024   8.100  0.1112 -0.9877  0.0068
 3928SOL    HW123420   3.718   1.045   8.192  3.7979  2.3794 -1.3589
 3928SOL    HW223421   3.702   0.929   8.093 -1.4923 -1.0688  1.3695
 3929SOL     OW23422   1.405   1.492   2.274  0.1086 -0.2120 -0.1746
 3929SOL    HW123423   1.458   1.413   2.259  0.4847 -0.0312  0.2004
 3929SOL    HW223424   1.472   1.553   2.246  0.1010  1.0602  2.5530
 3930SOL     OW23425   2.001   3.806  11.766 -0.3784  0.3656  0.0872
 3930SOL    HW123426   1.948   3.826  11.844 -0.0161 -0.6681  0.6104
 3930SOL    HW223427   1.935   3.842  11.708  0.4614  1.3034 -0.2761
 3931SOL     OW23428   2.892   4.158   8.051  0.1395 -0.2606 -0.2928
 3931SOL    HW123429   2.932   4.120   7.972  0.2180  0.1743 -0.4605
 3931SOL    HW223430   2.838   4.224   8.008 -1.2825 -1.2504  0.0017
 3932SOL     OW23431   4.715   1.533   3.060  0.3755  0.3976  0.0202
 3932SOL    HW123432   0.052   1.570   3.010  0.3227 -0.4881 -0.7069
 3932SOL    HW223433   4.678   1.477   2.992  4.0165 -1.6008 -0.3264
 3933SOL     OW23434   4.475   0.194   8.261 -0.7858 -0.7977  0.5243
 3933SOL    HW123435   4.546   0.177   8.323  0.5302 -0.1417 -0.8031
 3933SOL    HW223436   4.450   0.284   8.283  0.7761 -0.6625  1.7326
 3934SOL     OW23437   1.745   3.053   5.469  0.0647  0.5477  0.1813
 3934SOL    HW123438   1.660   3.092   5.453 -0.6333 -1.4534 -0.9361
 3934SOL    HW223439   1.798   3.089   5.398 -0.0296  0.1091 -0.1106
 3935SOL     OW23440   3.115   1.177   2.389 -0.3485 -0.0077  0.2963
 3935SOL    HW123441   3.141   1.255   2.340 -0.5164 -0.5900 -0.7147
 3935SOL    HW223442   3.159   1.111   2.336  0.1041  0.6590 -0.1525
 3936SOL     OW23443   1.002   4.376   6.237  0.0511 -0.3346  0.3792
 3936SOL    HW123444   0.993   4.283   6.213 -1.2462 -1.1109  3.9312
 3936SOL    HW223445   1.010   4.381   6.332  1.6796  0.9184  0.1635
 3937SOL     OW23446   3.688   2.837  10.343  0.1393  0.1058 -0.2105
 3937SOL    HW123447   3.713   2.792  10.262  1.7408  0.1993  0.2156
 3937SOL    HW223448   3.777   2.847  10.378 -1.1484 -0.1483  3.1470
 3938SOL     OW23449   2.261   0.408   8.670  0.5720 -0.4333 -0.0409
 3938SOL    HW123450   2.279   0.497   8.701 -0.7640  0.0490 -0.6664
 3938SOL    HW223451   2.167   0.400   8.656  0.2477  0.6912  1.5908
 3939SOL     OW23452   1.828   2.756   2.006  0.3553 -0.1115 -0.1948
 3939SOL    HW123453   1.762   2.825   2.001  0.0058 -0.2138  3.5720
 3939SOL    HW223454   1.907   2.800   1.975  0.0722 -1.0134 -2.2267
 3940SOL     OW23455   0.220   0.777  17.737  0.0037 -0.2325 -0.0224
 3940SOL    HW123456   0.197   0.737   0.079  1.0660  0.7619  0.7494
 3940SOL    HW223457   0.245   0.697  17.691 -1.2063 -1.3295  1.2426
 3941SOL     OW23458   3.565   4.549   4.096  0.2324 -0.4390  0.0301
 3941SOL    HW123459   3.501   4.492   4.054 -0.2507 -1.0157  1.5734
 3941SOL    HW223460   3.513   4.628   4.107  0.2616 -0.8265  2.8628
 3942SOL     OW23461   1.162   1.198   3.366 -0.1560 -0.0892  0.5716
 3942SOL    HW123462   1.084   1.247   3.393 -0.8128 -0.7410 -0.1773
 3942SOL    HW223463   1.219   1.242   3.429  1.4152  0.4795 -1.2240
 3943SOL     OW23464   2.537   1.841   5.541 -0.1945  0.3238 -0.1548
 3943SOL    HW123465   2.585   1.874   5.616 -0.2333 -0.8713  0.3920
 3943SOL    HW223466   2.515   1.917   5.487  0.7994  0.0434 -0.9503
 3944SOL     OW23467   3.492   1.843  14.642 -0.3155  0.0571 -0.4155
 3944SOL    HW123468   3.580   1.807  14.658  0.1284  1.4285  0.1769
 3944SOL    HW223469   3.461   1.775  14.582  0.1376 -0.9470  0.5022
 3945SOL     OW23470   2.579   4.070   5.172  0.1252 -0.1948 -0.1594
 3945SOL    HW123471   2.619   3.984   5.181  0.7358  0.0566 -0.4427
 3945SOL    HW223472   2.515   4.052   5.103 -1.1890 -0.9218  1.2552
 3946SOL     OW23473   1.048   3.136  17.409  0.0547 -0.1805  0.2131
 3946SOL    HW123474   1.028   3.202  17.475 -0.5677 -1.1162  0.9578
 3946SOL    HW223475   1.048   3.193  17.332  1.2869  0.1520  0.4537
 3947SOL     OW23476   1.798   2.698  15.783 -0.1338  0.0677  0.0796
 3947SOL    HW123477   1.743   2.635  15.828 -0.7921  0.2692 -0.4483
 3947SOL    HW223478   1.817   2.649  15.703  0.4574  0.6657 -0.1569
 3948SOL     OW23479   1.995   2.066   5.311  0.2749  0.1346  0.5008
 3948SOL    HW123480   2.024   2.135   5.251 -0.3713  0.1700  0.2219
 3948SOL    HW223481   1.900   2.053   5.301  0.5015 -0.2836 -1.2236
 3949SOL     OW23482   0.252   4.642   4.410  0.4314 -0.7034  0.5149
 3949SOL    HW123483   0.234   4.621   4.502 -3.3975  0.3973 -0.0101
 3949SOL    HW223484   0.180   4.607   4.358  0.0725  0.9131 -0.0723
 3950SOL     OW23485   2.180   0.151   4.702  0.0565  0.2896  0.7434
 3950SOL    HW123486   2.163   0.226   4.758 -1.3486 -1.0458  2.1032
 3950SOL    HW223487   2.117   0.179   4.635  1.6600  0.7652 -0.5870
 3951SOL     OW23488   3.467   1.650   6.059  0.6808  0.4553 -0.0733
 3951SOL    HW123489   3.457   1.574   6.117  3.0503 -0.8633 -1.4073
 3951SOL    HW223490   3.444   1.612   5.974  1.6331 -0.2738 -0.0061
 3952SOL     OW23491   2.477   2.559   2.624  0.5232  0.1873  0.0433
 3952SOL    HW123492   2.415   2.486   2.621 -0.6491  1.1906 -0.3888
 3952SOL    HW223493   2.437   2.615   2.557  1.2257 -0.3175 -0.7983
 3953SOL     OW23494   2.312   3.181   5.028 -0.8585 -0.0811 -0.4027
 3953SOL    HW123495   2.378   3.246   5.004 -2.6538  0.5156 -3.8900
 3953SOL    HW223496   2.359   3.098   5.032 -1.2563 -0.2323  0.8512
 3954SOL     OW23497   0.555   1.309   3.643 -0.4101  0.3351  0.3804
 3954SOL    HW123498   0.614   1.358   3.700  0.3487 -0.3552  0.1830
 3954SOL    HW223499   0.570   1.362   3.564 -0.4748  1.3905  1.0795
 3955SOL     OW23500   1.400   0.016   8.458 -0.2740  0.1025 -0.1669
 3955SOL    HW123501   1.326   0.051   8.508 -1.3702 -0.0714 -1.6877
 3955SOL    HW223502   1.407   4.672   8.512  1.6284 -0.2762 -0.9551
 3956SOL     OW23503   1.839   0.483   6.664  0.0732 -0.6949 -0.5906
 3956SOL    HW123504   1.925   0.452   6.636  0.0769  0.1248 -1.5029
 3956SOL    HW223505   1.817   0.442   6.748 -1.0882  1.7766  0.3296
 3957SOL     OW23506   4.000   0.038  16.008 -0.5346  0.0021  0.4418
 3957SOL    HW123507   3.907   0.058  16.003 -0.5662 -0.7398 -1.6341
 3957SOL    HW223508   4.041   0.121  15.981 -1.6008 -0.0570 -1.3083
 3958SOL     OW23509   0.237   0.810   3.256 -0.2535  0.0389 -0.0711
 3958SOL    HW123510   0.278   0.763   3.184  0.2495  3.2403 -1.8840
 3958SOL    HW223511   0.281   0.895   3.259 -1.4069  0.6684 -1.0089
 3959SOL     OW23512   0.932   1.899   2.797 -0.4234 -0.4239 -0.4068
 3959SOL    HW123513   0.893   1.983   2.822 -0.7587 -0.0717 -2.0969
 3959SOL    HW223514   0.965   1.871   2.882  0.8286  1.1872 -0.3499
 3960SOL     OW23515   3.713   0.471  13.807 -0.0508  0.4270  0.5314
 3960SOL    HW123516   3.655   0.443  13.878 -1.4160 -0.0434 -0.7809
 3960SOL    HW223517   3.757   0.387  13.797  0.6244  0.8400  0.0352
 3961SOL     OW23518   2.034   4.707   8.006  0.5309  0.4163 -0.0795
 3961SOL    HW123519   1.978   4.629   8.001  0.9506 -0.0907  2.9809
 3961SOL    HW223520   2.089   4.700   8.084  0.5015 -0.4539 -0.1359
 3962SOL     OW23521   1.507   0.994   7.403 -0.3326 -0.1687 -0.1428
 3962SOL    HW123522   1.545   1.072   7.443  0.2401  1.0953 -3.1051
 3962SOL    HW223523   1.472   1.033   7.323 -1.4626 -0.0002  0.4297
 3963SOL     OW23524   3.039   4.154   8.921 -0.5568  0.5110  0.2700
 3963SOL    HW123525   2.985   4.119   8.851  0.5463  0.1694 -0.4237
 3963SOL    HW223526   2.962   4.189   8.967 -2.7366 -2.0852 -1.4621
 3964SOL     OW23527   3.708   3.485   6.922  0.3067  0.3768  0.5493
 3964SOL    HW123528   3.692   3.449   7.009  2.5612 -1.8815  0.0372
 3964SOL    HW223529   3.696   3.404   6.872 -1.3153  0.3090  1.0594
 3965SOL     OW23530   3.455   4.496   9.020  0.7504  0.3378 -0.0373
 3965SOL    HW123531   3.374   4.503   9.071  0.9040 -0.9007  0.3836
 3965SOL    HW223532   3.416   4.455   8.942  1.9902 -1.2141  0.1467
 3966SOL     OW23533   4.020   2.858   8.835 -0.4075  0.2277 -0.2940
 3966SOL    HW123534   3.979   2.854   8.922 -0.4512 -0.9976 -0.3729
 3966SOL    HW223535   4.046   2.766   8.828  0.3715  0.4337 -0.0916
 3967SOL     OW23536   4.221   4.093   2.467 -0.0097  0.4271  0.0822
 3967SOL    HW123537   4.148   4.153   2.484  1.1458  1.5211  1.2629
 3967SOL    HW223538   4.271   4.149   2.408 -1.3767 -0.6137 -2.0250
 3968SOL     OW23539   0.488   4.418   5.073  0.2484 -0.0695 -0.2252
 3968SOL    HW123540   0.551   4.481   5.040  1.2218 -1.5525 -1.1872
 3968SOL    HW223541   0.505   4.345   5.013 -0.5711 -0.0172 -0.5268
 3969SOL     OW23542   2.711   3.164  13.264 -0.2556  0.3538  0.6048
 3969SOL    HW123543   2.675   3.176  13.351 -0.6081 -0.8333  0.6161
 3969SOL    HW223544   2.753   3.250  13.256 -1.1075  0.8593  1.6443
 3970SOL     OW23545   1.616   0.021   5.090  0.1702 -0.3831 -0.3414
 3970SOL    HW123546   1.524   4.730   5.086 -0.0533  0.3695 -0.1945
 3970SOL    HW223547   1.623   0.001   5.184 -1.3820 -0.3560 -0.2283
 3971SOL     OW23548   0.845   2.131   6.184 -0.0188  0.1376 -0.1505
 3971SOL    HW123549   0.750   2.117   6.187  0.0692 -0.7475 -1.3749
 3971SOL    HW223550   0.867   2.045   6.221 -1.1601  0.3014  0.9175
 3972SOL     OW23551   0.239   0.662   4.578 -0.8697  0.2226  0.0687
 3972SOL    HW123552   0.235   0.700   4.666  1.9229 -0.1440  0.3432
 3972SOL    HW223553   0.331   0.682   4.564 -0.6626  0.6926  2.0835
 3973SOL     OW23554   2.422   2.750   0.926  0.0343 -0.1121 -0.4568
 3973SOL    HW123555   2.419   2.709   0.840 -0.1601 -0.9537 -0.0454
 3973SOL    HW223556   2.517   2.759   0.934  0.2841 -1.4821 -2.1471
 3974SOL     OW23557   3.651   1.097   6.555 -0.1835 -0.5381 -0.0026
 3974SOL    HW123558   3.634   1.108   6.649 -0.9348  2.3325 -0.4761
 3974SOL    HW223559   3.565   1.066   6.525 -0.4002 -1.0027  1.0948
 3975SOL     OW23560   2.025   0.455  17.010  0.2484 -0.0033  0.9656
 3975SOL    HW123561   2.022   0.551  17.006 -1.5166 -0.1491 -1.2732
 3975SOL    HW223562   1.954   0.434  16.950  1.4902  0.6741 -0.7728
 3976SOL     OW23563   2.633   3.458   0.731  0.0248  0.1031  0.3483
 3976SOL    HW123564   2.648   3.427   0.820  1.2950  0.3699  0.2201
 3976SOL    HW223565   2.602   3.546   0.752 -0.3064  0.2663 -0.8010
 3977SOL     OW23566   2.890   0.183   3.212 -0.2519 -0.4011  0.9978
 3977SOL    HW123567   2.959   0.249   3.197 -0.4509 -0.4313 -0.0877
 3977SOL    HW223568   2.868   0.162   3.121 -4.8899  0.1566  2.0138
 3978SOL     OW23569   2.525   4.686   9.524 -0.5286  0.3621  0.3066
 3978SOL    HW123570   2.570   0.017   9.471  3.4142 -1.2239  1.6171
 3978SOL    HW223571   2.546   4.718   9.612  0.8992  1.3156 -0.3730
 3979SOL     OW23572   3.755   3.589   0.545  0.0393 -0.2344  0.3023
 3979SOL    HW123573   3.777   3.672   0.502 -0.0782 -0.1923  0.3244
 3979SOL    HW223574   3.815   3.525   0.506 -0.2918  0.0527 -0.6735
 3980SOL     OW23575   2.924   2.897   8.934 -0.2254 -0.1710  0.0663
 3980SOL    HW123576   2.831   2.877   8.932 -0.4931  1.1955 -1.3468
 3980SOL    HW223577   2.919   2.988   8.962  0.2795  0.1145 -0.7694
 3981SOL     OW23578   0.960   3.881   2.346 -0.0758 -0.3555 -0.1661
 3981SOL    HW123579   0.952   3.864   2.440  0.1042 -2.8085 -0.6001
 3981SOL    HW223580   0.880   3.926   2.322 -0.9126 -1.0246  1.3442
 3982SOL     OW23581   3.699   2.738   5.189  0.1809  0.4211  0.1464
 3982SOL    HW123582   3.677   2.806   5.127 -1.3629  0.9514  1.2784
 3982SOL    HW223583   3.783   2.702   5.160 -0.3282  2.4976 -3.8750
 3983SOL     OW23584   1.184   0.977  15.411 -0.3389 -0.0041  0.1964
 3983SOL    HW123585   1.248   0.945  15.348 -0.5781 -0.8564  0.3958
 3983SOL    HW223586   1.219   1.067  15.411  1.7602 -0.8157 -0.8008
 3984SOL     OW23587   2.598   1.446  14.888 -0.0364  0.8671  0.7432
 3984SOL    HW123588   2.534   1.493  14.834 -0.3816 -0.0160  0.3763
 3984SOL    HW223589   2.614   1.366  14.838 -0.8970 -0.0571  1.9639
 3985SOL     OW23590   0.062   1.402  16.063 -0.6046  0.0111  0.0145
 3985SOL    HW123591   4.725   1.389  16.002  1.3999 -1.5711 -2.0664
 3985SOL    HW223592   0.024   1.365  16.143  0.1540 -2.6516 -0.8382
 3986SOL     OW23593   3.668   0.815   7.501  0.6260 -0.3190 -0.0649
 3986SOL    HW123594   3.626   0.769   7.429  2.0360  2.8028 -2.8952
 3986SOL    HW223595   3.604   0.882   7.524  0.8170  0.1377 -0.8577
 3987SOL     OW23596   0.628   0.900   7.324  0.0497 -0.3884  0.1712
 3987SOL    HW123597   0.583   0.850   7.256 -0.2185  0.2229 -0.1050
 3987SOL    HW223598   0.561   0.937   7.381 -0.4398 -0.5848 -0.2798
 3988SOL     OW23599   3.254   0.169   5.355 -0.5163 -0.1771  0.1932
 3988SOL    HW123600   3.201   0.093   5.381 -3.0785  1.7801  0.7004
 3988SOL    HW223601   3.202   0.243   5.388  0.7610  0.5279  0.6075
 3989SOL     OW23602   3.082   4.665   3.830 -0.0830  0.4774 -0.1516
 3989SOL    HW123603   3.102   4.713   3.909  2.1349 -1.4707  0.4649
 3989SOL    HW223604   3.011   4.715   3.788  0.0639  0.2241 -0.7068
 3990SOL     OW23605   2.540   1.706   5.994  0.7650  0.0577 -0.1042
 3990SOL    HW123606   2.588   1.629   5.962  0.1792 -1.0755  1.7749
 3990SOL    HW223607   2.501   1.667   6.072  0.2573  0.7067 -0.0357
 3991SOL     OW23608   1.110   3.609  16.577 -0.0328 -0.2330  0.2228
 3991SOL    HW123609   1.160   3.616  16.496  0.6018 -0.3312  0.6024
 3991SOL    HW223610   1.061   3.527  16.566  0.1350 -0.2623 -0.2806
 3992SOL     OW23611   1.154   0.035   3.791 -0.1985 -0.0782  0.3209
 3992SOL    HW123612   1.085   0.040   3.857  1.8608  2.6298  2.3138
 3992SOL    HW223613   1.118   0.082   3.716  0.5649 -1.3148 -0.8175
 3993SOL     OW23614   0.644   3.186   4.354 -0.2032  0.1245  0.0044
 3993SOL    HW123615   0.623   3.112   4.412  2.2754  0.0101  0.7559
 3993SOL    HW223616   0.712   3.143   4.303  0.7655 -2.0740  3.1042
 3994SOL     OW23617   1.991   2.992   3.620 -0.6201  0.1051  0.2016
 3994SOL    HW123618   2.056   3.035   3.676  2.0598 -0.3400 -2.5788
 3994SOL    HW223619   2.014   2.899   3.619 -0.4223  0.1438  0.7543
 3995SOL     OW23620   1.491   0.192   3.581 -0.2865  0.2596 -0.5507
 3995SOL    HW123621   1.407   0.149   3.564  0.8148 -1.7540 -0.8646
 3995SOL    HW223622   1.549   0.137   3.528 -0.8602 -0.8053 -0.0681
 3996SOL     OW23623   0.261   4.669  12.188  0.3461 -0.5716  0.4225
 3996SOL    HW123624   0.353   4.641  12.196  0.2955 -1.2407 -1.3639
 3996SOL    HW223625   0.220   4.584  12.174 -0.1127 -0.4198  0.8704
 3997SOL     OW23626   4.336   3.513   7.793  0.0390 -0.4381  0.2433
 3997SOL    HW123627   4.262   3.539   7.847  0.3226 -0.2588  0.5431
 3997SOL    HW223628   4.405   3.578   7.808  0.3412 -0.1540 -2.2466
 3998SOL     OW23629   3.903   2.158   8.245 -0.0855 -0.0816 -0.1449
 3998SOL    HW123630   3.975   2.197   8.293 -0.9191  0.0877  0.9633
 3998SOL    HW223631   3.828   2.205   8.281  2.7566  3.2166  1.4292
 3999SOL     OW23632   1.341   1.967   5.391  0.1554 -0.1405 -0.1733
 3999SOL    HW123633   1.280   1.988   5.321 -0.8762  0.4990  0.9167
 3999SOL    HW223634   1.427   1.958   5.350  0.2703 -0.8291  0.2183
 4000SOL     OW23635   1.324   4.031   6.791 -0.7702 -0.5199 -0.5413
 4000SOL    HW123636   1.412   4.045   6.826 -0.3377 -1.3028 -1.3078
 4000SOL    HW223637   1.270   4.097   6.834 -0.0303 -1.0117  1.1493
 4001SOL     OW23638   2.766   4.643   8.252 -0.7175 -0.0466  0.0292
 4001SOL    HW123639   2.805   4.569   8.299 -0.7439  0.7555  1.3262
 4001SOL    HW223640   2.672   4.634   8.263 -1.4387  3.7073 -3.3191
 4002SOL     OW23641   2.695   4.411  14.945  0.6382 -0.5733  0.0095
 4002SOL    HW123642   2.627   4.377  15.002  1.0099  2.2451  2.1165
 4002SOL    HW223643   2.749   4.334  14.927 -0.1205 -0.7531 -1.4934
 4003SOL     OW23644   4.347   4.096   4.467 -0.1025 -0.2467 -0.6264
 4003SOL    HW123645   4.371   4.171   4.522  1.1090 -0.8194 -0.3643
 4003SOL    HW223646   4.290   4.047   4.525  0.6852  0.5646  0.8254
 4004SOL     OW23647   1.133   2.771   1.870 -0.3364  0.1446  0.1612
 4004SOL    HW123648   1.225   2.795   1.863  0.0678 -2.3418 -3.2198
 4004SOL    HW223649   1.136   2.678   1.891  1.6913 -0.5481 -3.1815
 4005SOL     OW23650   3.634   3.091   8.061  0.2439  0.1109  0.1812
 4005SOL    HW123651   3.723   3.055   8.055  0.2088  0.1990 -0.8368
 4005SOL    HW223652   3.602   3.070   7.973 -0.9131 -0.2673  0.6895
 4006SOL     OW23653   0.322   3.164   9.283 -0.1253 -0.1237 -0.4709
 4006SOL    HW123654   0.321   3.069   9.297  2.5554 -0.0568  0.3153
 4006SOL    HW223655   0.294   3.182   9.194 -1.0538 -2.8345 -0.7265
 4007SOL     OW23656   4.273   1.040   5.529  0.2223 -0.3607 -0.1088
 4007SOL    HW123657   4.237   1.016   5.615 -2.3792  1.8507 -0.5643
 4007SOL    HW223658   4.197   1.073   5.480 -0.7718  1.3267  2.5459
 4008SOL     OW23659   4.562   4.501   7.428  0.1670  0.4263 -0.2497
 4008SOL    HW123660   4.624   4.564   7.465  1.7492 -2.3018  1.7252
 4008SOL    HW223661   4.520   4.546   7.355  1.5926  3.6800  0.9381
 4009SOL     OW23662   0.329   3.968   2.923 -0.5024 -0.7173  0.1394
 4009SOL    HW123663   0.384   3.896   2.894  0.6755 -1.0253  3.1660
 4009SOL    HW223664   0.316   4.017   2.842  0.9964  0.4760  0.6219
 4010SOL     OW23665   4.500   0.586  16.132 -0.1628  0.0757 -0.4306
 4010SOL    HW123666   4.512   0.572  16.038 -1.6705 -1.4400 -0.3972
 4010SOL    HW223667   4.422   0.531  16.144  0.1493 -0.4310 -0.7281
 4011SOL     OW23668   3.526   3.018   2.394 -0.0313  0.3244 -0.1787
 4011SOL    HW123669   3.621   3.009   2.391 -0.3081 -2.2595 -1.1319
 4011SOL    HW223670   3.504   3.082   2.327  0.0697  0.8187  0.2534
 4012SOL     OW23671   1.965   1.240   3.422  0.2056 -0.0009 -0.2183
 4012SOL    HW123672   2.058   1.216   3.422  0.6126  1.5797 -2.0189
 4012SOL    HW223673   1.941   1.217   3.333  3.2544 -2.0963 -0.4908
 4013SOL     OW23674   4.262   3.984   7.491  0.4212 -0.1329 -0.0732
 4013SOL    HW123675   4.196   4.017   7.552 -0.9241 -0.2627 -1.4708
 4013SOL    HW223676   4.222   3.978   7.405 -0.0614  0.2935  0.1230
 4014SOL     OW23677   0.730   4.723   7.548  1.1207 -0.3012 -0.0069
 4014SOL    HW123678   0.779   4.647   7.515 -1.4930 -1.5543 -0.9814
 4014SOL    HW223679   0.789   0.059   7.523  0.6282  0.2992  0.5846
 4015SOL     OW23680   0.611   4.292   4.857 -0.2098 -0.2910  0.6303
 4015SOL    HW123681   0.633   4.337   4.775  0.5485  2.3327  2.2572
 4015SOL    HW223682   0.596   4.203   4.825 -1.5642 -0.2231  1.0925
 4016SOL     OW23683   1.325   1.768  12.889 -0.4823  0.3190  0.2512
 4016SOL    HW123684   1.349   1.677  12.903 -0.0470  0.3997  0.0312
 4016SOL    HW223685   1.407   1.818  12.896 -0.7316  0.6120  1.0967
 4017SOL     OW23686   3.192   4.494   9.089 -0.0943  0.1934 -0.1189
 4017SOL    HW123687   3.164   4.585   9.090 -0.8964 -0.0592 -0.2954
 4017SOL    HW223688   3.134   4.459   9.157 -0.7294  2.4121  0.4551
 4018SOL     OW23689   0.199   1.830   1.193 -0.3316  0.1848  0.3568
 4018SOL    HW123690   0.110   1.858   1.169 -0.8892 -0.6629  1.3976
 4018SOL    HW223691   0.256   1.903   1.171  0.0766 -0.2453 -0.0061
 4019SOL     OW23692   3.649   0.679   5.973 -0.0689  0.4126 -0.0619
 4019SOL    HW123693   3.646   0.654   5.881 -0.3668  1.6577 -0.3877
 4019SOL    HW223694   3.706   0.610   6.007  1.0352  0.8532 -1.0136
 4020SOL     OW23695   3.810   3.020   2.294  0.6042 -0.1414 -0.0437
 4020SOL    HW123696   3.851   3.097   2.333  0.3812 -0.5180  0.9186
 4020SOL    HW223697   3.796   3.060   2.207  1.2087 -2.8398 -1.3677
 4021SOL     OW23698   1.971   0.516   2.998 -0.2182  0.2267  0.0389
 4021SOL    HW123699   1.988   0.552   3.086 -0.6534  1.2595 -0.3017
 4021SOL    HW223700   1.882   0.482   3.011 -0.3572  1.2680  1.8116
 4022SOL     OW23701   2.949   3.058  12.358 -0.2165 -0.1862 -0.1130
 4022SOL    HW123702   3.002   2.998  12.411  0.1459 -0.7201 -1.0911
 4022SOL    HW223703   2.957   3.140  12.406 -2.1218 -0.4648  0.6902
 4023SOL     OW23704   1.469   1.648   4.571 -0.6335  0.5153 -0.2862
 4023SOL    HW123705   1.531   1.668   4.641 -0.5855 -0.4685 -0.0494
 4023SOL    HW223706   1.388   1.690   4.599  1.2572  2.4263  2.3036
 4024SOL     OW23707   1.303   1.184   4.971  0.1130 -0.0130 -0.4458
 4024SOL    HW123708   1.226   1.231   4.938 -1.5354 -1.8318  0.7982
 4024SOL    HW223709   1.373   1.246   4.950  0.4113  0.1753  1.0635
 4025SOL     OW23710   1.305   2.865   5.387 -0.1239  0.0108  0.6144
 4025SOL    HW123711   1.277   2.790   5.440 -2.8918  1.2413  0.8913
 4025SOL    HW223712   1.296   2.939   5.447 -4.0263 -0.3159  0.4703
 4026SOL     OW23713   1.057   1.113  16.583 -0.0093  0.1310 -0.3991
 4026SOL    HW123714   1.090   1.080  16.666 -1.7970  0.5841  0.4890
 4026SOL    HW223715   1.075   1.207  16.593 -0.3964  0.2347 -0.6819
 4027SOL     OW23716   3.622   3.116  10.339 -0.0066 -0.0616 -0.0174
 4027SOL    HW123717   3.632   3.021  10.337  0.9645  0.0904 -2.0489
 4027SOL    HW223718   3.581   3.144  10.257 -0.5790  2.1974  1.0501
 4028SOL     OW23719   3.736   3.367   5.138 -1.2923 -0.0553 -0.0322
 4028SOL    HW123720   3.782   3.341   5.059 -0.6427  1.0878 -0.0237
 4028SOL    HW223721   3.653   3.386   5.093  0.5768  1.0486 -2.9959
 4029SOL     OW23722   0.486   4.594   3.122  0.1009 -0.5635 -0.4944
 4029SOL    HW123723   0.478   4.663   3.057 -0.2737 -0.5295 -0.4118
 4029SOL    HW223724   0.450   4.640   3.198 -0.2399  0.4460 -1.2747
 4030SOL     OW23725   2.952   0.390   2.248 -0.3450 -0.2063 -0.3597
 4030SOL    HW123726   2.985   0.329   2.182 -0.4377 -0.6046 -0.0398
 4030SOL    HW223727   3.003   0.467   2.224  1.0324 -1.1467 -0.3959
 4031SOL     OW23728   1.828   3.987   6.706 -0.0798 -0.1228  0.1755
 4031SOL    HW123729   1.908   3.945   6.738 -0.0692 -0.7260 -0.6660
 4031SOL    HW223730   1.848   4.000   6.614  1.4597  1.0316  0.6694
 4032SOL     OW23731   0.324   2.634   6.151 -0.0956  0.2087 -0.0352
 4032SOL    HW123732   0.325   2.672   6.063  0.7347 -0.6921 -0.4190
 4032SOL    HW223733   0.414   2.602   6.161 -0.9453 -2.0517  0.2754
 4033SOL     OW23734   4.041   0.205   5.684  0.0204 -0.0787 -0.1644
 4033SOL    HW123735   3.993   0.127   5.655 -1.1042  0.3718  0.5024
 4033SOL    HW223736   4.132   0.191   5.659 -0.6025 -0.6332 -2.1651
 4034SOL     OW23737   0.055   2.025  15.424  0.0688  0.5368  0.8409
 4034SOL    HW123738   0.005   1.968  15.481 -1.8659  2.5358  1.1360
 4034SOL    HW223739   0.065   1.974  15.343 -0.5561 -0.5614  1.4632
 4035SOL     OW23740   3.707   0.680  17.297 -0.2194  0.4053 -0.2153
 4035SOL    HW123741   3.686   0.715  17.211  2.2462  3.5628  0.4309
 4035SOL    HW223742   3.726   0.592  17.266  0.7239 -0.5287  3.0295
 4036SOL     OW23743   3.805   4.368   6.118 -0.2573  0.6051  0.6098
 4036SOL    HW123744   3.852   4.405   6.193  0.8037 -0.1000  0.2927
 4036SOL    HW223745   3.730   4.325   6.158  0.4460 -4.0330 -3.0959
 4037SOL     OW23746   4.386   3.569   9.111  0.0998  0.5921 -0.5343
 4037SOL    HW123747   4.407   3.477   9.093 -1.5063  0.1903 -0.3157
 4037SOL    HW223748   4.461   3.621   9.082 -0.3365  1.4824 -0.0668
 4038SOL     OW23749   1.812   1.465   4.570 -0.0672 -0.6187 -0.1571
 4038SOL    HW123750   1.834   1.550   4.530  0.5917 -2.4258 -3.6277
 4038SOL    HW223751   1.807   1.504   4.657  2.9486 -0.8949  0.1657
 4039SOL     OW23752   4.120   2.925   6.995 -0.1450  0.1198  0.5748
 4039SOL    HW123753   4.122   2.840   6.951  3.2473 -1.1222  3.1770
 4039SOL    HW223754   4.150   2.899   7.082 -1.1984 -2.9135  0.0458
 4040SOL     OW23755   2.443   2.932   6.715 -0.5437 -0.6497 -0.5731
 4040SOL    HW123756   2.530   2.918   6.752 -0.4042  0.6747 -0.3840
 4040SOL    HW223757   2.442   3.027   6.702 -1.4459 -0.2703  2.2481
 4041SOL     OW23758   0.517   3.418  12.290 -0.2365 -0.6271 -0.1792
 4041SOL    HW123759   0.561   3.362  12.226 -1.2937 -0.6219 -0.8977
 4041SOL    HW223760   0.540   3.502  12.251 -0.4957  0.1321  1.2855
 4042SOL     OW23761   3.379   0.733   8.279 -0.2950 -0.0175  0.0720
 4042SOL    HW123762   3.357   0.640   8.282  3.3001 -0.8211  1.3885
 4042SOL    HW223763   3.400   0.743   8.371  0.6848  0.7211 -0.2369
 4043SOL     OW23764   4.377   0.481  15.560 -0.4726  0.1657  0.0413
 4043SOL    HW123765   4.396   0.461  15.651 -0.5657  1.4929  0.3562
 4043SOL    HW223766   4.320   0.558  15.567 -0.7667  0.0601 -1.1421
 4044SOL     OW23767   4.141   0.204   4.566  0.3119  0.1832 -0.0328
 4044SOL    HW123768   4.116   0.293   4.590 -0.3067 -0.4353  1.5912
 4044SOL    HW223769   4.224   0.195   4.612  0.3203 -0.7505 -0.2226
 4045SOL     OW23770   1.466   1.359  16.595 -0.2711 -0.1501 -0.2865
 4045SOL    HW123771   1.457   1.289  16.531  1.0353 -0.1416 -0.4760
 4045SOL    HW223772   1.561   1.367  16.610  0.0149 -0.3214 -2.0304
 4046SOL     OW23773   1.330   0.521   4.479 -0.1584 -0.4175 -0.5176
 4046SOL    HW123774   1.273   0.509   4.402 -0.3112 -0.1660 -0.4424
 4046SOL    HW223775   1.313   0.610   4.508 -1.8748 -0.9406  0.0705
 4047SOL     OW23776   4.542   2.084   1.772 -0.1544 -0.2233 -0.3512
 4047SOL    HW123777   4.513   2.127   1.853 -1.3147 -0.6170 -0.5534
 4047SOL    HW223778   4.458   2.039   1.762  1.3384 -2.1353 -3.9452
 4048SOL     OW23779   0.569   1.825   6.676  0.2293 -0.2897 -0.0511
 4048SOL    HW123780   0.649   1.774   6.662  0.1089 -1.1118  2.2892
 4048SOL    HW223781   0.537   1.780   6.754  0.1867 -1.5726 -0.8111
 4049SOL     OW23782   3.185   1.819  15.899  0.3900  0.1783  0.5795
 4049SOL    HW123783   3.147   1.901  15.931 -3.4363 -0.0299 -3.4197
 4049SOL    HW223784   3.173   1.843  15.807  2.4797 -4.2617 -0.8247
 4050SOL     OW23785   1.813   0.355  13.742 -0.1662  0.5153  0.2737
 4050SOL    HW123786   1.903   0.324  13.735 -0.9380 -1.4746 -1.0797
 4050SOL    HW223787   1.812   0.426  13.677 -2.0413  0.5913  0.3728
 4051SOL     OW23788   3.011   1.762   6.380 -0.1614 -0.0257  0.3869
 4051SOL    HW123789   2.915   1.760   6.381 -0.1633  0.8622  1.4168
 4051SOL    HW223790   3.040   1.834   6.436  1.1448 -0.9126  0.8457
 4052SOL     OW23791   2.834   1.869   4.368  0.4641 -0.0428 -0.2255
 4052SOL    HW123792   2.843   1.774   4.360  0.2133 -0.0776 -0.1101
 4052SOL    HW223793   2.870   1.878   4.456  0.2375  0.8308 -0.2218
 4053SOL     OW23794   1.110   2.933   6.294  0.3738  0.0903  0.5385
 4053SOL    HW123795   1.109   2.839   6.273  0.3620  0.2386 -0.1123
 4053SOL    HW223796   1.037   2.971   6.246  2.8575  1.3327 -2.2243
 4054SOL     OW23797   3.155   1.831   7.876  0.2103 -0.0122 -0.0070
 4054SOL    HW123798   3.209   1.815   7.954  0.5852 -0.9430 -0.4622
 4054SOL    HW223799   3.213   1.877   7.815 -1.1845  1.5014 -0.2034
 4055SOL     OW23800   3.142   4.392   3.264 -0.6869 -0.4217 -0.6148
 4055SOL    HW123801   3.170   4.467   3.316  1.7598 -2.6208  1.2091
 4055SOL    HW223802   3.047   4.408   3.264 -0.5851  0.1917  0.7775
 4056SOL     OW23803   1.647   4.118   2.745  0.0352  0.3735  0.4273
 4056SOL    HW123804   1.580   4.073   2.694 -0.9503  0.1402  1.8978
 4056SOL    HW223805   1.663   4.050   2.811  1.7845  0.5772  0.2102
 4057SOL     OW23806   3.230   3.819   3.308  0.2710  0.3801 -0.4800
 4057SOL    HW123807   3.199   3.897   3.353 -1.2998 -0.4122 -0.1913
 4057SOL    HW223808   3.185   3.828   3.224  1.6147 -2.2072 -1.4852
 4058SOL     OW23809   0.012   3.795   5.254  0.3818 -0.2377 -0.5871
 4058SOL    HW123810   4.735   3.860   5.185  4.0067  1.0497 -0.0408
 4058SOL    HW223811   4.658   3.798   5.284  0.6638  0.2699  0.1943
 4059SOL     OW23812   1.802   4.063   4.705 -0.6082 -0.1467  0.1881
 4059SOL    HW123813   1.830   4.015   4.627 -1.1933 -1.1715  0.6094
 4059SOL    HW223814   1.710   4.043   4.684 -0.7769  0.4445  0.3679
 4060SOL     OW23815   1.354   1.937   4.294  0.5396  0.2751  0.0364
 4060SOL    HW123816   1.376   1.844   4.295 -0.3681  0.0677  2.8355
 4060SOL    HW223817   1.336   1.949   4.388  0.1656 -2.2570  0.2708
 4061SOL     OW23818   0.373   3.321   6.067 -0.4203 -0.5668 -0.2236
 4061SOL    HW123819   0.290   3.305   6.022 -0.3608  0.4104 -0.6783
 4061SOL    HW223820   0.355   3.400   6.118  1.5112 -0.7950  0.8391
 4062SOL     OW23821   1.894   2.557   1.508  0.4235 -0.2879  0.0495
 4062SOL    HW123822   1.833   2.608   1.455  1.1268  0.1786 -0.3178
 4062SOL    HW223823   1.845   2.562   1.590  0.4162  2.1097 -0.1207
 4063SOL     OW23824   4.328   1.019   2.910 -0.4234  0.7200 -0.4898
 4063SOL    HW123825   4.255   1.057   2.960  0.8178  1.4060  0.7787
 4063SOL    HW223826   4.290   1.027   2.822 -0.1443 -2.2017 -0.8687
 4064SOL     OW23827   3.578   3.319   5.657 -0.3136  0.1520  0.2587
 4064SOL    HW123828   3.484   3.306   5.672 -0.1332  0.3663  1.6033
 4064SOL    HW223829   3.584   3.376   5.581 -0.3406  0.0726  0.1967
 4065SOL     OW23830   2.824   3.499   9.145 -0.3725 -0.0646 -0.6272
 4065SOL    HW123831   2.858   3.471   9.060  1.4541 -3.1904  1.1454
 4065SOL    HW223832   2.731   3.502   9.120 -0.8894  0.2087  1.3641
 4066SOL     OW23833   4.274   0.710   1.851 -1.1993  0.3342  0.2873
 4066SOL    HW123834   4.347   0.753   1.896 -2.3282  1.5949  0.9044
 4066SOL    HW223835   4.306   0.704   1.761 -1.4505  2.3164  0.0656
 4067SOL     OW23836   0.703   3.430   5.754  0.2670 -0.1967 -0.2272
 4067SOL    HW123837   0.694   3.523   5.735  1.1800 -0.5325 -2.3676
 4067SOL    HW223838   0.763   3.397   5.686  1.5419  1.1311  0.2451
 4068SOL     OW23839   0.884   4.665   2.796 -0.1766 -0.2756  0.6018
 4068SOL    HW123840   0.860   4.611   2.721 -0.4283 -0.9326  1.1632
 4068SOL    HW223841   0.966   4.621   2.817  1.3681  3.6436  2.7785
 4069SOL     OW23842   2.115   1.557   2.286  0.1697 -0.2628 -0.0589
 4069SOL    HW123843   2.169   1.480   2.267  1.2429  0.3185  0.6275
 4069SOL    HW223844   2.158   1.584   2.367  1.0704 -0.5849 -0.4327
 4070SOL     OW23845   1.570   1.435  10.789  0.0965  0.3586  0.2283
 4070SOL    HW123846   1.477   1.439  10.808 -0.0710  0.8213 -0.6718
 4070SOL    HW223847   1.604   1.407  10.873  0.8376  1.5341  0.3265
 4071SOL     OW23848   4.140   4.475   5.316 -0.5258 -0.7595 -0.7719
 4071SOL    HW123849   4.147   4.527   5.396  0.5123 -0.3393 -1.1362
 4071SOL    HW223850   4.055   4.435   5.335 -1.2061  1.1365  0.2277
 4072SOL     OW23851   0.343   1.024   5.373  0.4658  0.1704 -0.2799
 4072SOL    HW123852   0.327   1.075   5.453  0.4569  1.4668 -1.1019
 4072SOL    HW223853   0.316   1.090   5.308  0.3275  2.4887  2.1285
 4073SOL     OW23854   2.401   3.725   4.140  0.3354  0.3777  0.0251
 4073SOL    HW123855   2.450   3.737   4.221  0.5145 -0.1786 -0.0032
 4073SOL    HW223856   2.466   3.692   4.078  0.4612 -2.7677  1.8055
 4074SOL     OW23857   1.104   0.615  12.458 -0.2030  0.4076  0.2301
 4074SOL    HW123858   1.042   0.575  12.519  2.7781 -1.4005  2.0576
 4074SOL    HW223859   1.051   0.623  12.379  2.6078  0.5921 -1.6302
 4075SOL     OW23860   0.321   3.345   3.465 -0.3698 -0.2617 -0.6093
 4075SOL    HW123861   0.406   3.332   3.509 -1.3500 -0.6720  1.1890
 4075SOL    HW223862   0.281   3.261   3.491 -0.6275  0.6456  1.9602
 4076SOL     OW23863   1.191   4.255   4.155  0.4575 -0.4130  0.4590
 4076SOL    HW123864   1.142   4.303   4.088 -0.9703 -0.2276  1.6220
 4076SOL    HW223865   1.215   4.336   4.199  1.2374 -0.9830  1.0848
 4077SOL     OW23866   4.193   3.452  17.216 -0.5206 -1.3693  0.1448
 4077SOL    HW123867   4.249   3.526  17.193 -1.2075 -0.6934  0.6305
 4077SOL    HW223868   4.177   3.466  17.309  1.2797 -0.6812  0.3548
 4078SOL     OW23869   4.727   4.158   6.887  0.7158  0.4295  0.9029
 4078SOL    HW123870   4.677   4.231   6.923  0.2943  0.3550  0.4703
 4078SOL    HW223871   4.732   4.107   6.968 -0.9179 -0.1631  0.6193
 4079SOL     OW23872   1.762   1.765   2.569 -0.0090  0.5691 -0.3485
 4079SOL    HW123873   1.737   1.851   2.536 -2.0569  0.4975  0.9890
 4079SOL    HW223874   1.797   1.725   2.490 -0.0831 -1.9431  0.8775
 4080SOL     OW23875   1.428   1.215   0.381 -0.0417  0.0866 -0.5278
 4080SOL    HW123876   1.448   1.146   0.318 -1.9928 -2.0847  1.2084
 4080SOL    HW223877   1.504   1.274   0.381  1.2628 -1.5703 -0.1403
 4081SOL     OW23878   3.905   1.159   7.023 -0.4331  0.0824 -0.1374
 4081SOL    HW123879   3.888   1.196   7.110  2.8011 -0.7845  0.8719
 4081SOL    HW223880   3.934   1.069   7.033 -1.0519 -0.2327 -1.1532
 4082SOL     OW23881   4.630   3.465  15.231 -0.8561 -0.1057 -0.1316
 4082SOL    HW123882   4.632   3.478  15.326  3.5489 -1.2559 -0.0574
 4082SOL    HW223883   4.668   3.377  15.223 -0.6959 -0.0214 -0.2964
 4083SOL     OW23884   2.462   2.208   7.279  0.4255 -0.9157 -0.1104
 4083SOL    HW123885   2.464   2.219   7.374 -0.2300 -2.6399  0.0944
 4083SOL    HW223886   2.557   2.196   7.280  0.3923 -1.1297  1.9823
 4084SOL     OW23887   0.473   3.026   5.799  0.1659  0.3589  0.0280
 4084SOL    HW123888   0.492   3.115   5.829  1.2033 -0.1447  0.8666
 4084SOL    HW223889   0.501   3.021   5.708 -0.1798 -1.6573  0.0197
 4085SOL     OW23890   0.810   4.203   5.034  0.4886 -0.2680 -0.1714
 4085SOL    HW123891   0.745   4.230   4.970  1.9349  2.4882 -0.4833
 4085SOL    HW223892   0.768   4.123   5.067 -2.8837  0.6356 -2.2862
 4086SOL     OW23893   0.336   0.795  14.897 -0.0543 -0.8192  0.0130
 4086SOL    HW123894   0.300   0.720  14.945 -0.7050  0.0745  0.9090
 4086SOL    HW223895   0.426   0.782  14.927  0.7910 -0.8911 -2.6181
 4087SOL     OW23896   3.849   3.209   5.919  0.0818  0.0761  0.7090
 4087SOL    HW123897   3.903   3.161   5.855 -1.8748 -1.0571 -0.0736
 4087SOL    HW223898   3.906   3.218   5.995  0.1904  0.4655  0.5802
 4088SOL     OW23899   4.355   3.236   1.980 -0.5448  0.1521  0.1084
 4088SOL    HW123900   4.310   3.154   1.957 -0.3803  0.3295 -0.8698
 4088SOL    HW223901   4.357   3.283   1.896 -0.5851 -0.7328 -0.3836
 4089SOL     OW23902   2.060   0.067   2.748 -0.0550 -0.1669 -0.1422
 4089SOL    HW123903   2.112   0.017   2.684  0.9121 -0.2845  0.7373
 4089SOL    HW223904   1.971   0.042   2.723  0.3162 -1.3985 -0.2097
 4090SOL     OW23905   0.771   2.837   4.980  0.5349 -0.0699 -0.2699
 4090SOL    HW123906   0.812   2.900   5.039 -3.1606  1.1759  0.9808
 4090SOL    HW223907   0.837   2.769   4.995  2.0314  1.9498  2.2589
 4091SOL     OW23908   2.939   3.314   6.061  0.2412 -0.6101 -0.3007
 4091SOL    HW123909   2.945   3.389   6.002 -0.5621 -0.1588  0.1989
 4091SOL    HW223910   2.971   3.362   6.137 -0.1484  0.5201 -0.8639
 4092SOL     OW23911   1.041   1.156   8.805  0.0986  0.1034 -0.5503
 4092SOL    HW123912   1.038   1.119   8.717  2.5044 -0.1894 -0.5256
 4092SOL    HW223913   1.107   1.102   8.850 -0.1622  0.0340 -0.2484
 4093SOL     OW23914   0.303   1.009   0.558 -0.9580  0.9101  0.3657
 4093SOL    HW123915   0.264   1.016   0.470 -3.7042 -1.2958  1.3824
 4093SOL    HW223916   0.277   0.925   0.596 -2.8193  0.2992 -2.2733
 4094SOL     OW23917   0.139   3.342  12.492  0.3137 -0.4738  0.4283
 4094SOL    HW123918   0.142   3.362  12.399 -2.7972 -1.9590 -0.0113
 4094SOL    HW223919   0.231   3.360  12.512  0.4229  0.7131 -1.1945
 4095SOL     OW23920   2.180   2.260   4.978 -0.0367  0.2569  0.2567
 4095SOL    HW123921   2.087   2.243   4.983 -0.4056  2.0748 -0.3078
 4095SOL    HW223922   2.199   2.167   4.991  0.4694  0.2984 -0.1526
 4096SOL     OW23923   0.776   2.247   5.913  0.0420  0.0992  0.9784
 4096SOL    HW123924   0.700   2.188   5.919  0.7101 -0.9523 -1.1267
 4096SOL    HW223925   0.818   2.218   5.994 -2.1451  0.3987  2.2179
 4097SOL     OW23926   1.661   2.328  10.827 -0.0984  0.3937  0.2680
 4097SOL    HW123927   1.606   2.274  10.770  0.4036  1.3637 -1.1516
 4097SOL    HW223928   1.587   2.377  10.863  0.3403 -0.8169  2.7818
 4098SOL     OW23929   2.484   3.344   5.905  0.5011  0.6221 -0.1457
 4098SOL    HW123930   2.438   3.382   5.830  1.3973  0.4559 -0.7840
 4098SOL    HW223931   2.426   3.356   5.980  0.1044  0.6831 -0.4623
 4099SOL     OW23932   4.371   4.215  12.996  0.1514 -0.3085 -0.3882
 4099SOL    HW123933   4.300   4.200  12.933  0.8708  0.7524 -1.4590
 4099SOL    HW223934   4.320   4.265  13.059 -0.4509 -1.4155 -0.0009
 4100SOL     OW23935   2.059   2.895  14.296  0.3967  0.3026  0.1240
 4100SOL    HW123936   2.099   2.819  14.254 -0.9754 -0.1116 -0.4371
 4100SOL    HW223937   1.971   2.869  14.269  0.5068 -0.3384  0.3847
 4101SOL     OW23938   2.152   3.728   2.270  0.2566 -0.0311 -0.8214
 4101SOL    HW123939   2.167   3.717   2.364  1.8788 -2.0585 -1.3036
 4101SOL    HW223940   2.156   3.823   2.259 -0.3957  0.1614  0.7133
 4102SOL     OW23941   2.991   4.590  15.365  0.0006  0.2782  0.0635
 4102SOL    HW123942   2.911   4.547  15.336  0.4350 -1.4131  1.4163
 4102SOL    HW223943   3.051   4.574  15.291 -0.3995 -0.1003 -0.1740
 4103SOL     OW23944   3.765   0.082   4.859 -0.4207 -0.5084 -0.3806
 4103SOL    HW123945   3.723   0.032   4.929  0.7499 -1.1355 -0.1277
 4103SOL    HW223946   3.745   0.025   4.786  0.5786 -0.8184 -0.4148
 4104SOL     OW23947   2.194   3.699   2.561  0.2377  0.0864  0.4580
 4104SOL    HW123948   2.271   3.649   2.586  0.4521 -0.6472 -1.6335
 4104SOL    HW223949   2.209   3.775   2.617 -0.2572 -0.6133  1.5338
 4105SOL     OW23950   1.536   3.491   4.878 -0.4646 -0.2255 -0.7992
 4105SOL    HW123951   1.601   3.439   4.830 -0.5374 -1.5635  0.5430
 4105SOL    HW223952   1.583   3.573   4.893 -3.6660  1.1952  1.4677
 4106SOL     OW23953   2.523   1.556   4.793 -0.2623  0.0346  0.9860
 4106SOL    HW123954   2.434   1.528   4.771 -1.2924  1.6248  3.1324
 4106SOL    HW223955   2.504   1.615   4.866 -0.9384 -0.0611  0.8966
 4107SOL     OW23956   0.200   3.352   4.860  0.6219  0.5445  0.4538
 4107SOL    HW123957   0.180   3.399   4.779 -0.0797 -0.5463  0.0016
 4107SOL    HW223958   0.118   3.365   4.908  0.7797 -0.7999  1.0853
 4108SOL     OW23959   1.858   4.488   7.940 -0.1229 -0.4601 -0.4497
 4108SOL    HW123960   1.766   4.476   7.914 -0.5380 -0.2148  0.9091
 4108SOL    HW223961   1.902   4.432   7.876  0.1929 -2.4867  1.5395
 4109SOL     OW23962   4.100   3.941   2.093  0.4169  0.8131  0.4674
 4109SOL    HW123963   4.018   3.973   2.054  0.9714  0.9792 -0.5665
 4109SOL    HW223964   4.068   3.874   2.154 -0.9985 -1.1242 -2.3829
 4110SOL     OW23965   3.154   3.767  16.866 -0.3181 -0.2057 -0.0783
 4110SOL    HW123966   3.101   3.723  16.932  0.2196  0.9929  1.1589
 4110SOL    HW223967   3.166   3.695  16.804 -0.6324  0.1801 -0.5938
 4111SOL     OW23968   1.740   4.710   3.008  0.0268 -0.2164  0.2656
 4111SOL    HW123969   1.756   4.695   2.915  3.5373  0.8649  0.6873
 4111SOL    HW223970   1.758   0.068   3.009  2.7201 -0.7550  1.2713
 4112SOL     OW23971   2.862   2.881  11.720 -0.0879  0.3470  0.2398
 4112SOL    HW123972   2.810   2.822  11.773 -1.0265  0.3108 -0.7215
 4112SOL    HW223973   2.845   2.846  11.632  1.6708  1.0032 -0.3641
 4113SOL     OW23974   4.435   4.042   6.130  0.4246 -0.2593 -0.1314
 4113SOL    HW123975   4.436   4.097   6.208 -1.0527  1.8552 -1.6219
 4113SOL    HW223976   4.375   4.088   6.071  0.2387 -0.3288 -0.0001
 4114SOL     OW23977   1.409   2.443  10.889 -0.6647  0.6988 -0.5216
 4114SOL    HW123978   1.435   2.461  10.979  2.4734 -3.6372 -0.5289
 4114SOL    HW223979   1.439   2.523  10.846  1.3081 -0.7160 -1.7965
 4115SOL     OW23980   0.566   0.057   8.581  0.3718 -0.8123  0.4243
 4115SOL    HW123981   0.560   0.140   8.629 -0.5089 -0.9339  0.5266
 4115SOL    HW223982   0.602   0.011   8.656  0.0060  0.0312  1.1245
 4116SOL     OW23983   0.786   4.538  15.696  0.4647 -0.0880  0.1331
 4116SOL    HW123984   0.708   4.580  15.732 -0.7340 -1.1464 -1.1947
 4116SOL    HW223985   0.856   4.594  15.728  0.1791 -0.1396  0.8556
 4117SOL     OW23986   1.360   1.507   9.988  0.1548 -0.0478 -0.2118
 4117SOL    HW123987   1.306   1.530   9.911 -0.4341 -3.4962 -0.8244
 4117SOL    HW223988   1.421   1.581   9.992  0.7613 -0.6065  0.6129
 4118SOL     OW23989   2.494   3.234   9.301  0.0204 -0.2640 -0.4030
 4118SOL    HW123990   2.519   3.268   9.387 -2.6679  0.7990 -0.0381
 4118SOL    HW223991   2.401   3.219   9.321  0.6362 -0.8627  2.0154
 4119SOL     OW23992   4.654   4.433   2.015  0.0389  1.1961  0.4848
 4119SOL    HW123993   4.695   4.461   2.097  0.1912  1.5716  0.2822
 4119SOL    HW223994   4.629   4.520   1.984 -1.7012 -0.0505 -1.5619
 4120SOL     OW23995   1.078   2.603  15.677  0.0070 -0.3278 -0.1713
 4120SOL    HW123996   1.110   2.693  15.687  0.9422 -0.6234 -0.4250
 4120SOL    HW223997   1.148   2.567  15.622  1.8034  1.7067  0.7593
 4121SOL     OW23998   2.643   0.362   2.569 -0.0988  0.1496  0.1109
 4121SOL    HW123999   2.727   0.402   2.590  0.6088  0.3339 -3.1398
 4121SOL    HW224000   2.664   0.269   2.584  1.3102  0.4958  0.2911
 4122SOL     OW24001   3.684   3.789   2.555 -0.5177 -0.3426  0.4948
 4122SOL    HW124002   3.745   3.718   2.537  2.0933  1.7431  1.2330
 4122SOL    HW224003   3.597   3.757   2.531 -0.3681  0.3816 -1.0407
 4123SOL     OW24004   0.354   3.465   6.514 -0.5170 -0.0000  0.0679
 4123SOL    HW124005   0.330   3.520   6.588  1.1235 -0.5579  1.0128
 4123SOL    HW224006   0.449   3.468   6.523 -0.8455  4.1581  1.8040
 4124SOL     OW24007   4.278   4.338  10.795  0.0111  0.7754 -0.8488
 4124SOL    HW124008   4.320   4.272  10.739  0.9407  3.4016 -3.2381
 4124SOL    HW224009   4.350   4.380  10.842  1.0681 -0.4564 -1.3581
 4125SOL     OW24010   1.615   4.468   7.505  0.9714 -0.3920 -0.5390
 4125SOL    HW124011   1.710   4.465   7.502  1.0473  1.4026 -0.0150
 4125SOL    HW224012   1.599   4.383   7.546  0.5241  0.1769  0.4565
 4126SOL     OW24013   0.562   2.066   8.240  0.0402  0.0486 -0.0025
 4126SOL    HW124014   0.624   2.068   8.167 -0.9793  1.1941 -0.8442
 4126SOL    HW224015   0.611   2.115   8.306  3.1511 -4.0539  0.7001
 4127SOL     OW24016   4.651   3.726  12.863  0.0747 -0.0611 -0.4132
 4127SOL    HW124017   4.662   3.813  12.826 -2.2774 -0.1591 -1.2720
 4127SOL    HW224018   4.685   3.733  12.953  0.4337  2.1408 -0.7413
 4128SOL     OW24019   1.447   1.942   4.635  0.1115 -0.8248  0.3391
 4128SOL    HW124020   1.380   1.875   4.651 -1.0968  0.5666  1.0478
 4128SOL    HW224021   1.414   2.023   4.673  0.0193 -0.2171 -1.0351
 4129SOL     OW24022   2.541   3.438   6.923 -1.0271  0.0732 -0.3808
 4129SOL    HW124023   2.543   3.363   6.982  0.6176  0.0785 -0.4054
 4129SOL    HW224024   2.636   3.445   6.914 -0.7819  0.0188  2.1262
 4130SOL     OW24025   3.339   2.225  16.404  0.0025  0.4343 -0.2516
 4130SOL    HW124026   3.322   2.274  16.323  1.4952  1.1291 -0.1338
 4130SOL    HW224027   3.380   2.146  16.369 -0.4092 -0.2325  0.7792
 4131SOL     OW24028   1.785   4.571   8.748  0.3184 -0.1799 -0.0901
 4131SOL    HW124029   1.814   4.632   8.680  3.5948  0.2310  1.7116
 4131SOL    HW224030   1.875   4.542   8.764  0.3003 -0.6314 -0.7815
 4132SOL     OW24031   2.004   3.370  14.556 -1.1297 -0.1717 -0.3664
 4132SOL    HW124032   2.070   3.430  14.590 -1.9572  1.1840 -1.1479
 4132SOL    HW224033   2.056   3.291  14.540 -0.0193  0.6798 -0.9471
 4133SOL     OW24034   0.148   2.524   2.842 -0.0814 -0.3608 -0.2597
 4133SOL    HW124035   0.059   2.548   2.817  0.6192  1.0550 -1.3750
 4133SOL    HW224036   0.150   2.561   2.931 -0.2330 -2.1026  0.4754
 4134SOL     OW24037   1.242   1.698  10.221 -0.4835 -0.2920  0.5998
 4134SOL    HW124038   1.191   1.691  10.301 -2.1072  0.4917 -0.3500
 4134SOL    HW224039   1.265   1.606  10.209 -0.3131 -0.3304  1.2607
 4135SOL     OW24040   2.598   0.156  14.517 -0.5008 -0.2842 -0.3587
 4135SOL    HW124041   2.667   0.133  14.454  0.1102  0.6628 -0.0348
 4135SOL    HW224042   2.518   0.144  14.467  0.2498 -2.3303 -1.0843
 4136SOL     OW24043   0.326   1.873   6.123 -0.6339  0.5805 -0.6945
 4136SOL    HW124044   0.362   1.943   6.178 -0.0873  2.0694 -2.9503
 4136SOL    HW224045   0.235   1.865   6.149 -0.2750 -0.7124  0.1324
 4137SOL     OW24046   2.136   0.506   0.221  0.2157  0.2194  0.1004
 4137SOL    HW124047   2.076   0.528   0.292 -2.0456  1.1432 -2.0992
 4137SOL    HW224048   2.226   0.527   0.246 -0.0583 -0.7021  1.8095
 4138SOL     OW24049   1.834   3.865  15.680  0.2611 -0.6371 -0.0503
 4138SOL    HW124050   1.919   3.906  15.695  1.4388 -3.5785  1.3438
 4138SOL    HW224051   1.843   3.808  15.603 -0.2159 -1.3387  0.4169
 4139SOL     OW24052   1.677   4.388  11.258 -0.0610  0.2631  0.0549
 4139SOL    HW124053   1.662   4.347  11.173  0.4828  0.5530 -0.1807
 4139SOL    HW224054   1.589   4.419  11.279 -0.3779 -0.7186  0.1638
 4140SOL     OW24055   1.403   3.954   3.931 -0.2560  0.1532  0.5033
 4140SOL    HW124056   1.402   4.022   3.999  2.2531  0.7615 -0.0594
 4140SOL    HW224057   1.458   3.997   3.865 -0.9410 -1.1932 -0.9326
 4141SOL     OW24058   0.967   2.980   8.698 -0.2521  0.2214 -0.0525
 4141SOL    HW124059   0.978   3.020   8.612 -1.6404  1.0102  0.1268
 4141SOL    HW224060   1.043   3.017   8.742  0.1728 -0.4998 -0.1787
 4142SOL     OW24061   1.632   3.068   4.416  0.2018  0.0760  0.0700
 4142SOL    HW124062   1.567   3.112   4.470 -1.3781 -1.2615 -0.7396
 4142SOL    HW224063   1.666   2.999   4.474 -0.3324 -1.5368 -1.5203
 4143SOL     OW24064   2.045   0.806  16.559 -0.1527  0.0160 -0.0079
 4143SOL    HW124065   2.036   0.747  16.484  1.7347  0.7251 -0.8071
 4143SOL    HW224066   1.979   0.775  16.621  0.5355 -2.9051 -0.7399
 4144SOL     OW24067   0.940   0.546   3.960  0.0484 -0.3231  0.6385
 4144SOL    HW124068   0.909   0.551   3.870  1.2111 -1.3952  0.1762
 4144SOL    HW224069   0.879   0.484   4.000 -1.0972 -0.2288 -0.9393
 4145SOL     OW24070   1.421   2.894   7.943  0.1691 -0.1938 -0.0900
 4145SOL    HW124071   1.380   2.936   7.868  1.5841  0.1017 -0.7009
 4145SOL    HW224072   1.513   2.898   7.917  0.0684 -2.4892 -0.7743
 4146SOL     OW24073   1.190   1.438   0.551  0.2812  0.0377  0.2198
 4146SOL    HW124074   1.148   1.413   0.469 -1.0965 -2.8914  1.8297
 4146SOL    HW224075   1.126   1.503   0.581  0.7360  0.3336  0.5666
 4147SOL     OW24076   3.668   3.191   3.974  0.4842  0.3641 -0.2512
 4147SOL    HW124077   3.604   3.151   3.915  0.1754  1.6882 -0.8092
 4147SOL    HW224078   3.637   3.282   3.967 -0.1660 -0.0359 -2.4025
 4148SOL     OW24079   0.138   3.543   7.229 -0.4072  0.0582  0.0094
 4148SOL    HW124080   0.058   3.491   7.232 -0.4257 -0.0269 -1.9027
 4148SOL    HW224081   0.109   3.629   7.197 -0.9834 -0.1938 -0.1468
 4149SOL     OW24082   0.012   0.720   8.089  0.2594  0.7712 -0.2147
 4149SOL    HW124083   0.107   0.723   8.088  0.3030 -0.3727  0.6547
 4149SOL    HW224084   4.726   0.721   8.182  1.9822 -0.8039  0.1901
 4150SOL     OW24085   4.582   1.362  13.343  0.0014  0.3758 -0.2496
 4150SOL    HW124086   4.646   1.423  13.308 -1.7476  1.6258 -1.2616
 4150SOL    HW224087   4.615   1.276  13.317  3.2520  1.5507 -0.0536
 4151SOL     OW24088   2.891   1.750  13.813  0.3690  0.3577 -0.2861
 4151SOL    HW124089   2.875   1.736  13.720 -3.3416  3.4343 -0.0895
 4151SOL    HW224090   2.826   1.684  13.841  0.1472 -0.3289 -2.3734
 4152SOL     OW24091   0.817   3.344  16.893 -0.1981  0.4149  0.0344
 4152SOL    HW124092   0.766   3.281  16.943 -0.9492  0.1369 -1.0944
 4152SOL    HW224093   0.898   3.359  16.943  0.3175  0.0753 -0.7085
 4153SOL     OW24094   1.165   1.391  16.613 -0.1858 -1.1801 -0.4012
 4153SOL    HW124095   1.154   1.435  16.697 -0.4641  1.9980 -2.1239
 4153SOL    HW224096   1.244   1.436  16.582  1.0247 -1.4912  2.2294
 4154SOL     OW24097   3.957   3.977   8.041  0.1636  0.0547 -0.2248
 4154SOL    HW124098   4.047   3.944   8.044 -0.2374 -1.2326 -2.6489
 4154SOL    HW224099   3.919   3.890   8.046  0.0737  0.2401  2.7802
 4155SOL     OW24100   4.417   1.375   3.508  0.7011 -0.0776  0.1382
 4155SOL    HW124101   4.396   1.460   3.469  2.0404  0.4869  0.6377
 4155SOL    HW224102   4.336   1.349   3.552  1.1138  0.4390  1.1934
 4156SOL     OW24103   3.119   0.332   4.960 -0.3540  0.1060  0.2300
 4156SOL    HW124104   3.050   0.331   4.895 -1.8109  0.7407  1.7601
 4156SOL    HW224105   3.195   0.329   4.901 -0.5121  1.6019 -0.0270
 4157SOL     OW24106   2.190   2.880   4.950  0.6848 -0.4275 -0.4450
 4157SOL    HW124107   2.104   2.883   4.991  0.0272  3.1724 -2.0593
 4157SOL    HW224108   2.243   2.887   5.030 -0.9546 -2.1897  0.7892
 4158SOL     OW24109   1.221   1.337   6.352  0.4993 -0.2928 -0.6347
 4158SOL    HW124110   1.296   1.284   6.323 -0.0168 -0.7400 -1.1404
 4158SOL    HW224111   1.237   1.408   6.289  0.3716  0.2708 -0.0258
 4159SOL     OW24112   4.138   1.914   3.303  0.2934 -0.2000  0.4881
 4159SOL    HW124113   4.205   1.902   3.235 -1.2055 -1.0785 -0.8153
 4159SOL    HW224114   4.063   1.909   3.245  1.4524 -1.8257 -0.8652
 4160SOL     OW24115   3.659   3.308   9.277  0.2624 -0.0245  0.3727
 4160SOL    HW124116   3.593   3.255   9.232  1.7806 -1.8493  0.2491
 4160SOL    HW224117   3.711   3.344   9.204 -1.0746 -1.8466 -1.4761
 4161SOL     OW24118   4.724   1.895   6.787  0.7125 -0.0060 -0.0019
 4161SOL    HW124119   4.687   1.902   6.698 -1.2628  0.7363  0.8695
 4161SOL    HW224120   0.001   1.800   6.787 -0.0127 -0.1027 -0.8211
 4162SOL     OW24121   4.509   0.663   1.991  0.2390  0.0872 -0.6684
 4162SOL    HW124122   4.578   0.710   2.039 -1.7153 -0.9511  3.0932
 4162SOL    HW224123   4.566   0.632   1.921 -0.2772 -2.0135 -0.1396
 4163SOL     OW24124   0.445   1.412   2.560 -0.4779 -0.2187  0.2519
 4163SOL    HW124125   0.493   1.334   2.585  0.6065 -0.2099 -1.7717
 4163SOL    HW224126   0.371   1.408   2.620  1.5559 -0.7332  2.7133
 4164SOL     OW24127   4.680   0.398   3.271  0.4641 -0.4473  0.2961
 4164SOL    HW124128   4.660   0.354   3.188 -2.5690  1.6591 -0.1307
 4164SOL    HW224129   4.602   0.451   3.289 -0.8263 -2.5451  0.8230
 4165SOL     OW24130   3.153   4.592  13.224 -0.5278 -0.2817 -0.2383
 4165SOL    HW124131   3.107   4.597  13.139  0.1859  0.9965 -0.5450
 4165SOL    HW224132   3.152   4.498  13.242  1.2909 -0.6513 -2.0511
 4166SOL     OW24133   1.727   4.244   2.249 -0.3648  0.3381  0.5361
 4166SOL    HW124134   1.776   4.314   2.206  0.3694 -0.0397  0.7568
 4166SOL    HW224135   1.772   4.232   2.333  1.0836  0.4301 -0.2134
 4167SOL     OW24136   1.408   0.478   6.398  0.7199 -0.2089 -0.2298
 4167SOL    HW124137   1.453   0.438   6.473 -0.6742 -1.1706  0.0780
 4167SOL    HW224138   1.472   0.491   6.328  1.7989 -1.6924  0.4866
 4168SOL     OW24139   3.340   0.922   2.266 -0.1357 -0.1283  0.0490
 4168SOL    HW124140   3.397   0.881   2.201  0.9592  0.7213  0.4872
 4168SOL    HW224141   3.315   1.001   2.219  1.3607  1.2960  1.6638
 4169SOL     OW24142   4.583   1.452  10.606  0.1254  0.1663 -0.1092
 4169SOL    HW124143   4.634   1.487  10.679  0.3784 -0.9017  0.2130
 4169SOL    HW224144   4.649   1.399  10.563 -0.0203  0.1709 -0.3402
 4170SOL     OW24145   3.814   1.584   1.329  0.0944 -0.4594  0.3642
 4170SOL    HW124146   3.816   1.566   1.423 -0.9244  0.7337  0.6093
 4170SOL    HW224147   3.880   1.649   1.307  0.1142 -0.3856  0.6393
 4171SOL     OW24148   0.527   1.119   9.747 -0.1061  0.4778  0.1177
 4171SOL    HW124149   0.432   1.106   9.756 -0.3700  2.6636  0.6093
 4171SOL    HW224150   0.531   1.188   9.681  1.8176  0.9945  0.7908
 4172SOL     OW24151   3.271   1.571   5.871  0.2583  0.2715  0.7808
 4172SOL    HW124152   3.251   1.644   5.930 -1.5941  0.3841  0.0043
 4172SOL    HW224153   3.212   1.581   5.797  0.9494  0.5505  0.2703
 4173SOL     OW24154   4.242   2.295  11.700 -0.4857  0.6505  0.0280
 4173SOL    HW124155   4.156   2.264  11.729 -0.4633  2.0939  1.6433
 4173SOL    HW224156   4.277   2.341  11.777 -1.3338 -0.6764  1.2204
 4174SOL     OW24157   1.858   3.388  10.171 -0.0215 -0.0209 -0.4438
 4174SOL    HW124158   1.909   3.328  10.227 -0.8344  0.8649  1.2325
 4174SOL    HW224159   1.809   3.437  10.237 -3.0837 -1.2989 -1.7754
 4175SOL     OW24160   4.134   3.502   6.204  0.6318  0.4843 -0.1985
 4175SOL    HW124161   4.114   3.512   6.297  0.5774  4.0250 -0.5823
 4175SOL    HW224162   4.050   3.524   6.164  0.8803  0.3930 -0.7666
 4176SOL     OW24163   2.166   0.326   8.006 -0.1346  0.6121 -0.0939
 4176SOL    HW124164   2.091   0.368   8.049 -0.4276 -0.3561  0.3380
 4176SOL    HW224165   2.138   0.335   7.915 -4.0943  1.5295  1.2065
 4177SOL     OW24166   1.962   3.475   1.354  0.1094 -0.0405 -0.1636
 4177SOL    HW124167   2.012   3.421   1.416  1.5288  1.0682 -0.3624
 4177SOL    HW224168   1.889   3.493   1.413 -1.6175 -2.0391 -1.6648
 4178SOL     OW24169   4.715   4.013   1.829  0.7051 -0.1940 -0.1455
 4178SOL    HW124170   0.023   4.094   1.801  2.6089 -1.0903  0.1881
 4178SOL    HW224171   4.638   4.047   1.876 -0.4483  0.6365 -2.6583
 4179SOL     OW24172   4.402   0.115   6.667  0.4783  0.9580  0.1663
 4179SOL    HW124173   4.464   0.130   6.596  0.4134 -2.9202 -0.7021
 4179SOL    HW224174   4.321   0.165   6.653  0.5766  0.9716 -0.3482
 4180SOL     OW24175   0.077   2.208   7.406 -0.0683  0.5935  0.2626
 4180SOL    HW124176   0.080   2.274   7.476 -0.3863 -0.3474  1.1479
 4180SOL    HW224177   0.162   2.232   7.369  0.7563 -0.0257  1.7552
 4181SOL     OW24178   0.807   1.131   4.769 -0.4196 -0.1323  0.3138
 4181SOL    HW124179   0.798   1.134   4.674 -0.9373 -0.4104  0.3596
 4181SOL    HW224180   0.787   1.220   4.798  0.8607 -0.0592  0.9830
 4182SOL     OW24181   0.270   4.359   5.430 -0.2175 -0.0855 -0.1650
 4182SOL    HW124182   0.192   4.325   5.474 -1.1950  2.7236  0.2936
 4182SOL    HW224183   0.339   4.327   5.488  0.8932  2.5009 -0.0989
 4183SOL     OW24184   2.162   1.568   3.606  0.3411  0.5141 -0.1929
 4183SOL    HW124185   2.102   1.501   3.637 -0.4610  0.2309 -2.3654
 4183SOL    HW224186   2.241   1.515   3.595  2.2660  3.1658  0.9513
 4184SOL     OW24187   2.341   4.405   4.037 -0.5071 -0.1466 -0.0885
 4184SOL    HW124188   2.306   4.442   3.956 -1.8776  1.3978  1.1978
 4184SOL    HW224189   2.268   4.343   4.048  0.8106 -1.7868 -0.6540
 4185SOL     OW24190   1.076   1.124   6.919 -0.0266 -0.1591  1.0663
 4185SOL    HW124191   0.984   1.100   6.907  0.0912  1.5454 -3.4705
 4185SOL    HW224192   1.130   1.045   6.918  2.5224  1.5815 -0.5505
 4186SOL     OW24193   3.387   0.301   8.818  0.4589  0.1405  0.2616
 4186SOL    HW124194   3.454   0.369   8.813  0.1635  0.3103 -1.2658
 4186SOL    HW224195   3.393   0.283   8.912  0.7195 -0.4982  0.1245
 4187SOL     OW24196   3.297   0.227   3.604 -0.2045 -0.0668 -0.4027
 4187SOL    HW124197   3.292   0.250   3.512  0.5647 -2.4444 -1.0372
 4187SOL    HW224198   3.301   0.132   3.593 -0.6104 -0.4020  2.1644
 4188SOL     OW24199   3.878   1.636   8.152 -0.2140  0.0209  0.3034
 4188SOL    HW124200   3.791   1.621   8.116 -0.6103  0.9839  0.8365
 4188SOL    HW224201   3.876   1.728   8.181  0.6957 -0.2428  1.2227
 4189SOL     OW24202   0.374   2.842   3.580  0.4559 -0.1521  0.5122
 4189SOL    HW124203   0.379   2.763   3.633  1.4628 -1.7364 -1.9291
 4189SOL    HW224204   0.439   2.824   3.512 -0.8070 -0.5443 -0.6032
 4190SOL     OW24205   4.562   0.418  14.029  0.1220 -0.1033  0.1016
 4190SOL    HW124206   4.541   0.336  14.074  1.1785  0.6364  1.9243
 4190SOL    HW224207   4.596   0.466  14.104 -2.8680  2.7439 -0.3758
 4191SOL     OW24208   0.075   4.607   5.139 -0.4837 -0.0807  0.1932
 4191SOL    HW124209   0.150   4.598   5.198  0.1967  0.8274 -0.5372
 4191SOL    HW224210   0.115   4.545   5.078 -0.8694  0.0119 -0.1508
 4192SOL     OW24211   2.426   0.794   5.302 -0.2103 -0.4522  0.0051
 4192SOL    HW124212   2.347   0.830   5.262  0.8788  2.0142  0.0252
 4192SOL    HW224213   2.442   0.715   5.251 -0.8653 -0.1491 -0.6774
 4193SOL     OW24214   1.696   4.086   1.906  0.3301 -0.7694  0.7219
 4193SOL    HW124215   1.741   4.029   1.844 -0.2182 -0.3194 -0.0998
 4193SOL    HW224216   1.754   4.088   1.981  1.4785 -3.7083 -0.1105
 4194SOL     OW24217   1.983   4.092   3.919 -0.4656  0.1197 -0.0938
 4194SOL    HW124218   1.958   4.002   3.899 -1.7875  0.3992  0.2923
 4194SOL    HW224219   2.010   4.102   3.828 -1.6241  0.2180 -0.4304
 4195SOL     OW24220   0.248   2.775   2.291 -0.4874 -0.2771 -0.1886
 4195SOL    HW124221   0.322   2.716   2.277  1.1021  1.2063  2.0352
 4195SOL    HW224222   0.277   2.847   2.346 -1.6765  1.7304 -2.2021
 4196SOL     OW24223   1.925   0.125   2.059  0.2052  0.3554  0.0331
 4196SOL    HW124224   1.862   0.058   2.030  2.0861 -1.8912  1.1013
 4196SOL    HW224225   1.926   0.177   1.979  1.4044  0.3180  0.0174
 4197SOL     OW24226   3.733   3.907   5.519  0.0815  0.2347  0.0484
 4197SOL    HW124227   3.690   3.882   5.437  2.7897  0.3927 -1.4300
 4197SOL    HW224228   3.659   3.958   5.551  0.0638  0.1213  0.1932
 4198SOL     OW24229   0.218   1.305  13.111  0.3617 -0.7794 -0.0340
 4198SOL    HW124230   0.144   1.246  13.125  0.8890 -0.9867  1.8557
 4198SOL    HW224231   0.171   1.375  13.066  1.2964 -0.4471 -0.4931
 4199SOL     OW24232   1.749   1.976   6.230 -0.4806  0.1986 -0.2274
 4199SOL    HW124233   1.782   2.050   6.179 -0.4806 -0.1534 -0.7400
 4199SOL    HW224234   1.744   2.005   6.321  1.1616 -2.1042  0.6089
 4200SOL     OW24235   2.793   4.388   9.971  0.0669  0.5166 -0.3020
 4200SOL    HW124236   2.747   4.333  10.035  1.3413 -1.0426 -0.7067
 4200SOL    HW224237   2.863   4.327   9.949  0.1546  0.6660 -0.4352
 4201SOL     OW24238   3.986   0.772   5.815 -0.0846 -0.2289  0.0409
 4201SOL    HW124239   3.964   0.777   5.908 -1.1291 -1.8974 -0.1205
 4201SOL    HW224240   3.914   0.823   5.777 -0.0478 -0.2475 -0.0534
 4202SOL     OW24241   0.354   1.120   8.851  0.4762 -0.0114  0.4637
 4202SOL    HW124242   0.365   1.040   8.902  1.5566  0.0042  0.2553
 4202SOL    HW224243   0.445   1.148   8.844 -0.3429  2.1926 -1.4581
 4203SOL     OW24244   2.141   1.774   8.229  0.8163 -0.3759  0.0679
 4203SOL    HW124245   2.093   1.725   8.162 -0.9030 -1.2792  1.9339
 4203SOL    HW224246   2.160   1.855   8.183 -0.4875  2.5518  4.6360
 4204SOL     OW24247   2.213   1.291  14.500 -0.2850 -0.4143  1.2976
 4204SOL    HW124248   2.281   1.356  14.517 -0.1612 -0.4931  1.0988
 4204SOL    HW224249   2.149   1.354  14.466  0.9272 -0.3966 -0.9360
 4205SOL     OW24250   1.852   2.497   5.768  0.4925  0.0163  0.3237
 4205SOL    HW124251   1.918   2.446   5.815 -2.5485 -1.5274  2.9317
 4205SOL    HW224252   1.803   2.532   5.842  0.0552  0.5405 -0.2123
 4206SOL     OW24253   4.311   0.750  16.447 -0.3278  0.3442  0.4292
 4206SOL    HW124254   4.399   0.735  16.412 -1.7933 -2.3111 -2.1644
 4206SOL    HW224255   4.254   0.681  16.412  0.8803 -0.4164 -0.0438
 4207SOL     OW24256   2.424   1.893  13.173  0.1266  0.2561  0.2187
 4207SOL    HW124257   2.398   1.961  13.234 -1.2402 -1.1122  1.1792
 4207SOL    HW224258   2.519   1.899  13.176  0.0677  1.3933 -0.4639
 4208SOL     OW24259   3.924   2.637  15.399 -0.1598 -0.0735 -0.1069
 4208SOL    HW124260   3.967   2.623  15.315  1.7677  2.5789  0.4514
 4208SOL    HW224261   3.836   2.666  15.374  0.0941  0.2989 -0.5812
 4209SOL     OW24262   4.208   3.078   2.492 -0.0900 -0.3012  0.2849
 4209SOL    HW124263   4.277   3.132   2.454 -0.6511  1.0044  1.1154
 4209SOL    HW224264   4.238   3.065   2.582  0.4862 -1.1945 -0.0452
 4210SOL     OW24265   0.353   4.037   4.990 -0.2585  0.3085  0.0405
 4210SOL    HW124266   0.308   4.097   5.050  0.1278  1.3245 -0.6801
 4210SOL    HW224267   0.284   3.999   4.935  0.2801  0.1270 -0.5111
 4211SOL     OW24268   1.314   1.622   4.950  1.0821 -0.2175  0.1419
 4211SOL    HW124269   1.244   1.594   5.009  0.2074  0.7431 -0.4456
 4211SOL    HW224270   1.386   1.641   5.011  0.9818 -2.5278  0.9730
 4212SOL     OW24271   0.566   3.052   8.233 -0.6522  0.4294 -0.2337
 4212SOL    HW124272   0.529   3.075   8.148 -1.8603  0.6191  0.3492
 4212SOL    HW224273   0.480   3.055   8.273  0.3840  1.2591  1.9272
 4213SOL     OW24274   0.425   3.133   3.163 -0.7956  0.2782  0.0640
 4213SOL    HW124275   0.358   3.195   3.191 -1.7280 -0.8127  0.2525
 4213SOL    HW224276   0.497   3.196   3.166  0.4982 -1.2153  0.4710
 4214SOL     OW24277   2.212   2.076   1.938 -0.2289 -0.1718  0.2916
 4214SOL    HW124278   2.182   2.018   1.867 -0.3137  0.4773 -0.1982
 4214SOL    HW224279   2.277   2.024   1.985  0.6034  0.5839 -0.0231
 4215SOL     OW24280   1.589   4.059   5.070 -0.1712 -0.0134 -0.3035
 4215SOL    HW124281   1.523   4.041   5.137  0.8894 -0.9162  0.5016
 4215SOL    HW224282   1.556   4.001   5.001  1.5471 -1.3483 -0.0161
 4216SOL     OW24283   2.544   0.293   6.405 -0.0433  0.1623  0.0679
 4216SOL    HW124284   2.564   0.318   6.315  0.0832  3.6813  1.0831
 4216SOL    HW224285   2.561   0.199   6.410 -0.4939  0.0137 -1.5129
 4217SOL     OW24286   2.977   0.076   1.477  0.3502  0.1329 -0.1311
 4217SOL    HW124287   2.936   0.122   1.404 -3.7972  0.4098  2.3416
 4217SOL    HW224288   2.965   4.719   1.455  1.1320 -0.0596  0.2414
 4218SOL     OW24289   1.806   3.931   7.736 -0.2967 -0.6225 -0.0417
 4218SOL    HW124290   1.779   3.860   7.795 -1.4739  0.0057  0.1853
 4218SOL    HW224291   1.889   3.961   7.774  0.6560 -0.6227 -2.1402
 4219SOL     OW24292   3.607   3.378   2.280  0.1808 -0.4778  0.3364
 4219SOL    HW124293   3.517   3.345   2.286 -0.3127  1.1982  2.1343
 4219SOL    HW224294   3.632   3.298   2.234 -2.0102 -0.1822 -1.4120
 4220SOL     OW24295   4.432   0.575  15.866 -0.0836  0.5850  0.0207
 4220SOL    HW124296   4.502   0.636  15.843 -0.5595  0.8823 -0.6432
 4220SOL    HW224297   4.463   0.495  15.823 -0.3724  0.7142 -0.4296
 4221SOL     OW24298   1.092   3.040   5.701 -0.0820  0.1585  0.4692
 4221SOL    HW124299   1.134   2.959   5.730 -0.5281 -0.8711 -1.8036
 4221SOL    HW224300   1.169   3.089   5.674 -1.4576  1.6428 -0.7344
 4222SOL     OW24301   1.911   4.417   5.418  0.3602  0.1540 -0.7774
 4222SOL    HW124302   1.900   4.386   5.328 -1.8113  0.3871 -0.5889
 4222SOL    HW224303   1.823   4.393   5.447  0.7622  2.4138  2.2877
 4223SOL     OW24304   2.342   0.201  11.595 -0.4460  0.0516  0.1513
 4223SOL    HW124305   2.252   0.205  11.562 -0.1891  1.3657 -0.3848
 4223SOL    HW224306   2.400   0.248  11.536 -1.6843  1.1651 -0.1802
 4224SOL     OW24307   0.004   4.494   4.305  0.0437 -0.4495  0.4132
 4224SOL    HW124308   4.678   4.443   4.252  0.0962 -2.2688  2.1199
 4224SOL    HW224309   4.725   4.464   4.395 -0.9454  1.0737  0.7556
 4225SOL     OW24310   4.246   0.845   5.051  0.1688  0.2654  0.0011
 4225SOL    HW124311   4.259   0.786   4.977  0.6897  0.4288 -0.0365
 4225SOL    HW224312   4.331   0.835   5.094 -0.0905 -2.0416 -0.0512
 4226SOL     OW24313   4.378   0.427   3.323 -0.5134 -0.1433  0.6253
 4226SOL    HW124314   4.311   0.488   3.293 -0.2562 -0.4368 -0.5442
 4226SOL    HW224315   4.367   0.425   3.418  1.2498  2.3039  0.9039
 4227SOL     OW24316   3.816   0.252   6.402 -0.2001  0.1439 -0.3435
 4227SOL    HW124317   3.862   0.230   6.321 -2.4416 -2.3847 -0.9398
 4227SOL    HW224318   3.876   0.313   6.444  0.8379 -0.8015 -0.4307
 4228SOL     OW24319   4.508   3.699   5.130 -0.9581  0.4399 -0.0378
 4228SOL    HW124320   4.488   3.606   5.114  2.1120 -0.3532  0.7367
 4228SOL    HW224321   4.455   3.721   5.206 -1.1946 -2.3047  0.5836
 4229SOL     OW24322   3.217   2.990  15.858 -0.2053  0.3657 -0.0817
 4229SOL    HW124323   3.192   3.000  15.766 -0.3009  1.8693  0.1025
 4229SOL    HW224324   3.241   2.898  15.860  0.5958  0.5766 -0.2071
 4230SOL     OW24325   4.034   3.034   5.682 -0.0694 -0.0032 -0.2354
 4230SOL    HW124326   4.067   2.946   5.702  1.7498  0.9981  1.1372
 4230SOL    HW224327   4.113   3.088   5.673  0.3086 -0.4963  0.1454
 4231SOL     OW24328   0.038   0.640   7.473  0.1873 -0.0123  0.0558
 4231SOL    HW124329   4.690   0.629   7.519 -0.3512  1.7422 -0.4893
 4231SOL    HW224330   0.097   0.572   7.503 -0.2210 -0.5671 -0.4057
 4232SOL     OW24331   4.151   1.484   9.303 -0.0559  0.0878 -0.3884
 4232SOL    HW124332   4.153   1.580   9.309 -2.6345  0.1216 -0.0300
 4232SOL    HW224333   4.186   1.472   9.215  0.1282 -0.7750 -0.1975
 4233SOL     OW24334   2.359   1.591   1.194 -0.4177 -0.3684 -0.2266
 4233SOL    HW124335   2.348   1.538   1.115 -0.6425 -0.7356  0.0526
 4233SOL    HW224336   2.330   1.677   1.164 -1.2616 -0.1668  1.1553
 4234SOL     OW24337   0.723   4.538   9.070 -0.3535  0.0154 -0.1447
 4234SOL    HW124338   0.802   4.485   9.060  0.2927  1.2675 -1.6660
 4234SOL    HW224339   0.673   4.479   9.126  1.3557 -1.3535 -0.0845
 4235SOL     OW24340   2.003   0.631   0.429 -0.1428  0.1369  0.9235
 4235SOL    HW124341   1.923   0.577   0.427 -0.1057  0.1152  0.1174
 4235SOL    HW224342   1.963   0.713   0.401  0.7424  0.5469  0.8814
 4236SOL     OW24343   0.169   1.718   9.546 -0.0827  0.0763 -0.3278
 4236SOL    HW124344   0.126   1.703   9.630  1.3092 -3.2112 -0.2210
 4236SOL    HW224345   0.242   1.657   9.553 -1.9873 -1.9715  1.7674
 4237SOL     OW24346   2.075   4.261  14.490 -0.4916 -0.7477 -0.4042
 4237SOL    HW124347   2.123   4.278  14.409  2.1721 -0.6371  1.2025
 4237SOL    HW224348   1.988   4.235  14.459 -1.0129  0.4737  0.0342
 4238SOL     OW24349   0.325   4.466   1.436 -0.1250 -0.6973  0.4001
 4238SOL    HW124350   0.231   4.479   1.437 -0.0471  0.1058 -2.8585
 4238SOL    HW224351   0.366   4.549   1.411 -1.3145 -0.3264 -0.3102
 4239SOL     OW24352   0.480   0.715  14.522 -0.3303  0.1686 -0.3765
 4239SOL    HW124353   0.567   0.702  14.560  0.6263 -1.3068 -3.0208
 4239SOL    HW224354   0.434   0.631  14.530  0.9203 -0.2584  2.3569
 4240SOL     OW24355   1.305   0.767   9.421  0.7606  0.3076  0.3177
 4240SOL    HW124356   1.359   0.802   9.492 -0.0490  3.8095 -0.7891
 4240SOL    HW224357   1.245   0.705   9.460 -0.2480  1.6997  0.9656
 4241SOL     OW24358   2.850   3.128   0.017 -0.6306 -0.2227 -0.1900
 4241SOL    HW124359   2.900   3.114  17.678 -1.7351  1.5580 -1.1950
 4241SOL    HW224360   2.801   3.046   0.010  0.3841 -0.7255 -1.2414
 4242SOL     OW24361   0.503   2.222   1.508 -0.0533 -0.2193  0.1490
 4242SOL    HW124362   0.428   2.171   1.540  0.2161 -0.0895  0.9744
 4242SOL    HW224363   0.578   2.180   1.550  0.3045  0.0693 -0.2020
 4243SOL     OW24364   0.713   0.801   5.664 -0.1376  0.4719  0.2919
 4243SOL    HW124365   0.770   0.743   5.714  0.1359  1.4921  1.1609
 4243SOL    HW224366   0.625   0.786   5.700  0.0718 -0.4349  0.4295
 4244SOL     OW24367   0.113   1.974  11.921  0.1655  0.3735  0.0954
 4244SOL    HW124368   0.171   1.980  11.845 -0.3328 -2.0665 -0.4682
 4244SOL    HW224369   0.113   2.060  11.964  0.1180  1.1472 -1.4441
 4245SOL     OW24370   2.538   3.788  15.477  0.0692 -0.5042  0.0830
 4245SOL    HW124371   2.591   3.850  15.528 -0.3674 -0.1121  0.0646
 4245SOL    HW224372   2.601   3.719  15.494 -1.1734 -1.5434  0.4548
 4246SOL     OW24373   1.608   1.089   5.006  0.0668  0.1479  0.1650
 4246SOL    HW124374   1.612   0.999   5.040  4.4948  0.4526  0.3839
 4246SOL    HW224375   1.539   1.085   4.940 -1.0803 -0.5714  1.3936
 4247SOL     OW24376   2.545   0.790   2.820 -0.3767  0.1341  0.4108
 4247SOL    HW124377   2.579   0.738   2.892  0.1119 -0.7525 -0.4713
 4247SOL    HW224378   2.527   0.721   2.756 -1.2781  0.8221 -0.0924
 4248SOL     OW24379   2.332   3.295   1.870  0.1766 -0.2308 -0.4676
 4248SOL    HW124380   2.361   3.363   1.931 -1.3352 -0.3269  0.3617
 4248SOL    HW224381   2.324   3.345   1.789  0.0325 -0.3002 -0.4969
 4249SOL     OW24382   2.591   1.928  14.765 -0.5000 -0.0068  0.3899
 4249SOL    HW124383   2.652   1.958  14.698  0.7795  0.1443  1.6303
 4249SOL    HW224384   2.654   1.892  14.828  0.3875  0.3360 -0.3009
 4250SOL     OW24385   4.083   1.479   4.627  0.3216  0.0088  0.0735
 4250SOL    HW124386   4.058   1.470   4.718  0.7861 -0.3336  0.1689
 4250SOL    HW224387   4.176   1.457   4.629 -0.0063 -0.8373  5.5550
 4251SOL     OW24388   0.829   2.970   9.987  0.1076  0.0693  0.1370
 4251SOL    HW124389   0.905   2.985  10.042  0.7207  0.4739 -0.8296
 4251SOL    HW224390   0.844   2.886   9.943 -0.1110  0.4499 -0.6640
 4252SOL     OW24391   2.092   1.490  14.978 -0.0931  1.0514 -0.0613
 4252SOL    HW124392   2.056   1.433  15.046  1.2159 -0.3432 -0.5417
 4252SOL    HW224393   2.155   1.433  14.934 -0.8331  0.6181 -0.5582
 4253SOL     OW24394   2.992   1.382   8.346  0.6900  0.3314  0.1990
 4253SOL    HW124395   2.940   1.460   8.368 -1.2024 -0.8153 -0.1963
 4253SOL    HW224396   3.069   1.397   8.401  1.4271 -0.9828 -0.4809
 4254SOL     OW24397   4.159   4.528  15.094 -0.2600  0.4546 -0.3680
 4254SOL    HW124398   4.109   4.458  15.053 -0.6554 -0.6745  2.0399
 4254SOL    HW224399   4.161   4.503  15.186  2.0477 -1.0336 -0.7986
 4255SOL     OW24400   4.191   4.662   9.893  0.1922 -1.1498  0.3648
 4255SOL    HW124401   4.182   4.570   9.918 -1.0379 -1.1007  0.0631
 4255SOL    HW224402   4.105   4.703   9.883  0.0974 -0.3508  4.4639
 4256SOL     OW24403   3.316   4.612   8.010  0.1537 -0.6500 -0.4706
 4256SOL    HW124404   3.366   4.577   7.937  0.7605  1.7551 -1.2204
 4256SOL    HW224405   3.385   4.657   8.060  2.3380 -2.0704 -2.1871
 4257SOL     OW24406   0.805   3.834   1.893  0.1183  0.0162  0.6960
 4257SOL    HW124407   0.728   3.786   1.861 -0.4757 -0.4699  2.8308
 4257SOL    HW224408   0.789   3.914   1.842  0.1637  0.1092  0.8275
 4258SOL     OW24409   1.552   2.205   7.997 -0.6077  0.4448 -0.1836
 4258SOL    HW124410   1.627   2.248   8.037 -0.2932 -1.3703  1.1911
 4258SOL    HW224411   1.500   2.187   8.076  1.1484 -0.2594  0.8028
 4259SOL     OW24412   3.793   2.995   5.552 -0.2203  0.1549  0.0326
 4259SOL    HW124413   3.860   3.050   5.591  0.3672  0.2536 -1.0968
 4259SOL    HW224414   3.773   3.047   5.474 -0.5933 -2.3440 -1.5601
 4260SOL     OW24415   1.213   0.702  10.176 -0.9194 -0.5951 -0.0625
 4260SOL    HW124416   1.278   0.768  10.154 -0.4161 -0.7452  0.9481
 4260SOL    HW224417   1.251   0.624  10.136  1.1270  1.3086 -1.8041
 4261SOL     OW24418   3.756   2.331   5.318  0.1876 -0.2270  0.3738
 4261SOL    HW124419   3.829   2.351   5.260  2.0054 -1.6165  2.1839
 4261SOL    HW224420   3.738   2.239   5.300  2.4369 -0.2013 -1.8732
 4262SOL     OW24421   1.418   4.494   5.530  0.4918  0.2521  0.2262
 4262SOL    HW124422   1.394   4.514   5.620  0.6395  3.3167 -0.4195
 4262SOL    HW224423   1.332   4.494   5.488  0.4252 -2.4583  0.3177
 4263SOL     OW24424   0.538   2.754   1.776 -0.1360 -0.0488 -0.0574
 4263SOL    HW124425   0.617   2.713   1.811 -0.8117 -0.1577  1.3363
 4263SOL    HW224426   0.496   2.694   1.715  1.3770  1.1154 -2.2453
 4264SOL     OW24427   1.598   2.040  15.958  0.0936  0.5327  0.1065
 4264SOL    HW124428   1.591   2.045  15.863  0.1374  1.1752  0.1355
 4264SOL    HW224429   1.511   2.060  15.993 -0.0720 -0.4343  0.2278
 4265SOL     OW24430   3.528   0.334   9.827 -0.2490 -0.2597  0.0173
 4265SOL    HW124431   3.438   0.306   9.842 -1.0946  1.4997 -1.8332
 4265SOL    HW224432   3.520   0.429   9.820  3.2970 -0.0938 -1.7574
 4266SOL     OW24433   3.773   3.729  13.556 -0.5316  0.5680  0.1912
 4266SOL    HW124434   3.798   3.700  13.644 -0.5740  0.6759  0.2393
 4266SOL    HW224435   3.816   3.815  13.554 -1.2863  0.9640  0.5892
 4267SOL     OW24436   1.345   0.418   7.786  0.1791  0.7258  0.3150
 4267SOL    HW124437   1.422   0.403   7.841 -0.5816  0.4196  1.2808
 4267SOL    HW224438   1.373   0.496   7.738 -1.5691  1.0162 -0.2333
 4268SOL     OW24439   4.559   4.362   9.637 -0.4978 -0.2204  0.9503
 4268SOL    HW124440   4.544   4.400   9.723 -2.5431  1.4190 -0.1333
 4268SOL    HW224441   4.567   4.269   9.659 -0.6661 -0.2098  1.0541
 4269SOL     OW24442   3.307   1.973   4.555 -0.2682 -0.1853 -0.0259
 4269SOL    HW124443   3.254   1.895   4.572 -0.2889 -0.2317 -0.3152
 4269SOL    HW224444   3.392   1.936   4.532  0.8623  1.1506  1.9671
 4270SOL     OW24445   3.009   3.612   8.720  0.0342  0.3681 -0.6350
 4270SOL    HW124446   3.080   3.635   8.660  0.9110 -0.4815  0.0863
 4270SOL    HW224447   3.007   3.687   8.780  0.6937 -0.8387  0.9092
 4271SOL     OW24448   2.668   1.208   1.356  0.1982 -0.5116 -0.2669
 4271SOL    HW124449   2.605   1.232   1.288  0.0312  3.4329  1.2658
 4271SOL    HW224450   2.609   1.171   1.421 -1.0166  0.5459 -0.7612
 4272SOL     OW24451   4.107   3.594   9.074  0.4538 -0.4962 -0.0384
 4272SOL    HW124452   4.134   3.686   9.079 -3.1133  0.6694 -2.1733
 4272SOL    HW224453   4.197   3.564   9.060  0.1011 -1.8760  0.6199
 4273SOL     OW24454   0.110   3.689   2.168  0.1288  0.0187  0.1677
 4273SOL    HW124455   0.059   3.623   2.121 -0.7265  0.5140  0.3913
 4273SOL    HW224456   0.109   3.646   2.254  0.8456  1.8118  1.0738
 4274SOL     OW24457   2.417   2.839   2.830  0.0387  0.3628  0.2034
 4274SOL    HW124458   2.510   2.820   2.818  0.5340  1.8515  1.6540
 4274SOL    HW224459   2.362   2.781   2.778  0.4026  0.9654 -0.8721
 4275SOL     OW24460   4.350   3.395   3.667 -0.2386  0.5305 -0.1061
 4275SOL    HW124461   4.257   3.381   3.653 -0.2692  0.5331  0.0904
 4275SOL    HW224462   4.356   3.477   3.619  0.7681  1.4248  1.5223
 4276SOL     OW24463   4.102   1.746   3.756  0.0610  0.1447 -0.1543
 4276SOL    HW124464   4.021   1.795   3.771  0.3051  0.0735  1.3911
 4276SOL    HW224465   4.139   1.805   3.690  0.8285  1.7725  1.7637
 4277SOL     OW24466   2.100   3.718   8.119 -0.4280 -0.5110  0.5215
 4277SOL    HW124467   2.034   3.785   8.138  1.6621  1.1562  1.8843
 4277SOL    HW224468   2.079   3.700   8.028 -2.1085  0.7199  0.6544
 4278SOL     OW24469   0.681   0.664   3.426  0.5421  0.3368 -0.9769
 4278SOL    HW124470   0.774   0.639   3.426  0.6931  0.8881 -0.4609
 4278SOL    HW224471   0.639   0.578   3.426 -1.3453  1.2721 -1.5644
 4279SOL     OW24472   2.798   1.578   2.657 -0.4147 -0.3274 -0.0557
 4279SOL    HW124473   2.868   1.612   2.713 -0.6065  1.2503 -0.7778
 4279SOL    HW224474   2.797   1.649   2.593 -0.2847  1.2483  1.6800
 4280SOL     OW24475   0.786   3.248  11.083 -0.4478 -0.9269  0.4402
 4280SOL    HW124476   0.807   3.337  11.112  1.0308 -1.1594  0.1033
 4280SOL    HW224477   0.816   3.243  10.992 -0.7514  1.1477  0.2228
 4281SOL     OW24478   4.300   2.598   6.273 -0.1634  0.0296  0.1187
 4281SOL    HW124479   4.306   2.519   6.326 -0.1169 -0.0581 -0.0163
 4281SOL    HW224480   4.214   2.574   6.240  0.9910  0.2875 -3.1573
 4282SOL     OW24481   3.469   1.120   8.240  0.3790  0.4644 -0.5221
 4282SOL    HW124482   3.450   1.194   8.297  1.1194 -0.0375  0.3834
 4282SOL    HW224483   3.510   1.070   8.312 -1.0281 -0.9445 -0.6992
 4283SOL     OW24484   0.352   1.998   5.178 -0.0711  0.6298  0.4217
 4283SOL    HW124485   0.401   2.077   5.156 -0.7272  0.8597 -0.2228
 4283SOL    HW224486   0.412   1.950   5.235 -0.0940  0.9846  0.7462
 4284SOL     OW24487   1.550   3.948   1.524  0.5189  0.9903 -0.2019
 4284SOL    HW124488   1.503   3.972   1.445 -2.3321  1.3421  1.5996
 4284SOL    HW224489   1.618   3.889   1.491  1.0914  0.7230  1.4607
 4285SOL     OW24490   1.571   0.687   3.111 -0.1068 -0.1263  0.0826
 4285SOL    HW124491   1.571   0.721   3.021 -1.0484  0.0577  0.1530
 4285SOL    HW224492   1.540   0.767   3.154  0.5478  0.2301 -0.0996
 4286SOL     OW24493   3.686   2.576   4.128 -0.1708  0.0514  0.1269
 4286SOL    HW124494   3.606   2.549   4.083 -0.4212 -0.8640  1.1513
 4286SOL    HW224495   3.654   2.654   4.173 -1.2218  0.2373 -0.9306
 4287SOL     OW24496   3.282   3.465   6.373 -0.1243 -1.0413  0.7350
 4287SOL    HW124497   3.188   3.480   6.357  0.4133  3.8001  1.9808
 4287SOL    HW224498   3.314   3.550   6.343  1.7180 -2.0676 -0.1209
 4288SOL     OW24499   0.701   3.139   9.637  0.7687  0.0955  0.0698
 4288SOL    HW124500   0.655   3.080   9.697  0.0508  0.5290 -0.0466
 4288SOL    HW224501   0.708   3.226   9.677 -1.0157  0.8514 -1.2701
 4289SOL     OW24502   2.943   2.688   4.904  0.0906  0.3169  0.1156
 4289SOL    HW124503   2.924   2.767   4.853  0.5429  0.8377  0.7447
 4289SOL    HW224504   3.030   2.674   4.866  0.4469  0.9017  0.7138
 4290SOL     OW24505   1.012   2.575   2.381 -0.6657  0.0469 -0.2239
 4290SOL    HW124506   1.008   2.602   2.473  0.9956 -0.5988  0.0403
 4290SOL    HW224507   1.017   2.480   2.391  1.1888  0.3855  2.1193
 4291SOL     OW24508   3.152   3.087  12.149 -0.5872 -0.0340  0.7070
 4291SOL    HW124509   3.095   3.014  12.175  3.5919 -2.4841  3.0163
 4291SOL    HW224510   3.197   3.047  12.074 -1.5654  0.6409 -0.2350
 4292SOL     OW24511   0.792   2.734   3.161  0.9175  0.1762  0.2860
 4292SOL    HW124512   0.733   2.668   3.124 -0.3639 -0.3011  3.1751
 4292SOL    HW224513   0.750   2.805   3.113  1.2040  0.7199  0.8505
 4293SOL     OW24514   0.147   4.714  15.576  0.0468  0.3369  0.0165
 4293SOL    HW124515   0.071   0.032  15.597  0.2903  0.9258 -0.6302
 4293SOL    HW224516   0.190   0.026  15.505 -0.9027  0.2925 -0.5829
 4294SOL     OW24517   0.216   1.960   9.986 -0.1811  0.5775  0.3560
 4294SOL    HW124518   0.156   1.902   9.938 -1.6480  1.1176  1.5552
 4294SOL    HW224519   0.237   1.897  10.055 -1.3032 -1.7567 -1.4287
 4295SOL     OW24520   3.206   4.047   5.155 -0.4090 -0.1728  0.9341
 4295SOL    HW124521   3.225   3.961   5.193  0.4710 -0.6369 -0.5718
 4295SOL    HW224522   3.111   4.048   5.142 -0.2415  1.3088 -0.1001
 4296SOL     OW24523   4.160   2.434  13.754  0.2930  0.5702  0.4604
 4296SOL    HW124524   4.181   2.526  13.745 -0.5031  0.8500  1.4236
 4296SOL    HW224525   4.085   2.427  13.695  0.5634 -0.7991  0.2738
 4297SOL     OW24526   2.992   1.985  11.990 -0.3188  0.0464  0.1933
 4297SOL    HW124527   3.042   2.057  12.029  1.2900 -1.5728  1.0976
 4297SOL    HW224528   2.903   2.019  12.001 -1.2595 -1.6531 -2.2383
 4298SOL     OW24529   3.044   2.433   7.541  0.0220 -0.7023 -1.0840
 4298SOL    HW124530   3.094   2.507   7.576 -2.0971 -1.3211  3.1803
 4298SOL    HW224531   2.971   2.431   7.603  1.1392 -0.1720  0.2399
 4299SOL     OW24532   2.417   4.133   8.254  0.0410  0.4390 -0.2580
 4299SOL    HW124533   2.431   4.039   8.243 -2.4142  0.4718 -3.6128
 4299SOL    HW224534   2.395   4.136   8.347  3.4859  0.6251  0.5487
 4300SOL     OW24535   1.007   1.389   2.730 -0.6756  0.0333  0.2559
 4300SOL    HW124536   1.013   1.310   2.676 -1.1732 -1.2426  2.0537
 4300SOL    HW224537   1.020   1.346   2.814  0.1984 -0.2516 -0.0300
 4301SOL     OW24538   1.844   2.763   8.324  0.1693  0.1483  0.0621
 4301SOL    HW124539   1.939   2.762   8.335  0.0879  0.1313  0.7876
 4301SOL    HW224540   1.817   2.721   8.406 -1.9303 -1.4267 -1.4194
 4302SOL     OW24541   1.971   0.925   2.157  0.4943  0.1199  0.2257
 4302SOL    HW124542   2.042   0.941   2.096  2.6376 -1.6550  2.2683
 4302SOL    HW224543   2.031   0.882   2.217  0.2566  0.4682  0.7180
 4303SOL     OW24544   0.483   4.071   1.072 -0.3271 -0.3105  0.1630
 4303SOL    HW124545   0.399   4.112   1.094  0.5692  2.4982 -1.5140
 4303SOL    HW224546   0.541   4.136   1.112 -2.7786  2.3701 -0.6323
 4304SOL     OW24547   1.871   3.779   2.114 -0.7708 -0.7647 -0.1615
 4304SOL    HW124548   1.952   3.827   2.096  0.0178 -0.2046  4.8721
 4304SOL    HW224549   1.809   3.842   2.151  0.1407 -0.7550  1.3197
 4305SOL     OW24550   3.733   3.780   1.593 -0.2070  0.3376  0.2000
 4305SOL    HW124551   3.829   3.783   1.591 -0.1525 -1.7275  0.2232
 4305SOL    HW224552   3.717   3.712   1.658  2.2870 -0.4585 -0.0023
 4306SOL     OW24553   2.339   0.972   4.715  0.0665  0.1052  0.0224
 4306SOL    HW124554   2.299   0.936   4.636  0.6014  1.2996 -0.7829
 4306SOL    HW224555   2.369   1.056   4.680  0.9588  0.1155  0.7766
 4307SOL     OW24556   2.568   4.651  16.859  0.3301 -0.4377  0.3648
 4307SOL    HW124557   2.542   4.731  16.814  0.4952  0.1403  1.2982
 4307SOL    HW224558   2.662   4.639  16.853  0.1998 -0.8457 -0.8712
 4308SOL     OW24559   0.661   2.099  11.291 -0.0619  0.0423  0.0669
 4308SOL    HW124560   0.735   2.061  11.338  1.5815  1.3940 -1.4383
 4308SOL    HW224561   0.608   2.022  11.273  2.3983 -1.7736  0.6871
 4309SOL     OW24562   4.281   0.239   8.470 -0.0500  0.0033  0.1148
 4309SOL    HW124563   4.357   0.184   8.485  0.3565  0.9983  1.6832
 4309SOL    HW224564   4.322   0.310   8.520  0.8798 -2.0138  2.1955
 4310SOL     OW24565   4.230   3.106   3.544  0.1109 -0.0425 -0.2190
 4310SOL    HW124566   4.155   3.165   3.546  0.3324  0.1103  2.7733
 4310SOL    HW224567   4.297   3.154   3.496  0.6698  0.6033  1.2001
 4311SOL     OW24568   4.288   2.719   2.156  0.0867  0.1072  0.1641
 4311SOL    HW124569   4.241   2.787   2.204  1.0846  0.2024  1.0119
 4311SOL    HW224570   4.226   2.647   2.150 -1.6422  1.6668 -0.8219
 4312SOL     OW24571   0.766   0.285   3.293 -0.3332 -0.4625 -0.5765
 4312SOL    HW124572   0.682   0.240   3.306 -1.6881  1.5402 -2.4689
 4312SOL    HW224573   0.776   0.328   3.378 -0.5905 -0.1610 -0.6960
 4313SOL     OW24574   0.153   2.838   9.849 -0.2097  0.4515 -0.0586
 4313SOL    HW124575   0.097   2.779   9.799 -0.0132  0.6020 -0.4498
 4313SOL    HW224576   0.092   2.857   9.920  0.0901  1.1456  0.0207
 4314SOL     OW24577   1.277   0.376  16.923 -0.2463 -0.0837 -0.3070
 4314SOL    HW124578   1.189   0.362  16.888 -0.0536 -0.7118 -0.5329
 4314SOL    HW224579   1.284   0.314  16.996  1.4567  0.4180 -0.0527
 4315SOL     OW24580   3.442   3.673   3.186 -0.4130 -0.8585  0.3958
 4315SOL    HW124581   3.382   3.733   3.231 -0.2214 -0.2824 -0.1146
 4315SOL    HW224582   3.388   3.595   3.193 -0.7575 -0.7053 -0.6365
 4316SOL     OW24583   2.051   3.885   6.823  0.2495  0.4717  0.1824
 4316SOL    HW124584   2.103   3.948   6.873  1.5157 -1.4640  1.2884
 4316SOL    HW224585   2.090   3.799   6.838 -1.1368 -0.0404  0.8387
 4317SOL     OW24586   2.488   4.521   9.187  0.8519 -0.5316 -0.2392
 4317SOL    HW124587   2.553   4.472   9.238  0.6966  0.8258  1.2179
 4317SOL    HW224588   2.536   4.581   9.129 -1.1348  1.5375  0.2793
 4318SOL     OW24589   4.468   2.322   3.799 -0.3516  0.0077 -0.5835
 4318SOL    HW124590   4.527   2.290   3.731 -0.0345  0.2245 -0.4095
 4318SOL    HW224591   4.478   2.417   3.806  0.5231 -0.2402  1.4870
 4319SOL     OW24592   3.554   3.552   4.997 -0.0718  0.2435 -0.3134
 4319SOL    HW124593   3.473   3.518   4.957  0.5450  0.6314 -1.8651
 4319SOL    HW224594   3.553   3.645   4.977  0.4082  0.2475 -0.3143
 4320SOL     OW24595   0.551   2.160   7.130 -0.4654 -0.2208 -0.0952
 4320SOL    HW124596   0.548   2.238   7.185  1.1615  0.5535 -1.1123
 4320SOL    HW224597   0.636   2.171   7.088 -1.0790  2.6325 -0.5415
 4321SOL     OW24598   0.383   0.282   8.919 -0.0122  0.4558 -0.0129
 4321SOL    HW124599   0.358   0.199   8.878 -1.3731  0.5395  0.6439
 4321SOL    HW224600   0.314   0.336   8.882  0.6270  1.1617 -0.1738
 4322SOL     OW24601   4.249   0.531  12.082 -0.3042  0.4206 -0.3032
 4322SOL    HW124602   4.242   0.584  12.161  0.4620 -0.6695  0.5033
 4322SOL    HW224603   4.321   0.574  12.037  0.9811 -0.6130  0.7405
 4323SOL     OW24604   3.779   2.706  11.473  0.3450  0.4873 -0.3602
 4323SOL    HW124605   3.787   2.638  11.540 -1.3925 -0.2257 -0.8931
 4323SOL    HW224606   3.847   2.686  11.408  1.6627  2.5381  0.3991
 4324SOL     OW24607   1.143   4.182   6.940  0.1794  0.3001 -0.3246
 4324SOL    HW124608   1.143   4.277   6.954  0.2028  0.0890  1.0604
 4324SOL    HW224609   1.099   4.151   7.019 -0.5043 -0.6165 -1.0774
 4325SOL     OW24610   3.212   1.170   3.730  0.2075 -0.1375  0.3459
 4325SOL    HW124611   3.117   1.176   3.720 -0.1997 -3.7457  1.9764
 4325SOL    HW224612   3.239   1.260   3.711  0.5542 -0.1048  1.0216
 4326SOL     OW24613   3.054   0.759  13.292 -0.0986 -0.6551  0.1693
 4326SOL    HW124614   3.116   0.688  13.273  0.7112 -0.9676  3.9556
 4326SOL    HW224615   3.065   0.803  13.209 -0.4196 -2.2048 -0.7001
 4327SOL     OW24616   4.398   1.076   0.840 -0.6807 -0.2645  0.4748
 4327SOL    HW124617   4.386   1.039   0.753 -2.2246  2.0522 -0.2908
 4327SOL    HW224618   4.316   1.120   0.862 -1.2063  0.3427 -2.6696
 4328SOL     OW24619   4.201   1.888   4.061  0.6034 -0.3288  0.2977
 4328SOL    HW124620   4.288   1.882   4.020 -0.6302 -2.0791 -2.0359
 4328SOL    HW224621   4.147   1.879   3.983 -1.5059 -0.7030  1.8205
 4329SOL     OW24622   1.679   0.400   6.887  0.0775 -0.1228  0.2232
 4329SOL    HW124623   1.748   0.343   6.921 -0.3833  0.0251  1.4029
 4329SOL    HW224624   1.600   0.362   6.924 -0.2242 -0.8764 -1.1841
 4330SOL     OW24625   3.382   2.052   8.567  0.0270  0.1453  0.0981
 4330SOL    HW124626   3.298   2.065   8.610  0.5912  1.1260  0.8995
 4330SOL    HW224627   3.356   1.994   8.495 -0.6249  1.1892 -0.5026
 4331SOL     OW24628   2.004   2.753   7.260 -0.0425 -0.2463 -0.0015
 4331SOL    HW124629   2.050   2.768   7.342  1.8634  2.2525 -1.5138
 4331SOL    HW224630   2.074   2.726   7.201  2.6436 -0.2235  3.1767
 4332SOL     OW24631   4.459   3.162   4.048  0.2041  0.2787 -0.3412
 4332SOL    HW124632   4.409   3.243   4.044 -1.3562 -0.6823 -0.4213
 4332SOL    HW224633   4.500   3.162   3.962  0.9628  0.0533  0.0163
 4333SOL     OW24634   2.219   4.417  15.409  0.3634  0.8857  0.2624
 4333SOL    HW124635   2.170   4.414  15.491  0.2664 -3.2167  0.0093
 4333SOL    HW224636   2.186   4.336  15.370  0.5351  1.2021 -0.5393
 4334SOL     OW24637   3.083   2.689   4.196 -1.0681  0.5243  0.2453
 4334SOL    HW124638   3.098   2.730   4.111  2.0879  2.8814  1.9590
 4334SOL    HW224639   3.087   2.760   4.260 -0.5547  0.1124  0.6697
 4335SOL     OW24640   2.924   4.000   5.177  0.2820  0.3546  0.5034
 4335SOL    HW124641   2.901   3.995   5.084  4.2983 -1.0518 -0.4079
 4335SOL    HW224642   2.900   4.091   5.191  0.2130  0.0527  2.3662
 4336SOL     OW24643   0.396   1.742  10.729 -0.1067 -0.3207 -0.4585
 4336SOL    HW124644   0.482   1.770  10.760  0.3707 -2.0491 -0.1760
 4336SOL    HW224645   0.413   1.649  10.714 -0.3773 -0.0787 -2.2626
 4337SOL     OW24646   3.060   1.946   3.787 -0.3454 -0.4914  0.3168
 4337SOL    HW124647   3.059   1.959   3.692  1.8905 -3.8010 -0.1571
 4337SOL    HW224648   2.977   1.980   3.820  0.4890  1.4496  0.4231
 4338SOL     OW24649   4.706   3.308   5.042 -0.0001  0.0530  0.1999
 4338SOL    HW124650   4.732   3.320   5.133  0.0833  0.9623  0.0535
 4338SOL    HW224651   4.680   3.393   5.007  0.8249  0.0228 -0.5094
 4339SOL     OW24652   0.924   2.683  12.745 -0.1646 -0.5687  0.2563
 4339SOL    HW124653   0.879   2.766  12.761 -0.8865 -0.4306 -2.6599
 4339SOL    HW224654   0.959   2.663  12.832 -1.4089  0.0364  0.8948
 4340SOL     OW24655   1.607   4.368   0.124 -0.4147  0.0228 -0.2056
 4340SOL    HW124656   1.677   4.327   0.174 -0.8944  0.5267  0.8802
 4340SOL    HW224657   1.636   4.359   0.033  2.3998  2.5546  0.4583
 4341SOL     OW24658   0.024   1.203  16.948  0.4755  0.5386  0.7189
 4341SOL    HW124659   0.085   1.191  17.020  2.0522 -1.5978 -0.9702
 4341SOL    HW224660   4.696   1.268  16.978 -1.1033  0.3448 -2.1306
 4342SOL     OW24661   3.657   1.529   8.064  0.4670 -0.6202 -0.8524
 4342SOL    HW124662   3.691   1.543   7.975  1.7395  1.4862 -0.0323
 4342SOL    HW224663   3.564   1.552   8.059  0.3441 -1.0200 -0.2381
 4343SOL     OW24664   0.570   1.370  14.684  0.1416  0.1125  0.3876
 4343SOL    HW124665   0.596   1.435  14.619  0.1885 -1.9664 -1.7100
 4343SOL    HW224666   0.477   1.391  14.690  0.8235  2.0400  3.9045
 4344SOL     OW24667   2.420   4.157  16.130 -0.2797  0.5703 -0.2474
 4344SOL    HW124668   2.391   4.128  16.043  0.4129 -0.3483 -0.1721
 4344SOL    HW224669   2.339   4.199  16.159  0.6181  0.7809  1.9351
 4345SOL     OW24670   2.286   4.170   8.802  0.5868 -0.6831 -0.0527
 4345SOL    HW124671   2.275   4.075   8.814 -0.8474 -0.6658 -1.2474
 4345SOL    HW224672   2.237   4.191   8.882 -0.5628 -2.2097 -0.3432
 4346SOL     OW24673   3.254   0.957  16.795  0.3714  0.5266 -0.3361
 4346SOL    HW124674   3.223   0.888  16.854  3.1287  0.7953  1.4348
 4346SOL    HW224675   3.182   1.018  16.807  0.2991  0.3653  0.0606
 4347SOL     OW24676   2.010   3.268   3.904  0.7390  0.1333 -0.1619
 4347SOL    HW124677   2.055   3.301   3.981  0.0841  2.8243 -0.9108
 4347SOL    HW224678   2.044   3.179   3.898  1.6623  0.2660  3.2626
 4348SOL     OW24679   3.926   1.390   8.260 -0.3725  0.2220  0.5229
 4348SOL    HW124680   3.908   1.344   8.179 -2.1279 -1.1991  1.7272
 4348SOL    HW224681   3.920   1.476   8.219 -0.9489 -0.4640 -0.8268
 4349SOL     OW24682   4.682   4.367   4.547  0.0334 -0.9347 -0.2289
 4349SOL    HW124683   4.683   4.285   4.596 -1.3854 -1.0021 -0.3065
 4349SOL    HW224684   4.665   4.426   4.620 -0.5698 -1.3251 -0.0564
 4350SOL     OW24685   1.315   3.167   2.875 -0.5401  0.1652  0.1802
 4350SOL    HW124686   1.288   3.186   2.785  0.5916 -2.9271 -0.7901
 4350SOL    HW224687   1.368   3.243   2.899 -2.4093  1.3445  0.6207
 4351SOL     OW24688   2.867   2.987   4.333 -0.2473  0.5099  0.4598
 4351SOL    HW124689   2.897   3.013   4.246 -1.1987 -1.3614 -0.4252
 4351SOL    HW224690   2.857   2.892   4.329  0.4227  0.5441 -1.7886
 4352SOL     OW24691   2.415   0.140   7.665  0.2020  0.4295 -0.9335
 4352SOL    HW124692   2.402   0.234   7.677  1.2836  0.3387  1.0599
 4352SOL    HW224693   2.493   0.123   7.718 -0.7648 -1.2539 -0.0589
 4353SOL     OW24694   3.400   4.345   4.172 -0.2850 -0.0145  0.3557
 4353SOL    HW124695   3.461   4.373   4.240 -0.3199  1.4158 -0.1990
 4353SOL    HW224696   3.392   4.250   4.174 -0.6013  0.0004 -0.1418
 4354SOL     OW24697   3.590   0.180   6.699  0.6856  0.1572 -0.0306
 4354SOL    HW124698   3.575   0.249   6.763  2.0019  1.1037 -0.7472
 4354SOL    HW224699   3.528   0.114   6.731  1.4933 -0.2380  0.6954
 4355SOL     OW24700   2.957   2.949   4.779 -0.3605 -0.1966  0.3549
 4355SOL    HW124701   2.867   2.974   4.761 -0.0038  2.2952  2.0715
 4355SOL    HW224702   3.002   2.989   4.704  0.1684  0.1545  0.8591
 4356SOL     OW24703   4.701   2.361   9.526  0.4273  0.0408 -0.0151
 4356SOL    HW124704   0.025   2.325   9.461  0.5943 -1.4939  0.9765
 4356SOL    HW224705   0.020   2.366   9.604  0.5502 -0.7291 -0.0504
 4357SOL     OW24706   0.855   0.699  10.018 -0.0205  0.3731 -0.4437
 4357SOL    HW124707   0.903   0.782  10.009  3.0010 -1.2243  0.8479
 4357SOL    HW224708   0.781   0.712   9.960 -0.8851 -1.5243  0.2438
 4358SOL     OW24709   0.070   2.967   9.564 -0.1985 -0.0795  0.5208
 4358SOL    HW124710   0.146   3.012   9.602  0.1711  0.0088 -0.3362
 4358SOL    HW224711   4.727   2.999   9.608 -0.1485  0.7140  0.0170
 4359SOL     OW24712   2.384   1.338   1.337 -0.0744  0.8898 -0.5244
 4359SOL    HW124713   2.394   1.378   1.424 -1.1086  1.0242 -0.4753
 4359SOL    HW224714   2.367   1.412   1.280  2.1869  1.5291 -0.3651
 4360SOL     OW24715   0.756   2.463   4.394  0.4004  0.1424 -0.7424
 4360SOL    HW124716   0.845   2.433   4.409  0.3209 -0.0380 -0.6204
 4360SOL    HW224717   0.765   2.490   4.303 -0.5337  1.0473 -0.5774
 4361SOL     OW24718   2.160   3.681   4.327  0.1524  0.1662 -0.0185
 4361SOL    HW124719   2.165   3.741   4.253 -0.9234 -1.1290 -1.1260
 4361SOL    HW224720   2.252   3.682   4.353  1.0813 -1.0897 -3.2944
 4362SOL     OW24721   1.839   1.464   3.514  0.1703 -0.6961  0.4111
 4362SOL    HW124722   1.903   1.393   3.527  1.9203  0.4299 -2.1298
 4362SOL    HW224723   1.837   1.511   3.598  1.1099  0.1226 -0.0265
 4363SOL     OW24724   2.507   4.166   5.505  1.0313  0.2288 -0.4643
 4363SOL    HW124725   2.421   4.124   5.512  1.2552 -0.0832  0.4820
 4363SOL    HW224726   2.489   4.256   5.533 -1.3935 -0.4044 -0.0141
 4364SOL     OW24727   4.340   1.325   6.450  0.5347  0.2036 -0.4579
 4364SOL    HW124728   4.248   1.301   6.437  0.2917  1.9820 -1.8764
 4364SOL    HW224729   4.364   1.339   6.542  0.7794 -2.2350 -0.1454
 4365SOL     OW24730   1.400   2.559   5.165  0.8799  0.0952 -0.1774
 4365SOL    HW124731   1.461   2.551   5.238 -0.3234  0.5706  0.8796
 4365SOL    HW224732   1.419   2.484   5.109 -0.7267 -0.0543 -0.5393
 4366SOL     OW24733   4.530   2.887   8.820  0.2032 -0.0130 -0.0319
 4366SOL    HW124734   4.609   2.848   8.783  0.8499  1.4409 -0.1680
 4366SOL    HW224735   4.455   2.841   8.782 -0.0014 -0.4679  0.9251
 4367SOL     OW24736   2.779   1.629   6.272  0.2478  0.6835  0.3484
 4367SOL    HW124737   2.701   1.622   6.326  1.3143  1.6092  1.9949
 4367SOL    HW224738   2.782   1.718   6.237 -2.9287  0.2866 -0.9965
 4368SOL     OW24739   2.427   0.193   0.162 -0.2450 -0.0645 -0.1033
 4368SOL    HW124740   2.460   0.239   0.085 -0.2668  2.1337  1.1938
 4368SOL    HW224741   2.359   0.138   0.124 -1.4384 -0.4683  2.6184
 4369SOL     OW24742   1.310   4.031  11.725 -0.5323 -0.1750  0.3165
 4369SOL    HW124743   1.388   3.975  11.721  0.5510  1.4483 -1.3841
 4369SOL    HW224744   1.356   4.099  11.774 -0.4017  0.3149 -0.4833
 4370SOL     OW24745   0.027   4.590   7.806  0.1706 -0.6382  0.0542
 4370SOL    HW124746   0.047   4.684   7.804 -1.3017 -0.3871 -1.9385
 4370SOL    HW224747   0.067   4.553   7.885 -2.2960  1.4763  2.2650
 4371SOL     OW24748   1.275   0.765   4.588 -0.6052  0.5980 -0.0907
 4371SOL    HW124749   1.292   0.724   4.673 -0.9186  2.6780  0.9606
 4371SOL    HW224750   1.339   0.835   4.580 -0.8492  0.7085 -1.1632
 4372SOL     OW24751   3.519   2.288   2.579 -0.5027  0.1727  0.2517
 4372SOL    HW124752   3.531   2.207   2.528 -0.1660 -0.6131  1.5973
 4372SOL    HW224753   3.513   2.347   2.503  0.0555 -0.1583 -0.0549
 4373SOL     OW24754   3.503   3.643   6.563  0.7609  0.2371  0.1517
 4373SOL    HW124755   3.597   3.646   6.546  0.9245 -2.8943  0.4746
 4373SOL    HW224756   3.482   3.736   6.558  1.8849  0.5476  1.4152
 4374SOL     OW24757   4.468   2.471   2.569 -0.1842 -0.3285  0.1343
 4374SOL    HW124758   4.476   2.400   2.505  0.7582  0.4667 -0.6329
 4374SOL    HW224759   4.410   2.432   2.634  0.2228 -0.4234  0.4449
 4375SOL     OW24760   3.687   2.352   8.342 -0.1884 -0.6423  0.3202
 4375SOL    HW124761   3.641   2.330   8.423 -1.4060 -0.3001 -0.2775
 4375SOL    HW224762   3.751   2.411   8.382 -0.2103 -0.9140  0.7594
 4376SOL     OW24763   2.507   3.306   5.217  0.5643  0.2301  0.4352
 4376SOL    HW124764   2.454   3.375   5.177  2.0200 -0.7414 -3.1473
 4376SOL    HW224765   2.544   3.269   5.137 -2.5121 -2.2269  0.1260
 4377SOL     OW24766   2.211   0.713  16.801  0.6960  0.3298  0.1986
 4377SOL    HW124767   2.154   0.761  16.740 -0.0751 -2.6979 -1.4892
 4377SOL    HW224768   2.208   0.624  16.766 -1.2670  1.1150 -1.6719
 4378SOL     OW24769   3.342   1.109   9.199  0.2083 -0.3922  1.1055
 4378SOL    HW124770   3.328   1.194   9.240  1.9505 -0.1486  1.2038
 4378SOL    HW224771   3.251   1.097   9.173  0.2027 -0.4948  1.1704
 4379SOL     OW24772   1.728   2.963   7.589 -0.6291 -0.0889 -0.3242
 4379SOL    HW124773   1.781   2.893   7.550 -3.1617 -0.9059 -2.3399
 4379SOL    HW224774   1.694   2.998   7.506  0.3391 -0.4799 -0.8917
 4380SOL     OW24775   0.850   0.661   8.414  0.1277 -0.4682  0.2478
 4380SOL    HW124776   0.900   0.581   8.395 -1.3879 -1.1631 -0.7584
 4380SOL    HW224777   0.845   0.697   8.326 -0.8659  0.4578  0.6810
 4381SOL     OW24778   3.013   2.713   9.214  0.2614  0.7042 -0.4503
 4381SOL    HW124779   3.050   2.786   9.164 -2.3628  2.5580  0.3280
 4381SOL    HW224780   2.921   2.736   9.205 -0.6112 -2.0354  1.5178
 4382SOL     OW24781   1.042   3.694   6.251 -0.2440 -0.9320  0.2317
 4382SOL    HW124782   1.138   3.697   6.245 -0.3002  0.1657 -0.2593
 4382SOL    HW224783   1.023   3.723   6.340  0.0684  0.6749 -0.2117
 4383SOL     OW24784   1.166   3.442   7.828 -0.3747  0.0937 -0.2332
 4383SOL    HW124785   1.187   3.392   7.907  0.2968  0.6028 -0.0867
 4383SOL    HW224786   1.253   3.470   7.800 -0.0775 -0.7725 -0.1815
 4384SOL     OW24787   1.883   1.365   7.194 -0.1528 -0.0749  0.6525
 4384SOL    HW124788   1.939   1.298   7.156 -0.7634  0.5384 -1.3339
 4384SOL    HW224789   1.866   1.422   7.119  4.2204 -0.6266 -0.7793
 4385SOL     OW24790   0.015   0.139   7.023 -0.3249  0.0369  0.2185
 4385SOL    HW124791   4.667   0.103   6.994 -0.5634  0.0653  0.8831
 4385SOL    HW224792   0.007   0.229   6.991  1.6909 -0.3544 -1.4047
 4386SOL     OW24793   2.933   1.638   7.694  0.4462  0.2502 -0.2350
 4386SOL    HW124794   2.919   1.728   7.665  2.0806  1.0469  1.4154
 4386SOL    HW224795   3.027   1.652   7.708  0.3583 -1.2986  1.9251
 4387SOL     OW24796   1.763   1.088   0.013  0.3079  0.1276  0.0449
 4387SOL    HW124797   1.678   1.131   0.005 -0.2346 -0.6859  1.4842
 4387SOL    HW224798   1.799   1.133  17.678 -0.1069  0.3799  0.0002
 4388SOL     OW24799   2.016   2.439  16.401 -0.3168 -0.0202  0.0206
 4388SOL    HW124800   2.092   2.446  16.460  0.6061  0.7741 -1.2459
 4388SOL    HW224801   1.985   2.351  16.423 -0.5306  0.3355  1.1402
 4389SOL     OW24802   0.196   1.943   7.215  0.0929 -0.0070  0.9254
 4389SOL    HW124803   0.102   1.928   7.227 -0.1750  2.8550  2.4319
 4389SOL    HW224804   0.230   1.903   7.295  0.0049 -0.1858  0.8719
 4390SOL     OW24805   1.842   1.293   6.727 -0.3356 -0.4750 -0.3559
 4390SOL    HW124806   1.767   1.278   6.785 -1.2381  0.2183 -1.3277
 4390SOL    HW224807   1.828   1.383   6.698 -1.4721 -1.1347 -1.8514
 4391SOL     OW24808   2.138   2.874   2.225  1.0228 -0.1823  0.4121
 4391SOL    HW124809   2.224   2.890   2.187  2.1623  0.4829  3.3192
 4391SOL    HW224810   2.125   2.779   2.227 -0.0869 -0.0529 -0.3001
 4392SOL     OW24811   3.873   1.140  15.184 -0.2000 -0.7351 -0.2820
 4392SOL    HW124812   3.950   1.147  15.240 -0.0709  1.3606 -0.6983
 4392SOL    HW224813   3.898   1.202  15.116  1.9540 -1.6659 -0.3128
 4393SOL     OW24814   1.024   0.375   4.303 -0.2159  0.1506  0.2245
 4393SOL    HW124815   1.072   0.331   4.233 -0.1012 -0.0946  0.4608
 4393SOL    HW224816   0.983   0.447   4.253  2.2303  0.2078 -1.7097
 4394SOL     OW24817   4.726   4.015   8.009 -0.2600  0.2501 -0.1234
 4394SOL    HW124818   4.710   4.090   8.065  0.8363  0.1526  0.3186
 4394SOL    HW224819   0.076   4.045   7.977  0.6516 -0.5510  1.5955
 4395SOL     OW24820   4.548   3.645   7.337 -0.1908  0.5266  0.3056
 4395SOL    HW124821   4.460   3.612   7.351  0.6674 -2.5951 -1.7013
 4395SOL    HW224822   4.597   3.588   7.397 -1.9435  0.8358  2.0128
 4396SOL     OW24823   2.149   4.625   6.609  0.2217  0.2863 -0.2048
 4396SOL    HW124824   2.124   4.537   6.636  1.8133  0.3877  1.5818
 4396SOL    HW224825   2.113   4.637   6.521  1.0425 -0.9120 -0.6892
 4397SOL     OW24826   1.176   0.012  16.994 -0.2185 -0.3504  0.5793
 4397SOL    HW124827   1.087   0.031  16.964 -0.3673 -1.3470  0.3828
 4397SOL    HW224828   1.197   0.101  17.022 -0.4150 -0.3971  0.8766
 4398SOL     OW24829   2.959   3.513   6.783  0.6859 -0.3342  0.0477
 4398SOL    HW124830   3.029   3.473   6.835  1.6870  1.4797  0.1223
 4398SOL    HW224831   2.967   3.469   6.699  1.0228 -1.7997  0.8583
 4399SOL     OW24832   2.397   1.029   1.393  0.3031 -0.1202  0.2615
 4399SOL    HW124833   2.357   1.114   1.374  0.2503  0.0351  1.0549
 4399SOL    HW224834   2.429   1.052   1.481 -0.0661 -0.1462  0.4025
 4400SOL     OW24835   2.408   3.285   4.421  0.3916  0.2987  0.1946
 4400SOL    HW124836   2.446   3.219   4.480  1.7266  0.5961 -0.3227
 4400SOL    HW224837   2.341   3.240   4.370 -0.6761  0.9213  1.0703
 4401SOL     OW24838   0.738   4.104   4.351 -0.0269  0.2514  0.0071
 4401SOL    HW124839   0.755   4.028   4.296  0.5060 -0.8006  1.6366
 4401SOL    HW224840   0.731   4.173   4.285 -2.0680  0.4468  0.4159
 4402SOL     OW24841   0.304   3.747   1.974 -0.1804  0.4712  0.2105
 4402SOL    HW124842   0.250   3.739   2.053 -1.2931 -2.1786 -0.8129
 4402SOL    HW224843   0.323   3.654   1.963  1.6159  1.2694 -3.2146
 4403SOL     OW24844   3.873   0.555   8.634 -0.6049 -0.0056  0.1047
 4403SOL    HW124845   3.938   0.487   8.615  1.1751  1.9250 -0.7330
 4403SOL    HW224846   3.918   0.605   8.703  0.4287 -1.3213  0.3976
 4404SOL     OW24847   1.426   2.134   0.532 -0.3117  0.5192 -0.2702
 4404SOL    HW124848   1.435   2.211   0.475  0.3265  0.3295 -0.4345
 4404SOL    HW224849   1.506   2.147   0.583 -0.6636 -1.7872  0.8367
 4405SOL     OW24850   2.780   3.716   7.259  0.3659 -0.3423 -0.0204
 4405SOL    HW124851   2.821   3.654   7.319  1.8918 -1.2024 -1.9516
 4405SOL    HW224852   2.855   3.713   7.200  1.4575  4.1732  1.1511
 4406SOL     OW24853   4.168   4.262   8.032 -0.2239 -0.9145  0.4520
 4406SOL    HW124854   4.121   4.179   8.020 -0.4949 -0.6111 -0.6192
 4406SOL    HW224855   4.260   4.246   8.009  0.5846  1.4266  2.1008
 4407SOL     OW24856   2.382   2.917   4.769 -0.0411  0.3828  0.0582
 4407SOL    HW124857   2.452   2.899   4.833 -1.8849  0.2443  2.0242
 4407SOL    HW224858   2.305   2.910   4.825 -0.9241 -2.4749 -1.5099
 4408SOL     OW24859   3.588   0.829   7.129 -0.4636  0.5582  0.4361
 4408SOL    HW124860   3.550   0.787   7.206 -0.1869 -2.6372 -1.1789
 4408SOL    HW224861   3.523   0.786   7.074  0.9391 -0.5753 -0.3363
 4409SOL     OW24862   4.133   0.720  12.508  0.0055 -0.3746  0.4980
 4409SOL    HW124863   4.214   0.741  12.461 -0.2669  0.6395  0.4808
 4409SOL    HW224864   4.149   0.730  12.602  3.1135  1.6872 -0.2383
 4410SOL     OW24865   3.483   4.500  15.971 -0.2771 -0.0216 -0.4725
 4410SOL    HW124866   3.402   4.503  15.920  1.0159  1.9563 -2.4092
 4410SOL    HW224867   3.469   4.574  16.030  0.6869  0.1266 -0.4309
 4411SOL     OW24868   0.090   3.038  14.844 -0.2587 -0.8059 -0.4738
 4411SOL    HW124869   0.185   3.033  14.838 -0.0582 -0.3930  2.2157
 4411SOL    HW224870   0.066   2.969  14.783 -1.8042  1.6554 -2.6567
 4412SOL     OW24871   3.967   3.203   8.930 -0.0486 -0.0294 -0.2554
 4412SOL    HW124872   3.996   3.182   9.019 -1.1190 -2.2227 -0.4216
 4412SOL    HW224873   3.883   3.248   8.940  0.0177 -0.4729  2.3620
 4413SOL     OW24874   0.638   0.556   8.854 -0.2776 -0.1236  0.0396
 4413SOL    HW124875   0.646   0.643   8.815  0.0296 -0.2744 -0.2351
 4413SOL    HW224876   0.685   0.567   8.936  0.2965 -0.1545 -0.2847
 4414SOL     OW24877   2.763   3.452  14.990  0.6317 -0.0065  0.1529
 4414SOL    HW124878   2.756   3.361  15.020  0.3275  0.4301  1.4007
 4414SOL    HW224879   2.846   3.471  15.033  0.5768  1.0872 -0.2290
 4415SOL     OW24880   0.208   4.417   4.988  0.2349  0.0029  0.3745
 4415SOL    HW124881   0.288   4.374   5.019 -0.1345 -2.3875 -1.9659
 4415SOL    HW224882   0.197   4.364   4.909 -0.5491  1.0118 -0.1906
 4416SOL     OW24883   2.883   3.931  15.651  0.3125  0.6172  0.1218
 4416SOL    HW124884   2.812   3.995  15.643  0.6750  1.1033  0.8552
 4416SOL    HW224885   2.890   3.890  15.565  0.2536 -2.3290  1.5439
 4417SOL     OW24886   0.718   3.852   7.796 -0.3073 -0.1574 -0.0097
 4417SOL    HW124887   0.652   3.916   7.769 -2.0395 -1.5124  1.0246
 4417SOL    HW224888   0.658   3.782   7.821 -1.2145  0.8142  0.5313
 4418SOL     OW24889   2.619   2.632   2.902 -0.0336  0.3427 -0.3252
 4418SOL    HW124890   2.531   2.596   2.908  0.1553  0.0661  0.7808
 4418SOL    HW224891   2.663   2.590   2.976  0.6627  0.8954 -0.4213
 4419SOL     OW24892   2.176   0.534  10.388  0.0571  0.3644  0.3471
 4419SOL    HW124893   2.226   0.507  10.464  0.5479  1.1827  0.3087
 4419SOL    HW224894   2.253   0.563  10.340 -1.5391 -0.2189 -2.5982
 4420SOL     OW24895   2.916   1.917   7.779  0.4702 -0.4412  0.3070
 4420SOL    HW124896   2.996   1.899   7.828  0.4832  2.8170  1.4862
 4420SOL    HW224897   2.848   1.914   7.846  1.7519 -1.5327  1.5689
 4421SOL     OW24898   2.400   3.446   5.662  0.4154  0.5850  0.0740
 4421SOL    HW124899   2.342   3.430   5.588  1.9860  0.1526 -1.0626
 4421SOL    HW224900   2.484   3.462   5.620 -0.9877 -1.5822 -3.5362
 4422SOL     OW24901   0.039   2.737   8.138  0.5703 -0.2832 -0.1050
 4422SOL    HW124902   0.007   2.812   8.188 -0.6047 -0.7411 -0.1660
 4422SOL    HW224903   4.711   2.671   8.167  0.8920 -0.6115 -0.1423
 4423SOL     OW24904   0.704   2.841   5.306 -0.0958 -0.2515 -0.2280
 4423SOL    HW124905   0.798   2.856   5.299 -0.1157  0.1564  0.3750
 4423SOL    HW224906   0.700   2.748   5.327  0.2627 -0.1099  0.4402
 4424SOL     OW24907   3.188   2.340   6.332  0.5082  0.2342  0.5466
 4424SOL    HW124908   3.251   2.336   6.404  0.2705 -1.4251  0.6596
 4424SOL    HW224909   3.238   2.358   6.253 -0.2224 -1.5672 -0.3124
 4425SOL     OW24910   3.768   0.920   5.726 -0.2269  0.1033  0.5563
 4425SOL    HW124911   3.673   0.933   5.731 -0.1606  0.3910  1.0800
 4425SOL    HW224912   3.789   0.932   5.634 -0.4916  0.4292  0.5350
 4426SOL     OW24913   2.447   3.493   0.521 -0.2519 -0.2733  0.3408
 4426SOL    HW124914   2.449   3.398   0.531  1.1246 -0.5348 -2.1512
 4426SOL    HW224915   2.530   3.519   0.562 -0.9729  2.9870 -0.2131
 4427SOL     OW24916   0.736   3.438  16.466  0.3170  0.1682  0.2877
 4427SOL    HW124917   0.741   3.532  16.448 -1.4269  0.6747  2.3988
 4427SOL    HW224918   0.653   3.433  16.514 -0.2763 -1.5213 -0.9165
 4428SOL     OW24919   3.256   2.329   6.686 -0.1801 -0.0827 -0.1485
 4428SOL    HW124920   3.210   2.411   6.707 -2.3124 -1.3816  0.2705
 4428SOL    HW224921   3.332   2.337   6.744  1.2992 -0.0269 -2.0851
 4429SOL     OW24922   4.602   4.445  11.135  0.0189 -0.4146  0.4824
 4429SOL    HW124923   4.649   4.376  11.089  0.7784  1.1224 -1.0503
 4429SOL    HW224924   4.583   4.399  11.217 -0.6048 -0.6699  0.1919
 4430SOL     OW24925   0.156   2.042   2.946  0.5373  0.1355 -0.7414
 4430SOL    HW124926   0.123   2.114   2.892 -1.2509  1.3380  1.9204
 4430SOL    HW224927   0.110   2.050   3.030 -0.7416 -0.9140 -1.3469
 4431SOL     OW24928   0.840   2.938  15.705 -0.8792  0.2947  0.2140
 4431SOL    HW124929   0.832   2.980  15.620  0.9001 -0.7657 -0.4799
 4431SOL    HW224930   0.750   2.923  15.733 -1.0075  1.9815  0.6905
 4432SOL     OW24931   1.003   1.876   2.535  0.8638 -0.7208 -0.4285
 4432SOL    HW124932   1.004   1.869   2.630  3.8010  2.5938 -0.2295
 4432SOL    HW224933   1.086   1.839   2.504  2.5352  1.3526  1.6490
 4433SOL     OW24934   3.062   3.814   5.356 -0.5189 -0.8337  0.2489
 4433SOL    HW124935   3.019   3.861   5.285 -1.4102  0.1712  1.4446
 4433SOL    HW224936   3.006   3.839   5.430 -1.6044  1.3271 -1.3083
 4434SOL     OW24937   4.335   2.702  15.417  0.0332  0.0142 -0.6166
 4434SOL    HW124938   4.284   2.637  15.465  1.7692 -1.8024 -1.2304
 4434SOL    HW224939   4.401   2.647  15.374  0.0646  0.2704 -0.8975
 4435SOL     OW24940   4.332   2.642   1.902  0.5777 -1.0635 -0.5472
 4435SOL    HW124941   4.244   2.605   1.907  0.1771  0.0372  0.6794
 4435SOL    HW224942   4.341   2.706   1.973 -0.0464 -2.8927  1.1503
 4436SOL     OW24943   1.439   1.117   8.700 -0.2371 -0.1992  0.1654
 4436SOL    HW124944   1.485   1.184   8.750 -0.6259  1.7038 -2.0392
 4436SOL    HW224945   1.420   1.063   8.777 -0.6014  2.1548  1.7049
 4437SOL     OW24946   1.991   1.949   3.451  0.0855  0.1457  0.2734
 4437SOL    HW124947   1.993   1.874   3.392 -0.2416 -0.9622  1.6727
 4437SOL    HW224948   1.897   1.963   3.453 -0.0500 -0.4968 -1.4075
 4438SOL     OW24949   0.782   1.984  11.476 -0.7318  0.2727  0.3950
 4438SOL    HW124950   0.693   1.957  11.498  0.3157 -2.1432  1.6311
 4438SOL    HW224951   0.838   1.929  11.529  1.1250  0.4875 -1.3414
 4439SOL     OW24952   1.658   0.062   5.741  0.0856  0.1108  0.1396
 4439SOL    HW124953   1.578   0.105   5.770  0.0333  0.1184 -0.0146
 4439SOL    HW224954   1.692   0.016   5.818 -1.1836 -3.0413 -1.1807
 4440SOL     OW24955   1.092   0.756  10.937 -0.2288  0.1336 -0.4533
 4440SOL    HW124956   1.120   0.698  11.007  0.3925 -0.4796 -1.2162
 4440SOL    HW224957   1.154   0.739  10.866 -1.8442  0.7691 -2.0068
 4441SOL     OW24958   2.269   0.564   7.674 -0.5152 -0.6171 -0.1541
 4441SOL    HW124959   2.180   0.560   7.709 -0.2561 -1.1769  0.4413
 4441SOL    HW224960   2.282   0.657   7.652  0.2519 -0.3315  1.5229
 4442SOL     OW24961   0.502   2.690   8.983  0.3018  0.1114 -0.6921
 4442SOL    HW124962   0.417   2.645   8.986  0.7835 -0.8211 -1.0597
 4442SOL    HW224963   0.481   2.782   9.000 -1.5830 -0.2548 -1.0238
 4443SOL     OW24964   2.465   4.338  13.118 -0.1245  0.2299 -0.2193
 4443SOL    HW124965   2.526   4.386  13.062  0.2698 -0.2767 -0.2266
 4443SOL    HW224966   2.381   4.361  13.078 -1.0599 -3.8558 -0.5574
 4444SOL     OW24967   2.907   0.417  13.071  0.2050 -0.1765  0.5047
 4444SOL    HW124968   2.973   0.486  13.083 -0.0387  0.1571 -0.0727
 4444SOL    HW224969   2.909   0.387  13.162 -0.3100 -1.0249  0.2368
 4445SOL     OW24970   1.950   2.338   6.095 -0.8751 -0.1528  0.0671
 4445SOL    HW124971   2.011   2.364   6.026 -0.5804 -1.4544 -0.1670
 4445SOL    HW224972   1.874   2.312   6.042 -0.9756  0.4169 -0.0666
 4446SOL     OW24973   4.527   3.070  15.486 -0.1960 -0.0523 -0.1385
 4446SOL    HW124974   4.444   3.028  15.506  0.3854 -1.9297 -1.6639
 4446SOL    HW224975   4.585   2.994  15.487 -1.1314 -0.7354  0.9568
 4447SOL     OW24976   2.275   1.094   0.232 -0.0908 -0.3395  0.4385
 4447SOL    HW124977   2.262   1.164   0.295 -2.2106  0.8750 -1.3680
 4447SOL    HW224978   2.246   1.021   0.287  0.5598 -1.3759 -0.5826
 4448SOL     OW24979   4.411   2.479  14.221 -0.4670 -0.1747 -0.0820
 4448SOL    HW124980   4.428   2.478  14.127 -0.7778 -1.0678 -0.1343
 4448SOL    HW224981   4.331   2.427  14.221  0.5475 -1.7771  1.7764
 4449SOL     OW24982   4.257   4.389  12.487  0.5928  0.6294 -0.3866
 4449SOL    HW124983   4.244   4.310  12.435  0.6208 -0.6210  1.5023
 4449SOL    HW224984   4.352   4.384  12.488  0.4546 -2.0764 -0.7360
 4450SOL     OW24985   2.506   4.612  14.867 -0.6701  0.2722  0.2062
 4450SOL    HW124986   2.449   4.567  14.805  0.5812 -0.5497 -0.3507
 4450SOL    HW224987   2.576   4.548  14.879 -1.7716 -0.5705  2.0695
 4451SOL     OW24988   1.796   1.801   7.871 -0.4235 -0.1549 -0.0189
 4451SOL    HW124989   1.766   1.734   7.810 -1.5219  0.6627 -0.3749
 4451SOL    HW224990   1.715   1.804   7.922 -0.9673 -0.8883 -0.8457
 4452SOL     OW24991   4.083   4.032   7.677 -0.0491  0.2947 -0.0561
 4452SOL    HW124992   4.062   4.085   7.600  0.8325  2.6446  1.2990
 4452SOL    HW224993   4.009   4.046   7.736  0.8911  1.6202  0.8122
 4453SOL     OW24994   2.612   3.108   7.324 -0.1869 -0.3984 -0.0549
 4453SOL    HW124995   2.524   3.071   7.311 -0.2832 -0.8543  1.8266
 4453SOL    HW224996   2.652   3.073   7.245 -0.0619  0.6305 -0.4473
 4454SOL     OW24997   1.554   3.085   5.036  0.3998 -0.3848  0.5360
 4454SOL    HW124998   1.567   2.991   5.045 -1.1890 -0.6358  0.1852
 4454SOL    HW224999   1.605   3.102   4.957  0.1698  0.0738  0.4805
 4455SOL     OW25000   4.349   0.329   3.019  0.0508  0.2165 -0.1518
 4455SOL    HW125001   4.439   0.298   3.030  0.0121 -0.1994 -0.9562
 4455SOL    HW225002   4.354   0.421   3.046 -1.4786  0.0944  0.5371
 4456SOL     OW25003   0.546   3.671  12.211  0.2524  0.3239 -0.3321
 4456SOL    HW125004   0.600   3.729  12.158 -1.2765  0.7076 -1.4391
 4456SOL    HW225005   0.465   3.721  12.201  1.2858  2.0501 -0.0546
 4457SOL     OW25006   1.047   2.332   6.585 -0.2614 -0.8812 -0.8728
 4457SOL    HW125007   0.988   2.390   6.633 -2.1633 -0.6905 -3.4724
 4457SOL    HW225008   1.001   2.324   6.502 -1.2942 -1.8094 -0.2076
 4458SOL     OW25009   0.502   1.828   4.584 -0.1455 -0.2631 -0.0666
 4458SOL    HW125010   0.541   1.916   4.581  0.0205 -0.3478 -0.3236
 4458SOL    HW225011   0.580   1.777   4.605  1.8082  1.5596 -2.8813
 4459SOL     OW25012   4.417   1.283  10.930  0.1602  0.1815 -0.4075
 4459SOL    HW125013   4.339   1.252  10.977 -0.8914  0.8459 -1.7138
 4459SOL    HW225014   4.385   1.338  10.859 -0.4436 -0.7771 -0.8770
 4460SOL     OW25015   1.909   2.852  16.057 -0.1986  0.0116  0.2979
 4460SOL    HW125016   1.968   2.847  16.132  1.6325  0.1602 -1.1227
 4460SOL    HW225017   1.968   2.815  15.991 -0.4494  0.8964 -0.4270
 4461SOL     OW25018   3.042   3.012   8.515 -0.8339  0.2026 -0.9703
 4461SOL    HW125019   2.964   3.028   8.568 -0.4119 -2.0370  0.3309
 4461SOL    HW225020   3.001   2.945   8.460 -0.9909 -0.9709  0.5803
 4462SOL     OW25021   0.808   0.777  11.001  0.7582 -0.0466  0.4856
 4462SOL    HW125022   0.817   0.708  11.066 -1.0698 -0.2974  0.4840
 4462SOL    HW225023   0.901   0.795  10.984  0.9209 -1.2448  0.1109
 4463SOL     OW25024   1.825   3.127   1.682 -0.0501 -0.2815  0.2839
 4463SOL    HW125025   1.919   3.113   1.674  0.1629  1.8272 -0.9008
 4463SOL    HW225026   1.812   3.159   1.771  0.0727 -0.7118  0.4564
 4464SOL     OW25027   3.591   1.783   4.440 -0.1933 -0.0077  0.0618
 4464SOL    HW125028   3.528   1.715   4.463 -0.1134  0.1520  0.7858
 4464SOL    HW225029   3.645   1.725   4.387 -0.4221  0.0116 -0.1849
 4465SOL     OW25030   0.952   1.410  14.717 -0.4104  0.7448 -0.1910
 4465SOL    HW125031   0.961   1.484  14.658  1.0418  0.5655 -0.1847
 4465SOL    HW225032   1.031   1.357  14.705 -1.7197 -1.3126  0.3008
 4466SOL     OW25033   2.639   2.176   5.029  0.3213 -1.0402 -0.5326
 4466SOL    HW125034   2.727   2.150   5.056  0.4909 -0.7118 -0.7519
 4466SOL    HW225035   2.646   2.129   4.946 -1.3992  1.5660 -2.1872
 4467SOL     OW25036   1.020   3.847   2.640 -0.4831  0.4645 -0.1748
 4467SOL    HW125037   1.022   3.816   2.731  1.9219 -0.4080 -0.5182
 4467SOL    HW225038   1.102   3.809   2.609 -0.0293  1.6496 -0.4485
 4468SOL     OW25039   0.315   4.713   7.381  0.4432  0.3736  0.1415
 4468SOL    HW125040   0.309   4.715   7.476 -0.6405 -0.8463  0.0868
 4468SOL    HW225041   0.372   0.052   7.361  2.1011 -0.9161  0.0858
 4469SOL     OW25042   3.831   3.169   7.224 -0.0179 -0.3978 -0.0146
 4469SOL    HW125043   3.925   3.182   7.240  0.1660  0.6769 -2.0350
 4469SOL    HW225044   3.787   3.185   7.308  0.8229  1.2333  0.1244
 4470SOL     OW25045   2.351   1.777   6.512  0.1717 -0.3549  0.4051
 4470SOL    HW125046   2.398   1.805   6.433 -0.2697  1.7465  0.8899
 4470SOL    HW225047   2.262   1.793   6.480 -0.0116 -0.6377  0.7746
 4471SOL     OW25048   0.017   0.332   4.221 -0.2026  0.3592  0.1148
 4471SOL    HW125049   0.091   0.358   4.276 -1.3001  0.4930  1.5442
 4471SOL    HW225050   4.687   0.396   4.250 -0.6078 -0.8215  1.8156
 4472SOL     OW25051   1.331   3.087   5.596 -0.6351 -0.3006  0.1130
 4472SOL    HW125052   1.371   3.168   5.628 -2.5965  0.7999 -0.2638
 4472SOL    HW225053   1.391   3.027   5.640  0.4385  0.9102  0.3300
 4473SOL     OW25054   1.208   0.319   6.343 -0.1175 -0.0932 -0.1849
 4473SOL    HW125055   1.260   0.398   6.356  2.0432 -1.2621 -1.7608
 4473SOL    HW225056   1.120   0.354   6.355 -0.3329 -0.2873 -1.2074
 4474SOL     OW25057   3.836   3.341   2.873  0.2163  0.1267  0.1506
 4474SOL    HW125058   3.854   3.249   2.852  0.2379  0.5084 -1.5267
 4474SOL    HW225059   3.742   3.340   2.855 -0.2891  0.0153  2.7822
 4475SOL     OW25060   3.382   0.584   5.024  0.3123 -0.3285  0.8204
 4475SOL    HW125061   3.389   0.575   4.929 -2.4388 -0.6680  0.6474
 4475SOL    HW225062   3.473   0.606   5.044  0.0292  0.4956  1.2244
 4476SOL     OW25063   4.008   3.137   2.076 -0.1125 -0.0738  0.3356
 4476SOL    HW125064   4.052   3.062   2.115 -0.2431 -0.3064  0.0305
 4476SOL    HW225065   3.946   3.096   2.016  2.3598 -2.7229 -0.4088
 4477SOL     OW25066   1.969   2.869  17.237 -0.2271 -0.3258 -0.4794
 4477SOL    HW125067   1.901   2.851  17.173  1.1639  0.9878 -2.3477
 4477SOL    HW225068   1.930   2.821  17.310 -1.1134 -0.8678 -1.3106
 4478SOL     OW25069   3.232   2.222   7.549 -0.0806 -0.2566  0.1304
 4478SOL    HW125070   3.198   2.285   7.485  0.3393  0.9409  1.0946
 4478SOL    HW225071   3.155   2.172   7.575 -0.1169  0.1589  0.8163
 4479SOL     OW25072   2.078   4.551  17.593  0.0130 -0.1853  0.3093
 4479SOL    HW125073   2.094   4.638  17.556 -0.2387  0.5856  2.0294
 4479SOL    HW225074   1.991   4.563  17.631 -0.5934 -0.2577 -1.0831
 4480SOL     OW25075   0.351   2.210   7.378  0.0315 -0.7591 -0.8787
 4480SOL    HW125076   0.373   2.230   7.287 -0.0147 -2.5698 -1.2943
 4480SOL    HW225077   0.397   2.128   7.397 -0.7149 -0.9453  0.1949
 4481SOL     OW25078   1.101   3.704   0.744 -0.3934 -0.5259 -0.2246
 4481SOL    HW125079   1.194   3.680   0.754  0.5720  2.4983 -1.9382
 4481SOL    HW225080   1.065   3.647   0.812  1.3197 -1.5319 -0.1461
 4482SOL     OW25081   3.880   1.633   0.624 -0.5174  0.2543  0.5032
 4482SOL    HW125082   3.900   1.644   0.531  0.0568 -1.2357  0.4514
 4482SOL    HW225083   3.938   1.703   0.655 -0.1105  0.7653 -1.3646
 4483SOL     OW25084   0.146   3.533   9.015 -0.4075  0.3200  0.2918
 4483SOL    HW125085   0.186   3.511   8.930 -0.6228  0.6773  0.0961
 4483SOL    HW225086   0.060   3.550   8.977 -0.4610  0.0869  0.3073
 4484SOL     OW25087   3.446   0.931   7.618  0.0929 -0.4528 -0.3681
 4484SOL    HW125088   3.422   0.861   7.678 -0.2530 -0.2042 -0.2134
 4484SOL    HW225089   3.523   0.974   7.655 -2.0922  1.6707  1.7638
 4485SOL     OW25090   0.597   4.136   3.697 -0.1233  0.0336  0.3451
 4485SOL    HW125091   0.645   4.055   3.680  0.6467  0.4388  0.5875
 4485SOL    HW225092   0.629   4.196   3.630  0.2283  0.8913  1.2887
 4486SOL     OW25093   3.037   4.224   8.477 -0.1027 -0.3396  0.4177
 4486SOL    HW125094   3.097   4.167   8.431 -0.9788 -0.5646 -0.4430
 4486SOL    HW225095   2.986   4.160   8.527 -2.3430 -0.1401 -1.6285
 4487SOL     OW25096   3.113   0.983   8.282 -0.2400 -0.2001  0.4543
 4487SOL    HW125097   3.192   1.036   8.291  0.1530 -0.8922  1.0829
 4487SOL    HW225098   3.128   0.919   8.353  1.5189 -1.4068 -1.0212
 4488SOL     OW25099   0.874   3.976   8.118  0.2182 -0.3512  0.6404
 4488SOL    HW125100   0.788   3.980   8.077 -0.4465 -3.0112  1.7944
 4488SOL    HW225101   0.912   3.913   8.057  0.8007  0.0970  0.5397
 4489SOL     OW25102   4.136   0.934   7.932  0.1047  0.3447 -0.0033
 4489SOL    HW125103   4.114   1.026   7.945  1.8236  0.7435  0.1785
 4489SOL    HW225104   4.112   0.894   8.015  1.1348  1.0537  0.6363
 4490SOL     OW25105   2.136   0.152  11.808 -0.1244  0.0611  0.1717
 4490SOL    HW125106   2.053   0.142  11.763 -0.6659 -0.8074  1.3468
 4490SOL    HW225107   2.166   0.061  11.810  0.1389  0.1270 -1.0694
 4491SOL     OW25108   4.423   0.511   2.394  0.0504 -0.2172  0.5909
 4491SOL    HW125109   4.496   0.545   2.445  0.5033 -3.6163  2.2142
 4491SOL    HW225110   4.461   0.456   2.326 -0.6266 -0.0984  0.1176
 4492SOL     OW25111   0.309   4.535   5.986 -0.1224 -0.0739  0.2277
 4492SOL    HW125112   0.365   4.611   5.972  1.0341 -0.9693  0.0235
 4492SOL    HW225113   0.233   4.580   6.024 -0.2897 -0.9740  0.9747
 4493SOL     OW25114   1.853   1.468   2.186  0.1757  0.1851 -0.2760
 4493SOL    HW125115   1.945   1.483   2.208  0.5969 -0.3899 -1.6258
 4493SOL    HW225116   1.841   1.376   2.209 -0.3714 -0.1105 -1.7393
 4494SOL     OW25117   2.516   0.890  16.049 -0.2567 -0.2226 -0.1275
 4494SOL    HW125118   2.432   0.855  16.080 -0.3137  0.3428  0.3726
 4494SOL    HW225119   2.578   0.832  16.092 -2.9262 -4.0928 -1.4934
 4495SOL     OW25120   4.333   3.727   3.068 -0.3464  0.2321 -0.3519
 4495SOL    HW125121   4.403   3.747   3.006 -0.1095  1.2295  0.2318
 4495SOL    HW225122   4.285   3.810   3.060 -0.0351  0.6559  2.0769
 4496SOL     OW25123   1.282   4.679   0.963 -0.2308 -0.0402 -0.5888
 4496SOL    HW125124   1.304   4.636   1.046 -1.3200 -1.1042 -0.8564
 4496SOL    HW225125   1.207   4.628   0.933  0.2485 -0.5663 -0.8872
 4497SOL     OW25126   2.637   2.312   5.378  0.2226 -0.6154  0.0651
 4497SOL    HW125127   2.668   2.225   5.402  1.3937 -0.2487 -0.1452
 4497SOL    HW225128   2.564   2.319   5.439  0.6729  0.3291  0.4794
 4498SOL     OW25129   4.624   1.150   4.401  0.2168  0.6008 -0.3821
 4498SOL    HW125130   4.666   1.225   4.359  0.8853 -0.1750 -1.0920
 4498SOL    HW225131   4.591   1.197   4.478 -0.7592 -0.4293 -0.1704
 4499SOL     OW25132   3.687   0.062   2.898 -0.1621  0.5908 -0.0234
 4499SOL    HW125133   3.693   0.118   2.820  3.3792  1.9526  1.2307
 4499SOL    HW225134   3.680   0.129   2.965 -1.7843  2.4177 -1.9863
 4500SOL     OW25135   2.403   4.532   6.653  0.2516 -0.0209  0.0871
 4500SOL    HW125136   2.318   4.567   6.625  0.1570  0.3326  0.7991
 4500SOL    HW225137   2.371   4.449   6.688 -2.5835 -0.5633 -3.8093
 4501SOL     OW25138   3.378   1.189   7.569  0.5322 -0.7590 -0.0622
 4501SOL    HW125139   3.406   1.100   7.590  1.4853 -0.1443  1.2708
 4501SOL    HW225140   3.467   1.223   7.557  1.4467 -3.1639 -0.1478
 4502SOL     OW25141   0.636   3.990   5.058  0.0663 -0.5939 -0.1006
 4502SOL    HW125142   0.545   4.020   5.061 -0.0271 -0.7204 -1.8229
 4502SOL    HW225143   0.621   3.897   5.042 -1.6696 -0.5314  1.1029
 4503SOL     OW25144   2.198   4.210   9.267  0.9813 -0.5049 -0.6168
 4503SOL    HW125145   2.132   4.251   9.322 -1.0973 -1.1890 -2.5753
 4503SOL    HW225146   2.275   4.198   9.322  1.0447 -2.4548 -1.1252
 4504SOL     OW25147   4.341   3.246   3.316  0.5158 -0.2034 -0.4739
 4504SOL    HW125148   4.378   3.283   3.236 -0.8388  0.6657 -0.7138
 4504SOL    HW225149   4.264   3.301   3.331  2.3108  2.2137 -0.1186
 4505SOL     OW25150   2.406   4.087   2.359 -0.1476 -0.3761  0.1962
 4505SOL    HW125151   2.476   4.030   2.392  0.6034 -0.7584 -2.0113
 4505SOL    HW225152   2.386   4.136   2.439  0.2490 -0.6025  0.4376
 4506SOL     OW25153   4.686   0.007   7.530  0.3520  0.1769 -0.1286
 4506SOL    HW125154   4.732   0.033   7.450 -0.2136 -1.9396 -1.1640
 4506SOL    HW225155   4.726   0.071   7.589  3.2695 -1.3946 -0.3965
 4507SOL     OW25156   0.757   2.040   5.513  0.0870 -0.1511 -0.0420
 4507SOL    HW125157   0.791   1.959   5.550 -0.9904  0.1324  1.5502
 4507SOL    HW225158   0.729   2.017   5.424 -0.2566 -1.7091  0.4599
 4508SOL     OW25159   3.704   4.411   7.213  0.2338  0.0482  0.2199
 4508SOL    HW125160   3.722   4.445   7.301  3.1660  1.8526 -1.0880
 4508SOL    HW225161   3.610   4.392   7.215  0.5737 -1.5164  1.4250
 4509SOL     OW25162   1.928   0.305   1.844  0.5324  0.0685  0.3552
 4509SOL    HW125163   1.854   0.314   1.785  0.2278  2.8804  1.1472
 4509SOL    HW225164   1.952   0.394   1.871 -0.7439  0.5820 -0.2377
 4510SOL     OW25165   2.735   1.098   3.521  0.4594 -0.4424 -0.9002
 4510SOL    HW125166   2.668   1.066   3.582 -0.3137 -1.5451 -2.3331
 4510SOL    HW225167   2.693   1.178   3.488 -0.4491 -0.7426 -0.4686
 4511SOL     OW25168   3.491   3.928  11.119  0.1519 -0.2991 -0.2060
 4511SOL    HW125169   3.490   3.901  11.211 -1.0285 -0.1426 -0.1706
 4511SOL    HW225170   3.463   3.845  11.079  2.2543 -0.3544 -1.5696
 4512SOL     OW25171   1.653   4.363   5.488  0.0781 -0.6949 -0.0089
 4512SOL    HW125172   1.605   4.288   5.452 -1.5972 -0.2086  1.2410
 4512SOL    HW225173   1.587   4.427   5.512  0.5915  0.8292 -2.6803
 4513SOL     OW25174   2.290   4.648   7.245  0.5202  0.4163 -0.4145
 4513SOL    HW125175   2.242   4.638   7.163 -1.2932  0.0433  0.6973
 4513SOL    HW225176   2.232   4.616   7.314  2.7831 -0.3813  1.1159
 4514SOL     OW25177   2.478   3.781   4.395 -0.0900  0.4016 -0.1502
 4514SOL    HW125178   2.495   3.758   4.487 -0.2492  0.4486 -0.1094
 4514SOL    HW225179   2.522   3.865   4.385 -1.3642  1.1368  0.4361
 4515SOL     OW25180   4.243   3.297   6.583 -0.2020  0.6844 -0.0929
 4515SOL    HW125181   4.155   3.278   6.614 -1.1061  1.1269 -2.3867
 4515SOL    HW225182   4.288   3.225   6.628 -2.6874 -0.8022 -0.0017
 4516SOL     OW25183   2.714   2.888  12.394  0.3844 -0.1137  0.4823
 4516SOL    HW125184   2.761   2.910  12.474  2.5797  1.0259 -1.1311
 4516SOL    HW225185   2.716   2.964  12.336 -2.2961  0.8979  1.6773
 4517SOL     OW25186   3.093   1.657   3.543  0.3998  0.3200 -0.6574
 4517SOL    HW125187   3.127   1.737   3.582 -0.8911  0.3571  0.3868
 4517SOL    HW225188   3.161   1.652   3.475  2.1046 -0.5735  1.1158
 4518SOL     OW25189   1.276   2.587   7.516 -0.0124  0.2072 -0.2466
 4518SOL    HW125190   1.355   2.631   7.485  0.5708  0.3694  1.4832
 4518SOL    HW225191   1.267   2.506   7.467  0.5198 -0.3378  0.5519
 4519SOL     OW25192   4.437   0.413   3.599  0.2374 -0.0982 -0.5326
 4519SOL    HW125193   4.380   0.430   3.674 -0.9207  0.2493 -1.4792
 4519SOL    HW225194   4.503   0.482   3.607 -0.6551  0.3232  3.0672
 4520SOL     OW25195   0.962   2.015   6.638 -0.3306 -0.3250 -0.6188
 4520SOL    HW125196   0.965   2.101   6.596  2.5459 -0.0327  0.1805
 4520SOL    HW225197   0.868   2.000   6.641 -0.6965  2.2569  0.6537
 4521SOL     OW25198   3.632   0.866   3.017  0.2784  0.6511 -0.2631
 4521SOL    HW125199   3.622   0.928   2.945 -1.9948 -2.3088 -2.5035
 4521SOL    HW225200   3.542   0.879   3.047  1.0550  0.9016  1.9376
 4522SOL     OW25201   0.725   2.667   4.022  0.0177  0.1499  0.3728
 4522SOL    HW125202   0.643   2.693   4.062  0.9880  2.5927  0.7984
 4522SOL    HW225203   0.723   2.577   4.055  0.7510  0.2842  0.7898
 4523SOL     OW25204   3.186   3.114   5.511 -0.2707 -0.1967  0.6537
 4523SOL    HW125205   3.168   3.029   5.551  0.5069 -1.1014 -0.9187
 4523SOL    HW225206   3.206   3.099   5.418  0.2326  3.1942  0.2029
 4524SOL     OW25207   2.785   3.331   6.928  0.3639 -0.1420  0.1592
 4524SOL    HW125208   2.793   3.268   7.000 -0.8302 -3.8334 -2.9685
 4524SOL    HW225209   2.870   3.374   6.940  0.0347  0.4701  0.2819
 4525SOL     OW25210   0.645   0.498   5.959 -0.3944  0.2843  0.3209
 4525SOL    HW125211   0.650   0.403   5.946  0.7253  0.0022  2.7667
 4525SOL    HW225212   0.730   0.519   5.998 -0.9596  2.6068  0.2672
 4526SOL     OW25213   1.390   1.951   6.183  0.1529 -0.2331  0.3804
 4526SOL    HW125214   1.485   1.964   6.181 -0.5002  4.4771 -0.0499
 4526SOL    HW225215   1.387   1.924   6.275  0.5202 -1.5673  0.0028
 4527SOL     OW25216   2.908   2.640   2.236  0.2071  0.2768  0.2936
 4527SOL    HW125217   2.929   2.631   2.143  3.0215  2.2345  0.7301
 4527SOL    HW225218   2.986   2.685   2.269 -0.2876 -0.3026  2.2446
 4528SOL     OW25219   2.825   2.952  10.410  0.1710  0.0901  0.1492
 4528SOL    HW125220   2.792   2.873  10.454  0.9352 -0.3507 -0.0626
 4528SOL    HW225221   2.753   2.973  10.351 -0.6656 -2.6049  0.2072
 4529SOL     OW25222   1.975   1.855   4.818  0.0504 -0.1758  0.3549
 4529SOL    HW125223   1.894   1.883   4.777 -0.4951 -1.2159  0.7303
 4529SOL    HW225224   2.029   1.833   4.742 -1.9379  1.7884 -1.6177
 4530SOL     OW25225   1.794   3.322   7.118 -0.2950 -0.0800  0.7325
 4530SOL    HW125226   1.742   3.243   7.100  1.1128 -1.1496  1.3679
 4530SOL    HW225227   1.775   3.377   7.042  1.9260 -1.1381 -0.6008
 4531SOL     OW25228   1.777   4.369   1.554  0.1754  0.0231 -0.1648
 4531SOL    HW125229   1.809   4.339   1.469 -0.0842  1.0815 -0.6350
 4531SOL    HW225230   1.741   4.286   1.585  0.0112  0.1157 -0.1098
 4532SOL     OW25231   4.334   0.297   6.306  0.5636  0.0354  0.3862
 4532SOL    HW125232   4.270   0.350   6.355 -1.6161  0.0817 -2.4942
 4532SOL    HW225233   4.363   0.363   6.243  1.8962 -0.8719  0.0494
 4533SOL     OW25234   1.645   3.931  15.891 -0.0707  0.1718 -0.4486
 4533SOL    HW125235   1.702   3.909  15.817 -0.5421 -2.9821  0.1503
 4533SOL    HW225236   1.581   3.996  15.861 -0.9037 -1.8286 -2.9359
 4534SOL     OW25237   0.502   4.655  13.204  0.0388  0.2215  0.6171
 4534SOL    HW125238   0.547   0.001  13.181  1.6241 -0.6225  0.7528
 4534SOL    HW225239   0.576   4.604  13.236 -0.6544 -1.3315 -0.2659
 4535SOL     OW25240   0.704   3.278  10.191  0.0924  0.1684  0.2681
 4535SOL    HW125241   0.675   3.192  10.160 -0.7411  0.1533  1.1076
 4535SOL    HW225242   0.789   3.249  10.224  0.5313 -0.7502 -1.5952
 4536SOL     OW25243   1.852   2.101  11.459 -0.3169  0.1791 -0.3707
 4536SOL    HW125244   1.838   2.086  11.552  0.3518 -1.7253 -0.5704
 4536SOL    HW225245   1.882   2.014  11.431  0.3897  0.1048  0.6547
 4537SOL     OW25246   1.136   0.594  11.135  0.6741  0.2289 -0.5029
 4537SOL    HW125247   1.042   0.581  11.127  0.2028  2.8959  0.6637
 4537SOL    HW225248   1.161   0.504  11.153 -0.9776  0.3153  2.2121
 4538SOL     OW25249   2.527   3.536   3.207  0.3960  0.0706 -0.7468
 4538SOL    HW125250   2.604   3.559   3.156  0.9678  0.7904  0.4325
 4538SOL    HW225251   2.519   3.441   3.200  0.2366 -0.0413  0.8178
 4539SOL     OW25252   1.935   1.573   3.883 -0.1224  0.1323  0.5017
 4539SOL    HW125253   1.860   1.591   3.827  1.8405  0.7028 -1.9571
 4539SOL    HW225254   1.994   1.646   3.866  0.5405 -0.2299  1.2376
 4540SOL     OW25255   1.961   0.491   5.168 -0.0266 -0.1036  0.1484
 4540SOL    HW125256   1.955   0.401   5.199  0.3862  0.1177  0.8704
 4540SOL    HW225257   1.869   0.518   5.169 -0.1233 -0.4109 -0.4003
 4541SOL     OW25258   1.169   0.150   4.523  0.4065 -0.6014 -0.1228
 4541SOL    HW125259   1.111   0.106   4.585  0.5904  0.6266  0.9143
 4541SOL    HW225260   1.141   0.114   4.439  0.2408  3.0949 -1.6366
 4542SOL     OW25261   0.467   4.559   7.972 -0.1843 -0.1635  0.4661
 4542SOL    HW125262   0.393   4.608   8.011 -1.6646 -0.7375 -1.6277
 4542SOL    HW225263   0.526   4.532   8.042  0.6977  1.7006  0.4334
 4543SOL     OW25264   3.087   4.394   9.323  0.2522 -0.0618  0.1661
 4543SOL    HW125265   3.013   4.352   9.365  1.8767 -3.3462 -0.2875
 4543SOL    HW225266   3.157   4.353   9.374  0.7393  0.3188 -0.1949
 4544SOL     OW25267   3.590   0.846  11.855 -0.5960 -0.4103  0.2237
 4544SOL    HW125268   3.552   0.869  11.770  0.9658  0.7825 -0.1466
 4544SOL    HW225269   3.512   0.849  11.910  0.2352 -2.4726  1.5344
 4545SOL     OW25270   0.146   2.184  14.775 -0.0491  0.0788 -0.1360
 4545SOL    HW125271   0.107   2.101  14.802  1.0422  0.0539  1.4018
 4545SOL    HW225272   0.067   2.237  14.772 -1.2725 -1.5233  3.6074
 4546SOL     OW25273   0.103   0.921  13.506 -0.2382  0.1198 -0.6401
 4546SOL    HW125274   0.181   0.951  13.553  1.2732 -2.2373 -1.6284
 4546SOL    HW225275   0.145   0.877  13.432  0.4702 -0.2095 -0.0468
 4547SOL     OW25276   4.130   4.611   3.596 -0.4541  0.2061 -0.3232
 4547SOL    HW125277   4.209   4.557   3.598  0.0241  0.9428  0.4282
 4547SOL    HW225278   4.153   4.681   3.534  0.8784  1.1566  1.2375
 4548SOL     OW25279   0.448   1.611  15.687 -0.5391  0.7831  0.3899
 4548SOL    HW125280   0.488   1.693  15.656 -0.9590  0.6948 -0.3853
 4548SOL    HW225281   0.355   1.632  15.676  0.1653  2.1128 -3.2308
 4549SOL     OW25282   1.156   2.263   6.041  0.2285 -0.5289  0.3633
 4549SOL    HW125283   1.128   2.254   5.951 -0.8150 -0.2573  0.6610
 4549SOL    HW225284   1.149   2.356   6.061  2.5760 -0.5926  1.5343
 4550SOL     OW25285   4.712   2.304   2.378  0.6273 -0.0744 -0.2255
 4550SOL    HW125286   4.616   2.305   2.378  0.6175 -1.0386 -1.4981
 4550SOL    HW225287   0.007   2.374   2.321  1.6709 -0.7680 -0.5072
 4551SOL     OW25288   1.312   0.137  12.295  0.1581  0.0832 -0.0285
 4551SOL    HW125289   1.313   0.095  12.209 -4.3493 -0.0723  0.0306
 4551SOL    HW225290   1.240   0.085  12.328 -0.7556  0.9691 -0.6239
 4552SOL     OW25291   2.306   4.253  16.630 -0.0680  0.2217  0.3951
 4552SOL    HW125292   2.326   4.288  16.544  0.2393 -0.8346  0.0391
 4552SOL    HW225293   2.347   4.316  16.689 -1.6799  0.5018  1.2290
 4553SOL     OW25294   0.057   1.181  10.564 -0.7529  0.2150  0.4172
 4553SOL    HW125295   4.724   1.115  10.557 -0.4399 -0.1270  0.5810
 4553SOL    HW225296   0.103   1.144  10.640 -1.9514 -0.8942  0.6011
 4554SOL     OW25297   3.897   1.563   3.501 -0.1476 -0.2704 -0.4564
 4554SOL    HW125298   3.951   1.608   3.435  3.8420 -1.9570  1.7186
 4554SOL    HW225299   3.809   1.566   3.462  0.1847 -1.0738 -1.2910
 4555SOL     OW25300   1.129   0.593   8.610  0.2429  0.3189  0.5627
 4555SOL    HW125301   1.096   0.584   8.699  2.3820  1.6404  1.4984
 4555SOL    HW225302   1.047   0.553   8.582  0.9808 -1.0514  0.3392
 4556SOL     OW25303   1.792   0.181  11.082 -0.2738 -0.4468 -0.2648
 4556SOL    HW125304   1.764   0.166  11.173 -2.3454  0.9604 -0.6660
 4556SOL    HW225305   1.760   0.102  11.037 -1.1889 -0.8283  1.0431
 4557SOL     OW25306   0.371   0.804   3.005  0.0213 -0.2388 -0.0092
 4557SOL    HW125307   0.397   0.722   2.964 -1.2719 -0.6213 -0.0728
 4557SOL    HW225308   0.429   0.812   3.081 -1.9467  0.5924  1.4284
 4558SOL     OW25309   4.282   4.589   6.617  0.3943 -0.6083 -0.3806
 4558SOL    HW125310   4.324   4.675   6.627  1.4749 -1.3339  1.2407
 4558SOL    HW225311   4.310   4.540   6.694  1.9331 -0.9262 -1.1503
 4559SOL     OW25312   1.324   0.048   3.220 -0.7669 -0.3425  0.1801
 4559SOL    HW125313   1.383   4.708   3.223  0.5861  0.6501 -1.0153
 4559SOL    HW225314   1.242   0.001   3.230 -0.2923 -1.3924 -0.7373
 4560SOL     OW25315   1.306   1.750  10.953  0.3365  0.5699  0.6420
 4560SOL    HW125316   1.288   1.736  11.046 -0.8607 -0.3411  0.2830
 4560SOL    HW225317   1.299   1.845  10.954 -0.8628  0.4580  2.8247
 4561SOL     OW25318   4.729   0.953   3.084 -0.3341  0.4131  0.4455
 4561SOL    HW125319   4.706   1.013   3.155  0.6737  1.1104  0.1888
 4561SOL    HW225320   4.693   0.998   3.007  0.7291 -0.8450 -0.7839
 4562SOL     OW25321   1.978   3.979   5.454  0.4407  0.4557 -0.2729
 4562SOL    HW125322   1.908   4.024   5.502 -0.8618 -2.1658  0.3058
 4562SOL    HW225323   1.991   3.921   5.529 -3.3161 -0.5888 -0.4066
 4563SOL     OW25324   0.457   4.523   2.653  0.0827 -0.5184  0.2870
 4563SOL    HW125325   0.523   4.494   2.717  0.8855 -3.5770 -1.9461
 4563SOL    HW225326   0.499   4.595   2.606  0.4833 -0.8787  0.0916
 4564SOL     OW25327   3.050   0.550   6.534  0.6019  0.2812 -0.5721
 4564SOL    HW125328   3.144   0.566   6.534  0.3721  1.4703  2.7010
 4564SOL    HW225329   3.026   0.568   6.443 -1.3821 -0.4710 -0.1979
 4565SOL     OW25330   2.850   0.543   4.965 -0.8098 -0.1128  0.1204
 4565SOL    HW125331   2.781   0.508   5.021 -0.3424 -0.3686  0.5296
 4565SOL    HW225332   2.829   0.637   4.961  2.1581  0.5422  0.5977
 4566SOL     OW25333   1.310   1.187   2.185 -0.3289  0.0811  0.7436
 4566SOL    HW125334   1.341   1.123   2.250  0.3921 -0.2367  0.0857
 4566SOL    HW225335   1.388   1.240   2.171 -1.4473  1.5152 -0.0452
 4567SOL     OW25336   3.529   2.463   2.360 -0.0564  0.2242 -0.6481
 4567SOL    HW125337   3.520   2.559   2.358 -1.8145  0.0557 -0.8060
 4567SOL    HW225338   3.617   2.437   2.334  0.3157  1.3643 -0.5213
 4568SOL     OW25339   4.312   0.005   3.148 -0.6934  0.4985  0.2539
 4568SOL    HW125340   4.288   4.715   3.059 -0.0759 -0.3207  0.3200
 4568SOL    HW225341   4.395   0.049   3.131 -0.5325 -0.2469 -0.9204
 4569SOL     OW25342   3.999   3.434   9.254 -0.1013 -0.2671  0.1419
 4569SOL    HW125343   4.034   3.484   9.181 -2.1504  0.2056 -0.5181
 4569SOL    HW225344   4.060   3.473   9.317 -0.5445  0.6298  0.0120
 4570SOL     OW25345   3.070   1.273   2.752  0.6526  0.2643 -0.1837
 4570SOL    HW125346   3.007   1.201   2.739 -0.2396  1.0253 -0.0731
 4570SOL    HW225347   3.080   1.311   2.665  0.4238 -1.2550 -0.8879
 4571SOL     OW25348   4.330   2.948  12.084 -0.5617  0.4142  0.3830
 4571SOL    HW125349   4.323   3.022  12.145  0.4712 -1.0050  2.2472
 4571SOL    HW225350   4.385   2.885  12.132 -1.2107 -1.3208 -1.1447
 4572SOL     OW25351   4.580   2.924  16.897  0.0201 -0.4782  0.0425
 4572SOL    HW125352   4.561   2.864  16.824 -1.8131 -0.6710  0.6688
 4572SOL    HW225353   4.492   2.940  16.930  0.6423 -1.0281  2.0005
 4573SOL     OW25354   0.907   1.741   1.438  0.3239 -0.6147 -0.0684
 4573SOL    HW125355   0.988   1.756   1.487 -0.9696 -0.5356  2.0111
 4573SOL    HW225356   0.917   1.647   1.420  0.4295 -0.4910 -0.6622
 4574SOL     OW25357   0.691   2.237   2.207  0.5330  0.2933  0.2071
 4574SOL    HW125358   0.699   2.256   2.113 -0.7302 -0.8271 -0.1365
 4574SOL    HW225359   0.746   2.158   2.208 -0.5888 -0.5055 -0.3029
 4575SOL     OW25360   3.892   3.653   7.043 -0.0054  0.6600 -0.3108
 4575SOL    HW125361   3.816   3.629   6.989 -0.1033 -0.6675  0.4257
 4575SOL    HW225362   3.904   3.576   7.098  0.1511  1.4453  0.7523
 4576SOL     OW25363   1.461   4.384   3.931 -0.6617  0.2394 -0.2988
 4576SOL    HW125364   1.395   4.388   3.862  2.7538  3.2670 -3.3815
 4576SOL    HW225365   1.453   4.478   3.950 -0.7281  0.6983 -2.5188
 4577SOL     OW25366   1.598   0.959  16.786 -0.2723  0.2403 -0.4310
 4577SOL    HW125367   1.541   1.035  16.799 -0.0134  0.3629 -0.0266
 4577SOL    HW225368   1.628   0.977  16.697  1.1870 -1.7229 -0.3143
 4578SOL     OW25369   3.988   0.434   5.514  0.2544 -0.1193  0.3076
 4578SOL    HW125370   4.042   0.379   5.570  0.7250 -1.6795 -1.7011
 4578SOL    HW225371   3.906   0.435   5.563 -1.1618 -1.6072 -2.0040
 4579SOL     OW25372   2.259   3.570  15.152 -0.6035 -0.2487  0.8235
 4579SOL    HW125373   2.350   3.565  15.122 -0.9478  0.6107 -0.3270
 4579SOL    HW225374   2.223   3.482  15.144 -1.9991  0.3548  0.5897
 4580SOL     OW25375   0.920   1.608   1.774 -0.3741 -0.4221 -0.0604
 4580SOL    HW125376   0.921   1.518   1.805  1.6971 -0.2617  0.3500
 4580SOL    HW225377   0.966   1.599   1.691  0.4142 -0.1814  0.3487
 4581SOL     OW25378   3.460   0.844   2.045 -0.0888 -0.3678  0.2378
 4581SOL    HW125379   3.487   0.833   1.954 -0.4222 -0.7198  0.1800
 4581SOL    HW225380   3.369   0.816   2.035 -0.6035  2.1203 -1.9413
 4582SOL     OW25381   1.650   2.343   3.514 -0.3381 -0.6059  0.0984
 4582SOL    HW125382   1.704   2.274   3.552 -0.1404 -0.2137  0.5195
 4582SOL    HW225383   1.572   2.333   3.568  1.1009  2.7932  2.7564
 4583SOL     OW25384   0.109   3.264   2.565  0.0001 -0.1568 -0.5874
 4583SOL    HW125385   0.032   3.299   2.519 -0.3670 -0.5936 -0.3054
 4583SOL    HW225386   0.109   3.171   2.546  0.7470 -0.5700  1.5215
 4584SOL     OW25387   2.729   2.177   7.346  0.1763 -0.1794  0.2906
 4584SOL    HW125388   2.700   2.133   7.426  0.0885  0.4520  0.6076
 4584SOL    HW225389   2.782   2.244   7.390  0.2667  0.5415 -0.8987
 4585SOL     OW25390   0.129   2.679   0.943  0.1480 -0.0318 -0.2067
 4585SOL    HW125391   0.049   2.731   0.950 -0.2819 -0.9911  2.1040
 4585SOL    HW225392   0.197   2.745   0.927 -1.0389  1.3872  0.6455
 4586SOL     OW25393   1.899   2.253   5.053 -0.1979 -0.0397  0.4461
 4586SOL    HW125394   1.931   2.340   5.029 -0.2360  0.3784  1.9684
 4586SOL    HW225395   1.821   2.271   5.104 -0.6464  2.7363 -1.1833
 4587SOL     OW25396   2.859   3.695   4.738  0.4959 -0.3565 -0.0396
 4587SOL    HW125397   2.846   3.743   4.820 -1.8712 -0.6948 -0.2272
 4587SOL    HW225398   2.820   3.608   4.746  0.4413 -0.4600 -1.5269
 4588SOL     OW25399   0.658   2.282   3.781 -0.5861 -0.2945 -0.0980
 4588SOL    HW125400   0.685   2.370   3.805  2.8326 -0.4370 -3.3851
 4588SOL    HW225401   0.600   2.260   3.854 -0.0910  0.9814  0.6840
 4589SOL     OW25402   2.226   1.226  17.219 -0.2886  0.0294 -0.4579
 4589SOL    HW125403   2.189   1.284  17.153  0.7465 -0.1370 -1.1862
 4589SOL    HW225404   2.254   1.295  17.280 -0.8563 -0.9994  0.9638
 4590SOL     OW25405   4.060   4.286   7.199 -0.3796 -0.2011 -0.6242
 4590SOL    HW125406   4.080   4.193   7.201  2.7141  0.5346  1.6498
 4590SOL    HW225407   4.006   4.288   7.278  0.2034  1.0609 -0.2638
 4591SOL     OW25408   3.960   1.911   3.075  0.0381 -0.0371 -0.6498
 4591SOL    HW125409   4.006   1.972   3.017 -0.1324  1.5521  0.8895
 4591SOL    HW225410   3.916   1.847   3.018 -0.9639 -0.9825  1.1938
 4592SOL     OW25411   2.443   2.931  16.474  0.2239 -0.3973 -0.1095
 4592SOL    HW125412   2.358   2.969  16.496 -0.1739 -0.4930 -1.4381
 4592SOL    HW225413   2.416   2.867  16.407 -0.5940 -2.5525  2.2794
 4593SOL     OW25414   0.600   3.641   8.690  0.1002 -0.0262  0.3065
 4593SOL    HW125415   0.656   3.601   8.757  0.2108  0.8356  0.7390
 4593SOL    HW225416   0.561   3.561   8.656  0.6698  0.1014 -0.6406
 4594SOL     OW25417   0.997   2.311  15.479  0.2845 -0.8754 -0.2319
 4594SOL    HW125418   1.025   2.400  15.462 -3.0007  0.0273 -0.9790
 4594SOL    HW225419   0.903   2.305  15.459  0.4070 -0.3763 -0.9548
 4595SOL     OW25420   3.259   4.006  13.798  0.1942 -0.1259  0.5851
 4595SOL    HW125421   3.188   3.959  13.841 -0.5240 -2.0018 -2.6118
 4595SOL    HW225422   3.287   3.941  13.734 -1.4399 -0.2918  0.0533
 4596SOL     OW25423   1.566   1.476   5.334  0.5842  0.4618  0.0463
 4596SOL    HW125424   1.642   1.490   5.391  0.1051  0.0143  0.7925
 4596SOL    HW225425   1.542   1.383   5.341  0.3512  0.5286  0.1256
 4597SOL     OW25426   4.451   2.253   2.348 -0.0286 -0.5753  0.2984
 4597SOL    HW125427   4.392   2.220   2.416  1.1032 -0.8806  1.1414
 4597SOL    HW225428   4.386   2.243   2.278 -1.7417  2.9688  1.4199
 4598SOL     OW25429   3.338   3.560   5.676  0.1423 -0.0248  0.0861
 4598SOL    HW125430   3.322   3.467   5.692  0.3077  0.2637  1.9026
 4598SOL    HW225431   3.248   3.590   5.661  0.3653  0.6374  0.0938
 4599SOL     OW25432   4.193   2.730   1.457  0.0338 -0.0487 -0.3492
 4599SOL    HW125433   4.271   2.724   1.402  1.0645 -1.1678  1.2581
 4599SOL    HW225434   4.173   2.823   1.442 -1.0197 -0.0241  1.1748
 4600SOL     OW25435   1.763   3.213   1.431  0.7666 -0.4438 -0.3903
 4600SOL    HW125436   1.801   3.201   1.518  3.8260 -1.7876 -1.8773
 4600SOL    HW225437   1.730   3.125   1.414  0.3403 -0.2764 -0.4126
 4601SOL     OW25438   0.507   1.996   7.862  0.3901  0.2600  0.2421
 4601SOL    HW125439   0.533   2.088   7.859  1.5391 -0.0213  1.2118
 4601SOL    HW225440   0.413   2.001   7.844  0.7452  0.4158 -1.5797
 4602SOL     OW25441   0.079   1.458   2.151  0.2591 -0.6319 -0.3048
 4602SOL    HW125442   0.049   1.540   2.113 -1.0090 -0.8531  0.1999
 4602SOL    HW225443   0.028   1.448   2.231  0.4309  1.5140  0.0742
 4603SOL     OW25444   2.683   2.438   2.450  0.2995 -0.1124  0.2324
 4603SOL    HW125445   2.647   2.453   2.537 -1.8089 -0.0778 -0.6233
 4603SOL    HW225446   2.726   2.518   2.420  0.8853 -1.1865 -1.8643
 4604SOL     OW25447   4.180   2.065   5.536 -0.3550 -0.2274  0.3708
 4604SOL    HW125448   4.205   2.157   5.529  2.0606 -0.6704  2.9716
 4604SOL    HW225449   4.087   2.089   5.533 -0.9177 -2.4353  0.5195
 4605SOL     OW25450   1.333   0.320   4.640 -0.0712 -0.2293 -0.3936
 4605SOL    HW125451   1.347   0.406   4.599  1.5434  1.4279  3.5646
 4605SOL    HW225452   1.272   0.284   4.577 -0.7629  2.7188 -1.4410
 4606SOL     OW25453   0.211   0.392   6.409 -0.4922 -0.4969  0.4082
 4606SOL    HW125454   0.220   0.401   6.504  2.8856  0.1781  0.0247
 4606SOL    HW225455   0.188   0.302   6.387  0.4429 -0.2456 -1.6338
 4607SOL     OW25456   4.213   1.423   5.941 -0.4980  0.7305  0.1019
 4607SOL    HW125457   4.215   1.409   5.846  1.7811  0.8666  0.1137
 4607SOL    HW225458   4.291   1.380   5.977 -0.3786 -0.6377 -1.7429
 4608SOL     OW25459   3.044   4.550  10.378 -0.3362 -0.5467  0.4308
 4608SOL    HW125460   3.000   4.591  10.303  0.2802  0.9903  0.9121
 4608SOL    HW225461   3.100   4.623  10.407 -1.5035  0.1757  0.8470
 4609SOL     OW25462   2.806   3.829   3.759 -0.3767 -0.1159  0.3321
 4609SOL    HW125463   2.733   3.868   3.710 -0.9043  1.5873  2.4900
 4609SOL    HW225464   2.861   3.904   3.784 -2.7203  2.5590 -2.4731
 4610SOL     OW25465   2.802   1.924   2.064  0.5510 -0.5897 -0.4251
 4610SOL    HW125466   2.761   1.881   2.138 -0.4363  0.3551 -0.4169
 4610SOL    HW225467   2.898   1.921   2.074  0.3865 -0.9413  0.9705
 4611SOL     OW25468   0.210   2.596   8.439 -0.3836 -0.3879 -0.2033
 4611SOL    HW125469   0.291   2.597   8.388 -0.5430 -1.4587 -0.4726
 4611SOL    HW225470   0.149   2.637   8.378 -2.0507 -1.4600  0.7238
 4612SOL     OW25471   1.848   2.652  11.970 -0.1911  0.4298 -0.6640
 4612SOL    HW125472   1.907   2.609  11.907 -0.2970  0.7350 -0.9720
 4612SOL    HW225473   1.826   2.579  12.028  0.9543  0.0826 -0.6532
 4613SOL     OW25474   3.694   0.208   5.802  0.5680 -0.6656 -0.5862
 4613SOL    HW125475   3.602   0.197   5.780 -0.1236  1.4366  1.2907
 4613SOL    HW225476   3.724   0.231   5.714  1.9987  0.5077  0.1987
 4614SOL     OW25477   2.365   2.548   1.677 -0.6067 -1.0171 -0.3642
 4614SOL    HW125478   2.334   2.479   1.735  0.5429 -1.3819 -0.1838
 4614SOL    HW225479   2.437   2.590   1.724 -0.6734 -0.2176 -0.9606
 4615SOL     OW25480   2.173   3.110   2.360 -0.3389  0.4329 -0.3165
 4615SOL    HW125481   2.241   3.071   2.415 -3.3683 -3.8676  0.4211
 4615SOL    HW225482   2.144   3.031   2.314  0.5296 -1.5292  2.4960
 4616SOL     OW25483   1.399   4.598   7.410  0.3581  0.8853 -0.0332
 4616SOL    HW125484   1.433   4.676   7.367 -0.7759  1.2413 -0.2950
 4616SOL    HW225485   1.480   4.553   7.431 -0.0217 -0.8417 -2.3279
 4617SOL     OW25486   0.736   4.374  15.932 -0.9315  0.2322 -0.1913
 4617SOL    HW125487   0.775   4.398  15.848 -0.8414  0.0946 -0.1879
 4617SOL    HW225488   0.649   4.415  15.923  0.0928  1.9550 -2.2241
 4618SOL     OW25489   3.826   0.779   2.175 -0.5539  0.3396 -0.5924
 4618SOL    HW125490   3.827   0.761   2.081  2.3146 -0.3773 -0.3931
 4618SOL    HW225491   3.732   0.792   2.189 -0.7975 -3.9033  1.6250
 4619SOL     OW25492   3.200   2.759   6.527  0.2822 -0.2074 -0.3386
 4619SOL    HW125493   3.121   2.780   6.477  1.2210  1.3740 -1.1448
 4619SOL    HW225494   3.252   2.837   6.510  0.7466 -0.9824 -2.4328
 4620SOL     OW25495   2.548   1.657   7.855 -0.6450  0.3672 -0.6826
 4620SOL    HW125496   2.602   1.654   7.777 -0.5431 -2.7677 -0.4834
 4620SOL    HW225497   2.465   1.683   7.814 -1.3284  0.0956  0.5155
 4621SOL     OW25498   3.887   2.270   7.144  0.6330 -0.3647  0.3820
 4621SOL    HW125499   3.824   2.263   7.216 -0.8079  1.1855 -0.7152
 4621SOL    HW225500   3.824   2.240   7.078 -0.4995  1.9546  0.3926
 4622SOL     OW25501   1.355   1.660   5.297 -0.1011 -0.1662 -0.1911
 4622SOL    HW125502   1.432   1.604   5.307  0.2592  0.3781  0.0810
 4622SOL    HW225503   1.345   1.675   5.391 -2.4262 -1.0407 -0.2902
 4623SOL     OW25504   2.379   4.142   3.530 -0.2736 -0.1975  0.2954
 4623SOL    HW125505   2.456   4.183   3.569  2.0781 -1.1602 -3.3750
 4623SOL    HW225506   2.417   4.092   3.458 -0.0809  1.4078 -0.7142
 4624SOL     OW25507   3.302   2.823   8.441  0.1409  0.4988  0.6140
 4624SOL    HW125508   3.335   2.767   8.512  1.7614  1.3996  0.5730
 4624SOL    HW225509   3.222   2.855   8.483 -0.0298  1.9748 -0.8661
 4625SOL     OW25510   3.340   0.219   6.452 -0.0218 -0.0751  0.2073
 4625SOL    HW125511   3.259   0.255   6.488  0.2251  0.3399  0.3526
 4625SOL    HW225512   3.405   0.284   6.476  1.4187 -1.3099 -0.3890
 4626SOL     OW25513   4.517   3.331  10.673  0.1216  0.1236 -0.0698
 4626SOL    HW125514   4.582   3.336  10.743  0.2567 -3.8517  0.0594
 4626SOL    HW225515   4.440   3.339  10.729  0.2722  1.1831 -0.0169
 4627SOL     OW25516   2.751   0.515  11.857  0.3076  0.0990  0.3300
 4627SOL    HW125517   2.742   0.425  11.887  0.9480  0.0677  0.4111
 4627SOL    HW225518   2.824   0.542  11.911  0.0761  1.9784 -0.2788
 4628SOL     OW25519   0.054   4.644  11.602 -0.0813 -0.0365 -0.3951
 4628SOL    HW125520   0.053   4.571  11.540  0.7756 -0.4915  0.1227
 4628SOL    HW225521   0.147   4.665  11.596  0.1683 -0.2824  2.5254
 4629SOL     OW25522   3.496   1.785   4.994 -0.1234 -0.6507 -0.6224
 4629SOL    HW125523   3.429   1.773   4.926  0.0767 -1.3895 -0.6937
 4629SOL    HW225524   3.476   1.706   5.045  1.1988 -0.8648 -0.4414
 4630SOL     OW25525   4.691   1.488   7.034  0.0842 -0.0726  0.2124
 4630SOL    HW125526   0.024   1.469   7.098 -0.0083  1.5212  0.7810
 4630SOL    HW225527   4.612   1.495   7.088  0.7679  2.2532  0.8857
 4631SOL     OW25528   1.935   0.794   3.156 -0.1238  0.4174 -0.2128
 4631SOL    HW125529   1.887   0.732   3.211 -0.1474  1.0828  0.5265
 4631SOL    HW225530   1.918   0.880   3.196 -0.6736 -0.8328  2.2247
 4632SOL     OW25531   1.858   0.227   3.005  0.6371  0.2605  0.5282
 4632SOL    HW125532   1.803   0.302   3.028 -0.1258 -0.3605  0.7102
 4632SOL    HW225533   1.897   0.273   2.930  1.0769 -0.0483  0.5692
 4633SOL     OW25534   3.105   3.898   6.224 -0.0707 -0.0460 -0.5753
 4633SOL    HW125535   3.146   3.980   6.198  2.3168 -1.1118 -0.2235
 4633SOL    HW225536   3.027   3.891   6.168 -0.3959 -0.3504 -0.0778
 4634SOL     OW25537   1.329   1.100   5.985 -0.5465 -0.2694  0.0741
 4634SOL    HW125538   1.355   1.107   6.076 -1.9755  0.6476  0.4138
 4634SOL    HW225539   1.238   1.130   5.984  0.4001  2.5780 -0.3806
 4635SOL     OW25540   1.407   2.617   4.362 -0.0359 -0.2501  0.2620
 4635SOL    HW125541   1.467   2.688   4.384  1.5534 -1.5490  0.1498
 4635SOL    HW225542   1.423   2.619   4.267  1.0217  1.6098  0.4766
 4636SOL     OW25543   1.621   0.246   0.277 -0.0384 -0.4399 -0.3656
 4636SOL    HW125544   1.552   0.250   0.211  1.6363 -0.6229 -2.0912
 4636SOL    HW225545   1.660   0.159   0.280  1.3918  0.1256 -2.8252
 4637SOL     OW25546   0.631   2.944  16.856 -0.0432 -0.5662  0.1909
 4637SOL    HW125547   0.624   2.860  16.900 -0.0532 -1.0964 -0.8258
 4637SOL    HW225548   0.539   2.967  16.841  0.6882  1.0687 -1.7597
 4638SOL     OW25549   4.722   0.957   7.163 -0.0570  0.4026  0.1848
 4638SOL    HW125550   4.657   1.019   7.130  1.4897 -0.0015 -3.6621
 4638SOL    HW225551   0.063   0.983   7.111  0.4925 -2.4924 -0.4719
 4639SOL     OW25552   2.695   0.119   6.683 -0.6040 -0.5903  0.9279
 4639SOL    HW125553   2.769   0.089   6.736  0.2827  0.5075  0.3195
 4639SOL    HW225554   2.721   0.209   6.663  0.8360 -0.9230  1.3033
 4640SOL     OW25555   2.805   2.820   7.902  0.3457 -0.1356 -0.2496
 4640SOL    HW125556   2.827   2.888   7.966  0.7492  0.8482 -1.4302
 4640SOL    HW225557   2.818   2.871   7.822 -1.4085 -1.8411 -1.6176
 4641SOL     OW25558   0.746   3.093  14.119  0.1344 -0.1881  0.1899
 4641SOL    HW125559   0.722   3.005  14.147 -0.4660 -0.0087  0.2281
 4641SOL    HW225560   0.744   3.085  14.024 -0.5975  2.8959 -0.0628
 4642SOL     OW25561   0.817   1.206   4.508  0.3332  0.5697 -0.2262
 4642SOL    HW125562   0.776   1.290   4.488 -3.3938 -0.9060  1.2563
 4642SOL    HW225563   0.892   1.213   4.448  1.3140 -0.1294  0.9184
 4643SOL     OW25564   1.765   3.517   3.056  0.0559 -0.1962  0.6076
 4643SOL    HW125565   1.860   3.518   3.045 -0.1604  0.3509 -1.3820
 4643SOL    HW225566   1.751   3.520   2.961 -0.9789 -0.5468  0.7402
 4644SOL     OW25567   2.897   4.731   8.684  0.3167  0.2507  0.3569
 4644SOL    HW125568   2.984   0.000   8.724  0.3434 -0.3473  0.3770
 4644SOL    HW225569   2.897   4.642   8.649 -4.3048 -0.2212  1.5403
 4645SOL     OW25570   2.061   0.387   6.531 -0.0345  0.3899  0.4927
 4645SOL    HW125571   2.068   0.380   6.436 -0.9521 -0.9390  0.5213
 4645SOL    HW225572   2.146   0.351   6.556 -0.3563 -0.6964  0.0497
 4646SOL     OW25573   0.384   0.537   9.263 -0.1277 -0.2375 -0.4907
 4646SOL    HW125574   0.333   0.617   9.278  1.3037  0.5887 -0.0369
 4646SOL    HW225575   0.472   0.565   9.288  0.0982 -0.2888 -1.2103
 4647SOL     OW25576   1.738   3.765   1.462  0.4006 -0.2085 -0.0601
 4647SOL    HW125577   1.807   3.765   1.395  0.3539  0.7298 -0.1048
 4647SOL    HW225578   1.703   3.676   1.456 -0.2711  0.1097 -0.8669
 4648SOL     OW25579   2.885   1.687   7.295 -0.0109 -0.4495  0.1058
 4648SOL    HW125580   2.929   1.712   7.214 -1.2784 -1.1544 -0.7990
 4648SOL    HW225581   2.950   1.634   7.342  0.5362  2.0416  2.1353
 4649SOL     OW25582   3.999   3.214   9.436 -0.0518 -1.0861 -0.1271
 4649SOL    HW125583   3.993   3.292   9.381 -0.4639 -0.6536  0.5186
 4649SOL    HW225584   3.988   3.254   9.523 -1.7855 -0.9042 -0.4384
 4650SOL     OW25585   1.196   2.465   9.799 -0.6226 -0.4232 -0.1468
 4650SOL    HW125586   1.261   2.398   9.820 -0.5449 -0.2580  0.1403
 4650SOL    HW225587   1.127   2.435   9.858 -1.9550  2.7828 -0.0667
 4651SOL     OW25588   1.801   0.131   7.945  0.3589  0.6913  0.1355
 4651SOL    HW125589   1.716   0.088   7.953  1.4994 -1.6273 -0.1276
 4651SOL    HW225590   1.863   0.067   7.980 -0.1742  0.7507  1.2006
 4652SOL     OW25591   0.254   1.644   6.656  0.2930  0.1365  0.1770
 4652SOL    HW125592   0.162   1.630   6.675  0.0891  0.2530 -0.7494
 4652SOL    HW225593   0.264   1.608   6.568 -0.1425 -3.6048  1.6830
 4653SOL     OW25594   1.541   0.798   6.631  0.5075  0.0420  0.3576
 4653SOL    HW125595   1.544   0.884   6.589 -1.4472 -0.0029  0.1372
 4653SOL    HW225596   1.600   0.749   6.574  0.7697 -0.4193  1.0375
 4654SOL     OW25597   0.815   0.303   7.719  0.6291  0.1756 -0.0027
 4654SOL    HW125598   0.896   0.346   7.692  0.7219  1.1195  1.7958
 4654SOL    HW225599   0.801   0.337   7.807 -1.1134 -0.9670  0.1601
 4655SOL     OW25600   0.321   0.851   1.992 -0.8222  0.5444  0.6167
 4655SOL    HW125601   0.388   0.793   2.029  0.1212  1.4814  0.3780
 4655SOL    HW225602   0.247   0.836   2.051 -0.0080 -0.2270  1.4514
 4656SOL     OW25603   4.169   0.245   8.062 -0.6171 -0.3913  0.1076
 4656SOL    HW125604   4.175   0.201   8.147  2.3965  1.2274  0.7271
 4656SOL    HW225605   4.193   0.174   8.003 -1.6187  0.7166 -1.6329
 4657SOL     OW25606   1.265   0.209   1.023  0.1682 -0.2518  0.1839
 4657SOL    HW125607   1.281   0.120   0.991 -1.0664 -1.2837  2.3923
 4657SOL    HW225608   1.235   0.197   1.113  0.9137 -0.7784  0.3674
 4658SOL     OW25609   0.078   2.875   7.527  0.2768 -0.1226 -0.3728
 4658SOL    HW125610   0.084   2.897   7.620  0.5931 -1.0388 -0.1783
 4658SOL    HW225611   0.168   2.886   7.498  0.8056  0.7782  1.6163
 4659SOL     OW25612   0.632   2.975  15.318  0.2495  0.2361  0.1432
 4659SOL    HW125613   0.683   2.918  15.261  1.8296  2.8109 -1.0183
 4659SOL    HW225614   0.697   2.997  15.385 -0.1729  0.0553  0.6099
 4660SOL     OW25615   2.020   4.149  12.967  0.0815  0.3597  0.6565
 4660SOL    HW125616   2.024   4.062  13.008 -2.3696  0.5303  1.2482
 4660SOL    HW225617   1.939   4.183  13.003 -0.3972  1.6006 -1.5824
 4661SOL     OW25618   1.856   2.073   9.976 -0.1660  0.3640 -0.2322
 4661SOL    HW125619   1.762   2.056   9.973 -0.1967  0.5035 -0.0479
 4661SOL    HW225620   1.884   1.987   9.943 -1.2609  0.1118 -0.5180
 4662SOL     OW25621   3.720   4.440  15.552  0.9767 -0.0399 -0.1927
 4662SOL    HW125622   3.660   4.367  15.538 -1.0491  1.5896  0.0073
 4662SOL    HW225623   3.778   4.448  15.476  0.7473  0.0526 -0.3578
 4663SOL     OW25624   0.016   2.223   7.953 -0.1275 -0.2280 -0.4297
 4663SOL    HW125625   4.659   2.242   7.967  0.2931 -0.4313  2.5203
 4663SOL    HW225626   0.006   2.144   7.899 -1.0836 -1.3850  1.4434
 4664SOL     OW25627   1.729   3.457   1.125 -0.0968  0.5133 -0.7615
 4664SOL    HW125628   1.771   3.542   1.111 -0.0606  0.4311 -1.1598
 4664SOL    HW225629   1.811   3.407   1.125 -0.4282 -0.0649  2.1954
 4665SOL     OW25630   1.063   1.271   1.788 -0.3406  0.3080  0.8311
 4665SOL    HW125631   1.118   1.215   1.844 -0.8092 -0.2087  0.7702
 4665SOL    HW225632   1.090   1.233   1.705 -1.3246 -1.2024  1.2006
 4666SOL     OW25633   2.494   1.397   7.626  0.5312 -0.1799 -0.2004
 4666SOL    HW125634   2.563   1.459   7.650  1.0390 -0.4526 -0.9669
 4666SOL    HW225635   2.461   1.450   7.553  0.0393 -0.5669 -0.2623
 4667SOL     OW25636   4.463   4.455   8.004 -0.2495 -0.1439 -0.1128
 4667SOL    HW125637   4.428   4.481   7.919 -0.0749 -0.6774 -0.3486
 4667SOL    HW225638   4.425   4.515   8.068 -1.7632 -1.8333  0.5726
 4668SOL     OW25639   4.089   0.332   4.108  0.4952  0.4251 -0.3382
 4668SOL    HW125640   4.108   0.364   4.020  0.8061  0.6726 -0.1832
 4668SOL    HW225641   4.007   0.373   4.135 -0.7129  0.0588 -3.5124
 4669SOL     OW25642   2.073   0.382   4.829 -0.3787  0.4789  0.2888
 4669SOL    HW125643   2.002   0.430   4.787  0.3101  2.2922  1.2203
 4669SOL    HW225644   2.033   0.328   4.898 -2.4918  1.5545 -0.1084
 4670SOL     OW25645   2.909   0.229   0.283 -0.0547  0.1063  0.2092
 4670SOL    HW125646   2.986   0.196   0.237  0.2087  1.0439 -0.0149
 4670SOL    HW225647   2.851   0.242   0.208 -0.7850 -0.9328  0.5840
 4671SOL     OW25648   2.040   4.056   2.019 -0.0421 -0.2090  0.2467
 4671SOL    HW125649   2.055   4.047   2.113  0.9495  1.1559  0.2205
 4671SOL    HW225650   2.065   4.146   2.000  0.6676 -0.0579  1.9395
 4672SOL     OW25651   3.615   4.234   8.329  0.9594  0.6341  0.2861
 4672SOL    HW125652   3.577   4.260   8.245  0.9329 -0.2716  0.0096
 4672SOL    HW225653   3.665   4.313   8.349 -0.3951  1.4833  0.2713
 4673SOL     OW25654   0.548   2.896  10.893  0.3273  0.0745  0.0811
 4673SOL    HW125655   0.508   2.861  10.814 -0.5775  3.6013 -1.0473
 4673SOL    HW225656   0.641   2.878  10.884  0.9578  1.7033  3.1207
 4674SOL     OW25657   0.089   3.929   2.686  0.2683  0.5386 -0.2357
 4674SOL    HW125658   0.075   4.014   2.644 -1.3954  1.0719  1.3573
 4674SOL    HW225659   0.099   3.963   2.775 -0.7606  2.5808 -0.8671
 4675SOL     OW25660   0.189   2.379   7.824  1.0124  0.0904 -0.2795
 4675SOL    HW125661   0.240   2.322   7.767 -0.9380  0.3418 -2.2944
 4675SOL    HW225662   0.144   2.315   7.878  1.0077 -0.1997 -0.6264
 4676SOL     OW25663   3.078   1.667  16.113  0.1395 -0.2852 -0.5322
 4676SOL    HW125664   3.143   1.675  16.182  1.4034 -0.4363 -1.7125
 4676SOL    HW225665   3.100   1.740  16.055  2.7252 -1.3267 -0.8238
 4677SOL     OW25666   3.932   1.002   2.318  0.4806  0.1092 -0.3577
 4677SOL    HW125667   3.915   0.913   2.288  0.7519  0.4877 -1.6187
 4677SOL    HW225668   3.931   1.048   2.234 -0.4503 -0.0307 -0.4295
 4678SOL     OW25669   3.655   3.205   4.280 -0.6265 -0.6076  0.0062
 4678SOL    HW125670   3.564   3.196   4.251 -0.0562 -2.1262 -1.2210
 4678SOL    HW225671   3.697   3.143   4.221 -1.3862 -0.9680 -0.1552
 4679SOL     OW25672   0.665   2.006  10.867  0.0249 -0.5815  0.5188
 4679SOL    HW125673   0.572   2.005  10.845  0.5758  0.8585 -1.8642
 4679SOL    HW225674   0.690   1.922  10.828  2.2988  0.4709 -0.2516
 4680SOL     OW25675   3.389   2.524   5.461  0.1256 -0.0383 -0.2355
 4680SOL    HW125676   3.460   2.546   5.521  0.0947 -0.1702 -0.1498
 4680SOL    HW225677   3.434   2.540   5.378  0.7450 -0.8330 -0.0486
 4681SOL     OW25678   4.236   0.291   0.978  0.6255  0.6515  0.1643
 4681SOL    HW125679   4.276   0.234   0.912 -0.4710 -0.3818  0.3900
 4681SOL    HW225680   4.142   0.293   0.961  0.9640 -2.0489 -2.0303
 4682SOL     OW25681   4.472   3.747   1.989 -0.0450 -0.2162  0.0218
 4682SOL    HW125682   4.436   3.814   2.047 -0.1678 -1.3150  1.2246
 4682SOL    HW225683   4.427   3.775   1.909 -0.3570 -1.7496 -0.3369
 4683SOL     OW25684   0.992   2.289  16.643  0.2754  0.1667 -0.0506
 4683SOL    HW125685   0.902   2.258  16.634 -0.0977  0.9121  1.1176
 4683SOL    HW225686   1.031   2.263  16.560  0.5376  0.4891 -0.0299
 4684SOL     OW25687   1.306   3.464   5.275  0.0016 -0.1002  0.2904
 4684SOL    HW125688   1.281   3.551   5.309 -2.1792  0.4958 -2.8954
 4684SOL    HW225689   1.221   3.424   5.294  0.0121  0.8961  2.4826
 4685SOL     OW25690   1.599   3.155  16.208 -0.4062 -0.2435  0.0353
 4685SOL    HW125691   1.605   3.193  16.121 -2.6232 -2.3526 -1.0410
 4685SOL    HW225692   1.547   3.081  16.177  1.2379 -1.1230 -0.6317
 4686SOL     OW25693   1.562   3.155   5.318  0.1546 -0.3813 -0.4765
 4686SOL    HW125694   1.565   3.139   5.223  2.1709  1.5682 -0.7396
 4686SOL    HW225695   1.479   3.109   5.332  0.0045  1.3664  4.2267
 4687SOL     OW25696   4.686   3.804   7.151 -0.2193  0.2606  0.2993
 4687SOL    HW125697   4.623   3.778   7.218  0.0646 -0.6314  0.2193
 4687SOL    HW225698   0.021   3.839   7.204 -0.2899 -0.5595  0.9477
 4688SOL     OW25699   0.124   3.040   6.660  0.0063  0.2076 -0.2875
 4688SOL    HW125700   0.150   3.132   6.668  0.8698 -0.0521 -0.0032
 4688SOL    HW225701   0.194   3.010   6.602 -1.3431 -0.4993 -1.5307
 4689SOL     OW25702   3.846   3.639  13.808 -0.1617 -0.0827 -0.6034
 4689SOL    HW125703   3.924   3.589  13.831 -0.8765  0.1374  2.2858
 4689SOL    HW225704   3.771   3.586  13.836  1.2479 -2.7733 -1.9203
 4690SOL     OW25705   4.108   0.261  15.838  0.4334 -0.4034 -0.2391
 4690SOL    HW125706   4.086   0.214  15.758 -0.1341 -0.9155  0.2188
 4690SOL    HW225707   4.190   0.295  15.804  0.2168  0.9825  0.5847
 4691SOL     OW25708   2.313   4.237  10.202 -0.1693 -0.3164 -0.3847
 4691SOL    HW125709   2.270   4.234  10.117  0.7083 -0.1537 -0.8340
 4691SOL    HW225710   2.239   4.233  10.264  0.8819 -2.3078  0.7223
 4692SOL     OW25711   2.172   2.694  10.249  0.7046 -0.0918  0.2704
 4692SOL    HW125712   2.232   2.644  10.304  0.4442  0.0673  0.6916
 4692SOL    HW225713   2.110   2.627  10.220 -1.3678  1.7729  0.3711
 4693SOL     OW25714   1.659   2.895  15.949 -0.1813  0.5360 -0.6135
 4693SOL    HW125715   1.699   2.853  15.873  0.7367 -0.4306  0.4174
 4693SOL    HW225716   1.737   2.886  16.004 -1.4600 -0.3194  1.0366
 4694SOL     OW25717   3.956   0.620  16.906  0.5449 -0.0212 -0.2155
 4694SOL    HW125718   4.020   0.580  16.964  1.3996  1.7988  0.0988
 4694SOL    HW225719   3.942   0.699  16.958  0.6408  0.1501 -0.4528
 4695SOL     OW25720   0.771   1.007   6.220 -0.3240  0.1837 -0.7806
 4695SOL    HW125721   0.692   1.025   6.271 -0.3821  0.0120 -0.8095
 4695SOL    HW225722   0.733   0.975   6.138 -1.6371 -0.1311 -0.0377
 4696SOL     OW25723   1.222   1.183   8.550 -0.2799 -0.3247 -0.3531
 4696SOL    HW125724   1.172   1.205   8.628 -1.2978  0.2301 -1.1716
 4696SOL    HW225725   1.307   1.162   8.591 -0.1276  0.8460 -0.0779
 4697SOL     OW25726   3.748   4.189  11.046  0.4340 -0.4378  0.0496
 4697SOL    HW125727   3.673   4.162  10.994  0.0144  1.2546 -0.2325
 4697SOL    HW225728   3.798   4.109  11.061  0.1115 -1.0080 -1.9311
 4698SOL     OW25729   3.301   3.163  14.948  0.3511  0.2965 -0.4758
 4698SOL    HW125730   3.327   3.196  14.862 -1.5400 -0.1070 -1.1941
 4698SOL    HW225731   3.239   3.232  14.972 -0.7562 -0.8791  0.0337
 4699SOL     OW25732   2.242   0.485   4.404 -0.0884 -0.0430  0.4121
 4699SOL    HW125733   2.196   0.419   4.352 -0.3074  0.8297 -0.5083
 4699SOL    HW225734   2.247   0.466   4.498 -0.0588 -3.0907 -0.2227
 4700SOL     OW25735   0.269   3.857   0.140 -0.1615  0.0313 -0.1146
 4700SOL    HW125736   0.224   3.830   0.220 -0.8041 -1.2794 -0.9126
 4700SOL    HW225737   0.352   3.810   0.147  0.3827  1.1907  1.1676
 4701SOL     OW25738   3.176   2.586   6.749 -0.3694  0.3304  0.3198
 4701SOL    HW125739   3.190   2.644   6.674  0.3897 -2.1926 -1.4426
 4701SOL    HW225740   3.232   2.619   6.820 -0.4851 -1.5177  1.2643
 4702SOL     OW25741   3.682   1.947   5.595  0.5455 -0.6780  0.1659
 4702SOL    HW125742   3.613   1.955   5.660  2.0110  0.4082  1.5830
 4702SOL    HW225743   3.630   1.968   5.518 -1.6225 -3.7956  0.7790
 4703SOL     OW25744   4.188   0.686   4.631  0.1549 -0.4514  0.1319
 4703SOL    HW125745   4.269   0.732   4.609  0.7724 -1.0980  1.0476
 4703SOL    HW225746   4.208   0.640   4.713  0.4263 -1.7505 -0.6578
 4704SOL     OW25747   0.185   2.677   1.831 -0.3680  0.0865  0.0323
 4704SOL    HW125748   0.199   2.582   1.833  3.2317  0.6082 -1.5282
 4704SOL    HW225749   0.207   2.692   1.739 -3.4284  0.4946 -0.6317
 4705SOL     OW25750   3.642   3.092  14.994  0.1634  0.3520 -0.0651
 4705SOL    HW125751   3.726   3.054  14.970  0.3497  1.7056 -1.5332
 4705SOL    HW225752   3.637   3.168  14.937 -1.3458 -0.0548 -0.4911
 4706SOL     OW25753   0.592   2.178   2.554 -0.3581 -0.6607  0.1878
 4706SOL    HW125754   0.548   2.102   2.592  2.3802 -2.5958 -0.4933
 4706SOL    HW225755   0.669   2.139   2.512  1.0974  1.0777  1.2527
 4707SOL     OW25756   2.693   2.974   3.488  0.1967  0.0152 -0.4716
 4707SOL    HW125757   2.619   3.034   3.498 -0.2458 -0.2184 -2.4022
 4707SOL    HW225758   2.682   2.917   3.564 -0.5557  0.3090 -0.3577
 4708SOL     OW25759   1.876   0.238   5.725 -0.0246  0.3589 -0.5522
 4708SOL    HW125760   1.787   0.201   5.733  0.5131 -1.2536 -1.9140
 4708SOL    HW225761   1.927   0.158   5.713  0.2868  1.0800 -4.1289
 4709SOL     OW25762   3.648   4.187   3.630  0.2866 -0.1695  0.1337
 4709SOL    HW125763   3.607   4.244   3.564  1.1457  0.4948  0.1777
 4709SOL    HW225764   3.619   4.233   3.708 -0.9125 -1.0135  0.1942
 4710SOL     OW25765   0.853   0.171   9.727 -0.4093 -0.3841 -0.1914
 4710SOL    HW125766   0.777   0.198   9.676 -0.9648  0.9508  1.3267
 4710SOL    HW225767   0.885   0.096   9.677 -2.1905 -0.0865 -1.7766
 4711SOL     OW25768   3.446   1.515   6.339 -0.6461 -0.2555  0.6872
 4711SOL    HW125769   3.398   1.458   6.399 -0.0192 -0.0887  1.3414
 4711SOL    HW225770   3.375   1.551   6.286  0.0259 -0.1841 -0.1798
 4712SOL     OW25771   1.687   4.421  15.880 -0.0246 -0.2608 -0.4403
 4712SOL    HW125772   1.754   4.412  15.812 -1.2910  0.4463 -1.7718
 4712SOL    HW225773   1.692   4.341  15.933 -0.3753 -1.3893 -2.0991
 4713SOL     OW25774   4.409   0.016   5.622  0.3880  0.0680 -0.1381
 4713SOL    HW125775   4.455   0.002   5.539  1.2609 -0.3956  0.4319
 4713SOL    HW225776   4.412   4.668   5.668 -2.1490 -1.3053 -2.4850
 4714SOL     OW25777   1.806   1.189   3.654  0.4626  0.0694  0.1896
 4714SOL    HW125778   1.853   1.200   3.571 -0.2554 -0.1211 -0.2344
 4714SOL    HW225779   1.859   1.243   3.713 -0.8046  1.9864 -0.4033
 4715SOL     OW25780   0.017   0.577   7.779  0.1676  0.1497 -0.0024
 4715SOL    HW125781   4.689   0.546   7.843 -1.1904  0.6486 -1.1140
 4715SOL    HW225782   0.006   0.671   7.795 -0.3288  0.4442 -2.0062
 4716SOL     OW25783   3.919   4.344  10.272  0.3802 -0.1572  0.6617
 4716SOL    HW125784   3.999   4.292  10.274  0.9973  0.6980 -1.5448
 4716SOL    HW225785   3.896   4.329  10.180 -2.0553  0.3260  1.1792
 4717SOL     OW25786   1.779   0.663   7.646  0.4409 -0.7975 -0.2134
 4717SOL    HW125787   1.812   0.586   7.601 -0.4898 -1.9567  1.1056
 4717SOL    HW225788   1.783   0.730   7.578  1.1214  1.2655  1.8406
 4718SOL     OW25789   1.098   0.816   3.588 -0.0722 -0.2797 -0.5042
 4718SOL    HW125790   1.187   0.840   3.563  0.3052  2.9618  3.9734
 4718SOL    HW225791   1.099   0.726   3.623 -0.5959  0.7019  2.0394
 4719SOL     OW25792   1.420   2.281   5.631 -0.4147  0.2226 -0.3413
 4719SOL    HW125793   1.497   2.337   5.631 -0.4157  0.2132 -2.4472
 4719SOL    HW225794   1.389   2.284   5.721  1.4029 -1.3260  0.3398
 4720SOL     OW25795   0.389   0.072   5.836 -0.1326  0.0127  0.0333
 4720SOL    HW125796   0.301   0.054   5.803  0.7002 -0.7890 -1.7850
 4720SOL    HW225797   0.377   0.143   5.899  2.8673  0.6446 -0.0857
 4721SOL     OW25798   1.353   0.828   6.402  0.1969  0.2703 -0.0967
 4721SOL    HW125799   1.311   0.880   6.470 -0.1924 -2.3778  1.6728
 4721SOL    HW225800   1.371   0.741   6.436 -1.2123 -0.0086 -0.0312
 4722SOL     OW25801   0.848   1.648  11.403  0.1276 -0.0463 -0.1228
 4722SOL    HW125802   0.886   1.560  11.409  1.2750  0.4212 -0.5403
 4722SOL    HW225803   0.874   1.680  11.489  0.5042  0.7513 -0.5352
 4723SOL     OW25804   0.504   2.497   1.638 -0.0140 -0.4441  0.4976
 4723SOL    HW125805   0.573   2.536   1.585  1.0555 -2.6075  0.3106
 4723SOL    HW225806   0.486   2.424   1.579  0.2734  1.6585 -2.2396
 4724SOL     OW25807   4.609   4.364   5.960 -0.4278 -0.1541 -0.0087
 4724SOL    HW125808   4.627   4.290   6.018  1.5751  1.0544  0.9232
 4724SOL    HW225809   4.698   4.395   5.940 -0.0628 -0.5570  0.9488
 4725SOL     OW25810   3.513   3.852   2.979 -0.5819  0.2576  1.0275
 4725SOL    HW125811   3.507   3.769   3.026  2.0918 -0.7334 -0.3493
 4725SOL    HW225812   3.479   3.918   3.040  0.9722 -0.6677  2.8847
 4726SOL     OW25813   3.695   1.981   4.273  0.1720  0.4060 -0.1370
 4726SOL    HW125814   3.679   1.927   4.350 -3.3400  1.6474 -0.0075
 4726SOL    HW225815   3.748   1.922   4.219  1.6872  1.6338  0.0024
 4727SOL     OW25816   1.420   3.509   3.830 -0.5984  0.0167 -0.2064
 4727SOL    HW125817   1.410   3.458   3.749 -0.3906  0.4480 -0.5043
 4727SOL    HW225818   1.453   3.441   3.889 -0.2884  0.8620  0.5899
 4728SOL     OW25819   2.549   2.530  13.361  0.2709  0.4806 -0.8681
 4728SOL    HW125820   2.609   2.584  13.310 -0.8056  2.6085  0.1489
 4728SOL    HW225821   2.554   2.443  13.321 -1.4578  0.2218 -0.5346
 4729SOL     OW25822   2.804   3.556   9.940 -0.1600  0.6681  0.1553
 4729SOL    HW125823   2.895   3.582   9.929 -0.2924  1.3129  0.6034
 4729SOL    HW225824   2.808   3.465   9.910  0.6767  1.1515 -1.1441
 4730SOL     OW25825   3.860   2.644   3.350  0.2499 -0.1061  0.6021
 4730SOL    HW125826   3.943   2.609   3.381  0.7022  1.2553  0.9605
 4730SOL    HW225827   3.866   2.620   3.258  1.4415 -0.4786  0.7731
 4731SOL     OW25828   0.035   1.619   7.386 -0.1712 -0.5180 -0.0254
 4731SOL    HW125829   4.679   1.619   7.413 -0.1779 -1.9562 -0.0474
 4731SOL    HW225830   0.072   1.537   7.418  0.0957 -0.6661 -0.7004
 4732SOL     OW25831   3.950   2.322   4.699  0.3718  0.2313  0.5178
 4732SOL    HW125832   4.045   2.315   4.710  0.3884  0.9882  0.8145
 4732SOL    HW225833   3.953   2.413   4.727 -1.6359  0.5893 -0.4154
 4733SOL     OW25834   1.093   0.592  14.477  0.1397  0.0400  0.5412
 4733SOL    HW125835   1.028   0.551  14.534  0.1953  2.0727  2.0647
 4733SOL    HW225836   1.087   0.682  14.508 -2.0926 -0.9559  3.0326
 4734SOL     OW25837   1.550   3.627  14.027 -0.1645  0.0152  0.2034
 4734SOL    HW125838   1.556   3.564  13.955  1.7240 -0.2705  0.6207
 4734SOL    HW225839   1.627   3.611  14.082 -2.3096 -3.9254  2.1131
 4735SOL     OW25840   2.677   1.605   5.203  0.1723  0.0644 -0.0294
 4735SOL    HW125841   2.665   1.694   5.169  3.0377 -0.2320 -1.8275
 4735SOL    HW225842   2.730   1.618   5.281 -0.5122  0.2163  0.4093
 4736SOL     OW25843   3.440   0.168  16.288 -0.7431 -0.1882 -0.5695
 4736SOL    HW125844   3.393   0.190  16.368 -2.6290 -1.2103 -1.3961
 4736SOL    HW225845   3.388   0.214  16.223  1.0460 -1.8827 -3.2051
 4737SOL     OW25846   0.835   3.392   1.177 -0.4338  0.1076 -0.1252
 4737SOL    HW125847   0.848   3.484   1.203 -3.3140  0.0489  1.5727
 4737SOL    HW225848   0.777   3.363   1.248 -0.9855  1.7387  0.0915
 4738SOL     OW25849   2.598   1.816   2.246 -0.3747  0.2216 -0.3671
 4738SOL    HW125850   2.586   1.721   2.248  0.1258  0.1763  0.9973
 4738SOL    HW225851   2.631   1.824   2.336  0.5529  0.4329 -0.7235
 4739SOL     OW25852   3.129   0.479   9.853 -0.2819 -0.6617  0.0134
 4739SOL    HW125853   3.167   0.435   9.929  0.1346  0.6933  0.5809
 4739SOL    HW225854   3.176   0.428   9.788  3.0269  1.9723  0.3543
 4740SOL     OW25855   3.685   1.591   3.278  0.4326  0.1758 -0.2608
 4740SOL    HW125856   3.621   1.526   3.248 -0.9180  1.6255 -0.5240
 4740SOL    HW225857   3.667   1.658   3.212 -0.6123  2.0028  1.8607
 4741SOL     OW25858   2.841   0.973   6.790 -0.1761  0.0152  0.3832
 4741SOL    HW125859   2.936   0.961   6.793 -0.1112  0.4594 -0.0644
 4741SOL    HW225860   2.802   0.922   6.719 -0.1081  1.5124 -0.7143
 4742SOL     OW25861   0.308   0.627   4.227 -0.1732  0.5509 -0.0603
 4742SOL    HW125862   0.295   0.556   4.289  1.5984  1.1280  0.9674
 4742SOL    HW225863   0.292   0.587   4.141  0.3045  0.4900 -0.1213
 4743SOL     OW25864   1.122   2.849  16.134 -0.1107 -0.1121  0.2362
 4743SOL    HW125865   1.176   2.817  16.062  2.1063  0.7460  1.5213
 4743SOL    HW225866   1.138   2.943  16.140 -2.6188  0.4095 -1.4054
 4744SOL     OW25867   2.546   1.910   6.373 -0.1368 -0.1334  0.2959
 4744SOL    HW125868   2.513   1.936   6.287  0.7295 -3.2449 -0.9717
 4744SOL    HW225869   2.629   1.957   6.369 -0.1602 -0.0326  0.9983
 4745SOL     OW25870   2.772   2.400  17.478  0.7989 -0.3865 -0.5101
 4745SOL    HW125871   2.703   2.443  17.529 -0.2166  0.1842 -2.3443
 4745SOL    HW225872   2.734   2.313  17.468  0.6756 -0.2381 -1.4098
 4746SOL     OW25873   3.400   4.507   5.337 -0.1614 -0.2578  0.0259
 4746SOL    HW125874   3.417   4.560   5.415  4.3429 -1.0143 -0.4119
 4746SOL    HW225875   3.412   4.584   5.280 -1.6659  0.1759  0.3097
 4747SOL     OW25876   1.729   0.470   3.076  0.6288  0.3519  0.0238
 4747SOL    HW125877   1.644   0.502   3.047 -0.0233  0.6755  2.2527
 4747SOL    HW225878   1.740   0.523   3.155  0.2963  0.1141  0.2322
 4748SOL     OW25879   1.654   2.433   7.427  0.0575 -0.6665 -0.0250
 4748SOL    HW125880   1.721   2.368   7.405  1.7201  1.3792 -1.0971
 4748SOL    HW225881   1.629   2.454   7.337 -0.8387  0.5827  0.5285
 4749SOL     OW25882   0.653   1.102   8.746  0.0322  0.1682  0.3922
 4749SOL    HW125883   0.691   1.020   8.775  1.0884  0.4525 -0.1763
 4749SOL    HW225884   0.658   1.099   8.651 -1.8426 -0.9465  0.3328
 4750SOL     OW25885   2.461   3.161   2.278 -0.0457  0.5145  0.2378
 4750SOL    HW125886   2.532   3.180   2.217 -0.8106 -0.6505 -1.0373
 4750SOL    HW225887   2.424   3.077   2.251 -3.0136  1.2536  2.0193
 4751SOL     OW25888   0.668   0.080   5.191  0.5729 -0.2457  0.2544
 4751SOL    HW125889   0.580   0.107   5.215  1.0014 -0.5201  2.1199
 4751SOL    HW225890   0.678   0.113   5.101  3.5905  0.1583  0.7262
 4752SOL     OW25891   2.920   1.443   7.458  0.4839 -0.0638 -0.2172
 4752SOL    HW125892   2.934   1.396   7.540 -0.3689  1.7517  0.9777
 4752SOL    HW225893   2.838   1.405   7.428 -1.1042  2.8722  0.3350
 4753SOL     OW25894   1.294   0.505   9.065  0.5018 -0.1902 -0.0359
 4753SOL    HW125895   1.284   0.442   9.137 -1.1041 -0.2881 -0.3329
 4753SOL    HW225896   1.211   0.551   9.077  0.2967 -0.4178 -0.5926
 4754SOL     OW25897   1.053   4.436   3.544 -0.0580 -0.3379  0.0276
 4754SOL    HW125898   0.993   4.377   3.500 -0.6479  2.2060 -2.6028
 4754SOL    HW225899   1.128   4.427   3.485 -0.4520  0.8286 -0.6578
 4755SOL     OW25900   3.020   0.998   3.425 -0.8074  0.3379 -0.0899
 4755SOL    HW125901   2.934   1.038   3.414 -0.6102  0.4524 -1.1586
 4755SOL    HW225902   3.072   1.074   3.400  0.4252 -0.0388  1.2911
 4756SOL     OW25903   1.190   2.506  15.964  0.0263  0.0512  0.3002
 4756SOL    HW125904   1.268   2.458  15.936 -0.0069 -0.2811  0.7843
 4756SOL    HW225905   1.233   2.591  15.967  2.5805 -1.2281 -0.1207
 4757SOL     OW25906   1.241   1.738   7.109 -0.0936  0.0297 -0.1132
 4757SOL    HW125907   1.318   1.693   7.144  0.3863 -0.1856 -1.4408
 4757SOL    HW225908   1.291   1.820   7.110 -2.0907  1.2379  0.1739
 4758SOL     OW25909   4.211   3.562   7.261 -0.1283  0.5209  0.2120
 4758SOL    HW125910   4.212   3.572   7.356  0.8507  2.7300 -0.0318
 4758SOL    HW225911   4.281   3.500   7.238 -2.0447 -1.6500  0.1788
 4759SOL     OW25912   2.953   3.710   2.078 -0.1570  0.1859 -0.0979
 4759SOL    HW125913   2.977   3.719   1.985  0.2724  0.5715  0.0455
 4759SOL    HW225914   3.018   3.644   2.101 -1.0231 -1.8482 -3.5471
 4760SOL     OW25915   3.677   2.002  11.297 -0.1690 -0.7071  0.1913
 4760SOL    HW125916   3.747   2.066  11.289  1.4457 -2.3153  1.4909
 4760SOL    HW225917   3.600   2.049  11.330  0.9936  1.0929  0.3507
 4761SOL     OW25918   1.195   2.034   2.863 -0.5166  0.0677 -0.1223
 4761SOL    HW125919   1.113   1.995   2.834 -0.8884 -0.4156  1.5822
 4761SOL    HW225920   1.260   1.979   2.819 -0.4267  1.9006 -2.2209
 4762SOL     OW25921   4.302   0.957   7.189  0.2860  0.3745  0.4851
 4762SOL    HW125922   4.250   0.904   7.250  0.0103  0.6608  0.4976
 4762SOL    HW225923   4.390   0.922   7.198 -0.2247 -1.4763 -1.5817
 4763SOL     OW25924   2.824   2.397   8.249 -0.7603 -0.4720  0.5157
 4763SOL    HW125925   2.766   2.382   8.175 -0.1889 -0.9078  0.1555
 4763SOL    HW225926   2.901   2.382   8.195 -1.0854  2.4324 -0.7490
 4764SOL     OW25927   2.422   3.863   6.570 -0.3937  0.3881 -0.6222
 4764SOL    HW125928   2.486   3.851   6.639  1.7919  0.5941 -2.6312
 4764SOL    HW225929   2.410   3.958   6.570  1.0549  0.5718 -3.2578
 4765SOL     OW25930   4.017   3.815  11.302 -0.1104  0.3898  0.0326
 4765SOL    HW125931   3.962   3.767  11.364  1.3304 -1.7243 -0.3186
 4765SOL    HW225932   4.035   3.744  11.241  0.1001  2.1741 -1.9716
 4766SOL     OW25933   1.415   3.204   1.947 -0.3200  0.1026 -0.5015
 4766SOL    HW125934   1.377   3.248   1.871 -1.3093  1.9405  1.0599
 4766SOL    HW225935   1.472   3.142   1.901  2.2688  1.2416  1.1781
 4767SOL     OW25936   1.286   2.760  11.088 -0.3527  0.2670  0.0229
 4767SOL    HW125937   1.245   2.839  11.053 -2.1378 -1.0728 -0.8999
 4767SOL    HW225938   1.247   2.692  11.034  1.9783 -0.4544 -0.7396
 4768SOL     OW25939   3.151   1.101   4.204  0.1033 -0.2544 -0.2819
 4768SOL    HW125940   3.229   1.058   4.239 -0.7933 -1.0004  0.8007
 4768SOL    HW225941   3.175   1.193   4.212  3.1939 -1.1935  1.2291
 4769SOL     OW25942   2.404   0.393   7.311  0.4176 -0.3581 -0.2940
 4769SOL    HW125943   2.322   0.391   7.261  0.8797 -0.6083 -1.0402
 4769SOL    HW225944   2.426   0.301   7.326  1.9504 -0.3589 -2.5737
 4770SOL     OW25945   0.776   1.946  12.746  0.4526  0.6075 -0.1021
 4770SOL    HW125946   0.690   1.951  12.704 -0.1864 -0.5341  1.0805
 4770SOL    HW225947   0.836   1.983  12.681  2.1805 -0.3041  0.9656
 4771SOL     OW25948   1.168   1.543   5.153 -0.1986 -0.2144 -0.3649
 4771SOL    HW125949   1.085   1.581   5.123  0.2220  0.9573 -0.0153
 4771SOL    HW225950   1.211   1.615   5.198  1.4551 -1.4498  0.0128
 4772SOL     OW25951   2.638   1.880   6.857  0.3668 -0.0215  0.5436
 4772SOL    HW125952   2.728   1.905   6.879  0.3960  1.3265 -1.1368
 4772SOL    HW225953   2.598   1.966   6.843 -1.2635 -1.1125 -1.5437
 4773SOL     OW25954   1.164   4.226  12.503 -0.6016 -0.5345  0.3071
 4773SOL    HW125955   1.258   4.225  12.487 -0.5557  2.2647  0.3682
 4773SOL    HW225956   1.156   4.301  12.563  3.2032 -0.0567  0.2155
 4774SOL     OW25957   0.418   2.055   2.159 -0.8045 -0.7478 -0.2455
 4774SOL    HW125958   0.449   2.104   2.235  2.2473 -0.0768 -1.9500
 4774SOL    HW225959   0.323   2.056   2.166 -0.8902 -1.7146 -1.2769
 4775SOL     OW25960   3.793   1.801   2.613 -0.3697  0.3076  0.3019
 4775SOL    HW125961   3.744   1.740   2.557  0.0563 -2.3311  2.8515
 4775SOL    HW225962   3.881   1.799   2.575 -0.1559  1.2725  0.7681
 4776SOL     OW25963   2.205   3.194   6.615  0.6637  0.1975 -0.6557
 4776SOL    HW125964   2.198   3.117   6.557 -0.8158 -0.6363  0.6457
 4776SOL    HW225965   2.294   3.207   6.646 -0.1019  0.5410  1.4002
 4777SOL     OW25966   2.113   3.016   3.864  0.2656  0.3831 -0.0168
 4777SOL    HW125967   2.060   2.954   3.914 -0.9595  1.2504 -0.2262
 4777SOL    HW225968   2.191   3.010   3.919 -1.2566  1.1803  2.2484
 4778SOL     OW25969   0.718   0.410   4.049  0.1223 -0.5732  0.0360
 4778SOL    HW125970   0.731   0.364   4.132 -1.9921  0.0712  0.7210
 4778SOL    HW225971   0.727   0.346   3.978  0.6092  0.2619 -0.6438
 4779SOL     OW25972   0.217   0.511   3.749  0.6237 -0.4718 -0.1312
 4779SOL    HW125973   0.308   0.526   3.721  0.3538  1.1172 -0.1634
 4779SOL    HW225974   0.161   0.482   3.677 -2.7808  3.0946  1.0732
 4780SOL     OW25975   0.793   2.951   7.924 -0.2579  0.1079 -0.4303
 4780SOL    HW125976   0.858   2.883   7.939 -0.8098 -0.0870  1.1896
 4780SOL    HW225977   0.712   2.904   7.945 -1.3030  2.1379  0.0891
 4781SOL     OW25978   4.349   3.992   2.066 -0.0502 -0.2249 -0.2507
 4781SOL    HW125979   4.347   4.088   2.067  2.7164 -0.1739  1.2702
 4781SOL    HW225980   4.258   3.964   2.062 -0.8098  2.3941 -1.5364
 4782SOL     OW25981   2.499   2.430   0.941  0.7523 -0.1419 -0.2872
 4782SOL    HW125982   2.494   2.507   0.997 -2.0736  0.3086 -1.1769
 4782SOL    HW225983   2.500   2.466   0.852  2.1727  1.7867  0.5218
 4783SOL     OW25984   0.980   0.220   5.236 -0.1661  0.4318  0.2622
 4783SOL    HW125985   0.933   0.141   5.264 -0.2565  0.0030 -1.0943
 4783SOL    HW225986   0.920   0.294   5.234 -1.6456 -0.7430  1.0054
 4784SOL     OW25987   3.949   2.412   6.927  0.1074 -0.0381 -0.2910
 4784SOL    HW125988   3.941   2.345   6.995 -2.9662  0.3377 -0.2803
 4784SOL    HW225989   4.023   2.375   6.878  0.2351 -0.2306  0.0459
 4785SOL     OW25990   1.651   1.276   7.699 -0.1152 -0.3034 -0.8242
 4785SOL    HW125991   1.599   1.258   7.777 -0.0655 -0.9303 -0.9368
 4785SOL    HW225992   1.677   1.185   7.685  0.5281 -0.1974 -0.3064
 4786SOL     OW25993   0.796   3.775   1.470  0.0656 -0.9214 -0.4443
 4786SOL    HW125994   0.722   3.769   1.530  2.1848 -0.0362  2.3053
 4786SOL    HW225995   0.825   3.685   1.454  0.4221 -0.5550 -1.8150
 4787SOL     OW25996   0.192   0.612  15.061 -0.0273  0.5471  0.0717
 4787SOL    HW125997   0.150   0.654  15.136  0.1771 -0.0949  0.5457
 4787SOL    HW225998   0.117   0.574  15.015  1.2352 -1.0873 -0.6363
 4788SOL     OW25999   4.615   3.392   5.637  0.5880  0.2264 -0.9034
 4788SOL    HW126000   4.672   3.317   5.654 -1.2259 -0.8432  0.5305
 4788SOL    HW226001   4.546   3.361   5.695  0.7499  1.9409  0.2025
 4789SOL     OW26002   3.093   4.182   3.637 -0.1203  0.7018  0.0011
 4789SOL    HW126003   3.095   4.087   3.630  0.7498  0.8046 -1.0991
 4789SOL    HW226004   3.184   4.194   3.610 -0.3078  0.1661 -0.8521
 4790SOL     OW26005   0.217   3.969   6.906  0.4362 -0.1569  0.0834
 4790SOL    HW126006   0.210   4.037   6.839 -1.2508  0.9110  1.3218
 4790SOL    HW226007   0.301   4.001   6.939 -0.3006  0.0857  1.7364
 4791SOL     OW26008   1.567   1.094   0.847 -0.0799  0.5019 -0.1970
 4791SOL    HW126009   1.624   1.065   0.917 -0.6235 -0.1945 -0.0458
 4791SOL    HW226010   1.632   1.126   0.784 -0.4003 -0.3793 -0.9754
 4792SOL     OW26011   1.110   1.476   4.693 -0.2086  0.2780 -0.5459
 4792SOL    HW126012   1.055   1.480   4.614  1.0255 -0.6307 -1.4479
 4792SOL    HW226013   1.178   1.542   4.678  1.1601 -1.3109 -1.3002
 4793SOL     OW26014   0.398   2.583   7.858 -0.3712  0.5359 -0.1663
 4793SOL    HW126015   0.335   2.524   7.818 -0.0951  0.3449 -0.3168
 4793SOL    HW226016   0.409   2.532   7.939 -0.1635 -2.9865 -2.4313
 4794SOL     OW26017   4.724   0.981   3.464 -0.1657  0.2567  0.0959
 4794SOL    HW126018   0.033   1.056   3.424 -1.6375  0.4253 -1.2697
 4794SOL    HW226019   0.015   0.984   3.556  1.9767  0.9047 -0.5399
 4795SOL     OW26020   2.635   0.060   4.237  0.3180  0.1649 -0.2120
 4795SOL    HW126021   2.710   0.022   4.192 -0.0540  0.3150 -0.9649
 4795SOL    HW226022   2.567   0.010   4.192 -2.5920  3.0464  0.8785
 4796SOL     OW26023   3.548   1.200   6.788 -0.4958 -0.4914  0.3230
 4796SOL    HW126024   3.496   1.276   6.761 -1.5060 -0.8277  1.3349
 4796SOL    HW226025   3.593   1.232   6.866 -1.3244 -1.2101  1.0980
 4797SOL     OW26026   3.483   2.730  16.007 -0.3682  0.0976  0.4610
 4797SOL    HW126027   3.467   2.769  16.093  0.7616  2.0664 -0.2332
 4797SOL    HW226028   3.579   2.737  16.009 -0.1663 -2.5383  0.6763
 4798SOL     OW26029   1.573   3.485   0.253  0.2533  0.1590 -0.1208
 4798SOL    HW126030   1.618   3.564   0.283 -1.3180  1.1255 -0.3222
 4798SOL    HW226031   1.585   3.481   0.158 -0.3875 -0.2880 -0.1825
 4799SOL     OW26032   4.070   0.775   3.792 -0.2315 -0.6930 -0.5022
 4799SOL    HW126033   4.128   0.850   3.780 -2.8796  1.2133 -1.4412
 4799SOL    HW226034   4.082   0.767   3.886 -0.0760 -1.0165 -0.5494
 4800SOL     OW26035   4.474   0.935   8.015 -0.3383  0.1943  0.1147
 4800SOL    HW126036   4.527   1.000   8.060  0.7244  0.1629 -1.0874
 4800SOL    HW226037   4.450   0.875   8.086 -3.3666  0.1252 -0.9508
 4801SOL     OW26038   1.269   3.761  17.660 -0.2799 -0.0240  0.5463
 4801SOL    HW126039   1.264   3.838  17.604  1.4503  0.4697  1.0610
 4801SOL    HW226040   1.178   3.740  17.682 -0.2461  0.9830  1.6282
 4802SOL     OW26041   0.653   3.312  15.927 -0.1246 -0.1074  0.4510
 4802SOL    HW126042   0.563   3.327  15.955  0.2974 -1.5491  2.6305
 4802SOL    HW226043   0.651   3.364  15.847  0.7524  0.8510  1.0414
 4803SOL     OW26044   3.135   2.929   1.528  0.4176  0.3158 -0.0617
 4803SOL    HW126045   3.170   2.981   1.600  1.8911 -1.2076  0.3234
 4803SOL    HW226046   3.040   2.922   1.544  0.5306 -1.7156 -0.2784
 4804SOL     OW26047   0.482   2.659  14.543 -0.5968 -0.6658  0.1477
 4804SOL    HW126048   0.524   2.694  14.621  0.4637  0.7731 -1.0598
 4804SOL    HW226049   0.551   2.599  14.514 -1.0934 -1.7006  1.1142
 4805SOL     OW26050   0.703   4.670   6.034 -0.1225 -0.0602 -0.3642
 4805SOL    HW126051   0.711   4.575   6.045  2.3339  0.2518  0.5525
 4805SOL    HW226052   0.790   4.704   6.053  1.5786 -3.1072 -2.6522
 4806SOL     OW26053   1.092   1.342   4.946 -0.6985 -0.8510  0.1015
 4806SOL    HW126054   1.092   1.396   4.867 -1.1474  1.5009  1.6816
 4806SOL    HW226055   1.133   1.401   5.010  0.7923 -0.4788 -1.2071
 4807SOL     OW26056   0.846   0.281   8.327 -0.2824 -0.0390  0.0217
 4807SOL    HW126057   0.832   0.352   8.390 -0.9508 -2.0614  2.1243
 4807SOL    HW226058   0.935   0.255   8.354 -0.5173 -0.7542  0.1097
 4808SOL     OW26059   3.977   2.651   1.686  0.0261  0.3643 -0.1945
 4808SOL    HW126060   4.019   2.684   1.607  1.3029 -0.5805  0.0843
 4808SOL    HW226061   3.889   2.630   1.657  0.2586  2.4742 -2.3874
 4809SOL     OW26062   4.286   2.949   2.727  0.0185 -0.1305 -0.5107
 4809SOL    HW126063   4.361   2.918   2.776 -0.5599 -0.7740 -0.0321
 4809SOL    HW226064   4.278   2.880   2.661  1.0930 -0.9319  0.2174
 4810SOL     OW26065   1.343   1.247  14.139 -0.0090  0.3542 -0.4012
 4810SOL    HW126066   1.264   1.206  14.102 -0.4729  0.3859  0.5419
 4810SOL    HW226067   1.396   1.169  14.157 -0.8737 -0.2220 -0.3405
 4811SOL     OW26068   1.521   1.429  17.191 -0.2673 -0.2964  0.4345
 4811SOL    HW126069   1.600   1.392  17.152  1.3074  2.5259  0.9406
 4811SOL    HW226070   1.464   1.436  17.114  2.0552  0.5282 -1.2108
 4812SOL     OW26071   1.711   0.349   1.128 -0.2286 -0.3439 -0.1020
 4812SOL    HW126072   1.660   0.339   1.048  0.8688 -0.2605 -0.8195
 4812SOL    HW226073   1.647   0.334   1.198  0.5412 -3.7102 -0.1515
 4813SOL     OW26074   1.299   1.136   2.548 -0.0273 -0.0894  0.3900
 4813SOL    HW126075   1.347   1.072   2.495  2.3954  2.3477 -0.4157
 4813SOL    HW226076   1.344   1.124   2.632  0.6723 -1.8003 -0.2350
 4814SOL     OW26077   2.828   2.545   1.598  0.1040  0.4131  0.0330
 4814SOL    HW126078   2.884   2.515   1.526 -1.2811 -1.8904 -0.0823
 4814SOL    HW226079   2.790   2.464   1.633  0.5734  0.0859 -0.2125
 4815SOL     OW26080   3.742   2.698   9.176 -0.2894 -0.2213  0.4898
 4815SOL    HW126081   3.723   2.676   9.267 -0.4015 -1.0710  0.2604
 4815SOL    HW226082   3.664   2.749   9.153 -0.2100 -1.7932 -3.2509
 4816SOL     OW26083   3.710   2.919   8.580 -0.5615  0.7201 -0.0091
 4816SOL    HW126084   3.725   2.902   8.487 -0.3740 -0.6726  0.2849
 4816SOL    HW226085   3.787   2.972   8.601 -1.0360  0.9991  1.0323
 4817SOL     OW26086   4.529   4.680   4.588 -0.7332 -0.1480 -0.1132
 4817SOL    HW126087   4.539   0.028   4.633  1.8620 -0.2653 -0.5165
 4817SOL    HW226088   4.579   4.703   4.510  1.1925 -1.2434  0.7990
 4818SOL     OW26089   2.567   3.748  10.557 -0.1698  0.6064 -0.1240
 4818SOL    HW126090   2.651   3.744  10.511  0.9692  0.7168  1.9327
 4818SOL    HW226091   2.570   3.671  10.613  1.3845  2.7934  2.7919
 4819SOL     OW26092   0.739   0.660   9.486  0.6166  0.2695  0.2623
 4819SOL    HW126093   0.816   0.711   9.461  1.0929 -1.2071 -1.2682
 4819SOL    HW226094   0.773   0.572   9.467 -1.4794 -0.8732  1.8394
 4820SOL     OW26095   2.362   4.602  10.660 -0.3839  0.0404 -0.2269
 4820SOL    HW126096   2.290   4.665  10.667 -0.0203  0.5693 -1.2355
 4820SOL    HW226097   2.346   4.548  10.737  0.2943  1.2989  0.7750
 4821SOL     OW26098   1.948   0.784  11.184 -0.1015 -0.4070 -0.8840
 4821SOL    HW126099   2.005   0.856  11.211  0.2160 -0.2968 -1.8639
 4821SOL    HW226100   1.899   0.823  11.112 -1.8406 -1.2470 -0.1554
 4822SOL     OW26101   4.697   4.460  17.075 -0.1637  0.1031 -0.1708
 4822SOL    HW126102   4.700   4.493  16.985  2.2698  1.7182  0.5065
 4822SOL    HW226103   4.641   4.520  17.125 -0.4161  0.0749 -0.4158
 4823SOL     OW26104   1.521   1.968   0.829  0.2650 -0.3307  0.1887
 4823SOL    HW126105   1.559   2.024   0.761 -1.8859  0.5513 -0.2878
 4823SOL    HW226106   1.483   1.891   0.787  1.3094 -0.4685 -0.4932
 4824SOL     OW26107   1.676   2.388  16.145  0.5469  0.4903 -0.0863
 4824SOL    HW126108   1.631   2.454  16.092  2.5021  0.7628 -1.4224
 4824SOL    HW226109   1.727   2.341  16.079  0.0302  0.0357 -0.1629
 4825SOL     OW26110   2.655   4.612  13.606 -0.3382  0.2716 -0.4040
 4825SOL    HW126111   2.633   4.597  13.514 -1.2971 -2.2215  0.2404
 4825SOL    HW226112   2.706   4.532  13.615  1.1789  1.3812  0.8293
 4826SOL     OW26113   4.035   0.197   1.494  0.0222 -0.0239 -0.4905
 4826SOL    HW126114   4.004   0.287   1.502  1.7722  0.6751 -1.4776
 4826SOL    HW226115   3.954   0.146   1.501  0.4983 -0.6142  0.7453
 4827SOL     OW26116   4.404   3.309   4.683  0.2125  0.0472 -0.0188
 4827SOL    HW126117   4.319   3.351   4.693  0.9312  1.6935 -0.9700
 4827SOL    HW226118   4.413   3.280   4.592 -1.5850  0.7212 -0.3920
 4828SOL     OW26119   0.942   1.507   7.107 -0.0936 -0.2106 -0.3702
 4828SOL    HW126120   0.981   1.421   7.124  0.8273  0.2071 -0.3800
 4828SOL    HW226121   1.022   1.558   7.119 -0.3989  0.5083 -1.3797
 4829SOL     OW26122   3.785   3.004   2.700  0.1958  0.3604  0.9609
 4829SOL    HW126123   3.853   3.050   2.650  0.7394 -1.0479  0.3947
 4829SOL    HW226124   3.816   2.992   2.790 -1.9904  0.7622  1.7464
 4830SOL     OW26125   3.235   1.572   2.043  0.1047  0.1791  0.1209
 4830SOL    HW126126   3.324   1.541   2.027  0.7303  1.2151  1.6288
 4830SOL    HW226127   3.182   1.569   1.963 -0.3244  0.1161  0.4072
 4831SOL     OW26128   1.861   3.692   4.622  0.1554  0.0594  0.1900
 4831SOL    HW126129   1.891   3.613   4.576  0.2513  0.6443 -0.7540
 4831SOL    HW226130   1.903   3.758   4.567 -0.2717  1.5111  1.6046
 4832SOL     OW26131   2.172   0.962   4.494  0.1362 -0.6605 -0.5554
 4832SOL    HW126132   2.154   0.877   4.454 -0.5592 -0.3751 -0.8532
 4832SOL    HW226133   2.157   1.016   4.417 -1.1925  1.5582  1.2465
 4833SOL     OW26134   3.277   1.909  17.249 -0.2270 -0.6188 -0.3172
 4833SOL    HW126135   3.348   1.972  17.244  0.3832 -1.2555  0.4051
 4833SOL    HW226136   3.271   1.902  17.344 -2.4655  1.4885 -0.2917
 4834SOL     OW26137   1.953   0.262   4.514 -0.3601 -0.4740  0.0019
 4834SOL    HW126138   1.904   0.335   4.553  0.4355  0.7260 -1.2284
 4834SOL    HW226139   1.960   0.295   4.424 -3.5709  2.7578  0.9399
 4835SOL     OW26140   4.418   0.767   3.251  0.0604 -0.6995  0.0476
 4835SOL    HW126141   4.506   0.740   3.222 -0.5854 -1.2828 -1.3741
 4835SOL    HW226142   4.407   0.857   3.220  0.7516 -0.8186 -0.5562
 4836SOL     OW26143   0.835   1.076   2.973  0.2809  0.0569  0.5428
 4836SOL    HW126144   0.898   1.017   3.016 -0.9983 -2.0062 -0.4433
 4836SOL    HW226145   0.752   1.035   2.997  1.0156 -2.0712 -0.5133
 4837SOL     OW26146   4.418   2.849   0.214 -0.5180  0.4247 -0.1101
 4837SOL    HW126147   4.366   2.770   0.227 -0.9364  0.7876  0.4710
 4837SOL    HW226148   4.351   2.900   0.261  2.1637  3.6790  0.1841
 4838SOL     OW26149   0.915   1.549   5.739 -0.0204 -0.2355 -0.5111
 4838SOL    HW126150   0.894   1.530   5.830 -1.9029  1.7555 -0.5187
 4838SOL    HW226151   0.953   1.635   5.759  0.0617 -0.4815  0.3687
 4839SOL     OW26152   1.023   4.112   6.134  0.4282  0.4453  0.3194
 4839SOL    HW126153   1.044   4.019   6.120  0.1285  0.7317 -1.9947
 4839SOL    HW226154   0.976   4.127   6.052 -0.0124 -0.4597  0.4007
 4840SOL     OW26155   3.202   0.038  10.470  0.1072 -0.2730 -0.0964
 4840SOL    HW126156   3.254   4.728  10.537 -0.3933 -1.0646 -0.2368
 4840SOL    HW226157   3.185   0.121  10.513 -1.6090 -0.5004 -0.3361
 4841SOL     OW26158   4.734   0.063   4.433 -0.4831 -0.0768  0.5267
 4841SOL    HW126159   4.731   0.026   4.345 -0.2245 -1.8405  1.2615
 4841SOL    HW226160   0.074   0.121   4.427  0.7341 -1.8123 -0.7338
 4842SOL     OW26161   4.446   0.150   6.933 -0.2211 -0.4756  0.1790
 4842SOL    HW126162   4.452   0.162   6.838 -1.0843  2.0971  0.4300
 4842SOL    HW226163   4.382   0.080   6.938  0.1352 -0.8801 -0.9917
 4843SOL     OW26164   1.228   1.621  17.296  0.3001  0.6944 -0.5902
 4843SOL    HW126165   1.245   1.546  17.240 -0.6637  1.8855 -2.4801
 4843SOL    HW226166   1.138   1.604  17.321  0.0007 -0.1515 -2.2819
 4844SOL     OW26167   4.121   3.609   0.920  0.0986 -0.8713  0.3302
 4844SOL    HW126168   4.053   3.548   0.891  1.5471 -0.9408 -2.8932
 4844SOL    HW226169   4.200   3.555   0.919  0.6418 -0.1137  2.2381
 4845SOL     OW26170   2.922   0.675   6.726  0.1711 -0.0145  0.5852
 4845SOL    HW126171   2.833   0.697   6.700  1.1767  2.0607 -1.0787
 4845SOL    HW226172   2.968   0.628   6.657  0.3063  0.5084  0.3215
 4846SOL     OW26173   2.679   4.335   2.643  0.0414  0.2866 -0.2990
 4846SOL    HW126174   2.717   4.284   2.714  0.8961  0.7025 -0.4506
 4846SOL    HW226175   2.742   4.407   2.631  0.7748  0.1135  2.4402
 4847SOL     OW26176   1.286   4.372   2.114  0.0597 -0.0795  0.1032
 4847SOL    HW126177   1.298   4.465   2.092 -0.3853  0.0663  0.4585
 4847SOL    HW226178   1.374   4.338   2.127 -0.5497 -1.1912  1.2677
 4848SOL     OW26179   2.611   0.178   7.148  0.1982  0.2469  0.7756
 4848SOL    HW126180   2.578   0.155   7.235  1.2243 -2.3742  0.4740
 4848SOL    HW226181   2.660   0.257   7.171 -0.6106  0.2822  2.3785
 4849SOL     OW26182   3.301   0.459   1.784  0.4877  0.1350  0.0656
 4849SOL    HW126183   3.242   0.478   1.711  0.1069 -0.8095  0.1223
 4849SOL    HW226184   3.351   0.540   1.787  0.7472  0.0093 -0.8201
 4850SOL     OW26185   2.386   2.251   4.107  0.7725  0.1372  0.0056
 4850SOL    HW126186   2.363   2.328   4.159 -2.2703 -0.2547 -0.7633
 4850SOL    HW226187   2.334   2.280   4.031  0.6324  0.8788  0.3861
 4851SOL     OW26188   2.086   3.266  12.295  0.2342  0.1472 -0.3181
 4851SOL    HW126189   2.129   3.226  12.371 -0.2900  2.2839  1.0910
 4851SOL    HW226190   2.142   3.339  12.268 -0.3855  0.3727 -1.0160
 4852SOL     OW26191   3.383   0.054   7.656  0.0493  0.1510  0.3656
 4852SOL    HW126192   3.304   0.007   7.629  0.4789 -1.4136  1.8431
 4852SOL    HW226193   3.426   0.055   7.570 -0.4819 -1.8552  0.0879
 4853SOL     OW26194   4.086   0.134   0.742  0.4881 -0.0487 -0.1618
 4853SOL    HW126195   4.177   0.143   0.770  0.4417 -0.0006 -0.0256
 4853SOL    HW226196   4.080   0.045   0.775  0.0095  0.5875  1.4792
 4854SOL     OW26197   2.926   0.005   4.713 -0.5167 -0.0501  0.9958
 4854SOL    HW126198   2.878   0.040   4.788  0.6150  0.7196  1.3749
 4854SOL    HW226199   2.858   0.016   4.647  0.9238 -0.2493 -0.5278
 4855SOL     OW26200   0.998   0.216   1.616 -0.3373  0.8135 -0.0658
 4855SOL    HW126201   0.974   0.129   1.650 -0.3088  0.2130 -1.5854
 4855SOL    HW226202   1.043   0.244   1.696  1.4792 -1.3160 -0.3581
 4856SOL     OW26203   4.070   4.281   4.550 -0.4791 -0.5061 -0.1520
 4856SOL    HW126204   4.078   4.329   4.632 -3.0539 -0.4544  0.0698
 4856SOL    HW226205   3.977   4.259   4.552 -0.5659 -0.0852  0.2516
 4857SOL     OW26206   3.431   1.911   7.120 -0.0459 -0.3542 -0.0761
 4857SOL    HW126207   3.336   1.918   7.105  0.0562 -0.6078 -0.8551
 4857SOL    HW226208   3.439   1.957   7.203 -1.4219  0.7623 -0.5559
 4858SOL     OW26209   0.518   4.371   1.927 -0.0879 -0.2396 -0.3119
 4858SOL    HW126210   0.509   4.330   1.841 -0.0964 -1.0439  0.0649
 4858SOL    HW226211   0.436   4.342   1.967 -1.2776  1.7781 -1.2871
 4859SOL     OW26212   4.204   1.887   6.755  0.2442 -0.1957 -0.3760
 4859SOL    HW126213   4.203   1.871   6.850 -1.0727  1.8765 -0.0479
 4859SOL    HW226214   4.216   1.794   6.736 -3.4778 -0.9549  1.0630
 4860SOL     OW26215   4.396   1.584   1.612  0.4039  0.1249 -0.1882
 4860SOL    HW126216   4.442   1.566   1.694  0.0332  0.3483  0.0676
 4860SOL    HW226217   4.469   1.561   1.555  0.9988 -0.7550  0.9086
 4861SOL     OW26218   2.998   0.350   7.940 -0.0026 -0.6886 -0.0701
 4861SOL    HW126219   3.049   0.281   7.982  0.6284  0.7496  1.5238
 4861SOL    HW226220   3.061   0.384   7.877  0.7008 -0.0054  0.9956
 4862SOL     OW26221   0.248   4.295   8.243  0.2435 -0.6201 -0.7259
 4862SOL    HW126222   0.319   4.261   8.189  0.5424  0.1607 -0.8308
 4862SOL    HW226223   0.298   4.375   8.257 -0.5480 -0.0174 -1.3257
 4863SOL     OW26224   0.219   2.309   3.060  0.1198  0.0924 -0.0701
 4863SOL    HW126225   0.212   2.337   3.151 -1.2375  0.2546 -0.2326
 4863SOL    HW226226   0.309   2.330   3.036  0.6235 -1.6065  0.3152
 4864SOL     OW26227   3.434   2.189   2.261  0.0478  0.2409  0.1599
 4864SOL    HW126228   3.508   2.145   2.304  0.4059 -0.2436 -0.9564
 4864SOL    HW226229   3.455   2.283   2.263 -2.2397  0.7991 -2.1221
 4865SOL     OW26230   4.154   2.477   4.424 -0.0179  0.3318 -0.4412
 4865SOL    HW126231   4.076   2.511   4.382 -0.7864 -0.1870  0.5465
 4865SOL    HW226232   4.139   2.490   4.518 -0.3187 -3.5817  0.0860
 4866SOL     OW26233   2.459   3.231   6.710 -0.7474  0.0778  0.1246
 4866SOL    HW126234   2.486   3.239   6.801 -1.0654 -0.7747  0.2904
 4866SOL    HW226235   2.541   3.244   6.663 -0.7881 -1.3418 -0.3493
 4867SOL     OW26236   0.380   2.035  11.438  0.3431  0.3101  0.0521
 4867SOL    HW126237   0.459   1.982  11.425 -1.0892 -1.7794 -0.2491
 4867SOL    HW226238   0.323   1.985  11.379  1.5767 -0.8257 -0.1756
 4868SOL     OW26239   0.767   2.795   3.434  0.4186 -0.2863 -0.6473
 4868SOL    HW126240   0.764   2.765   3.343  0.4852 -0.0991 -0.7109
 4868SOL    HW226241   0.832   2.735   3.471  0.9747 -0.1370 -1.3869
 4869SOL     OW26242   0.668   0.776  17.573  0.0151 -0.1128 -0.0400
 4869SOL    HW126243   0.682   0.758  17.666  0.7361  2.6780  0.3954
 4869SOL    HW226244   0.712   0.705  17.526  0.0893 -0.5295  0.6751
 4870SOL     OW26245   4.477   0.034   9.358  0.1429  0.0138  0.1920
 4870SOL    HW126246   4.440   4.692   9.400  0.2171  0.2330  0.6519
 4870SOL    HW226247   4.456   0.028   9.264 -1.0914 -1.1135  0.5408
 4871SOL     OW26248   1.491   1.152   4.189 -0.6683  0.2320 -0.4420
 4871SOL    HW126249   1.556   1.108   4.243 -0.0113  2.7690  0.8441
 4871SOL    HW226250   1.444   1.078   4.151 -0.9093  0.1751 -0.0355
 4872SOL     OW26251   4.385   1.504   6.241 -0.0282 -0.0972  0.2492
 4872SOL    HW126252   4.367   1.450   6.317  0.1582 -0.5621 -0.0356
 4872SOL    HW226253   4.474   1.489   6.209 -1.1143 -1.0618 -2.3758
 4873SOL     OW26254   2.536   4.042   4.339  0.1424  0.0771 -0.1022
 4873SOL    HW126255   2.547   4.097   4.261  0.8855  2.2945  1.5454
 4873SOL    HW226256   2.452   4.078   4.366 -0.1987  0.0914 -1.1747
 4874SOL     OW26257   4.021   0.445   7.438  0.4964  0.1677 -0.0106
 4874SOL    HW126258   4.082   0.434   7.364  0.8413  0.3651  0.2435
 4874SOL    HW226259   3.993   0.534   7.419 -2.3476 -0.7590 -0.1341
 4875SOL     OW26260   0.241   1.845   4.489  0.3433  0.4058 -0.3955
 4875SOL    HW126261   0.201   1.836   4.576 -0.8701 -1.6681 -1.1866
 4875SOL    HW226262   0.330   1.854   4.522 -0.3693  1.5778  1.2399
 4876SOL     OW26263   2.113   4.158  15.365  0.0391  0.5340 -0.0964
 4876SOL    HW126264   2.142   4.070  15.341 -1.2579 -0.3723  1.6281
 4876SOL    HW226265   2.017   4.149  15.361 -0.0895  1.4885  0.7364
 4877SOL     OW26266   4.082   4.569   1.943 -0.4356 -0.2411 -0.3318
 4877SOL    HW126267   4.007   4.550   1.999  1.6250  0.3569  2.5866
 4877SOL    HW226268   4.132   4.635   1.991  1.4448 -2.2056  0.3949
 4878SOL     OW26269   2.881   3.596   7.903  0.3620 -0.2804  0.5191
 4878SOL    HW126270   2.841   3.592   7.990  0.5608  0.6464  0.6523
 4878SOL    HW226271   2.961   3.545   7.917  0.6995 -0.1381 -0.9133
 4879SOL     OW26272   1.365   3.771   5.088  0.2170  0.0342  0.5172
 4879SOL    HW126273   1.284   3.763   5.037  0.6159 -0.0720 -0.1090
 4879SOL    HW226274   1.423   3.800   5.017 -0.7282  1.5913  0.3914
 4880SOL     OW26275   0.997   3.887   4.721  0.1288 -0.1062  0.3393
 4880SOL    HW126276   1.040   3.884   4.636  1.2040  0.1393  0.8754
 4880SOL    HW226277   0.909   3.919   4.702 -0.8408 -2.7231  0.4644
 4881SOL     OW26278   2.373   1.748   3.543  0.2203 -0.5848 -0.2235
 4881SOL    HW126279   2.290   1.708   3.570 -0.2331  0.3707 -0.2185
 4881SOL    HW226280   2.340   1.809   3.477 -0.1766  0.0820  0.5935
 4882SOL     OW26281   4.106   3.533   6.472  0.0558 -0.4921 -0.3435
 4882SOL    HW126282   4.116   3.446   6.513 -1.2057  0.3629  1.7557
 4882SOL    HW226283   4.174   3.575   6.524 -0.3090 -1.6299  1.0687
 4883SOL     OW26284   2.951   0.816   1.849  0.1560  0.6057 -0.3356
 4883SOL    HW126285   2.893   0.837   1.923  1.7526 -0.0101  1.0897
 4883SOL    HW226286   2.901   0.742   1.815  0.0053  1.4710 -2.0158
 4884SOL     OW26287   4.664   4.543   9.294 -0.0605  0.5773 -0.0953
 4884SOL    HW126288   4.682   4.619   9.238  0.6624  0.6305  0.2152
 4884SOL    HW226289   4.660   4.576   9.384  0.6095 -0.1173  0.1870
 4885SOL     OW26290   2.870   3.674   3.161  0.4133 -0.2865 -0.2479
 4885SOL    HW126291   2.801   3.715   3.213 -0.4113 -1.1746 -0.6557
 4885SOL    HW226292   2.914   3.753   3.128  0.9975  0.9760  3.5416
 4886SOL     OW26293   2.387   4.176  15.843  0.1654  0.3746  0.2322
 4886SOL    HW126294   2.386   4.145  15.752 -1.9240  0.2353  0.3193
 4886SOL    HW226295   2.475   4.147  15.869 -0.7552 -0.9011  1.9359
 4887SOL     OW26296   3.967   3.949   4.293  0.0255  0.0881  0.8640
 4887SOL    HW126297   3.953   4.044   4.290  1.1048  0.2209 -0.4386
 4887SOL    HW226298   4.019   3.936   4.213 -1.6991 -2.0935  0.1148
 4888SOL     OW26299   1.230   1.917   5.626 -0.6228 -0.2746  0.0036
 4888SOL    HW126300   1.195   2.005   5.612 -2.4225 -0.7577  1.4028
 4888SOL    HW226301   1.283   1.917   5.547 -1.1436  0.5635 -0.3480
 4889SOL     OW26302   3.221   2.479  12.261 -0.5922  0.1255  0.1972
 4889SOL    HW126303   3.270   2.546  12.212 -2.0428 -0.4975 -2.0827
 4889SOL    HW226304   3.256   2.482  12.351 -1.0237 -1.1611  0.4059
 4890SOL     OW26305   1.133   1.530  12.378 -0.7430 -0.5659 -0.1229
 4890SOL    HW126306   1.118   1.462  12.312 -0.8364 -0.1255 -0.5571
 4890SOL    HW226307   1.147   1.599  12.313  0.1867  0.0175  0.6944
 4891SOL     OW26308   0.048   3.139   3.099 -0.3109 -0.4256 -0.2551
 4891SOL    HW126309   0.072   3.231   3.093  2.7464 -1.1678  0.6102
 4891SOL    HW226310   0.120   3.088   3.062 -0.7812 -0.4294 -1.1701
 4892SOL     OW26311   0.578   1.912   2.727 -0.0366 -0.2546  0.3845
 4892SOL    HW126312   0.653   1.873   2.771  1.3186  1.4225 -0.4177
 4892SOL    HW226313   0.530   1.840   2.687  2.7234 -2.5939  1.2708
 4893SOL     OW26314   2.301   3.727   0.535  0.0215  0.3819  0.0827
 4893SOL    HW126315   2.260   3.713   0.620  1.8363 -1.1644  0.7074
 4893SOL    HW226316   2.363   3.654   0.531 -2.7241 -1.9043 -0.4234
 4894SOL     OW26317   1.677   2.070  13.521 -0.0932 -0.3735  0.3268
 4894SOL    HW126318   1.637   2.109  13.599  0.4703  0.2760  0.2879
 4894SOL    HW226319   1.635   1.985  13.512  0.0711 -0.3519 -0.6005
 4895SOL     OW26320   4.010   4.354  12.634  0.5066 -0.4024 -0.1253
 4895SOL    HW126321   4.077   4.373  12.569  3.5967 -0.1473  3.0970
 4895SOL    HW226322   4.059   4.385  12.711  1.9165 -1.7543 -0.4754
 4896SOL     OW26323   0.330   0.990   5.888 -0.3079 -0.4766 -0.5593
 4896SOL    HW126324   0.304   0.904   5.922 -1.2971 -0.8519 -2.2885
 4896SOL    HW226325   0.246   1.034   5.876  0.1307  0.0750 -1.5100
 4897SOL     OW26326   0.571   3.555   5.497  0.0298  0.8944  0.0099
 4897SOL    HW126327   0.516   3.512   5.431  1.3232  0.2030 -0.6283
 4897SOL    HW226328   0.501   3.601   5.542  0.7008  2.8430 -0.9443
 4898SOL     OW26329   4.169   3.857   9.921 -0.0028  0.0647 -0.1388
 4898SOL    HW126330   4.218   3.857  10.003  0.0096  2.9021 -0.1493
 4898SOL    HW226331   4.163   3.763   9.903  1.2786 -0.0539  0.1207
 4899SOL     OW26332   3.619   1.848   6.078 -0.6598 -0.5021 -0.2641
 4899SOL    HW126333   3.636   1.852   6.172  1.5424 -1.7018 -0.5986
 4899SOL    HW226334   3.563   1.772   6.067 -1.2417  0.0067 -0.8027
 4900SOL     OW26335   2.738   2.044  14.561 -0.2058  0.6492 -0.1282
 4900SOL    HW126336   2.820   2.010  14.525  0.4027  0.5949  1.3036
 4900SOL    HW226337   2.690   2.041  14.478  0.3428  1.1809 -0.4709
 4901SOL     OW26338   2.330   4.007   4.055 -0.1860  0.1031 -0.4103
 4901SOL    HW126339   2.324   3.930   4.111  0.7034  0.8491  0.7387
 4901SOL    HW226340   2.346   3.963   3.972  0.2567 -0.5260  0.0055
 4902SOL     OW26341   1.426   0.261   8.904 -0.6645 -0.0818 -0.2534
 4902SOL    HW126342   1.456   0.327   8.841 -0.3178 -1.4434 -1.5178
 4902SOL    HW226343   1.394   0.314   8.976  0.2869 -0.0925  0.1734
 4903SOL     OW26344   2.723   2.972   6.765  0.6656 -0.3939  0.1644
 4903SOL    HW126345   2.775   2.925   6.699  0.2633 -3.2047  1.8520
 4903SOL    HW226346   2.723   3.061   6.730 -2.5202 -0.6847 -0.5436
 4904SOL     OW26347   4.222   1.097   7.609 -0.7151  0.0468  0.0300
 4904SOL    HW126348   4.223   1.002   7.621 -2.0186  0.1477  0.9667
 4904SOL    HW226349   4.276   1.121   7.685  2.0487 -1.1563 -1.5404
 4905SOL     OW26350   4.335   4.678   8.099  0.3392  0.3082  0.1092
 4905SOL    HW126351   4.292   4.732   8.165 -1.9138 -0.9414 -0.3171
 4905SOL    HW226352   4.376   0.014   8.051  1.8292 -0.0734  0.8136
 4906SOL     OW26353   3.827   3.047  16.267 -0.3303  0.7858 -0.4023
 4906SOL    HW126354   3.798   3.134  16.293  1.3570  1.3027 -0.2318
 4906SOL    HW226355   3.831   3.054  16.172  0.3690 -0.4240 -0.4680
 4907SOL     OW26356   0.677   3.150   6.120 -0.2740  0.2986 -0.3472
 4907SOL    HW126357   0.603   3.161   6.061 -0.3695  0.7654 -0.1414
 4907SOL    HW226358   0.739   3.214   6.086  0.1212  0.5566  0.8341
 4908SOL     OW26359   2.079   4.505   8.705 -0.2194 -0.6089  0.6059
 4908SOL    HW126360   2.164   4.471   8.680 -0.3679  0.1508 -0.9630
 4908SOL    HW226361   2.107   4.590   8.739 -0.4763 -0.0289 -0.6416
 4909SOL     OW26362   0.075   1.117   5.831  0.7465  0.0891 -0.0057
 4909SOL    HW126363   0.086   1.051   5.762 -1.6962 -0.3707  0.0603
 4909SOL    HW226364   0.013   1.182   5.799  0.1291  0.0411  1.1367
 4910SOL     OW26365   4.460   2.568   0.959 -0.2402 -0.0276 -0.3310
 4910SOL    HW126366   4.522   2.499   0.982 -0.4766  0.2320  1.0616
 4910SOL    HW226367   4.521   2.642   0.955  0.4712 -0.6368 -0.8001
 4911SOL     OW26368   3.345   4.683   3.514  0.5191 -0.3892 -0.4769
 4911SOL    HW126369   3.256   4.654   3.490  0.5789 -0.1927 -0.9362
 4911SOL    HW226370   3.397   4.665   3.436  0.2830  0.6812 -0.8793
 4912SOL     OW26371   0.877   2.367   3.236 -0.4473 -0.9396 -0.9051
 4912SOL    HW126372   0.969   2.360   3.262 -1.1755  0.8873  2.1143
 4912SOL    HW226373   0.883   2.433   3.167 -0.5360 -1.2428 -1.2060
 4913SOL     OW26374   1.940   0.725   8.854 -0.3914  0.6165 -0.0408
 4913SOL    HW126375   1.883   0.658   8.816 -0.6594  0.7874  0.0553
 4913SOL    HW226376   2.012   0.671   8.885  1.2075  1.5693 -2.1078
 4914SOL     OW26377   1.185   2.764   5.080  0.2995  0.5017  0.1155
 4914SOL    HW126378   1.218   2.852   5.098  0.9297  0.5567 -1.3331
 4914SOL    HW226379   1.203   2.734   5.169 -0.4361 -1.3175 -0.3530
 4915SOL     OW26380   3.739   4.514   3.820 -0.8666 -0.2004  0.4552
 4915SOL    HW126381   3.697   4.479   3.899 -2.0252  0.0714 -0.0382
 4915SOL    HW226382   3.656   4.545   3.782 -1.4666 -2.0139  0.3037
 4916SOL     OW26383   0.906   3.542   1.431 -0.0002  0.1062  0.0885
 4916SOL    HW126384   0.985   3.501   1.397  2.0873  2.7333  1.8026
 4916SOL    HW226385   0.938   3.545   1.521  0.9833  0.7867 -0.2821
 4917SOL     OW26386   3.239   0.394   3.370  0.2198  1.3160  0.2744
 4917SOL    HW126387   3.250   0.478   3.416  2.1802  1.1540  0.1098
 4917SOL    HW226388   3.167   0.415   3.311  0.1478  2.6012  0.8130
 4918SOL     OW26389   3.609   1.903   1.095  0.1916 -0.1336  0.1713
 4918SOL    HW126390   3.589   1.991   1.065  1.5233  0.4152  0.8953
 4918SOL    HW226391   3.530   1.856   1.121  0.0674 -0.1405 -0.2281
 4919SOL     OW26392   1.855   4.375   1.805  0.1910  0.1703  0.4924
 4919SOL    HW126393   1.833   4.371   1.712 -0.5523  0.5743  0.6515
 4919SOL    HW226394   1.950   4.364   1.808 -0.0298 -1.8802 -0.0274
 4920SOL     OW26395   3.334   0.168   4.388  0.1561 -0.7368  0.5118
 4920SOL    HW126396   3.423   0.188   4.417  1.0177 -3.9259  0.0171
 4920SOL    HW226397   3.335   0.244   4.331 -2.3839 -1.0254  0.0945
 4921SOL     OW26398   4.087   3.271  16.999 -0.0254  0.5382  0.5687
 4921SOL    HW126399   4.095   3.330  17.075  0.9302  0.5038  0.4999
 4921SOL    HW226400   4.120   3.340  16.941  1.5956  0.6666  1.6374
 4922SOL     OW26401   0.829   4.707  11.620  0.0414 -0.1517  0.7507
 4922SOL    HW126402   0.856   4.623  11.657 -0.2214 -1.3392 -1.7311
 4922SOL    HW226403   0.909   0.013  11.650  0.9305 -3.1771  2.5823
 4923SOL     OW26404   1.048   0.349   0.383  0.2350  0.6504 -0.3693
 4923SOL    HW126405   1.095   0.294   0.320  0.6938  1.9850 -1.1820
 4923SOL    HW226406   0.969   0.294   0.375 -0.8790  2.1982 -0.0640
 4924SOL     OW26407   1.401   2.941   9.479 -0.0761 -0.2821  0.0764
 4924SOL    HW126408   1.375   2.853   9.505  0.3591 -0.0051  1.4536
 4924SOL    HW226409   1.340   2.952   9.407  0.2604 -0.7538 -0.2774
 4925SOL     OW26410   2.046   3.258   5.553  0.9859 -0.2201 -0.9393
 4925SOL    HW126411   1.999   3.178   5.528  2.2534 -0.3663 -2.8698
 4925SOL    HW226412   2.017   3.272   5.643  1.9586 -1.1681 -0.4873
 4926SOL     OW26413   2.431   3.532  11.207  0.8038 -0.7351 -0.4161
 4926SOL    HW126414   2.475   3.551  11.124  0.6230 -2.4490 -0.9101
 4926SOL    HW226415   2.447   3.612  11.257  0.1243 -0.4279 -0.6987
 4927SOL     OW26416   3.423   3.472   4.540  0.0481 -0.0203  0.0737
 4927SOL    HW126417   3.514   3.445   4.530 -0.0372 -0.6941  1.1609
 4927SOL    HW226418   3.422   3.566   4.557  0.9375  0.0395 -0.2100
 4928SOL     OW26419   2.585   1.644   1.007 -0.7494  0.4083 -0.2385
 4928SOL    HW126420   2.640   1.587   1.060 -0.3609  0.5291 -0.5160
 4928SOL    HW226421   2.545   1.694   1.078 -2.0342  1.8257 -1.9630
 4929SOL     OW26422   1.927   3.172  10.396  0.2126  0.3115  0.3093
 4929SOL    HW126423   1.974   3.111  10.454 -0.3120 -2.0796 -1.7964
 4929SOL    HW226424   1.889   3.106  10.337 -1.1777  1.1837  0.2290
 4930SOL     OW26425   1.906   1.471   9.847 -0.1325  0.2962 -0.4423
 4930SOL    HW126426   1.938   1.539   9.905  1.2493 -0.3770 -0.4162
 4930SOL    HW226427   1.904   1.396   9.906 -1.9429 -0.3960 -1.3777
 4931SOL     OW26428   2.941   3.912  12.826  0.2095 -0.3038  0.4409
 4931SOL    HW126429   3.029   3.927  12.861 -0.6588  4.0431  0.7000
 4931SOL    HW226430   2.893   3.991  12.850 -1.8968 -1.4252 -0.1211
 4932SOL     OW26431   2.742   3.392  16.147 -0.1767 -0.4555 -0.6229
 4932SOL    HW126432   2.764   3.462  16.085 -0.4315 -1.3052 -1.6705
 4932SOL    HW226433   2.675   3.430  16.203  1.0758  0.8394 -0.0011
 4933SOL     OW26434   4.527   4.355  12.529  0.1313  0.0865  0.0036
 4933SOL    HW126435   4.610   4.401  12.540  0.2440  0.2967 -1.7268
 4933SOL    HW226436   4.529   4.291  12.600 -2.4535  0.1369  0.1544
 4934SOL     OW26437   0.628   3.238   6.952 -0.1784 -0.4803  0.5319
 4934SOL    HW126438   0.568   3.217   6.881 -0.4280  1.2890  0.2103
 4934SOL    HW226439   0.671   3.153   6.950  0.6202  0.0226 -3.1105
 4935SOL     OW26440   3.843   2.886   4.797  0.3063  0.6369 -0.4199
 4935SOL    HW126441   3.870   2.798   4.772  0.2249  0.3416  0.5453
 4935SOL    HW226442   3.930   2.928   4.800 -0.4561  2.0066  2.7185
 4936SOL     OW26443   0.951   4.263  15.632  0.3319 -0.1424  0.4593
 4936SOL    HW126444   0.985   4.341  15.675  1.6336 -0.6123  0.2924
 4936SOL    HW226445   0.868   4.298  15.599  0.2589 -0.8705 -0.1254
 4937SOL     OW26446   0.128   2.614   8.939  0.0884 -0.3167 -0.4364
 4937SOL    HW126447   0.074   2.585   9.013  0.6559  0.1425  0.1577
 4937SOL    HW226448   0.197   2.550   8.959  1.8138  1.8849  0.6514
 4938SOL     OW26449   0.104   3.558  16.251 -0.4864 -0.0192  0.5107
 4938SOL    HW126450   0.049   3.524  16.323 -1.2786  0.9572  0.3619
 4938SOL    HW226451   0.186   3.540  16.296  0.7484  1.4475 -1.1891
 4939SOL     OW26452   2.181   4.288  17.616  0.6515  0.6421  0.1148
 4939SOL    HW126453   2.273   4.286  17.643  0.7852  1.1612 -0.2838
 4939SOL    HW226454   2.161   4.381  17.604 -0.5706  0.7303  2.7218
 4940SOL     OW26455   0.245   2.198   6.652 -0.3614 -0.1683  0.2401
 4940SOL    HW126456   0.168   2.216   6.706 -0.8793 -0.9472 -0.2406
 4940SOL    HW226457   0.254   2.103   6.662 -0.4785 -0.2717 -0.6179
 4941SOL     OW26458   4.104   3.896   8.688 -0.1327 -0.2203 -0.1309
 4941SOL    HW126459   4.152   3.915   8.608 -1.7434  0.2985 -0.9880
 4941SOL    HW226460   4.132   3.808   8.715 -0.5497 -0.3720 -0.1884
 4942SOL     OW26461   4.674   4.177  14.226  0.1655 -0.7265 -0.1660
 4942SOL    HW126462   0.009   4.113  14.219 -0.4005 -1.3286 -0.3848
 4942SOL    HW226463   4.649   4.201  14.137 -0.9197 -0.8653  0.1030
 4943SOL     OW26464   0.132   0.818  10.397 -0.0711  0.4970 -0.3280
 4943SOL    HW126465   0.147   0.725  10.412 -2.1960  0.3401  0.8701
 4943SOL    HW226466   0.211   0.861  10.430  0.8726 -0.7701 -0.9333
 4944SOL     OW26467   4.436   3.747   6.073  0.1463  0.2808 -0.5700
 4944SOL    HW126468   4.459   3.729   6.165  0.7931  1.2271 -0.5514
 4944SOL    HW226469   4.425   3.841   6.082 -0.4403  0.2908 -1.4768
 4945SOL     OW26470   3.847   0.724   6.246  0.4187 -0.6636  0.1360
 4945SOL    HW126471   3.844   0.778   6.167  1.4002  1.0821  1.3177
 4945SOL    HW226472   3.833   0.789   6.314 -2.8896 -0.7018 -0.5069
 4946SOL     OW26473   0.073   2.798   8.721  0.1619 -0.4732  0.0719
 4946SOL    HW126474   0.047   2.707   8.735 -3.3138  0.4665 -0.3443
 4946SOL    HW226475   0.163   2.793   8.752  0.2689 -0.9409 -0.3058
 4947SOL     OW26476   3.611   0.937  13.467  0.3023  0.4557 -0.0855
 4947SOL    HW126477   3.570   0.851  13.473 -2.2499  1.7384  0.9878
 4947SOL    HW226478   3.648   0.932  13.378 -0.4819 -1.3495 -0.3038
 4948SOL     OW26479   2.399   0.502  17.435 -0.3873 -0.5075  0.0931
 4948SOL    HW126480   2.430   0.583  17.394 -1.8576 -0.5191 -1.0233
 4948SOL    HW226481   2.313   0.495  17.393 -1.2990 -0.7995  2.0134
 4949SOL     OW26482   2.956   2.632   1.953  0.3076  0.2474 -0.0350
 4949SOL    HW126483   2.889   2.643   1.885  0.2090 -0.1969 -0.0092
 4949SOL    HW226484   2.997   2.548   1.933 -1.0339 -0.7596  1.4670
 4950SOL     OW26485   0.856   3.952   5.586  0.4588  0.2812  0.5869
 4950SOL    HW126486   0.783   3.899   5.555  1.1555 -1.2001  1.4626
 4950SOL    HW226487   0.925   3.902   5.542  0.6051  0.3558  0.7314
 4951SOL     OW26488   3.495   1.652   6.807 -0.3506  0.1946 -0.0419
 4951SOL    HW126489   3.583   1.624   6.783 -1.6093 -2.7027 -1.2636
 4951SOL    HW226490   3.457   1.577   6.760  0.0426  0.5256 -0.8951
 4952SOL     OW26491   1.195   0.455   7.423 -0.1563  0.2310  0.0557
 4952SOL    HW126492   1.246   0.378   7.402 -0.0481  0.7279 -1.4911
 4952SOL    HW226493   1.125   0.444   7.359 -0.9175 -1.4390  1.2007
 4953SOL     OW26494   1.393   2.269   8.937 -0.2560  0.5689  0.0946
 4953SOL    HW126495   1.300   2.269   8.913  0.5074  0.7315 -2.8660
 4953SOL    HW226496   1.389   2.262   9.033 -0.0826  3.0240  0.2899
 4954SOL     OW26497   1.746   1.515   6.581 -0.1903  0.3914 -0.1439
 4954SOL    HW126498   1.743   1.583   6.514 -0.5460  0.7867  0.2717
 4954SOL    HW226499   1.655   1.496   6.604 -0.1930  0.6228  0.0439
 4955SOL     OW26500   1.150   1.817  17.514 -0.4755 -0.5808  0.1021
 4955SOL    HW126501   1.193   1.766  17.445 -0.4182  1.9007 -1.6903
 4955SOL    HW226502   1.168   1.909  17.495 -0.3444 -1.0104 -1.7995
 4956SOL     OW26503   1.718   4.681   3.997 -0.5059 -0.4329 -0.3090
 4956SOL    HW126504   1.640   4.733   4.016  0.3864  0.3675  1.1504
 4956SOL    HW226505   1.687   4.633   3.920  0.5354  0.3203 -1.2041
 4957SOL     OW26506   1.794   4.341   6.675  0.2875 -0.4747 -0.3327
 4957SOL    HW126507   1.811   4.390   6.755  2.7093 -1.3341 -0.3042
 4957SOL    HW226508   1.837   4.257   6.692  0.5970 -0.4487 -0.9555
 4958SOL     OW26509   1.402   1.097   3.882 -0.7093  0.1039 -0.1715
 4958SOL    HW126510   1.328   1.093   3.942 -0.8808  1.5961 -0.2971
 4958SOL    HW226511   1.386   1.017   3.832 -0.3215 -0.4946  0.6581
 4959SOL     OW26512   3.944   1.986   6.104  0.3523  0.4590 -0.1300
 4959SOL    HW126513   3.906   1.925   6.168 -1.5547  0.6464 -1.0683
 4959SOL    HW226514   3.931   1.948   6.017  0.3769  0.4958 -0.1497
 4960SOL     OW26515   3.619   0.829  17.674  0.1165 -0.1160 -0.0406
 4960SOL    HW126516   3.561   0.775  17.727  0.2007 -0.6644 -0.5044
 4960SOL    HW226517   3.634   0.902  17.734 -1.5116 -0.0931  0.3292
 4961SOL     OW26518   3.128   4.119   3.935  0.0321 -0.2101  0.2196
 4961SOL    HW126519   3.117   4.049   4.000  0.0686 -0.9109 -0.5273
 4961SOL    HW226520   3.053   4.107   3.876 -1.3455  0.5052  1.8322
 4962SOL     OW26521   3.488   0.999   4.752  0.1144  0.1277  0.0901
 4962SOL    HW126522   3.573   0.989   4.795 -0.4287  0.2058  1.1865
 4962SOL    HW226523   3.504   0.977   4.660 -1.2257  0.5889 -0.2660
 4963SOL     OW26524   3.586   3.031   6.392 -1.0551  0.1719 -0.2852
 4963SOL    HW126525   3.582   3.114   6.345  3.6109  0.3262 -0.4595
 4963SOL    HW226526   3.678   3.014   6.416 -0.9313 -2.0148 -2.3315
 4964SOL     OW26527   3.022   3.861  13.899 -0.1413  0.0158 -0.0959
 4964SOL    HW126528   2.940   3.889  13.859  0.1442  0.3902 -0.4159
 4964SOL    HW226529   2.985   3.806  13.968  2.1962  0.7358  1.7490
 4965SOL     OW26530   4.711   2.864   6.133 -0.1880 -0.2645 -0.0426
 4965SOL    HW126531   4.712   2.778   6.175 -0.3519 -1.5373 -2.6707
 4965SOL    HW226532   0.025   2.848   6.053 -2.0293  0.2439 -1.2829
 4966SOL     OW26533   0.049   0.458   5.949  0.1932 -0.0728  0.0314
 4966SOL    HW126534   0.023   0.445   6.041 -1.9517  0.4409 -0.5076
 4966SOL    HW226535   0.013   0.545   5.939 -0.3411  0.0151  2.5582
 4967SOL     OW26536   2.613   4.672   5.159 -0.4196 -0.5616 -0.2799
 4967SOL    HW126537   2.601   4.581   5.186 -2.5455 -0.7458 -1.8731
 4967SOL    HW226538   2.543   4.686   5.095  0.4688  2.4173 -0.5621
 4968SOL     OW26539   2.372   1.405  12.880  0.5811 -0.1791  0.1492
 4968SOL    HW126540   2.327   1.375  12.959 -1.3991  0.7466 -0.6364
 4968SOL    HW226541   2.299   1.393  12.820  0.2613 -0.9054  0.6862
 4969SOL     OW26542   3.143   3.758   7.867  0.5155 -0.6069 -0.3661
 4969SOL    HW126543   3.157   3.791   7.956  1.3892  1.5481 -1.3126
 4969SOL    HW226544   3.144   3.663   7.883  2.7313 -0.5013  0.1381
 4970SOL     OW26545   3.283   2.726   9.873  0.2041 -0.0011  0.2274
 4970SOL    HW126546   3.190   2.702   9.878 -0.1749  1.4997  0.2730
 4970SOL    HW226547   3.309   2.642   9.833  1.4232  0.3096  0.3815
 4971SOL     OW26548   4.228   3.224   7.753  0.4655  0.5187  0.1684
 4971SOL    HW126549   4.303   3.223   7.812  1.2907  0.6983 -0.8756
 4971SOL    HW226550   4.200   3.316   7.748 -1.4983 -0.0082  1.2050
 4972SOL     OW26551   2.790   3.776   4.434  0.1431  0.0347  0.4990
 4972SOL    HW126552   2.783   3.866   4.467  0.2806 -0.4231  1.7959
 4972SOL    HW226553   2.828   3.738   4.514 -0.1188  2.2452  1.6862
 4973SOL     OW26554   2.724   4.656  12.005 -0.6485 -0.7497 -0.0828
 4973SOL    HW126555   2.802   4.610  12.036 -0.9146 -0.8557  0.4341
 4973SOL    HW226556   2.687   4.588  11.948 -1.3680  2.0366 -2.9331
 4974SOL     OW26557   2.831   2.160   6.704 -0.3391  0.4158 -1.1408
 4974SOL    HW126558   2.857   2.234   6.649 -0.4901  1.0819 -0.3263
 4974SOL    HW226559   2.864   2.084   6.656 -0.4570 -1.1301  1.2267
 4975SOL     OW26560   3.656   0.049   6.143 -0.4006 -0.6436  0.9115
 4975SOL    HW126561   3.656   4.728   6.221  0.0743 -0.9077  0.7159
 4975SOL    HW226562   3.597   0.008   6.080  1.8012 -2.0828 -0.1874
 4976SOL     OW26563   2.975   3.188   7.055  0.1666 -0.5253  0.0391
 4976SOL    HW126564   3.043   3.191   6.988  0.6478 -0.6363  0.5302
 4976SOL    HW226565   2.956   3.096   7.069  0.6037 -1.0977 -3.1541
 4977SOL     OW26566   0.694   1.649   1.214  0.1713 -0.1596  0.4257
 4977SOL    HW126567   0.671   1.675   1.303 -3.5942 -0.4832 -0.4812
 4977SOL    HW226568   0.721   1.730   1.169 -0.4694  0.2746  0.8246
 4978SOL     OW26569   4.088   2.007   1.827  0.3105  0.4623 -0.4718
 4978SOL    HW126570   4.164   1.957   1.858  1.3956  0.6443 -2.8374
 4978SOL    HW226571   4.123   2.057   1.753 -0.0890  0.3504 -0.7389
 4979SOL     OW26572   0.332   4.102   6.210  0.1158 -0.0737  0.3301
 4979SOL    HW126573   0.259   4.089   6.149 -0.5187  2.7264  0.4820
 4979SOL    HW226574   0.334   4.195   6.231 -0.1735  0.3232 -1.3970
 4980SOL     OW26575   1.057   3.108  16.905  0.0579  0.0164 -0.4998
 4980SOL    HW126576   0.988   3.076  16.847  1.6611 -2.2983 -1.1698
 4980SOL    HW226577   1.022   3.078  16.989 -0.3284 -0.1807 -0.7291
 4981SOL     OW26578   3.378   2.203   5.792 -0.0258 -0.7226  0.4092
 4981SOL    HW126579   3.377   2.116   5.751 -1.8474 -1.7502  2.6250
 4981SOL    HW226580   3.375   2.269   5.723  0.4149 -1.2810 -0.1413
 4982SOL     OW26581   3.688   2.490  12.400  0.2180  0.1315 -0.3710
 4982SOL    HW126582   3.624   2.519  12.466 -1.6831 -2.0237 -1.2791
 4982SOL    HW226583   3.701   2.397  12.418  2.3898 -0.2362 -3.9017
 4983SOL     OW26584   1.702   0.562   0.186 -0.2078 -0.9140  0.2505
 4983SOL    HW126585   1.671   0.473   0.200 -1.2853 -0.6737 -0.6719
 4983SOL    HW226586   1.712   0.560   0.091 -1.6615 -0.3762  0.0960
 4984SOL     OW26587   1.193   4.388   8.160  0.5420  0.8392  0.6282
 4984SOL    HW126588   1.172   4.295   8.146 -1.0863  1.5785 -1.8085
 4984SOL    HW226589   1.111   4.418   8.201 -0.1486  0.6980 -0.6423
 4985SOL     OW26590   1.114   0.805   8.403 -0.0634 -0.4054 -0.4913
 4985SOL    HW126591   1.202   0.780   8.373  0.5399  2.4659 -1.0946
 4985SOL    HW226592   1.111   0.749   8.481 -1.5199  0.6010  0.1622
 4986SOL     OW26593   2.890   3.102   7.600 -0.0297 -0.0050  0.2223
 4986SOL    HW126594   2.877   3.135   7.689  0.9541 -0.2534  0.4540
 4986SOL    HW226595   2.832   3.164   7.555 -1.7562 -0.8233  1.3011
 4987SOL     OW26596   2.639   3.179   9.846 -0.2819 -0.4760  0.2831
 4987SOL    HW126597   2.704   3.246   9.825 -0.4094 -0.4898 -0.1627
 4987SOL    HW226598   2.567   3.241   9.854 -1.2912 -1.3844 -1.8418
 4988SOL     OW26599   1.710   2.332   6.421  0.1572  0.5983  0.3202
 4988SOL    HW126600   1.803   2.346   6.408 -0.2616  1.3305 -1.9303
 4988SOL    HW226601   1.681   2.390   6.491 -0.8071  1.6396 -0.9257
 4989SOL     OW26602   4.489   2.282   5.691  0.8655  0.4029 -0.0127
 4989SOL    HW126603   4.394   2.292   5.689  0.6312 -1.8482 -0.2028
 4989SOL    HW226604   4.517   2.373   5.701  1.9416  0.2810 -1.8629
 4990SOL     OW26605   2.704   2.555   9.784 -0.2200  0.1972 -0.0803
 4990SOL    HW126606   2.708   2.632   9.841 -0.5041 -0.5993  1.0166
 4990SOL    HW226607   2.618   2.522   9.808  0.4289 -2.2111 -1.0252
 4991SOL     OW26608   3.456   0.650   4.342  0.1117  0.2002 -0.2259
 4991SOL    HW126609   3.419   0.661   4.429  1.3242 -1.2630  0.4758
 4991SOL    HW226610   3.548   0.653   4.369  0.1607  0.9175 -0.4567
 4992SOL     OW26611   3.629   0.325  12.100  0.2155  0.2492 -0.7219
 4992SOL    HW126612   3.662   0.413  12.080  2.1046 -0.6132 -1.4122
 4992SOL    HW226613   3.657   0.282  12.019  1.3302 -0.6565  0.1528
 4993SOL     OW26614   4.475   1.116  17.415  0.2716 -0.3940 -0.1985
 4993SOL    HW126615   4.503   1.032  17.450  3.1634  1.8803  2.9608
 4993SOL    HW226616   4.549   1.171  17.441  0.2274 -0.8387  0.8328
 4994SOL     OW26617   3.188   1.526   7.563 -0.3009 -0.2352  0.4897
 4994SOL    HW126618   3.199   1.480   7.646 -0.5987 -4.0811 -1.5883
 4994SOL    HW226619   3.105   1.496   7.525  1.1459 -4.1845  0.4064
 4995SOL     OW26620   0.385   4.449   7.411 -0.2111  0.0533  0.3864
 4995SOL    HW126621   0.436   4.451   7.329  1.3595  1.2606  1.3928
 4995SOL    HW226622   0.357   4.541   7.408  2.0184  0.7652  1.4684
 4996SOL     OW26623   0.506   3.587   5.973 -0.2523  0.1127  0.3990
 4996SOL    HW126624   0.580   3.561   6.027  0.8378  0.6580 -0.8423
 4996SOL    HW226625   0.443   3.580   6.045 -1.3307  0.1852 -0.5403
 4997SOL     OW26626   4.590   4.042  10.814  0.4808 -0.2928  0.2931
 4997SOL    HW126627   4.624   4.128  10.840 -0.6291 -0.3465  1.8852
 4997SOL    HW226628   4.508   4.044  10.863 -0.2179  0.5867 -0.9093
 4998SOL     OW26629   0.762   0.808   4.728 -0.4355  0.1940 -0.1835
 4998SOL    HW126630   0.746   0.896   4.763 -1.8574 -0.1272 -0.0003
 4998SOL    HW226631   0.828   0.824   4.661 -0.0813 -0.0848  0.1046
 4999SOL     OW26632   0.227   4.688   2.511 -0.6509  0.4774  0.1619
 4999SOL    HW126633   0.175   4.657   2.585 -1.1262  0.2234 -0.2778
 4999SOL    HW226634   0.299   4.625   2.508  1.9652  3.5630 -2.0489
 5000SOL     OW26635   0.635   0.450  14.764 -0.6307  0.3029  0.1508
 5000SOL    HW126636   0.665   0.393  14.835 -0.3245 -0.7736 -0.8486
 5000SOL    HW226637   0.540   0.450  14.776 -0.3863 -2.0019  2.1762
 5001SOL     OW26638   1.183   3.395   3.405 -0.4061  0.4160  0.0368
 5001SOL    HW126639   1.097   3.368   3.375 -0.2312 -0.2934  0.1760
 5001SOL    HW226640   1.241   3.320   3.396  0.5412  1.1547 -0.1114
 5002SOL     OW26641   2.627   2.661  12.257  0.5143 -0.1924 -0.6502
 5002SOL    HW126642   2.640   2.726  12.326 -0.3567 -0.9550  0.2405
 5002SOL    HW226643   2.656   2.704  12.176 -1.6364  0.3208 -1.1606
 5003SOL     OW26644   4.638   2.216   5.102 -0.3717 -0.1587  0.1446
 5003SOL    HW126645   4.576   2.237   5.171  0.1748  1.7521  0.0676
 5003SOL    HW226646   4.702   2.162   5.148  0.5981  0.1735 -0.7980
 5004SOL     OW26647   1.993   0.915   5.489  0.8000 -0.3774 -0.4602
 5004SOL    HW126648   1.994   1.004   5.454  0.4046  0.5634  1.8923
 5004SOL    HW226649   1.992   0.938   5.582  0.9027  1.1658 -0.8401
 5005SOL     OW26650   1.085   2.709  16.651 -0.2658  0.5882 -0.1262
 5005SOL    HW126651   1.127   2.795  16.649  1.6008 -0.2962  1.7656
 5005SOL    HW226652   1.065   2.689  16.559 -1.2662 -0.0222  0.2193
 5006SOL     OW26653   4.351   0.256  11.619 -0.1155 -0.0843 -0.5922
 5006SOL    HW126654   4.291   0.187  11.647  1.5106 -0.1776  2.6277
 5006SOL    HW226655   4.365   0.242  11.525  0.9603 -0.1716 -0.4159
 5007SOL     OW26656   1.007   1.209  10.549 -0.3860 -0.0644  0.0249
 5007SOL    HW126657   1.023   1.142  10.616  0.3233  0.7643  0.6903
 5007SOL    HW226658   1.078   1.271  10.566 -0.4535  0.0096  0.0328
 5008SOL     OW26659   4.645   3.817   5.660  0.6802  0.2505  0.4444
 5008SOL    HW126660   4.665   3.803   5.567  0.2839 -0.3671  0.4509
 5008SOL    HW226661   4.565   3.768   5.681  0.7362 -0.0860 -0.0989
 5009SOL     OW26662   2.850   0.214   2.009  0.3387 -0.0061 -0.3718
 5009SOL    HW126663   2.886   0.262   1.935 -1.1907 -2.0790 -2.4615
 5009SOL    HW226664   2.757   0.216   1.988  0.2208  1.6760  0.3377
 5010SOL     OW26665   3.791   1.173   7.305 -0.2736 -0.7754 -0.2570
 5010SOL    HW126666   3.728   1.184   7.377 -1.4782 -1.0954 -1.2742
 5010SOL    HW226667   3.857   1.135   7.364  1.6674  0.5666 -1.5358
 5011SOL     OW26668   2.617   4.412   8.809  0.5091 -0.0076  0.4094
 5011SOL    HW126669   2.588   4.466   8.883  2.1842  0.1166  0.9828
 5011SOL    HW226670   2.637   4.324   8.839 -2.9453 -1.0503 -0.3224
 5012SOL     OW26671   4.290   4.341   8.743 -0.2911  0.0490 -0.0366
 5012SOL    HW126672   4.233   4.417   8.757  0.0210 -0.0293  1.6231
 5012SOL    HW226673   4.260   4.326   8.653  0.7160 -0.2870 -0.3169
 5013SOL     OW26674   0.470   1.963   7.405 -0.0789 -0.2877 -0.7519
 5013SOL    HW126675   0.392   1.917   7.434  1.9072 -1.3301  2.8802
 5013SOL    HW226676   0.529   1.890   7.386  1.2150  0.7002 -0.5291
 5014SOL     OW26677   2.066   3.525  10.477  0.4086  0.6343  0.1833
 5014SOL    HW126678   2.076   3.619  10.464  2.5873  0.5084  0.8599
 5014SOL    HW226679   2.135   3.510  10.412  0.0184 -0.6453  0.0636
 5015SOL     OW26680   2.663   1.615   7.615  0.0417 -0.2673  0.2329
 5015SOL    HW126681   2.665   1.649   7.526  2.0103  0.3710  0.5336
 5015SOL    HW226682   2.753   1.623   7.645  0.4908 -1.8027 -0.6771
 5016SOL     OW26683   4.260   1.427   2.677  0.5751  0.3924  0.2129
 5016SOL    HW126684   4.195   1.405   2.610 -0.0143  1.8537  0.3015
 5016SOL    HW226685   4.202   1.410   2.751 -0.1791 -1.9697 -0.9323
 5017SOL     OW26686   0.790   4.454   5.220 -0.1457  0.0960  0.1942
 5017SOL    HW126687   0.720   4.497   5.269 -1.0042 -0.7757 -0.2417
 5017SOL    HW226688   0.732   4.386   5.184  1.5885 -2.1542  1.7031
 5018SOL     OW26689   2.018   2.442  16.020  0.3356 -0.0653  0.0104
 5018SOL    HW126690   2.002   2.537  16.015  3.4477  0.4231 -0.7348
 5018SOL    HW226691   2.112   2.450  16.033  0.5014  0.1439 -1.2647
 5019SOL     OW26692   2.242   0.446  15.433  0.4267 -0.0920  0.2835
 5019SOL    HW126693   2.276   0.533  15.454  2.2263 -0.7742  0.1124
 5019SOL    HW226694   2.219   0.456  15.340 -1.6994 -0.5855  0.7477
 5020SOL     OW26695   2.263   1.253   6.549  0.0580 -0.3884  0.6329
 5020SOL    HW126696   2.333   1.304   6.590  0.9206 -0.9435 -0.1621
 5020SOL    HW226697   2.304   1.168   6.565 -0.5414 -0.7234  0.3788
 5021SOL     OW26698   3.710   0.571   7.806 -0.3596 -0.4077  0.1065
 5021SOL    HW126699   3.629   0.536   7.841 -0.5282 -0.0778  0.0462
 5021SOL    HW226700   3.769   0.502   7.835 -1.7940 -1.4758  0.4679
 5022SOL     OW26701   4.489   0.543   7.152  0.5205 -0.4687  0.6663
 5022SOL    HW126702   4.443   0.460   7.136  1.0670 -0.5447 -0.5201
 5022SOL    HW226703   4.565   0.512   7.202 -0.3229 -0.7512  1.7572
 5023SOL     OW26704   3.158   3.724  15.841  0.5754  0.3344 -0.2767
 5023SOL    HW126705   3.235   3.754  15.890 -1.5903  1.7963  2.2246
 5023SOL    HW226706   3.189   3.714  15.751  0.5011  1.3046 -0.4137
 5024SOL     OW26707   1.265   0.199   7.392 -0.1678  0.0331  0.7900
 5024SOL    HW126708   1.187   0.159   7.429 -0.0594 -0.4062  0.5453
 5024SOL    HW226709   1.252   0.165   7.303  0.5501  0.4630  0.5197
 5025SOL     OW26710   0.378   1.634   1.862 -0.1134 -0.1693  0.5588
 5025SOL    HW126711   0.358   1.576   1.936  0.2404  1.5140  1.9643
 5025SOL    HW226712   0.460   1.595   1.831 -1.1470 -1.1683 -0.9316
 5026SOL     OW26713   2.537   4.656   4.498 -0.0870 -0.2049  0.0284
 5026SOL    HW126714   2.525   0.013   4.517 -1.0540 -0.3701  0.1891
 5026SOL    HW226715   2.453   4.650   4.453 -0.8714 -0.3876  1.4931
 5027SOL     OW26716   3.738   4.729   8.800  0.2462  0.0680 -0.4997
 5027SOL    HW126717   3.822   0.035   8.824  0.1653 -0.8517  1.4063
 5027SOL    HW226718   3.687   0.000   8.881  0.4600  1.7483 -0.4970
 5028SOL     OW26719   1.688   2.929  16.516  0.3457  0.6097  0.4470
 5028SOL    HW126720   1.682   2.884  16.431 -0.9366  0.8145  0.4286
 5028SOL    HW226721   1.624   2.879  16.566 -1.5006  1.4345 -1.1040
 5029SOL     OW26722   2.786   3.119   8.595  0.1248 -0.8699 -0.2033
 5029SOL    HW126723   2.735   3.189   8.634 -1.2163 -1.4164 -0.9696
 5029SOL    HW226724   2.717   3.054   8.579 -0.7240  0.3182 -1.3674
 5030SOL     OW26725   1.854   1.188   5.932 -0.1576  0.4292  0.1474
 5030SOL    HW126726   1.823   1.107   5.973 -2.4940  0.6306 -1.2242
 5030SOL    HW226727   1.868   1.152   5.845 -1.8352 -2.4298  1.0425
 5031SOL     OW26728   4.095   3.623   3.584 -0.0362  0.4603  0.3885
 5031SOL    HW126729   4.091   3.652   3.675  1.0924 -0.2525  0.6740
 5031SOL    HW226730   4.128   3.697   3.533  2.4765 -1.4136 -0.7112
 5032SOL     OW26731   2.011   3.860  12.407 -0.4930 -0.6782  0.0163
 5032SOL    HW126732   1.944   3.796  12.383 -2.4193  1.6371 -0.9155
 5032SOL    HW226733   1.972   3.935  12.361 -0.7064 -2.0100 -1.9927
 5033SOL     OW26734   4.632   2.376  17.079 -0.1101 -0.0985 -0.2761
 5033SOL    HW126735   4.719   2.352  17.047 -0.0971 -1.2326  0.5827
 5033SOL    HW226736   4.659   2.378  17.171 -0.0935  0.3137 -0.2927
 5034SOL     OW26737   3.862   1.019   7.574  0.3762 -0.1164  0.5003
 5034SOL    HW126738   3.803   0.945   7.557 -2.2382  2.1740 -0.3987
 5034SOL    HW226739   3.911   0.971   7.640  1.0521  0.1876  0.2154
 5035SOL     OW26740   4.643   0.047  17.365  0.4531 -0.1606 -0.3351
 5035SOL    HW126741   4.551   0.048  17.337  1.4743  0.2681 -3.7058
 5035SOL    HW226742   4.634   0.079  17.455  2.2356  0.8796 -0.5125
 5036SOL     OW26743   0.484   4.602   6.914  0.1111  0.3053  0.1868
 5036SOL    HW126744   0.459   4.598   6.821 -0.5376 -0.2859  0.3853
 5036SOL    HW226745   0.417   4.661   6.947  0.6662  1.4743 -0.7695
 5037SOL     OW26746   0.330   2.933   7.210 -0.2604  0.6107  0.3407
 5037SOL    HW126747   0.423   2.911   7.200 -0.7054 -1.2064  0.1839
 5037SOL    HW226748   0.312   2.896   7.296  1.4958  0.9975  0.8755
 5038SOL     OW26749   4.553   0.147   2.772  0.0879 -0.0652 -0.2787
 5038SOL    HW126750   4.636   0.177   2.807  0.6322 -0.1622 -1.4684
 5038SOL    HW226751   4.504   0.227   2.789  0.8301  0.3616 -0.1640
 5039SOL     OW26752   3.361   3.295   4.106 -0.1742  0.0005 -0.3469
 5039SOL    HW126753   3.328   3.381   4.134 -2.0937  0.2794 -3.5139
 5039SOL    HW226754   3.321   3.305   4.020  2.5351  1.8497 -1.3967
 5040SOL     OW26755   0.589   3.473   3.581 -0.2069  0.6163 -0.6509
 5040SOL    HW126756   0.677   3.465   3.619 -0.4990 -1.6129 -0.4220
 5040SOL    HW226757   0.580   3.566   3.558 -1.1304  0.3899 -1.2312
 5041SOL     OW26758   0.308   0.047   8.800  0.2698  0.3891  0.1206
 5041SOL    HW126759   0.215   0.060   8.782  0.2731 -1.4513 -1.1662
 5041SOL    HW226760   0.306   4.694   8.835  0.0887  0.8166  1.1883
 5042SOL     OW26761   0.901   1.266   6.122 -0.3240 -0.2319  1.2030
 5042SOL    HW126762   0.865   1.203   6.184  0.8239  0.1336  2.2462
 5042SOL    HW226763   0.825   1.315   6.092 -1.0071 -1.8841  0.2232
 5043SOL     OW26764   1.592   4.208  17.086 -0.1772 -0.5925 -0.0652
 5043SOL    HW126765   1.559   4.283  17.137  0.1174 -0.8430  0.4959
 5043SOL    HW226766   1.687   4.220  17.088 -0.2374  0.0310 -1.1017
 5044SOL     OW26767   4.299   4.307   9.460 -0.3951 -0.2656 -0.3416
 5044SOL    HW126768   4.284   4.254   9.538  0.5387 -0.4581 -0.2900
 5044SOL    HW226769   4.215   4.303   9.414 -0.6986 -0.0483  0.1914
 5045SOL     OW26770   2.297   2.693   6.796 -0.2597 -0.3278 -0.2668
 5045SOL    HW126771   2.350   2.750   6.740 -0.4716  0.9801  0.8388
 5045SOL    HW226772   2.229   2.670   6.734 -2.0509 -1.8603  2.2500
 5046SOL     OW26773   3.599   2.208   9.929  0.3026 -0.2281  0.3922
 5046SOL    HW126774   3.576   2.294   9.894  0.6602  0.4053  1.7371
 5046SOL    HW226775   3.518   2.157   9.920 -0.6459  1.4744 -0.8124
 5047SOL     OW26776   3.271   0.855   5.024 -0.0416 -0.5362  0.2227
 5047SOL    HW126777   3.319   0.775   5.044  2.0418  1.3326  2.5644
 5047SOL    HW226778   3.220   0.815   4.953 -0.2050 -1.3418  0.7910
 5048SOL     OW26779   2.225   0.290   5.538 -0.3306 -0.2937 -0.1462
 5048SOL    HW126780   2.312   0.255   5.519 -0.8916 -0.3174 -2.6043
 5048SOL    HW226781   2.171   0.261   5.464  1.8198 -1.2468 -1.3362
 5049SOL     OW26782   3.627   3.108   9.754 -0.4583  0.3011  0.3627
 5049SOL    HW126783   3.625   3.090   9.848  0.8225  2.6644  0.8366
 5049SOL    HW226784   3.575   3.030   9.733  0.0651  0.3472 -1.1426
 5050SOL     OW26785   2.243   1.107   2.178 -0.5604  0.4403  1.0281
 5050SOL    HW126786   2.206   1.065   2.100  1.2414 -1.2894  1.0932
 5050SOL    HW226787   2.219   1.044   2.246 -1.5535 -1.4418 -1.0431
 5051SOL     OW26788   2.864   1.693   0.871  0.7174 -0.0303  0.1530
 5051SOL    HW126789   2.805   1.677   0.945  0.8608  1.1156  0.5087
 5051SOL    HW226790   2.909   1.774   0.893  0.9036 -0.4113  1.2184
 5052SOL     OW26791   2.115   4.205  10.017 -0.9093  0.3288  0.4082
 5052SOL    HW126792   2.040   4.229  10.071  0.3220  0.4596  2.0534
 5052SOL    HW226793   2.108   4.258   9.938  0.3050 -2.4266 -1.5652
 5053SOL     OW26794   1.368   1.536   6.196  0.1675 -0.1963 -0.2222
 5053SOL    HW126795   1.303   1.588   6.149  0.5373 -0.2829 -0.8428
 5053SOL    HW226796   1.439   1.578   6.147 -0.3353  0.1069 -0.6872
 5054SOL     OW26797   2.267   1.145   6.915  0.2363  0.3013 -0.4727
 5054SOL    HW126798   2.338   1.204   6.890  0.6077  0.8964  2.0455
 5054SOL    HW226799   2.255   1.099   6.831 -2.0036 -0.6519  0.3578
 5055SOL     OW26800   0.495   2.191  14.019  0.2483 -0.0246 -0.3915
 5055SOL    HW126801   0.456   2.168  13.935 -0.7625 -1.0545  0.3479
 5055SOL    HW226802   0.556   2.258  13.991  0.4771  0.3395  0.9465
 5056SOL     OW26803   4.669   3.428  16.449  0.0100  0.4761  0.7960
 5056SOL    HW126804   0.010   3.374  16.470  0.1399  0.5721  0.5672
 5056SOL    HW226805   4.636   3.449  16.537 -0.9754  0.6443  0.3865
 5057SOL     OW26806   2.375   1.652   7.462  0.2465  0.4332 -0.5387
 5057SOL    HW126807   2.458   1.682   7.424  0.6928  1.6703  1.4430
 5057SOL    HW226808   2.333   1.611   7.386  0.8822  1.0050 -1.2140
 5058SOL     OW26809   0.732   4.401   6.043  0.0874  0.8357  0.0905
 5058SOL    HW126810   0.788   4.324   6.048 -1.7187 -0.4764  0.2742
 5058SOL    HW226811   0.668   4.375   5.977  1.9727  1.9838 -2.1679
 5059SOL     OW26812   4.104   1.639   4.248  0.0898 -0.1840 -0.0760
 5059SOL    HW126813   4.098   1.680   4.334 -0.3762  3.4732 -1.8637
 5059SOL    HW226814   4.071   1.550   4.264 -0.1206  0.4314  2.8650
 5060SOL     OW26815   0.976   0.557  10.219 -0.3607 -0.0642  0.2484
 5060SOL    HW126816   1.056   0.610  10.218 -1.3925  1.4862  0.0163
 5060SOL    HW226817   0.924   0.601  10.152  1.4768  4.1788  1.5919
 5061SOL     OW26818   2.333   1.963   2.420  0.0135  0.2949 -0.2986
 5061SOL    HW126819   2.375   1.885   2.457  1.3418  0.6518 -1.0654
 5061SOL    HW226820   2.410   2.020   2.411 -0.5147  0.8813 -1.0578
 5062SOL     OW26821   2.245   4.660   3.165 -0.4044  0.4302  0.0188
 5062SOL    HW126822   2.174   4.721   3.180 -0.5443  0.5587 -1.1732
 5062SOL    HW226823   2.273   4.645   3.255  3.0522 -0.7127 -1.2082
 5063SOL     OW26824   4.664   1.418   6.063 -0.5264  0.4161 -0.2198
 5063SOL    HW126825   4.704   1.427   5.976 -0.7920  0.5357 -0.3287
 5063SOL    HW226826   4.640   1.326   6.062 -1.1927  0.6013 -2.9714
 5064SOL     OW26827   1.792   1.699   4.253  0.2598 -0.6239 -0.1904
 5064SOL    HW126828   1.855   1.764   4.221  0.8100 -1.4528 -0.8315
 5064SOL    HW226829   1.817   1.714   4.344 -3.4338 -0.8248  0.8597
 5065SOL     OW26830   0.075   4.356   7.321 -0.5866  0.6475  0.0251
 5065SOL    HW126831   0.148   4.382   7.377 -0.9218  2.8166 -0.5566
 5065SOL    HW226832   4.734   4.370   7.377 -1.1976  0.4626 -0.7469
 5066SOL     OW26833   2.244   2.108  11.220  0.1267 -0.9644  0.0464
 5066SOL    HW126834   2.174   2.044  11.205 -1.4965  0.5183  1.1895
 5066SOL    HW226835   2.322   2.061  11.193  1.4024 -0.1418  2.2795
 5067SOL     OW26836   0.195   1.404   8.036  0.0244  0.1554  0.1333
 5067SOL    HW126837   0.280   1.447   8.035 -0.5984  1.3062 -1.7265
 5067SOL    HW226838   0.134   1.476   8.053  0.4019  0.0193  2.0764
 5068SOL     OW26839   0.948   0.792   6.390 -0.3663 -0.1000  0.1138
 5068SOL    HW126840   0.934   0.847   6.313  1.1052 -0.1874 -0.2185
 5068SOL    HW226841   1.017   0.846   6.428  0.1388 -0.1343 -0.7465
 5069SOL     OW26842   3.239   4.372   6.856  0.2328 -0.7046  0.2677
 5069SOL    HW126843   3.190   4.427   6.917 -2.3555 -2.8254  0.0977
 5069SOL    HW226844   3.253   4.298   6.915 -1.5515 -0.9181  0.4021
 5070SOL     OW26845   2.377   3.608  16.516 -0.0275  0.5807 -0.4437
 5070SOL    HW126846   2.422   3.676  16.565  2.4879 -0.5943 -1.1570
 5070SOL    HW226847   2.390   3.528  16.568 -0.8179 -0.9032 -2.5304
 5071SOL     OW26848   0.801   0.738   2.103  0.3431 -0.5083  0.1561
 5071SOL    HW126849   0.715   0.732   2.061  0.4036 -0.4187  0.0220
 5071SOL    HW226850   0.807   0.826   2.141 -2.2152 -0.8179  1.3041
 5072SOL     OW26851   0.698   3.831  15.396  0.2032  0.0854  0.2147
 5072SOL    HW126852   0.625   3.829  15.335  1.1949 -1.8471 -0.9029
 5072SOL    HW226853   0.674   3.904  15.454 -1.4769 -0.4077  0.1238
 5073SOL     OW26854   2.741   1.879   5.337 -0.3310 -0.0468 -0.3984
 5073SOL    HW126855   2.747   1.803   5.395  0.4479  0.3904  0.0923
 5073SOL    HW226856   2.791   1.945   5.384 -0.3213 -1.7572  1.9838
 5074SOL     OW26857   2.520   3.175   4.174 -0.3176  0.1231 -0.3309
 5074SOL    HW126858   2.512   3.214   4.261  0.2770 -0.4822 -0.0056
 5074SOL    HW226859   2.540   3.253   4.123 -0.0681  1.2226  1.4522
 5075SOL     OW26860   0.477   1.088   2.380  0.2108 -0.0313 -0.2493
 5075SOL    HW126861   0.524   1.128   2.454  0.0029  0.7136 -0.5175
 5075SOL    HW226862   0.431   1.168   2.353  0.8126  0.0766 -0.9231
 5076SOL     OW26863   2.730   1.315   2.630 -0.6273  0.2429  0.2677
 5076SOL    HW126864   2.786   1.294   2.555 -0.4861 -0.2988  0.5273
 5076SOL    HW226865   2.765   1.401   2.654  0.8801 -0.1281 -0.6098
 5077SOL     OW26866   2.764   2.827   9.199  0.2589 -0.4088 -0.0085
 5077SOL    HW126867   2.765   2.918   9.168  0.0941 -0.4263 -0.0650
 5077SOL    HW226868   2.683   2.796   9.158 -1.4869  1.1972  2.2349
 5078SOL     OW26869   2.885   0.690   1.017  0.3908 -0.1152 -0.2681
 5078SOL    HW126870   2.866   0.768   1.071 -0.5295 -0.9499  0.6063
 5078SOL    HW226871   2.800   0.665   0.982 -1.2272  1.6933  2.3816
 5079SOL     OW26872   4.709   3.235   9.544 -0.4380  0.0475 -0.4031
 5079SOL    HW126873   0.052   3.287   9.535 -1.6716  1.8892 -0.5524
 5079SOL    HW226874   4.670   3.231   9.457  1.5101  0.6919 -1.2796
 5080SOL     OW26875   0.560   1.157  17.259  0.0386 -0.0148 -0.4432
 5080SOL    HW126876   0.518   1.072  17.247 -2.2607  0.8569  1.3630
 5080SOL    HW226877   0.629   1.131  17.319 -0.9872 -0.0833  0.7068
 5081SOL     OW26878   0.555   1.838  11.353  0.2950  0.1542  0.4974
 5081SOL    HW126879   0.621   1.809  11.289 -2.2966 -1.2594 -1.5258
 5081SOL    HW226880   0.519   1.752  11.374 -0.2201  0.7121  1.8876
 5082SOL     OW26881   3.672   2.753   5.779  0.2552 -0.2634  0.3751
 5082SOL    HW126882   3.702   2.772   5.868 -1.8013  1.3549  0.7014
 5082SOL    HW226883   3.634   2.835   5.749  0.4782  0.0285  0.8902
 5083SOL     OW26884   1.167   1.213  17.289 -0.0056 -0.1101 -0.0033
 5083SOL    HW126885   1.261   1.214  17.303  0.0617 -2.9111 -0.1025
 5083SOL    HW226886   1.159   1.143  17.224 -0.3546  1.3500 -1.5018
 5084SOL     OW26887   0.784   3.683  12.366  0.2297 -0.3850 -0.0513
 5084SOL    HW126888   0.708   3.675  12.310 -0.1453  0.6027  0.3162
 5084SOL    HW226889   0.800   3.591  12.384  0.0043 -0.3590  0.2750
 5085SOL     OW26890   0.315   1.229   3.508 -0.0504 -0.3417  0.0150
 5085SOL    HW126891   0.398   1.250   3.551 -0.8478  3.2634 -0.1869
 5085SOL    HW226892   0.260   1.275   3.571 -1.5071 -2.1103  0.0149
 5086SOL     OW26893   2.437   2.317   5.577 -0.7122  0.1173  0.5255
 5086SOL    HW126894   2.491   2.302   5.655  0.2971 -1.2722 -0.4460
 5086SOL    HW226895   2.384   2.386   5.617 -0.1955 -0.1420  1.6707
 5087SOL     OW26896   0.016   2.751   4.011 -0.3101 -0.7398  0.3306
 5087SOL    HW126897   4.689   2.681   4.031 -0.4341 -1.2220 -1.7617
 5087SOL    HW226898   4.692   2.826   4.009  1.3071  0.5937  1.8392
 5088SOL     OW26899   3.779   2.336   3.988 -0.1326 -0.0747 -0.0534
 5088SOL    HW126900   3.728   2.407   4.027  0.9233  0.1851  0.8519
 5088SOL    HW226901   3.831   2.308   4.063  0.5101  3.0134  0.6580
 5089SOL     OW26902   2.535   3.133   1.758  0.0338  0.4625  0.4454
 5089SOL    HW126903   2.469   3.174   1.813  0.6597  0.9953  0.7992
 5089SOL    HW226904   2.551   3.199   1.691 -0.1450 -0.8446 -0.8866
 5090SOL     OW26905   1.601   4.352   1.136  0.0248  0.4718  0.1019
 5090SOL    HW126906   1.606   4.306   1.052 -0.7787  1.9309 -0.7605
 5090SOL    HW226907   1.651   4.292   1.191 -1.3674  1.3345  2.3111
 5091SOL     OW26908   0.382   3.468   5.316  0.8057 -0.0861  0.5216
 5091SOL    HW126909   0.406   3.395   5.259 -1.8233 -0.9296  0.5267
 5091SOL    HW226910   0.305   3.500   5.270  1.4456  2.1389  0.9517
 5092SOL     OW26911   2.329   3.029   4.052  0.3673 -0.8867 -0.3203
 5092SOL    HW126912   2.275   3.067   4.121  0.5583  1.6046 -1.5261
 5092SOL    HW226913   2.401   3.093   4.057  1.0478 -1.7335  0.9336
 5093SOL     OW26914   3.190   0.444   0.217  0.2380 -0.0964 -0.9745
 5093SOL    HW126915   3.189   0.349   0.201  0.0968 -0.7653  2.8961
 5093SOL    HW226916   3.248   0.453   0.293 -1.1869  1.1744 -0.0435
 5094SOL     OW26917   0.258   0.937   2.652 -0.1101  0.0635  0.1890
 5094SOL    HW126918   0.206   0.864   2.686  0.0396 -0.2514 -0.2663
 5094SOL    HW226919   0.185   0.998   2.646  1.2282  1.5554 -1.0639
 5095SOL     OW26920   1.587   3.949  11.755 -0.5326 -0.8730 -0.1875
 5095SOL    HW126921   1.580   4.044  11.771 -0.2004 -1.1279  1.5051
 5095SOL    HW226922   1.658   3.940  11.691 -0.1225  0.2867  0.0914
 5096SOL     OW26923   3.230   3.937   9.090 -0.0719  0.3507  0.1036
 5096SOL    HW126924   3.144   3.979   9.085 -0.8795 -1.2227  0.8931
 5096SOL    HW226925   3.290   4.008   9.115 -0.8011  0.0382  2.7445
 5097SOL     OW26926   2.794   1.482   1.138 -0.0109  0.2280  0.1282
 5097SOL    HW126927   2.797   1.387   1.152  3.0345  0.5079  1.3377
 5097SOL    HW226928   2.882   1.510   1.162  0.5258  0.0085 -1.5990
 5098SOL     OW26929   2.579   3.687   8.084 -0.1201  0.1775  0.0816
 5098SOL    HW126930   2.638   3.616   8.110  2.1770  1.3902 -1.8579
 5098SOL    HW226931   2.492   3.648   8.079  1.3036 -3.0407  0.2599
 5099SOL     OW26932   2.582   3.007  11.870 -0.2252  0.2967  0.4819
 5099SOL    HW126933   2.487   3.010  11.860  0.0664  2.8904 -1.3197
 5099SOL    HW226934   2.603   2.989  11.778  0.4061 -0.8137  0.8400
 5100SOL     OW26935   1.731   0.872  11.040  0.0369 -0.1170 -0.2086
 5100SOL    HW126936   1.724   0.957  11.082  1.2893 -0.0039 -0.2258
 5100SOL    HW226937   1.653   0.829  11.074 -0.5166 -0.4800 -1.9378
 5101SOL     OW26938   2.753   2.768   2.505 -0.0897  0.2662  0.1455
 5101SOL    HW126939   2.809   2.706   2.551  0.2279 -0.1460 -0.8020
 5101SOL    HW226940   2.812   2.824   2.455 -2.3800  1.5021 -1.1492
 5102SOL     OW26941   0.755   1.841  14.517 -0.0533  0.4444 -0.1606
 5102SOL    HW126942   0.747   1.908  14.450  1.4410 -1.6602 -2.4574
 5102SOL    HW226943   0.682   1.787  14.486 -1.8883  4.0044 -1.9841
 5103SOL     OW26944   0.218   4.378   2.707  0.1494 -0.0421  0.2433
 5103SOL    HW126945   0.290   4.438   2.688 -0.6074 -0.0030 -2.4320
 5103SOL    HW226946   0.236   4.381   2.801  0.1498  0.3601  0.2287
 5104SOL     OW26947   1.864   3.114   7.919  0.1682  1.0340  0.2606
 5104SOL    HW126948   1.806   3.168   7.972 -1.3958 -0.5621  0.1905
 5104SOL    HW226949   1.917   3.188   7.889  2.0571 -1.1491 -1.8195
 5105SOL     OW26950   3.485   3.164  13.367 -0.0300  0.1115 -0.7330
 5105SOL    HW126951   3.428   3.206  13.302 -1.7073 -0.4398  0.3786
 5105SOL    HW226952   3.540   3.107  13.314 -1.2968  0.3258 -2.2717
 5106SOL     OW26953   1.792   3.170   2.887 -0.4411 -0.2611  0.8706
 5106SOL    HW126954   1.813   3.220   2.808  2.7698 -1.1897  1.1106
 5106SOL    HW226955   1.873   3.189   2.935  0.4783  2.3042 -1.6945
 5107SOL     OW26956   4.342   4.573   9.479  0.4215  0.0158 -0.1303
 5107SOL    HW126957   4.345   4.477   9.481 -0.5669  0.0781  3.3603
 5107SOL    HW226958   4.280   4.587   9.407  0.0068 -1.1514 -0.0058
 5108SOL     OW26959   0.702   4.409  12.614  0.2154 -0.1481  0.1555
 5108SOL    HW126960   0.747   4.325  12.628 -0.2551 -0.5478 -0.7032
 5108SOL    HW226961   0.611   4.396  12.642 -0.3838  3.1298 -0.3169
 5109SOL     OW26962   0.748   2.321   1.925 -0.1562  0.1203 -0.0230
 5109SOL    HW126963   0.778   2.288   1.840  0.6233 -1.8512  1.0089
 5109SOL    HW226964   0.657   2.340   1.903  0.5399  0.8890 -2.3324
 5110SOL     OW26965   4.429   2.061  10.577  0.2194 -0.5412  0.2296
 5110SOL    HW126966   4.415   1.969  10.602 -4.1736 -0.5178 -2.0646
 5110SOL    HW226967   4.353   2.085  10.524  0.2306  0.7426  0.7877
 5111SOL     OW26968   1.484   3.482   1.741 -0.2227  0.0591 -0.0919
 5111SOL    HW126969   1.527   3.492   1.656  0.2217 -1.8831 -0.0772
 5111SOL    HW226970   1.556   3.469   1.803  1.6131 -0.7749 -2.3860
 5112SOL     OW26971   4.678   1.570  10.893  0.1410 -0.1410 -0.3933
 5112SOL    HW126972   4.602   1.576  10.950  0.3041  0.5824 -0.2453
 5112SOL    HW226973   4.691   1.656  10.853  2.1118  0.5177  1.6528
 5113SOL     OW26974   2.730   2.455  16.997  0.0289  0.3956 -0.0336
 5113SOL    HW126975   2.791   2.452  17.071  1.2546 -0.2753 -1.0756
 5113SOL    HW226976   2.762   2.526  16.941  1.8735 -2.2341 -2.2623
 5114SOL     OW26977   2.127   3.702   1.542 -0.0864  0.2050 -0.6350
 5114SOL    HW126978   2.170   3.718   1.626  1.3067 -0.8526 -1.1492
 5114SOL    HW226979   2.045   3.659   1.566 -0.9691  2.3902  0.2558
 5115SOL     OW26980   3.062   0.134   4.310  0.1435 -0.3919  0.5416
 5115SOL    HW126981   2.981   0.156   4.357 -0.1477 -1.4176  0.5257
 5115SOL    HW226982   3.128   0.174   4.366  0.0233 -0.3526  0.6551
 5116SOL     OW26983   2.122   0.283  15.878 -0.1411  0.3728  0.4486
 5116SOL    HW126984   2.054   0.279  15.811 -0.1588 -1.9757  0.6041
 5116SOL    HW226985   2.198   0.314  15.829 -0.6286  2.4455  1.0118
 5117SOL     OW26986   1.964   1.824   9.943  0.0699 -0.0055  0.6821
 5117SOL    HW126987   1.926   1.772  10.013  4.7905 -1.5368  2.0477
 5117SOL    HW226988   2.044   1.782   9.912 -0.2469 -1.5842  2.0082
 5118SOL     OW26989   4.058   0.545   7.693 -0.5392 -0.0782  0.2349
 5118SOL    HW126990   4.073   0.465   7.743  4.2116  0.8787  0.3435
 5118SOL    HW226991   4.062   0.508   7.605  2.1138  0.6521  0.0561
 5119SOL     OW26992   4.189   0.580   3.239  0.8956 -0.2313  0.4959
 5119SOL    HW126993   4.239   0.644   3.189 -2.4325  2.8376  1.1412
 5119SOL    HW226994   4.145   0.630   3.308  0.1834 -1.2358  0.7848
 5120SOL     OW26995   1.111   0.860   7.981  0.4488 -0.1347  0.3947
 5120SOL    HW126996   1.072   0.843   7.895  0.3991 -0.6553  0.5193
 5120SOL    HW226997   1.205   0.852   7.965  0.5834  2.7197 -0.2707
 5121SOL     OW26998   3.433   3.519   1.767 -0.1178 -0.1834  0.0396
 5121SOL    HW126999   3.452   3.475   1.684  1.4622 -1.8895  1.3163
 5121SOL    HW227000   3.337   3.527   1.766  0.0141  1.8353  2.9079
 5122SOL     OW27001   3.787   2.574   5.443  0.4451  0.5950 -0.2811
 5122SOL    HW127002   3.805   2.496   5.391  2.7478  0.9767 -0.0211
 5122SOL    HW227003   3.723   2.529   5.499  1.5194  1.2426  1.4593
 5123SOL     OW27004   1.474   2.668   3.176 -0.0153 -0.1540  0.7281
 5123SOL    HW127005   1.474   2.602   3.107  1.1536  2.9083 -2.2453
 5123SOL    HW227006   1.550   2.650   3.231 -0.5937 -2.3454  0.7911
 5124SOL     OW27007   2.712   2.293   3.662  0.5906 -0.4271 -0.0279
 5124SOL    HW127008   2.649   2.256   3.600  1.1040 -0.0431 -0.7785
 5124SOL    HW227009   2.794   2.288   3.613 -0.2469 -0.8991 -1.4082
 5125SOL     OW27010   1.136   3.072   8.180 -0.2346 -0.2776  0.2338
 5125SOL    HW127011   1.051   3.034   8.158  0.7768 -2.9772  0.9516
 5125SOL    HW227012   1.188   2.992   8.172 -1.1462 -0.6323 -2.2518
 5126SOL     OW27013   3.738   1.693   8.753  0.1063  0.1259 -0.1389
 5126SOL    HW127014   3.730   1.655   8.840  1.1061 -2.1499 -1.0496
 5126SOL    HW227015   3.702   1.621   8.702  1.7638 -1.7306  1.2864
 5127SOL     OW27016   0.248   1.365   0.743  0.0481  0.5846 -0.0112
 5127SOL    HW127017   0.320   1.425   0.764  1.6925 -0.6715 -1.9878
 5127SOL    HW227018   0.287   1.285   0.779 -2.9669 -0.6471  0.4469
 5128SOL     OW27019   0.015   1.496   0.820 -0.6184 -0.4481 -0.7239
 5128SOL    HW127020   0.068   1.445   0.758  3.0192  1.1510  1.0850
 5128SOL    HW227021   0.077   1.527   0.886  0.1407 -0.5657 -1.3696
 5129SOL     OW27022   1.441   3.179   6.666 -0.0522 -0.3498  0.2461
 5129SOL    HW127023   1.416   3.139   6.750 -0.2666 -0.6011  0.0629
 5129SOL    HW227024   1.357   3.222   6.647  0.3213  0.3192  0.1204
 5130SOL     OW27025   2.704   0.492   9.195  0.4841 -0.1887 -0.2769
 5130SOL    HW127026   2.728   0.423   9.133 -0.4530 -1.0062  0.2753
 5130SOL    HW227027   2.617   0.484   9.233  0.1836  0.7350 -0.7548
 5131SOL     OW27028   1.409   2.706   6.343  0.5759 -0.3246 -0.7846
 5131SOL    HW127029   1.405   2.662   6.428 -1.8252 -1.2187 -1.3744
 5131SOL    HW227030   1.382   2.790   6.379  0.9711 -0.7208  0.4364
 5132SOL     OW27031   0.676   1.190  14.087  0.0286  0.3621  0.0156
 5132SOL    HW127032   0.771   1.193  14.090  0.0264 -1.0652  2.0646
 5132SOL    HW227033   0.645   1.217  14.173 -0.3407 -2.9209  0.9398
 5133SOL     OW27034   3.898   1.394   0.762 -0.1391  0.0981  0.3298
 5133SOL    HW127035   3.887   1.485   0.735 -3.7658 -0.0224  1.4692
 5133SOL    HW227036   3.903   1.403   0.857  0.7883  1.0095  0.1981
 5134SOL     OW27037   0.641   4.397   2.936  0.1073  0.2677 -0.4539
 5134SOL    HW127038   0.605   4.312   2.960  0.1415 -0.1392 -1.8556
 5134SOL    HW227039   0.592   4.458   2.992 -0.8383  1.8863 -3.0241
 5135SOL     OW27040   4.684   1.672  16.211 -0.4959  0.0768 -0.0749
 5135SOL    HW127041   4.692   1.753  16.161 -1.2929 -0.0575 -0.4195
 5135SOL    HW227042   4.727   1.697  16.293 -1.8751  0.1174  0.6382
 5136SOL     OW27043   2.361   3.949   7.461  0.0552 -0.0806 -0.0902
 5136SOL    HW127044   2.310   3.869   7.468  0.2011 -0.1094  0.6238
 5136SOL    HW227045   2.306   4.018   7.499 -0.1705 -0.4305  0.2181
 5137SOL     OW27046   3.308   1.287   5.446 -0.1644 -0.4965  0.1041
 5137SOL    HW127047   3.243   1.323   5.385  2.4815  2.5662 -0.9483
 5137SOL    HW227048   3.314   1.196   5.417  0.5677  0.2483 -2.0745
 5138SOL     OW27049   4.441   4.016   8.229 -0.1270 -0.2842 -0.0855
 5138SOL    HW127050   4.423   4.104   8.197  0.9966  0.2452  0.7289
 5138SOL    HW227051   4.463   3.967   8.149 -0.6542  0.6672 -0.8084
 5139SOL     OW27052   1.850   2.143   6.678 -0.1061  0.3732 -0.2971
 5139SOL    HW127053   1.754   2.145   6.670 -0.0918  0.1966 -0.5301
 5139SOL    HW227054   1.863   2.172   6.768  0.0715  3.3011 -1.2573
 5140SOL     OW27055   2.173   0.881   0.348 -0.0865  0.5427  0.1737
 5140SOL    HW127056   2.157   0.790   0.324 -1.4588  0.4441  1.4393
 5140SOL    HW227057   2.163   0.883   0.443  2.3043  1.2174  0.4009
 5141SOL     OW27058   1.450   3.526   8.094  0.3832  0.3467 -0.6886
 5141SOL    HW127059   1.445   3.607   8.042 -1.6825  0.5592 -0.1681
 5141SOL    HW227060   1.522   3.544   8.154  0.5829 -1.6539 -0.3451
 5142SOL     OW27061   1.145   2.148   3.742  0.1233 -0.0284 -1.4012
 5142SOL    HW127062   1.058   2.143   3.701 -0.4916  0.2877 -0.1621
 5142SOL    HW227063   1.123   2.212   3.810  2.3455 -0.8801  0.0826
 5143SOL     OW27064   3.891   3.294   9.948  0.0836 -0.1712 -0.0647
 5143SOL    HW127065   3.863   3.368  10.002  1.1707  0.4771 -0.3900
 5143SOL    HW227066   3.927   3.238  10.017  0.5351  0.6781  0.3798
 5144SOL     OW27067   0.201   1.968  14.438 -0.0674  0.0354  0.3256
 5144SOL    HW127068   0.296   1.973  14.431 -0.0008 -0.8225  0.6448
 5144SOL    HW227069   0.182   1.966  14.344  1.8968 -0.8215 -0.0438
 5145SOL     OW27070   2.148   4.708  14.463  0.2887  0.5789  0.2906
 5145SOL    HW127071   2.189   4.669  14.386 -1.3314 -0.9512  0.2052
 5145SOL    HW227072   2.055   4.685  14.469  0.5355 -0.2009  1.1747
 5146SOL     OW27073   0.303   4.003   7.610  0.6115  0.0439 -0.3265
 5146SOL    HW127074   0.260   4.042   7.533 -2.9695  0.2242  1.7560
 5146SOL    HW227075   0.301   3.916   7.570  0.4056 -0.0653 -0.0795
 5147SOL     OW27076   3.690   2.597   7.437  0.0621  0.0306  0.1432
 5147SOL    HW127077   3.704   2.508   7.469 -1.1496  0.1046  0.8898
 5147SOL    HW227078   3.767   2.605   7.381 -0.0548 -1.1337 -0.1816
 5148SOL     OW27079   0.303   4.036  16.784  0.4061  0.1726  0.4733
 5148SOL    HW127080   0.314   4.028  16.879  2.0262  1.9498  0.4168
 5148SOL    HW227081   0.209   4.016  16.786  0.6868 -1.0984  1.2344
 5149SOL     OW27082   0.603   0.805   2.757 -0.2036 -0.3615  0.1786
 5149SOL    HW127083   0.539   0.852   2.811 -0.0030  0.8201 -0.6388
 5149SOL    HW227084   0.643   0.878   2.712  1.3183 -1.5253 -0.3537
 5150SOL     OW27085   2.372   0.179  15.308 -0.2081  0.1172 -0.6886
 5150SOL    HW127086   2.371   0.244  15.378  1.3756 -0.3276 -0.2475
 5150SOL    HW227087   2.365   0.096  15.356 -1.1434  0.1752 -0.7242
 5151SOL     OW27088   3.861   0.593  15.043 -0.3676 -0.0657 -0.6052
 5151SOL    HW127089   3.933   0.653  15.023  0.5190 -0.9496 -0.0378
 5151SOL    HW227090   3.787   0.655  15.045  1.2225  1.7880  0.6794
 5152SOL     OW27091   0.254   1.428   2.775 -0.1252  0.2870 -0.1956
 5152SOL    HW127092   0.214   1.514   2.786  1.3238  1.1863 -2.0559
 5152SOL    HW227093   0.178   1.371   2.782  0.3575  0.0542  3.0584
 5153SOL     OW27094   2.047   1.352  11.399  0.0844  0.1091  0.1294
 5153SOL    HW127095   2.062   1.263  11.432  0.3933  0.4200  0.8292
 5153SOL    HW227096   2.130   1.371  11.356 -0.6995  0.3726 -1.2538
 5154SOL     OW27097   1.635   0.517   8.540 -0.1839  0.0205  0.5012
 5154SOL    HW127098   1.574   0.456   8.498  2.0720 -0.4990 -1.9782
 5154SOL    HW227099   1.574   0.556   8.602  2.7053  2.3125  1.8761
 5155SOL     OW27100   4.356   0.670  11.106 -0.5038 -0.8565 -0.2573
 5155SOL    HW127101   4.365   0.631  11.020  0.2907  0.3518 -0.7205
 5155SOL    HW227102   4.423   0.738  11.098 -3.7771  2.2779 -0.6756
 5156SOL     OW27103   0.254   0.267  13.773  0.1813 -0.0157  0.2973
 5156SOL    HW127104   0.315   0.213  13.822  3.1216  1.2278 -1.9398
 5156SOL    HW227105   0.286   0.242  13.686  0.2486  1.3318 -0.0649
 5157SOL     OW27106   1.109   3.378   1.468 -0.7118  0.2478 -0.0690
 5157SOL    HW127107   1.148   3.377   1.556  0.9721  0.5958 -0.8098
 5157SOL    HW227108   1.157   3.321   1.407  0.3887  0.5791  0.4813
 5158SOL     OW27109   3.263   1.108   6.323 -0.0262  0.2717 -0.5956
 5158SOL    HW127110   3.317   1.094   6.246 -0.5193  2.0856 -1.2676
 5158SOL    HW227111   3.180   1.124   6.280 -0.3802  0.9419  0.3376
 5159SOL     OW27112   4.318   3.742   3.995  0.2409 -0.1870 -0.4556
 5159SOL    HW127113   4.409   3.770   3.986  0.7889 -2.1049 -0.9529
 5159SOL    HW227114   4.333   3.689   4.073 -0.4914  2.4494  1.4877
 5160SOL     OW27115   3.233   0.895  13.467 -0.0241 -0.4895  0.3475
 5160SOL    HW127116   3.192   0.835  13.405 -3.1485  0.2811  1.6346
 5160SOL    HW227117   3.296   0.838  13.511 -1.0370 -2.4523 -0.7247
 5161SOL     OW27118   2.414   0.442  11.819 -0.4375 -0.8304 -0.3121
 5161SOL    HW127119   2.441   0.358  11.856 -0.0750 -1.0378 -1.0431
 5161SOL    HW227120   2.462   0.494  11.883 -0.6642 -0.9505 -0.0462
 5162SOL     OW27121   2.443   0.804   8.583 -0.3937 -0.8181  0.6338
 5162SOL    HW127122   2.449   0.899   8.596  1.4468 -0.9215  0.4587
 5162SOL    HW227123   2.409   0.776   8.498 -0.2031 -2.3643  1.0743
 5163SOL     OW27124   2.958   3.615   2.456  0.6341 -0.4371  0.4485
 5163SOL    HW127125   3.030   3.593   2.514  1.2560 -1.7450 -0.8023
 5163SOL    HW227126   2.954   3.532   2.408  0.4090  0.8000 -1.6510
 5164SOL     OW27127   0.575   3.793   6.264  0.3070 -0.3763 -0.2774
 5164SOL    HW127128   0.531   3.851   6.201  0.3077  0.7139  0.7205
 5164SOL    HW227129   0.595   3.711   6.219  1.8448 -1.0647  1.6816
 5165SOL     OW27130   1.514   2.045   2.735 -0.0148  0.5904 -0.4221
 5165SOL    HW127131   1.492   1.962   2.693  0.2416 -0.2348  1.0797
 5165SOL    HW227132   1.529   2.015   2.824  0.3918 -1.3741 -1.1505
 5166SOL     OW27133   3.353   4.087   1.061 -0.1208  0.1557 -0.5662
 5166SOL    HW127134   3.258   4.076   1.056  0.1653 -1.8427 -1.3642
 5166SOL    HW227135   3.375   4.174   1.029  0.9044 -0.3167 -1.1259
 5167SOL     OW27136   1.253   0.659   2.973 -0.3281  0.2920  0.0580
 5167SOL    HW127137   1.323   0.594   2.986  0.4502  0.9751 -0.7228
 5167SOL    HW227138   1.307   0.737   2.961 -0.3352 -0.1828 -3.2154
 5168SOL     OW27139   2.019   0.731  15.377 -0.0083 -0.6601 -0.1133
 5168SOL    HW127140   2.002   0.825  15.381  0.4152 -0.4760 -2.3542
 5168SOL    HW227141   2.067   0.720  15.458 -0.4644 -1.6958  0.0176
 5169SOL     OW27142   3.972   0.998  12.431  0.8574 -0.1688  0.2661
 5169SOL    HW127143   3.970   0.935  12.359 -0.6124  0.1196  0.0602
 5169SOL    HW227144   4.063   1.028  12.424  0.6332 -0.1967 -3.0107
 5170SOL     OW27145   2.994   0.585   0.094  0.4542 -0.8067 -0.1729
 5170SOL    HW127146   3.057   0.530   0.141  1.1342 -0.2546 -0.4362
 5170SOL    HW227147   3.052   0.649   0.052  1.1864 -0.2383  1.7153
 5171SOL     OW27148   0.303   2.425   9.023 -0.0269 -0.3266 -0.3194
 5171SOL    HW127149   0.251   2.345   9.012 -1.0721  0.4053 -0.6577
 5171SOL    HW227150   0.395   2.403   9.039 -0.6273 -1.5051  1.5424
 5172SOL     OW27151   0.254   2.975   5.555  0.5667  0.3852 -0.2928
 5172SOL    HW127152   0.336   2.994   5.600  0.5051  0.7060 -0.3167
 5172SOL    HW227153   0.249   3.044   5.489  1.3721  1.5222  0.8271
 5173SOL     OW27154   1.146   2.295   8.245  0.5387  0.0179  0.6150
 5173SOL    HW127155   1.223   2.249   8.212  0.3032  1.8677 -2.4972
 5173SOL    HW227156   1.114   2.224   8.301  0.3893  0.1289  0.6713
 5174SOL     OW27157   0.700   0.652  13.865 -0.1894 -0.2247  0.3252
 5174SOL    HW127158   0.773   0.637  13.925 -0.1271  1.5197  0.6772
 5174SOL    HW227159   0.628   0.682  13.921 -1.7739 -1.3309 -1.1156
 5175SOL     OW27160   0.320   3.635   4.927 -0.2144 -0.1105  0.2568
 5175SOL    HW127161   0.250   3.636   4.993 -1.0637  2.0081 -0.6926
 5175SOL    HW227162   0.278   3.599   4.849 -0.2203  2.0747 -0.7301
 5176SOL     OW27163   0.761   2.258   5.627 -0.2730 -0.8012 -0.5360
 5176SOL    HW127164   0.730   2.238   5.715 -0.8698 -1.9208 -0.9984
 5176SOL    HW227165   0.775   2.167   5.601 -1.7648 -1.5186  1.1541
 5177SOL     OW27166   1.606   0.688   4.802  0.2729  0.2666 -0.1102
 5177SOL    HW127167   1.517   0.687   4.839  0.1606 -2.3583 -0.4471
 5177SOL    HW227168   1.610   0.597   4.772  1.0636  0.6548 -1.1777
 5178SOL     OW27169   2.594   2.372   2.214 -0.2304  0.2467 -0.4165
 5178SOL    HW127170   2.614   2.396   2.304 -1.1926  0.5972 -0.2998
 5178SOL    HW227171   2.664   2.309   2.196  0.6844  1.5643 -1.4935
 5179SOL     OW27172   2.259   3.309   6.104  0.0883 -0.0230 -0.1013
 5179SOL    HW127173   2.184   3.278   6.155  0.0471  2.1897  1.1816
 5179SOL    HW227174   2.310   3.351   6.173  1.6348  1.5238 -2.1934
 5180SOL     OW27175   2.204   0.394  17.722  0.4815  0.3646 -0.2206
 5180SOL    HW127176   2.176   0.420   0.068 -2.1342 -1.8096 -0.4266
 5180SOL    HW227177   2.142   0.439  17.665 -1.5836 -0.8663  1.0440
 5181SOL     OW27178   3.321   3.430   6.635  0.6649  0.3691  0.0155
 5181SOL    HW127179   3.273   3.413   6.554  1.5090 -3.7793  0.3962
 5181SOL    HW227180   3.363   3.511   6.607  2.0396 -0.1090  0.7319
 5182SOL     OW27181   1.666   0.226  12.351  0.2112 -0.0501 -0.3673
 5182SOL    HW127182   1.695   0.316  12.369  0.9552 -0.0638 -1.5438
 5182SOL    HW227183   1.737   0.190  12.404 -0.5255  0.7762  1.2078
 5183SOL     OW27184   1.430   3.741   1.932  0.3308  0.1443  0.4278
 5183SOL    HW127185   1.492   3.804   1.896 -0.8879  2.2168  1.9371
 5183SOL    HW227186   1.427   3.671   1.867 -1.4283  2.8967 -2.4919
 5184SOL     OW27187   0.693   2.518  15.833  0.5318  0.9378 -0.0983
 5184SOL    HW127188   0.714   2.513  15.926 -2.6040 -2.1725  0.4075
 5184SOL    HW227189   0.785   2.504  15.811  0.3341  0.8140 -0.8524
 5185SOL     OW27190   0.468   0.018   0.475  0.6361 -0.2183 -0.3266
 5185SOL    HW127191   0.427   0.064   0.402 -0.1961  1.0916  0.9837
 5185SOL    HW227192   0.475   0.088   0.540 -0.8708 -0.1283 -0.2720
 5186SOL     OW27193   2.510   4.306   6.390 -0.4311 -0.6497 -1.5452
 5186SOL    HW127194   2.480   4.350   6.310 -0.5268 -0.3181 -1.3244
 5186SOL    HW227195   2.603   4.302   6.368  0.0890 -2.0303  0.9642
 5187SOL     OW27196   0.504   4.310   5.911 -0.7155  0.0634 -0.0391
 5187SOL    HW127197   0.443   4.359   5.965 -1.6257 -0.3885 -0.6546
 5187SOL    HW227198   0.513   4.375   5.842 -0.4512  1.3949  1.2589
 5188SOL     OW27199   0.604   3.828   5.704  0.1150 -0.2612  0.1855
 5188SOL    HW127200   0.516   3.794   5.719  0.6825 -1.2774  1.2145
 5188SOL    HW227201   0.607   3.904   5.762 -0.6413  2.4815 -3.3643
 5189SOL     OW27202   1.789   3.929  11.552  0.1041  0.0413  0.3108
 5189SOL    HW127203   1.798   4.023  11.564 -0.0745  0.1749 -0.5972
 5189SOL    HW227204   1.797   3.916  11.457 -0.4966  0.6643  0.1753
 5190SOL     OW27205   4.600   1.251   6.375 -0.2947 -0.3720 -0.8818
 5190SOL    HW127206   4.659   1.323   6.352  0.6640 -1.5209 -2.0994
 5190SOL    HW227207   4.517   1.286   6.343 -0.5003  1.3548  1.6349
 5191SOL     OW27208   0.146   3.572   7.641  0.0823  0.0148 -0.0875
 5191SOL    HW127209   0.160   3.666   7.632  1.9428 -0.0673  2.0851
 5191SOL    HW227210   0.202   3.535   7.573  0.4055 -0.7149  0.5764
 5192SOL     OW27211   3.743   1.289   6.227 -0.0110 -0.2430  0.1380
 5192SOL    HW127212   3.776   1.207   6.262  0.7007 -0.5125 -1.1845
 5192SOL    HW227213   3.743   1.334   6.312 -0.5035 -0.4249  0.2345
 5193SOL     OW27214   3.258   0.317   4.721 -0.0705  0.0223 -0.1311
 5193SOL    HW127215   3.294   0.246   4.667  0.2079  1.1233 -1.4002
 5193SOL    HW227216   3.165   0.298   4.717 -0.0191 -0.0853 -0.7871
 5194SOL     OW27217   4.465   1.390  10.288 -0.2911 -0.2061 -0.4278
 5194SOL    HW127218   4.405   1.390  10.213 -0.6479  0.0961 -0.1413
 5194SOL    HW227219   4.507   1.304  10.279  0.5332 -0.0481  2.1231
 5195SOL     OW27220   0.044   4.240   2.394 -0.3138 -0.3885 -0.4196
 5195SOL    HW127221   0.097   4.303   2.344  0.2225  0.2001  0.8962
 5195SOL    HW227222   0.067   4.159   2.348  1.6112  0.8989 -1.7106
 5196SOL     OW27223   1.729   2.015   2.471 -0.1917  0.2799 -0.2566
 5196SOL    HW127224   1.636   2.037   2.468 -0.0594  0.8312 -0.3384
 5196SOL    HW227225   1.759   2.063   2.394  0.8122  0.7170  0.4069
 5197SOL     OW27226   0.342   2.649   9.608  0.1524 -0.7066  0.3907
 5197SOL    HW127227   0.387   2.733   9.596 -2.0278  0.1985 -1.6187
 5197SOL    HW227228   0.266   2.653   9.549 -0.1027  1.6970  0.8785
 5198SOL     OW27229   2.176   2.008   8.050  0.6933  0.1850  0.7068
 5198SOL    HW127230   2.117   2.060   7.993 -2.1947  0.0902  3.6221
 5198SOL    HW227231   2.223   2.085   8.082 -0.8500  1.3972  0.1269
 5199SOL     OW27232   3.220   0.930   7.105 -0.7490 -0.5732 -0.0922
 5199SOL    HW127233   3.136   0.969   7.082  0.2031  2.1409  0.9585
 5199SOL    HW227234   3.238   0.974   7.188 -3.1617  1.3743 -0.6138
 5200SOL     OW27235   4.536   1.920   6.982 -0.2222 -0.3612 -0.7573
 5200SOL    HW127236   4.592   1.902   6.907  0.6371 -0.4652 -0.0989
 5200SOL    HW227237   4.543   2.015   6.989 -0.9575 -0.4491  1.1240
 5201SOL     OW27238   1.172   0.483  11.410 -0.3749 -0.7550  0.2014
 5201SOL    HW127239   1.178   0.401  11.460  1.8504 -0.2804  0.7378
 5201SOL    HW227240   1.265   0.493  11.388 -0.5672 -2.1563 -1.2294
 5202SOL     OW27241   1.397   2.181  16.918  0.1713 -0.4146 -0.2124
 5202SOL    HW127242   1.419   2.111  16.856  2.4376 -0.6688  0.8628
 5202SOL    HW227243   1.439   2.139  16.994  0.4521  0.5689  0.1670
 5203SOL     OW27244   4.698   0.954   4.649  0.4243  0.4596 -0.7336
 5203SOL    HW127245   0.017   0.945   4.571 -1.6647  0.6223 -2.2160
 5203SOL    HW227246   4.685   0.862   4.673  1.7862  0.0392 -1.6394
 5204SOL     OW27247   1.213   3.407   0.402 -0.3149 -0.6362 -0.0064
 5204SOL    HW127248   1.153   3.344   0.363  0.4324 -1.4253  0.1168
 5204SOL    HW227249   1.159   3.432   0.477  1.2333 -0.8050  1.1740
 5205SOL     OW27250   1.313   3.294   8.011 -0.2094 -0.4389 -0.6854
 5205SOL    HW127251   1.357   3.371   8.047  0.1647 -1.4837  1.0680
 5205SOL    HW227252   1.305   3.238   8.088  0.9018 -0.5237 -0.6330
 5206SOL     OW27253   1.602   3.469   4.536  0.0264  0.1018  0.2536
 5206SOL    HW127254   1.582   3.441   4.447 -0.3526  2.5732 -0.4502
 5206SOL    HW227255   1.522   3.519   4.550  0.4740  1.1198 -0.8200
 5207SOL     OW27256   3.929   3.117  14.150  0.2130  0.1370  0.7373
 5207SOL    HW127257   3.937   3.098  14.057 -0.7517 -0.9832  0.8869
 5207SOL    HW227258   3.870   3.047  14.178 -0.5070 -0.6850 -2.8920
 5208SOL     OW27259   2.661   3.945   5.587 -0.1614 -0.1816  0.7695
 5208SOL    HW127260   2.621   4.032   5.578 -2.3910 -1.1013  1.7983
 5208SOL    HW227261   2.585   3.887   5.585  0.1252 -0.5790  1.4583
 5209SOL     OW27262   1.992   3.258   8.319 -0.0101  0.7902 -0.0307
 5209SOL    HW127263   1.933   3.184   8.303 -0.9952  1.6328 -0.2922
 5209SOL    HW227264   1.961   3.332   8.266  0.9020  0.8777 -0.4456
 5210SOL     OW27265   0.970   1.212   4.278  0.0346  0.2291  0.0916
 5210SOL    HW127266   0.938   1.265   4.205 -0.6316  0.9775  0.9179
 5210SOL    HW227267   1.045   1.268   4.301 -0.4471 -0.0082  2.3041
 5211SOL     OW27268   1.061   2.420   0.267 -0.5036 -0.2955  0.3463
 5211SOL    HW127269   1.073   2.332   0.233  1.2476  0.4647 -1.0205
 5211SOL    HW227270   1.064   2.399   0.360 -1.1725 -0.3578  0.3562
 5212SOL     OW27271   1.711   2.716   9.422  0.2477 -0.0486  0.3495
 5212SOL    HW127272   1.787   2.674   9.381  0.1916 -1.0819  1.2935
 5212SOL    HW227273   1.682   2.776   9.354 -0.7773  0.4367  1.2108
 5213SOL     OW27274   3.440   2.492  13.433 -0.2126  0.0802  0.0937
 5213SOL    HW127275   3.430   2.463  13.523  0.7336  1.2129  0.5532
 5213SOL    HW227276   3.398   2.421  13.384  2.4413 -1.4181 -0.0183
 5214SOL     OW27277   1.045   3.242   7.607  0.0750  0.7176  0.6529
 5214SOL    HW127278   1.069   3.178   7.674 -1.9089 -1.1375 -0.3805
 5214SOL    HW227279   0.972   3.191   7.573  0.1721  0.8377  0.2668
 5215SOL     OW27280   0.525   4.316   0.420  0.3438  0.0686 -0.3790
 5215SOL    HW127281   0.450   4.370   0.445  0.8704 -0.4250  2.2476
 5215SOL    HW227282   0.533   4.254   0.492 -0.6030  0.5865  0.1854
 5216SOL     OW27283   4.332   3.461   1.801  0.0650 -0.0812  0.1148
 5216SOL    HW127284   4.348   3.543   1.753  1.2660  0.4657  1.4744
 5216SOL    HW227285   4.271   3.413   1.745 -1.0512  2.6833 -1.0715
 5217SOL     OW27286   1.547   3.218   8.924  0.4988 -0.1721 -0.4617
 5217SOL    HW127287   1.468   3.191   8.971  1.7999 -3.0917 -0.0108
 5217SOL    HW227288   1.519   3.298   8.879  1.7447  0.4099 -0.1925
 5218SOL     OW27289   4.335   1.692   2.553  0.7086  0.0394 -0.1718
 5218SOL    HW127290   4.427   1.703   2.579  0.1942 -0.3452  1.7988
 5218SOL    HW227291   4.314   1.609   2.595 -1.3582  0.1336 -1.0001
 5219SOL     OW27292   2.933   4.167   4.251  0.9308  0.1130 -0.2828
 5219SOL    HW127293   2.873   4.145   4.180  1.4825 -0.1949 -0.6524
 5219SOL    HW227294   2.998   4.227   4.213  2.7744 -1.3763  0.4856
 5220SOL     OW27295   4.461   2.478  13.942  0.1227  0.2171 -0.0535
 5220SOL    HW127296   4.535   2.435  13.897  1.2976 -0.6294  2.7239
 5220SOL    HW227297   4.462   2.563  13.897 -2.5153 -0.6622 -1.7446
 5221SOL     OW27298   1.386   0.311   0.088  0.0704 -0.1630 -0.8021
 5221SOL    HW127299   1.460   0.277   0.038 -1.2908 -2.9040 -0.9570
 5221SOL    HW227300   1.361   0.387   0.035 -0.4399 -1.1438 -1.9783
 5222SOL     OW27301   3.756   2.568   7.946  0.5391  0.1633  0.0018
 5222SOL    HW127302   3.816   2.613   8.006 -0.8975 -0.3774  1.8339
 5222SOL    HW227303   3.693   2.635   7.920  1.5076  0.3310 -1.9142
 5223SOL     OW27304   0.106   0.538   5.176 -0.2458 -0.1376 -0.3780
 5223SOL    HW127305   0.159   0.461   5.197 -0.5611 -0.0975  0.5594
 5223SOL    HW227306   0.174   0.603   5.157 -2.9225  2.6137 -0.5203
 5224SOL     OW27307   0.044   0.076   5.536  0.1236  0.0709 -0.1167
 5224SOL    HW127308   4.715   0.028   5.483  0.6092 -2.2023  1.3258
 5224SOL    HW227309   0.021   0.043   5.623  4.0608  1.3380  1.4186
 5225SOL     OW27310   4.567   4.679   5.413 -0.5809  0.2222  0.3205
 5225SOL    HW127311   4.572   4.584   5.423 -1.2414  0.3415  1.7245
 5225SOL    HW227312   4.554   4.691   5.319 -3.6872  0.0048  0.7199
 5226SOL     OW27313   1.114   1.222  12.421  0.1360  0.0003 -0.0816
 5226SOL    HW127314   1.131   1.256  12.333  2.7140  0.3998  0.5645
 5226SOL    HW227315   1.020   1.239  12.420 -0.3079 -2.6229 -1.2188
 5227SOL     OW27316   2.719   1.105   6.382  0.3811  0.2226  0.3432
 5227SOL    HW127317   2.643   1.059   6.347 -0.7070 -0.1442  3.1843
 5227SOL    HW227318   2.747   1.150   6.303  0.4409  2.0865  1.4314
 5228SOL     OW27319   0.233   4.504   3.300  0.0449  0.2003 -0.0480
 5228SOL    HW127320   0.300   4.444   3.267 -0.8506  0.1476 -1.7478
 5228SOL    HW227321   0.168   4.449   3.343 -0.1849  0.3230 -0.2397
 5229SOL     OW27322   1.294   2.123  15.994 -0.4729 -0.4504  0.3729
 5229SOL    HW127323   1.300   2.090  16.083  3.5380 -2.3791 -0.6498
 5229SOL    HW227324   1.203   2.147  15.977 -0.4927  0.3705  1.5957
 5230SOL     OW27325   0.470   1.584  11.409  0.2420 -0.3128 -0.4906
 5230SOL    HW127326   0.528   1.512  11.385  0.4143  0.0248 -1.0911
 5230SOL    HW227327   0.434   1.565  11.496 -0.9049 -0.2181 -0.9478
 5231SOL     OW27328   4.032   3.151  17.221  0.0552 -0.0525  0.2193
 5231SOL    HW127329   4.036   3.185  17.131  2.7726 -1.2611 -0.1208
 5231SOL    HW227330   4.063   3.061  17.220 -3.2674 -1.2102  1.6681
 5232SOL     OW27331   1.544   2.592   3.856 -0.0170 -0.2354  0.4837
 5232SOL    HW127332   1.547   2.687   3.866 -1.6926  0.2376 -3.1849
 5232SOL    HW227333   1.619   2.577   3.798  1.1562 -1.5307  2.3551
 5233SOL     OW27334   3.495   3.166   9.071  0.0922 -0.3684 -0.5237
 5233SOL    HW127335   3.425   3.167   9.006  1.4278 -0.0042 -1.9505
 5233SOL    HW227336   3.562   3.132   9.013  0.4668  2.5352 -1.7952
 5234SOL     OW27337   3.174   2.099   6.576  0.6097 -0.4306  0.3826
 5234SOL    HW127338   3.200   2.166   6.638 -0.5486  0.1432  0.2408
 5234SOL    HW227339   3.190   2.018   6.625  2.1677 -0.5449 -0.3210
 5235SOL     OW27340   0.184   3.205   7.392 -0.0933 -0.3135 -0.4750
 5235SOL    HW127341   0.095   3.191   7.425 -0.9907  1.0945 -2.3385
 5235SOL    HW227342   0.199   3.123   7.346  1.4075 -0.2351 -0.1308
 5236SOL     OW27343   3.712   1.654   2.403  0.3990  0.4534  0.4363
 5236SOL    HW127344   3.704   1.649   2.307  1.9917  1.9904  0.2293
 5236SOL    HW227345   3.676   1.571   2.435  2.6267 -0.8149 -0.3666
 5237SOL     OW27346   2.395   4.273   5.913  0.2109  0.9134  0.3675
 5237SOL    HW127347   2.452   4.206   5.874  0.8385  0.5362  1.9126
 5237SOL    HW227348   2.315   4.255   5.864  1.6321 -1.2296 -1.1696
 5238SOL     OW27349   2.991   0.137   5.097  0.2886  0.2564 -0.2329
 5238SOL    HW127350   3.041   0.056   5.093 -0.4369 -0.0403 -2.9040
 5238SOL    HW227351   3.050   0.202   5.059  0.0017  0.0572 -1.0163
 5239SOL     OW27352   2.084   3.463  17.103  0.3245 -0.1967  0.0807
 5239SOL    HW127353   2.094   3.368  17.108  0.3809 -0.1392  1.1755
 5239SOL    HW227354   2.087   3.473  17.008  1.4280 -0.9710  0.0374
 5240SOL     OW27355   1.689   2.480   2.620  0.2581  0.1342 -0.1631
 5240SOL    HW127356   1.676   2.547   2.687  0.5509 -1.5118  1.5539
 5240SOL    HW227357   1.627   2.411   2.643  0.7365 -0.3786 -0.4087
 5241SOL     OW27358   3.753   3.968   4.062 -0.0992 -0.2840  0.0650
 5241SOL    HW127359   3.802   4.045   4.032 -0.2094 -0.3185 -0.2080
 5241SOL    HW227360   3.747   3.913   3.984 -0.7155  2.0258 -1.5188
 5242SOL     OW27361   3.993   2.089  13.399 -0.1603  0.4859  0.0434
 5242SOL    HW127362   4.082   2.121  13.412  0.2080  0.7528 -3.1117
 5242SOL    HW227363   3.964   2.107  13.489  0.5643  1.2811  0.1080
 5243SOL     OW27364   3.416   4.104   4.115 -0.5052  1.0572 -0.5807
 5243SOL    HW127365   3.368   4.071   4.039  2.0943 -0.1155 -1.7021
 5243SOL    HW227366   3.408   4.044   4.189 -0.8848  1.1141 -0.5742
 5244SOL     OW27367   4.038   1.801   8.398 -0.0610  0.0385 -0.0313
 5244SOL    HW127368   4.003   1.873   8.450 -0.9747 -0.0768 -0.4949
 5244SOL    HW227369   3.985   1.807   8.319 -2.3065  2.3668  1.6624
 5245SOL     OW27370   3.568   3.367   6.342 -0.1296 -0.1717  0.3157
 5245SOL    HW127371   3.521   3.429   6.397 -0.8273  0.1535 -0.6531
 5245SOL    HW227372   3.598   3.435   6.282  2.6069 -2.4361 -0.9150
 5246SOL     OW27373   1.982   0.016   6.364 -0.1456 -0.2210 -0.4398
 5246SOL    HW127374   1.906   0.068   6.388  0.0218  0.6632 -1.8205
 5246SOL    HW227375   1.947   4.699   6.293 -0.5966 -1.8494  1.0019
 5247SOL     OW27376   0.401   4.287   2.308 -0.8272  0.3833  0.4431
 5247SOL    HW127377   0.490   4.295   2.274 -0.3113  0.4383  1.8310
 5247SOL    HW227378   0.394   4.356   2.373  2.4407  1.2189 -0.0900
 5248SOL     OW27379   0.308   1.357  16.901 -0.3789 -0.1951  0.0733
 5248SOL    HW127380   0.252   1.326  16.830 -1.3577  1.2533  0.2310
 5248SOL    HW227381   0.303   1.294  16.974 -0.2507  0.8239  0.9538
 5249SOL     OW27382   0.118   4.092   6.026 -0.0360  0.2661 -0.5172
 5249SOL    HW127383   0.072   4.011   6.003  0.7700 -0.5945  0.9338
 5249SOL    HW227384   0.063   4.146   6.083 -1.0317 -1.6185  0.2953
 5250SOL     OW27385   1.384   0.954  13.715  0.8412  0.8691 -0.1330
 5250SOL    HW127386   1.294   0.928  13.731  0.9945 -1.0529 -2.4295
 5250SOL    HW227387   1.404   1.013  13.788  2.9360 -1.5151  1.1852
 5251SOL     OW27388   0.727   2.193   6.906 -0.4808  0.2485 -0.3214
 5251SOL    HW127389   0.815   2.158   6.922 -1.5079 -1.4290  1.6993
 5251SOL    HW227390   0.712   2.170   6.814 -0.1510  0.8703 -0.5302
 5252SOL     OW27391   1.983   4.311   5.895 -0.0794  0.2617  0.9315
 5252SOL    HW127392   1.920   4.345   5.831  0.1894 -2.1520 -0.6104
 5252SOL    HW227393   2.066   4.316   5.846 -0.2105 -1.0913  0.5775
 5253SOL     OW27394   3.564   4.137   7.257  0.4105 -0.0228 -0.4197
 5253SOL    HW127395   3.510   4.199   7.206 -1.5798 -0.6348  0.9339
 5253SOL    HW227396   3.606   4.092   7.183 -0.5052 -0.3389 -0.7614
 5254SOL     OW27397   3.642   1.535  11.133 -0.4530  0.5222  0.0550
 5254SOL    HW127398   3.603   1.576  11.056 -0.6788  0.0638 -0.0755
 5254SOL    HW227399   3.734   1.520  11.113 -0.6020 -0.9068  0.3823
 5255SOL     OW27400   1.803   1.229  17.421  0.4639  0.2050 -0.2680
 5255SOL    HW127401   1.883   1.178  17.429 -1.0643 -1.4812  4.0433
 5255SOL    HW227402   1.803   1.230  17.325  0.7234  1.3584 -0.2551
 5256SOL     OW27403   2.320   3.313  14.293  0.2097 -0.1364  0.1397
 5256SOL    HW127404   2.367   3.246  14.343  0.3863  0.1556  0.3701
 5256SOL    HW227405   2.231   3.285  14.314  0.4694 -0.0063  1.3929
 5257SOL     OW27406   2.264   3.902  15.225 -0.4244  0.0456  0.3478
 5257SOL    HW127407   2.240   3.834  15.288  1.0585  0.0240  0.8890
 5257SOL    HW227408   2.214   3.884  15.146  1.7282  0.9981 -1.2178
 5258SOL     OW27409   2.174   0.317  14.469 -0.6052  0.2271 -0.5477
 5258SOL    HW127410   2.082   0.332  14.491 -0.9375 -0.9416 -1.1242
 5258SOL    HW227411   2.203   0.265  14.545  0.7806 -2.3533 -2.8275
 5259SOL     OW27412   2.506   4.576   1.947  0.5528  0.5046  0.0571
 5259SOL    HW127413   2.505   4.633   2.023  1.9632 -0.3830  0.7547
 5259SOL    HW227414   2.429   4.601   1.895  0.3324  1.4368  0.8462
 5260SOL     OW27415   1.480   0.361   5.046  0.2153  0.1343 -0.0394
 5260SOL    HW127416   1.499   0.292   5.110 -1.6710 -1.2285 -0.9640
 5260SOL    HW227417   1.432   0.427   5.096  1.2347  0.8383  0.0124
 5261SOL     OW27418   3.710   3.476  15.207  0.1720  0.3436 -0.2766
 5261SOL    HW127419   3.721   3.482  15.112  0.9224 -1.7277 -0.3187
 5261SOL    HW227420   3.803   3.490  15.227  0.1057 -0.5175  0.5978
 5262SOL     OW27421   4.606   1.618   4.979 -0.2801 -0.1861  0.4885
 5262SOL    HW127422   4.630   1.651   5.066 -1.3574  1.2852  0.2312
 5262SOL    HW227423   4.512   1.602   4.990 -0.4774  0.8390  0.2618
 5263SOL     OW27424   4.374   1.220   4.186  0.8037 -0.0976 -0.3053
 5263SOL    HW127425   4.311   1.182   4.247  1.9038  0.4334  1.1618
 5263SOL    HW227426   4.433   1.253   4.253  1.1080  1.5145 -1.3735
 5264SOL     OW27427   1.497   2.214  11.090  0.2440 -0.0986 -0.2861
 5264SOL    HW127428   1.514   2.308  11.093  2.2569 -0.4973  0.6197
 5264SOL    HW227429   1.567   2.172  11.141 -0.3559 -1.2990 -0.4425
 5265SOL     OW27430   2.915   0.458   5.887 -0.0725 -0.2071  0.4766
 5265SOL    HW127431   2.926   0.389   5.822 -3.1592 -0.3625  0.1178
 5265SOL    HW227432   3.001   0.455   5.929 -0.9768 -2.0045  2.1446
 5266SOL     OW27433   3.078   4.248   4.565 -0.1855  0.1985  0.2854
 5266SOL    HW127434   3.163   4.231   4.524  0.4076  0.3913  1.4244
 5266SOL    HW227435   3.048   4.319   4.507 -0.4656  1.3252  1.8111
 5267SOL     OW27436   2.598   0.761   9.136 -0.2772 -0.3009  0.0683
 5267SOL    HW127437   2.642   0.689   9.182 -1.3061  0.1467  1.7877
 5267SOL    HW227438   2.522   0.767   9.194 -0.1312  0.2321  0.2057
 5268SOL     OW27439   3.258   2.954   7.549  0.1251 -0.2738  0.4984
 5268SOL    HW127440   3.168   2.926   7.537  0.6860 -1.1985 -1.4396
 5268SOL    HW227441   3.269   2.909   7.633  1.1618 -0.4546  0.2591
 5269SOL     OW27442   1.494   2.934   3.209  0.5188 -0.5125 -0.2764
 5269SOL    HW127443   1.493   2.925   3.113 -0.9715  0.4413 -0.3426
 5269SOL    HW227444   1.479   2.846   3.244  2.5608 -0.4564  0.7548
 5270SOL     OW27445   1.283   0.585   8.094  0.2895  0.1762  0.5187
 5270SOL    HW127446   1.310   0.644   8.165  2.2235 -0.6705  0.4835
 5270SOL    HW227447   1.304   0.639   8.018  1.2389 -2.0950 -0.8108
 5271SOL     OW27448   3.842   4.381  17.572 -0.7350  0.4578 -0.3034
 5271SOL    HW127449   3.847   4.405  17.665 -2.3776 -0.4208  0.0176
 5271SOL    HW227450   3.774   4.440  17.541 -1.1230  0.5476  0.7303
 5272SOL     OW27451   0.803   1.690  12.566  0.5961 -0.1827  0.6475
 5272SOL    HW127452   0.847   1.717  12.646 -0.7920 -1.5313  1.8674
 5272SOL    HW227453   0.820   1.596  12.569 -3.5116 -0.9273  1.2122
 5273SOL     OW27454   3.965   1.793   6.939 -0.7917 -0.2518  0.1244
 5273SOL    HW127455   3.887   1.819   6.989  0.8366  2.1635  1.3600
 5273SOL    HW227456   3.974   1.856   6.868  0.9516 -0.0502  0.5324
 5274SOL     OW27457   2.005   2.029   4.456  0.1190 -0.2676 -0.2363
 5274SOL    HW127458   1.939   2.095   4.477  0.7591  0.2790  0.0779
 5274SOL    HW227459   2.060   2.075   4.393  0.0494 -0.6278 -0.5560
 5275SOL     OW27460   0.452   0.961  17.718 -0.6435  0.1461  0.4043
 5275SOL    HW127461   0.369   0.929   0.013 -1.9681 -1.4260 -4.0387
 5275SOL    HW227462   0.506   0.884  17.703  0.8369  1.1792  0.4501
 5276SOL     OW27463   1.430   4.333   3.657  0.2595 -0.6307 -0.3975
 5276SOL    HW127464   1.444   4.242   3.682  2.0028 -0.0494  0.7635
 5276SOL    HW227465   1.340   4.345   3.687 -0.0188 -1.0428 -1.0776
 5277SOL     OW27466   2.335   1.921   3.317 -0.2611  0.0312  0.2955
 5277SOL    HW127467   2.392   1.942   3.242  0.7746 -1.4621  0.6750
 5277SOL    HW227468   2.268   1.989   3.305  0.5010  0.4910 -1.4350
 5278SOL     OW27469   0.678   0.325   7.459  0.0578  0.0177 -0.5560
 5278SOL    HW127470   0.699   0.308   7.550 -1.3446  1.8102  0.0999
 5278SOL    HW227471   0.619   0.396   7.483 -0.0533 -0.1971 -0.1992
 5279SOL     OW27472   1.376   4.673   9.035 -0.4895 -0.1884  0.4486
 5279SOL    HW127473   1.425   4.613   8.979 -0.2098  0.6130 -0.1619
 5279SOL    HW227474   1.296   4.699   8.990 -1.2777 -0.1774  1.8774
 5280SOL     OW27475   2.817   0.633   4.623  0.0689 -0.4050 -0.5614
 5280SOL    HW127476   2.824   0.727   4.636  1.4665 -0.6305  0.2601
 5280SOL    HW227477   2.831   0.641   4.528  0.2628 -0.8400 -0.5721
 5281SOL     OW27478   1.040   1.240   2.253  0.5753 -0.5053  0.1174
 5281SOL    HW127479   0.991   1.158   2.256 -0.8168  0.3014 -0.5135
 5281SOL    HW227480   1.118   1.211   2.206  0.4709  1.1781 -1.0938
 5282SOL     OW27481   1.579   2.282   6.185 -0.2945  0.3989  0.1582
 5282SOL    HW127482   1.494   2.289   6.228 -0.3817  1.4349 -0.1907
 5282SOL    HW227483   1.631   2.302   6.263 -1.9654 -1.8455  1.8586
 5283SOL     OW27484   0.351   3.522  16.382  0.2514  0.2964  0.3346
 5283SOL    HW127485   0.366   3.533  16.476  1.6571  2.3222 -0.1157
 5283SOL    HW227486   0.387   3.434  16.373  0.0843  0.4799 -2.1794
 5284SOL     OW27487   4.047   0.263   6.962 -0.0300  0.1149  0.1847
 5284SOL    HW127488   4.003   0.202   6.903  1.3915 -0.4068 -0.3557
 5284SOL    HW227489   3.971   0.269   7.020 -1.5581  2.2629 -2.0542
 5285SOL     OW27490   0.202   4.726   1.517 -0.4112  0.0657  0.1017
 5285SOL    HW127491   0.172   0.077   1.491 -0.5389  0.4470  1.5177
 5285SOL    HW227492   0.138   4.662   1.486 -0.2523 -0.6442  1.2494
 5286SOL     OW27493   3.439   2.373   6.883 -0.2706  0.1858 -0.3199
 5286SOL    HW127494   3.501   2.435   6.920 -0.0070 -0.4336  0.2834
 5286SOL    HW227495   3.417   2.316   6.957 -1.8850 -0.5377 -1.3546
 5287SOL     OW27496   0.379   2.784  14.310  0.0224 -0.3639  0.6931
 5287SOL    HW127497   0.313   2.734  14.262 -1.4178  2.4016 -0.1915
 5287SOL    HW227498   0.380   2.744  14.397 -0.2949 -0.4766  0.6441
 5288SOL     OW27499   4.237   3.155   0.576  0.5150  0.0930 -0.8822
 5288SOL    HW127500   4.155   3.202   0.594  2.6046  2.0108  3.4748
 5288SOL    HW227501   4.292   3.226   0.545  0.7420  1.8508  3.6111
 5289SOL     OW27502   2.523   0.250   1.646  0.4746  0.8437  0.1670
 5289SOL    HW127503   2.530   0.223   1.737 -3.1405  0.4614  0.3546
 5289SOL    HW227504   2.432   0.229   1.626  1.0724 -0.4333 -1.1622
 5290SOL     OW27505   0.983   3.056   9.184  0.0388  0.4504  0.0671
 5290SOL    HW127506   1.055   3.013   9.137  0.5288  0.0195  1.2000
 5290SOL    HW227507   0.983   3.006   9.265 -0.6631  0.7388  0.2404
 5291SOL     OW27508   0.167   0.989   8.515 -0.4655 -0.0860  0.0911
 5291SOL    HW127509   0.100   0.977   8.582 -0.6760 -0.2707 -0.1515
 5291SOL    HW227510   0.144   1.071   8.471  1.8218 -1.8002 -4.3048
 5292SOL     OW27511   1.988   3.308   7.767  0.2359 -0.1857  0.6914
 5292SOL    HW127512   2.054   3.297   7.699  0.6927  3.9196  0.4912
 5292SOL    HW227513   1.906   3.301   7.719  0.0451  1.3367  0.8005
 5293SOL     OW27514   1.388   0.868   7.623  0.0283  0.3262  0.1170
 5293SOL    HW127515   1.405   0.933   7.554  0.8481 -0.2432 -0.2312
 5293SOL    HW227516   1.309   0.824   7.593  0.1742  0.5471 -0.6155
 5294SOL     OW27517   1.584   1.738   4.821 -0.4812 -0.0527 -0.2324
 5294SOL    HW127518   1.539   1.774   4.898 -0.9321 -0.0067 -0.5187
 5294SOL    HW227519   1.614   1.651   4.847 -1.6127 -0.0624  1.1027
 5295SOL     OW27520   3.667   2.065   3.912  0.6062  0.5730 -0.3268
 5295SOL    HW127521   3.674   2.055   4.007  0.5654  1.3126 -0.2434
 5295SOL    HW227522   3.690   2.158   3.904  1.0522  0.3441 -1.7892
 5296SOL     OW27523   0.992   3.405   0.960  0.4817 -0.1692 -0.0520
 5296SOL    HW127524   0.932   3.387   1.033 -0.2283  2.0747 -0.0911
 5296SOL    HW227525   1.023   3.493   0.984  0.0310  0.6433 -2.5285
 5297SOL     OW27526   0.742   2.494  16.119  0.2282 -0.2249 -0.0951
 5297SOL    HW127527   0.707   2.573  16.160 -1.5807 -1.5621  0.8919
 5297SOL    HW227528   0.825   2.475  16.163 -0.6671 -1.5640  0.9750
 5298SOL     OW27529   2.739   2.867   3.731 -0.2846 -0.1549 -0.1729
 5298SOL    HW127530   2.648   2.851   3.755 -0.2708 -0.1715 -0.1323
 5298SOL    HW227531   2.787   2.836   3.807 -0.2209 -1.2565 -0.6653
 5299SOL     OW27532   3.288   0.481  17.619  0.5849 -0.5080  0.2079
 5299SOL    HW127533   3.362   0.510  17.565 -0.7733 -0.0755 -1.4397
 5299SOL    HW227534   3.321   0.399  17.655  3.2316  1.2203  1.7045
 5300SOL     OW27535   3.642   1.350   2.911 -0.1607  0.4799 -0.3062
 5300SOL    HW127536   3.610   1.313   2.993 -1.2244  1.2952 -0.3524
 5300SOL    HW227537   3.716   1.294   2.887  0.1673  0.9974 -0.5125
 5301SOL     OW27538   1.772   2.671   9.746  0.1830  0.2936  0.3000
 5301SOL    HW127539   1.788   2.738   9.680 -2.4912  1.2083  0.6094
 5301SOL    HW227540   1.822   2.593   9.719 -1.5177 -0.3329 -1.0286
 5302SOL     OW27541   0.848   2.801   7.236 -0.3659  0.7530  0.1919
 5302SOL    HW127542   0.942   2.805   7.257  0.2921  0.5703 -2.6865
 5302SOL    HW227543   0.813   2.813   7.324  0.4480 -0.0497  0.6288
 5303SOL     OW27544   2.925   3.716   5.822  0.1150 -0.1261  0.0241
 5303SOL    HW127545   2.921   3.770   5.744 -0.5721  0.0550  0.1803
 5303SOL    HW227546   2.841   3.724   5.868 -0.1477  0.6492 -0.6027
 5304SOL     OW27547   4.126   2.587   3.004  0.8266 -0.2373 -0.8561
 5304SOL    HW127548   4.221   2.581   3.014  0.7260 -0.7161 -0.1768
 5304SOL    HW227549   4.109   2.592   2.910  1.2482 -2.0272 -1.0280
 5305SOL     OW27550   0.071   3.501   3.457  0.9722  0.9425  0.4120
 5305SOL    HW127551   0.124   3.432   3.496  0.1929  0.4904  0.6876
 5305SOL    HW227552   0.135   3.568   3.435  2.0492  0.2384  1.4360
 5306SOL     OW27553   1.312   0.215   6.600 -0.3707 -0.2360  0.4394
 5306SOL    HW127554   1.396   0.179   6.571  0.1123  0.7897  0.5783
 5306SOL    HW227555   1.290   0.260   6.519 -0.5445  1.1005  1.2250
 5307SOL     OW27556   3.856   0.480   2.294  0.5653  0.5342 -0.3129
 5307SOL    HW127557   3.835   0.483   2.201  2.2315 -0.0263 -0.6951
 5307SOL    HW227558   3.920   0.548   2.314  0.9095  0.1413 -0.0750
 5308SOL     OW27559   1.110   3.047   7.096  0.4294  0.0004  0.0741
 5308SOL    HW127560   1.035   3.107   7.101  2.2043  2.4340 -1.9832
 5308SOL    HW227561   1.150   3.068   7.180 -0.2437 -2.1513  0.9083
 5309SOL     OW27562   1.120   3.763   2.146  0.0418  0.4020 -0.6417
 5309SOL    HW127563   1.099   3.826   2.214 -2.9678 -0.2218 -1.0186
 5309SOL    HW227564   1.037   3.719   2.129 -0.4696  0.3746  1.9357
 5310SOL     OW27565   2.741   1.917   5.704  0.4071 -0.0881  0.1373
 5310SOL    HW127566   2.752   1.953   5.792 -2.0442  0.3972  0.2510
 5310SOL    HW227567   2.802   1.844   5.715 -1.0504 -1.0865  1.4252
 5311SOL     OW27568   0.646   4.473   6.574 -0.2403 -0.3044 -0.1161
 5311SOL    HW127569   0.560   4.506   6.602 -0.6187 -2.7301  1.5206
 5311SOL    HW227570   0.639   4.485   6.479 -0.8389  0.6859  0.0434
 5312SOL     OW27571   4.420   4.530  16.598  1.1571 -0.1271  0.3146
 5312SOL    HW127572   4.458   4.449  16.564 -1.8299 -1.8718  1.1740
 5312SOL    HW227573   4.427   4.511  16.692 -1.4244  0.6811  0.6704
 5313SOL     OW27574   2.059   4.311   7.806  0.2712 -0.4139  0.4123
 5313SOL    HW127575   2.151   4.288   7.823  0.1170 -0.5821  1.0069
 5313SOL    HW227576   2.017   4.227   7.822  2.3126 -1.5470 -0.1481
 5314SOL     OW27577   1.249   1.996   7.645 -0.3379  0.2145 -0.1258
 5314SOL    HW127578   1.211   2.043   7.719  1.9024  0.1877  1.0121
 5314SOL    HW227579   1.342   2.009   7.661 -0.1472 -1.0116 -0.2559
 5315SOL     OW27580   2.063   3.210   3.002 -0.0897 -0.4300  0.3805
 5315SOL    HW127581   2.154   3.200   3.030 -0.1886 -0.6074  0.6345
 5315SOL    HW227582   2.092   3.191   2.912  1.8246 -3.2010  1.5697
 5316SOL     OW27583   3.708   0.121   7.888 -0.3093 -0.4846  0.5221
 5316SOL    HW127584   3.761   0.047   7.860 -1.9566 -1.6757  0.5512
 5316SOL    HW227585   3.749   0.195   7.845 -0.3283 -1.0135 -0.3930
 5317SOL     OW27586   0.487   3.391   8.601 -0.5850 -0.1390  0.2089
 5317SOL    HW127587   0.514   3.308   8.640  1.5860  0.4410 -0.0244
 5317SOL    HW227588   0.539   3.396   8.520 -0.9034 -0.5185 -0.0149
 5318SOL     OW27589   3.123   1.891   3.178  0.2489 -0.3285 -0.3807
 5318SOL    HW127590   3.217   1.902   3.190  0.3977  1.0124 -2.7563
 5318SOL    HW227591   3.104   1.983   3.160  0.3408 -0.5640 -1.6683
 5319SOL     OW27592   2.878   0.121   6.873  0.1557  0.6325  0.4645
 5319SOL    HW127593   2.889   0.166   6.957  2.4465 -0.4711  0.7722
 5319SOL    HW227594   2.897   0.032   6.904 -2.1796 -0.3419 -0.9931
 5320SOL     OW27595   1.796   0.443   6.251  0.5145  0.5689  0.5754
 5320SOL    HW127596   1.705   0.465   6.233  0.9845  1.3172 -0.9163
 5320SOL    HW227597   1.829   0.416   6.165  1.8172 -1.2444  1.6555
 5321SOL     OW27598   0.776   4.341   6.771 -1.3600 -0.7284  0.2638
 5321SOL    HW127599   0.732   4.368   6.690  0.2645  1.3018  0.0406
 5321SOL    HW227600   0.797   4.252   6.742  0.1336  0.7571 -3.2780
 5322SOL     OW27601   3.874   2.159  16.659  0.2701 -0.2049 -0.2080
 5322SOL    HW127602   3.863   2.102  16.735  0.6583  0.2771  0.2076
 5322SOL    HW227603   3.882   2.095  16.589  1.1812  0.0410 -0.3225
 5323SOL     OW27604   3.444   4.054   3.169  0.2487  0.0972  0.0223
 5323SOL    HW127605   3.351   4.055   3.190 -0.0281  1.1168 -1.1912
 5323SOL    HW227606   3.463   4.145   3.145  0.3624 -0.0712 -0.5380
 5324SOL     OW27607   1.728   2.104  16.255 -0.0702  0.1569 -0.1731
 5324SOL    HW127608   1.781   2.112  16.334 -1.4736  0.0332  0.7661
 5324SOL    HW227609   1.680   2.186  16.245  0.1225  0.1096 -1.5174
 5325SOL     OW27610   3.345   2.325  17.236  0.6795 -0.6848  0.1516
 5325SOL    HW127611   3.392   2.247  17.208 -0.8111 -1.6901  0.4919
 5325SOL    HW227612   3.315   2.358  17.151 -1.4460 -0.3702  1.0323
 5326SOL     OW27613   0.717   1.090   8.250 -0.2315  0.0812 -0.6105
 5326SOL    HW127614   0.795   1.059   8.205  1.3077  3.1585 -0.0946
 5326SOL    HW227615   0.691   1.168   8.200  0.7312  0.2377 -0.8585
 5327SOL     OW27616   3.270   0.485   0.725 -0.1147 -0.1318  0.1471
 5327SOL    HW127617   3.186   0.438   0.721 -0.9254  1.3572 -0.0588
 5327SOL    HW227618   3.297   0.432   0.801 -0.2275 -0.6678 -0.1831
 5328SOL     OW27619   4.567   0.383  17.362 -0.0041  0.1086 -0.0019
 5328SOL    HW127620   4.572   0.399  17.267 -0.9468  0.7157  0.0469
 5328SOL    HW227621   4.473   0.372  17.376 -0.3903  0.2964 -2.4505
 5329SOL     OW27622   1.522   2.394   7.682  0.6426 -0.5962 -0.1071
 5329SOL    HW127623   1.567   2.448   7.747  0.8716 -0.4127 -0.4184
 5329SOL    HW227624   1.568   2.426   7.605  0.2021 -1.3258 -0.6785
 5330SOL     OW27625   3.904   1.524  14.806  0.6640 -0.1253 -0.2643
 5330SOL    HW127626   3.855   1.605  14.798  0.3914 -0.2740 -0.0993
 5330SOL    HW227627   3.852   1.454  14.768  0.0806 -0.7969  1.7703
 5331SOL     OW27628   0.335   3.237   8.810 -0.3613  0.3645 -0.1016
 5331SOL    HW127629   0.331   3.329   8.783 -1.3245  0.5791  0.7597
 5331SOL    HW227630   0.249   3.207   8.781 -0.2432 -0.4914  0.4296
 5332SOL     OW27631   3.548   3.873   7.054  0.1186 -0.2690  0.0476
 5332SOL    HW127632   3.479   3.823   7.096  2.3169 -2.6297  0.8371
 5332SOL    HW227633   3.569   3.810   6.985  2.3536  0.5685 -0.0220
 5333SOL     OW27634   4.692   0.097   3.663 -0.2522 -0.7749  0.3478
 5333SOL    HW127635   4.710   0.190   3.681 -2.9402  0.1130 -1.5797
 5333SOL    HW227636   4.598   0.087   3.651 -0.2520 -1.0186  0.5683
 5334SOL     OW27637   2.532   3.048   7.994 -0.1197 -0.1984 -0.1968
 5334SOL    HW127638   2.541   3.088   8.081  1.8700  2.0062 -1.4356
 5334SOL    HW227639   2.531   2.954   8.016  1.8833 -0.2914 -0.4977
 5335SOL     OW27640   0.807   0.437   2.435  0.1516  0.2619  0.6019
 5335SOL    HW127641   0.732   0.464   2.384 -0.6428 -3.3635 -0.1537
 5335SOL    HW227642   0.782   0.481   2.517  0.4465 -0.5859  1.1533
 5336SOL     OW27643   0.623   2.936   4.485  0.2861 -0.7250  0.4050
 5336SOL    HW127644   0.573   2.931   4.567 -1.4645 -0.3186 -0.6410
 5336SOL    HW227645   0.708   2.944   4.528 -0.5661  0.4538  1.8890
 5337SOL     OW27646   4.264   3.762   2.380  0.4811 -0.1270  0.0884
 5337SOL    HW127647   4.327   3.690   2.368 -0.4775 -0.9987  0.3594
 5337SOL    HW227648   4.321   3.839   2.386 -0.9175  0.8791  0.4617
 5338SOL     OW27649   0.896   0.435   2.863 -0.1536 -0.5645 -0.2399
 5338SOL    HW127650   0.935   0.391   2.938  1.4594 -0.5246 -1.0666
 5338SOL    HW227651   0.878   0.355   2.813  2.5502 -0.1931 -1.8092
 5339SOL     OW27652   4.693   1.432   5.768 -0.3596  0.3987 -0.0917
 5339SOL    HW127653   4.632   1.361   5.746 -0.1335  0.5350 -1.2000
 5339SOL    HW227654   4.628   1.501   5.757 -0.0847  0.5895 -0.5155
 5340SOL     OW27655   2.193   2.509   6.310  0.2759 -0.5763 -0.1013
 5340SOL    HW127656   2.166   2.419   6.295 -1.9078 -0.3878  2.5501
 5340SOL    HW227657   2.135   2.560   6.253  0.8614 -1.9200 -1.9167
 5341SOL     OW27658   0.389   2.956   8.895  0.6209 -0.3888  0.0184
 5341SOL    HW127659   0.388   3.051   8.880 -0.9827 -0.2295  1.1580
 5341SOL    HW227660   0.410   2.917   8.810  1.5426 -0.8147  0.4379
 5342SOL     OW27661   3.724   2.094  13.082 -0.1782  0.1087  0.0841
 5342SOL    HW127662   3.701   2.003  13.064 -1.1766  0.0634  1.5712
 5342SOL    HW227663   3.796   2.085  13.144  0.1214 -1.2526 -0.4666
 5343SOL     OW27664   0.601   4.250   8.255 -0.0162  0.1728  0.0549
 5343SOL    HW127665   0.594   4.340   8.223  0.7716  0.1428 -0.2009
 5343SOL    HW227666   0.567   4.195   8.184  2.0305 -2.5653  1.1971
 5344SOL     OW27667   0.599   3.947   2.088 -0.6818  0.2483  0.4781
 5344SOL    HW127668   0.612   3.866   2.038  1.3504 -0.1497  1.6709
 5344SOL    HW227669   0.667   4.006   2.058 -0.2333 -0.2099  0.6004
 5345SOL     OW27670   4.147   3.947   6.938 -0.0113 -0.4724 -0.0131
 5345SOL    HW127671   4.103   3.867   6.907 -1.9405  0.4727  0.2941
 5345SOL    HW227672   4.217   3.909   6.991  0.9581  1.1360 -0.1443
 5346SOL     OW27673   2.015   4.039   7.877  0.0625  0.2103 -0.3137
 5346SOL    HW127674   1.970   4.010   7.956 -0.5400  0.9118 -0.3977
 5346SOL    HW227675   2.106   4.041   7.905  1.0491  0.1052 -3.5013
 5347SOL     OW27676   1.788   3.243   7.551 -0.3215  0.1429 -0.5581
 5347SOL    HW127677   1.712   3.300   7.563 -0.8131 -0.3241 -1.4669
 5347SOL    HW227678   1.748   3.160   7.576  0.4361 -0.3397 -0.9413
 5348SOL     OW27679   4.462   2.183   0.864  0.2795  0.0780 -0.1300
 5348SOL    HW127680   4.506   2.103   0.835  2.4930  0.5681  1.8705
 5348SOL    HW227681   4.454   2.222   0.777  0.7534 -2.1491 -1.1864
 5349SOL     OW27682   3.754   4.194   4.790 -0.5550 -0.2685 -0.6432
 5349SOL    HW127683   3.756   4.286   4.814 -2.0998 -0.6484  1.0081
 5349SOL    HW227684   3.757   4.157   4.879  1.6513  0.8043 -0.2756
 5350SOL     OW27685   0.816   1.809   0.579 -0.1096  0.4235  0.0926
 5350SOL    HW127686   0.890   1.865   0.598  2.0378 -1.9541 -1.2431
 5350SOL    HW227687   0.807   1.828   0.485 -0.2677 -3.1597 -0.6504
 5351SOL     OW27688   1.467   4.222   1.379  0.3514  0.0888  0.1583
 5351SOL    HW127689   1.443   4.201   1.469  0.3120  0.0884  0.1477
 5351SOL    HW227690   1.529   4.292   1.395 -0.1888  0.3961  0.9318
 5352SOL     OW27691   3.534   0.945   4.016 -0.5360 -0.5850 -0.8943
 5352SOL    HW127692   3.453   0.987   3.987 -0.3620  0.4830  0.1732
 5352SOL    HW227693   3.500   0.914   4.100 -2.0980  1.6766 -0.6904
 5353SOL     OW27694   3.969   0.156   3.423  0.1065  0.0305 -0.1626
 5353SOL    HW127695   4.045   0.097   3.428  1.9593  2.5412  1.3450
 5353SOL    HW227696   4.009   0.231   3.379  2.5256 -1.2303 -0.1238
 5354SOL     OW27697   3.374   4.348  14.442  0.7038  0.4545  0.7379
 5354SOL    HW127698   3.354   4.294  14.366  0.3278 -0.7979  1.7271
 5354SOL    HW227699   3.432   4.412  14.401 -1.4058  0.2412 -2.5358
 5355SOL     OW27700   2.356   2.962   8.728 -0.4110  0.2171  0.4967
 5355SOL    HW127701   2.261   2.977   8.727 -0.2827  1.0709  1.2969
 5355SOL    HW227702   2.367   3.014   8.807 -2.3471  0.3600  0.6735
 5356SOL     OW27703   2.473   1.853   2.672  0.1257 -0.2997  0.1379
 5356SOL    HW127704   2.520   1.917   2.726  0.3474 -0.7499  0.4830
 5356SOL    HW227705   2.403   1.830   2.732 -0.3926  2.6170  0.6252
 5357SOL     OW27706   2.549   3.257   3.198 -0.0428  0.3367 -0.1411
 5357SOL    HW127707   2.596   3.195   3.143  2.3809  1.0296  1.1416
 5357SOL    HW227708   2.555   3.223   3.288 -1.5100  1.5850  0.4448
 5358SOL     OW27709   4.108   2.900  17.220 -0.2136 -0.3145  0.7794
 5358SOL    HW127710   4.109   2.871  17.129  0.9470  0.5780  0.4911
 5358SOL    HW227711   4.192   2.862  17.247  0.7151  1.9528  1.1171
 5359SOL     OW27712   1.968   4.013  13.618  0.7752  0.0252  0.0832
 5359SOL    HW127713   1.989   4.097  13.577 -1.3772  0.8175  0.6179
 5359SOL    HW227714   1.907   4.054  13.679  0.3724 -2.9246  1.6865
 5360SOL     OW27715   0.762   0.858   6.913  0.1760  0.1420  0.1681
 5360SOL    HW127716   0.781   0.768   6.939  1.7034  0.3430 -0.2339
 5360SOL    HW227717   0.667   0.854   6.916  0.1793  0.7189  0.9220
 5361SOL     OW27718   1.282   3.165   9.210 -0.5982 -0.0605 -0.3068
 5361SOL    HW127719   1.292   3.194   9.300 -1.6370 -2.2622  0.5014
 5361SOL    HW227720   1.187   3.154   9.200 -0.8104  1.1829  0.2611
 5362SOL     OW27721   3.136   4.677   7.500  0.5674  0.5046 -0.3897
 5362SOL    HW127722   3.114   0.023   7.544 -1.2132 -1.9148  3.2141
 5362SOL    HW227723   3.051   4.645   7.470  0.8349 -1.1689  0.6218
 5363SOL     OW27724   1.596   2.562   5.338 -0.2099 -0.6640 -0.2609
 5363SOL    HW127725   1.560   2.585   5.424 -0.9007 -0.8735 -0.4954
 5363SOL    HW227726   1.669   2.506   5.364 -0.3753 -0.1691  1.2986
 5364SOL     OW27727   3.750   0.767   8.477 -0.1841  0.2894  0.1282
 5364SOL    HW127728   3.759   0.676   8.504  1.1863 -0.0195 -1.4097
 5364SOL    HW227729   3.711   0.761   8.390  0.0225  0.1671  0.0446
 5365SOL     OW27730   2.006   1.433   7.883 -0.0175  0.0724  0.4371
 5365SOL    HW127731   1.930   1.410   7.936 -0.0794  0.6865  0.6136
 5365SOL    HW227732   2.022   1.354   7.831  0.9758  0.8478 -0.4424
 5366SOL     OW27733   2.653   1.336   8.157 -0.3586  0.5009 -0.5402
 5366SOL    HW127734   2.617   1.311   8.072 -0.9818 -1.3174  0.2702
 5366SOL    HW227735   2.743   1.333   8.124 -0.1597  0.9225 -0.0393
 5367SOL     OW27736   1.584   3.932   7.273 -0.0340  0.7885 -0.1579
 5367SOL    HW127737   1.660   3.911   7.327 -1.0267 -1.2264  0.4691
 5367SOL    HW227738   1.509   3.918   7.330 -0.3667 -1.8645 -1.2450
 5368SOL     OW27739   2.181   1.363   8.166  0.5004 -0.3489  0.3375
 5368SOL    HW127740   2.165   1.411   8.247 -0.2874 -0.1747  0.0702
 5368SOL    HW227741   2.187   1.272   8.196  1.7485 -0.1810  0.5992
 5369SOL     OW27742   4.632   2.826  15.492  0.3246  0.0461 -0.5021
 5369SOL    HW127743   4.641   2.843  15.586 -0.4817 -0.7225 -0.2872
 5369SOL    HW227744   4.678   2.743  15.485  0.3211  0.0928 -1.0805
 5370SOL     OW27745   0.432   3.319   4.201  0.1191  0.1050 -0.4359
 5370SOL    HW127746   0.381   3.276   4.133  0.8904 -1.5146  0.0075
 5370SOL    HW227747   0.482   3.246   4.238  0.9403  0.8408 -0.0836
 5371SOL     OW27748   4.613   0.505   0.648 -0.3397 -0.2936 -0.4745
 5371SOL    HW127749   4.606   0.478   0.740 -0.1035 -2.9156 -1.2264
 5371SOL    HW227750   4.623   0.598   0.667  2.5469 -0.3142 -1.8484
 5372SOL     OW27751   2.912   2.319   3.007 -0.0616  0.3412 -0.1466
 5372SOL    HW127752   2.931   2.365   2.925  1.9995 -1.5161 -0.7125
 5372SOL    HW227753   2.908   2.393   3.068  1.9513 -0.2947  0.7719
 5373SOL     OW27754   3.784   0.493   2.805 -0.6037 -0.4403 -0.0974
 5373SOL    HW127755   3.831   0.428   2.754  1.2092 -0.4973  1.6088
 5373SOL    HW227756   3.787   0.460   2.895  1.1266 -0.4482 -0.1459
 5374SOL     OW27757   0.216   3.209   8.218 -0.2626 -0.0979 -0.3762
 5374SOL    HW127758   0.208   3.261   8.298 -1.2138  0.5283 -0.8673
 5374SOL    HW227759   0.264   3.276   8.170  0.4536  0.2729  0.8396
 5375SOL     OW27760   3.622   1.863   6.378  0.4298 -0.0590 -0.5282
 5375SOL    HW127761   3.673   1.784   6.359 -3.8441 -2.2277 -2.8448
 5375SOL    HW227762   3.643   1.876   6.470  0.8445  2.0932 -0.9214
 5376SOL     OW27763   2.724   3.238   5.576 -0.3035  0.2346  0.0915
 5376SOL    HW127764   2.806   3.286   5.583  1.4085 -2.7603  0.6034
 5376SOL    HW227765   2.667   3.309   5.547  0.5612  1.1279  0.5969
 5377SOL     OW27766   0.760   0.577   7.251 -0.4107  0.5970 -0.0740
 5377SOL    HW127767   0.808   0.619   7.322 -0.5877  1.9630 -0.7554
 5377SOL    HW227768   0.703   0.508   7.286 -0.0817 -0.0741 -0.8529
 5378SOL     OW27769   3.838   2.629  14.108 -0.1553  0.2804  0.3848
 5378SOL    HW127770   3.891   2.631  14.028  1.1520 -1.2556  1.2342
 5378SOL    HW227771   3.890   2.590  14.178  1.6086  0.5495 -0.7624
 5379SOL     OW27772   1.934   1.133   5.029 -0.5147 -0.6086 -0.2711
 5379SOL    HW127773   1.948   1.213   4.980 -0.2420  0.2641  1.2303
 5379SOL    HW227774   1.840   1.127   5.014 -0.8521  0.0493  1.5739
 5380SOL     OW27775   1.519   3.430   2.763 -0.0997  0.7128  0.2633
 5380SOL    HW127776   1.614   3.442   2.751  0.3000 -0.8083  1.9172
 5380SOL    HW227777   1.480   3.383   2.689  0.1526  1.3816 -0.3006
 5381SOL     OW27778   2.309   1.216   4.582 -0.0349  0.3080 -0.6769
 5381SOL    HW127779   2.380   1.236   4.520  1.0560 -0.5860  0.2770
 5381SOL    HW227780   2.231   1.195   4.532 -0.4772  0.1066  0.1004
 5382SOL     OW27781   0.729   0.280  17.321 -0.0385  0.0350  0.2951
 5382SOL    HW127782   0.822   0.283  17.301 -0.1899 -2.2571 -0.7868
 5382SOL    HW227783   0.725   0.186  17.338 -1.0076 -0.3372 -1.9724
 5383SOL     OW27784   3.387   0.792   8.588 -0.2844  0.2157  0.1507
 5383SOL    HW127785   3.399   0.885   8.566 -2.4320  0.4374 -0.0890
 5383SOL    HW227786   3.439   0.767   8.664  0.5427 -0.3909 -0.6299
 5384SOL     OW27787   2.331   4.209   0.977 -0.2970  0.3413  0.4246
 5384SOL    HW127788   2.270   4.211   0.904 -1.3205  0.7300  1.2855
 5384SOL    HW227789   2.307   4.130   1.025 -1.2400 -0.5201 -1.5042
 5385SOL     OW27790   4.489   4.503   3.218  0.0729 -0.2103 -0.6497
 5385SOL    HW127791   4.517   4.535   3.303  0.8255  1.2021 -1.4184
 5385SOL    HW227792   4.431   4.578   3.208  1.3256  0.9302  0.6373
 5386SOL     OW27793   2.133   0.635   2.807 -0.0024 -0.1623 -0.5446
 5386SOL    HW127794   2.070   0.596   2.868 -0.2151  0.1448 -0.5652
 5386SOL    HW227795   2.188   0.557   2.800  1.7206  0.9075  1.2148
 5387SOL     OW27796   1.453   0.788   8.550 -0.0095  0.1627 -0.4774
 5387SOL    HW127797   1.388   0.849   8.585 -0.8890 -1.2777  0.3634
 5387SOL    HW227798   1.529   0.847   8.552 -0.7411  1.0470  1.6567
 5388SOL     OW27799   0.727   4.701   7.021 -0.1221 -0.5139 -0.2721
 5388SOL    HW127800   0.646   4.670   6.982 -0.5247 -1.8336  1.6212
 5388SOL    HW227801   0.792   4.638   6.988  0.1139 -0.1082 -0.5878
 5389SOL     OW27802   3.378   2.289  17.649 -0.0603 -0.1198  0.0575
 5389SOL    HW127803   3.288   2.286  17.618 -0.4889  1.1238  1.1968
 5389SOL    HW227804   3.429   2.226  17.597  1.1966 -0.2200  1.4069
 5390SOL     OW27805   0.888   4.714   5.291 -0.0922  0.2718 -0.7444
 5390SOL    HW127806   0.899   4.635   5.239  0.7516 -0.5175  0.6341
 5390SOL    HW227807   0.798   4.735   5.268 -0.3046  2.0067  1.5750
 5391SOL     OW27808   1.302   2.090   8.455 -0.1249  0.3458 -0.4083
 5391SOL    HW127809   1.323   2.174   8.495 -0.2290  0.1229  0.1139
 5391SOL    HW227810   1.207   2.081   8.464  0.3405 -0.9554  3.1159
 5392SOL     OW27811   1.063   0.645   9.118  0.4515  0.2067 -0.5014
 5392SOL    HW127812   1.041   0.713   9.054  0.0056  0.5177 -0.0117
 5392SOL    HW227813   1.027   0.690   9.194 -0.9520 -1.3150 -0.2507
 5393SOL     OW27814   3.477   3.903   6.522  0.4481  0.3949  0.4451
 5393SOL    HW127815   3.565   3.934   6.500 -0.9499  3.0527 -1.4376
 5393SOL    HW227816   3.437   3.990   6.526 -2.5028 -1.0368  1.9487
 5394SOL     OW27817   2.473   3.478   7.425 -0.4496 -0.0196 -0.2802
 5394SOL    HW127818   2.454   3.385   7.415  3.3383 -0.8479  0.1318
 5394SOL    HW227819   2.481   3.500   7.332 -0.3747  0.9546 -0.0440
 5395SOL     OW27820   1.958   4.300  14.066 -0.1889  0.1106  0.4961
 5395SOL    HW127821   1.939   4.252  14.146 -1.0718 -0.2193  0.0997
 5395SOL    HW227822   1.993   4.231  14.010 -0.7008 -1.8808  2.6340
 5396SOL     OW27823   2.818   2.204   2.165  0.0914 -0.4386  0.5619
 5396SOL    HW127824   2.798   2.116   2.132 -1.8753 -0.0194  0.6037
 5396SOL    HW227825   2.865   2.241   2.091  0.4108  0.0050  0.9892
 5397SOL     OW27826   0.268   3.270   0.293  0.2511  0.6376  0.5847
 5397SOL    HW127827   0.312   3.252   0.376  0.7744 -2.2280 -0.3223
 5397SOL    HW227828   0.293   3.193   0.241 -0.3282  0.1309  1.0702
 5398SOL     OW27829   1.429   0.858   3.239  0.2157  0.3880  0.3491
 5398SOL    HW127830   1.445   0.861   3.333  1.5237  1.5338  0.0846
 5398SOL    HW227831   1.399   0.947   3.221  1.6291  0.4838 -1.4479
 5399SOL     OW27832   3.120   1.310  14.206  0.0610 -0.1363 -0.3521
 5399SOL    HW127833   3.177   1.233  14.213  1.2363  0.6023 -1.7687
 5399SOL    HW227834   3.188   1.378  14.203  0.6437 -0.7305 -0.5175
 5400SOL     OW27835   0.868   3.083  15.468  0.3556  0.2237  0.3094
 5400SOL    HW127836   0.860   3.147  15.397 -0.7959  1.0203  1.1536
 5400SOL    HW227837   0.896   3.145  15.536 -0.0838  1.8152 -0.9727
 5401SOL     OW27838   3.404   4.398   8.764 -0.1838 -0.4544 -0.4880
 5401SOL    HW127839   3.316   4.369   8.741  0.3033 -2.7941  0.5447
 5401SOL    HW227840   3.461   4.371   8.691  2.5468  1.4422  0.9513
 5402SOL     OW27841   1.861   3.054   4.791  0.3034 -0.2915 -0.8107
 5402SOL    HW127842   1.933   3.051   4.855  1.6997 -0.9326 -2.4050
 5402SOL    HW227843   1.905   3.038   4.708 -0.7513  0.8662 -1.5901
 5403SOL     OW27844   0.844   2.106   7.382 -0.6556  0.2354 -0.1419
 5403SOL    HW127845   0.803   2.157   7.452  0.1657 -0.3704  0.7829
 5403SOL    HW227846   0.921   2.152   7.349 -1.0441 -0.5937 -2.1660
 5404SOL     OW27847   3.418   0.366   2.801  0.2285  0.5314 -0.5165
 5404SOL    HW127848   3.437   0.441   2.858 -0.7985  1.5900 -1.5635
 5404SOL    HW227849   3.373   0.305   2.859  0.7599  1.1803  0.5861
 5405SOL     OW27850   1.978   3.577   8.352  0.0426 -0.1724  0.0680
 5405SOL    HW127851   1.976   3.585   8.448  2.7674  1.3162 -0.0096
 5405SOL    HW227852   2.068   3.588   8.324  0.7556  1.1165  2.8890
 5406SOL     OW27853   2.035   4.560   4.662  0.0821 -0.5363 -0.7894
 5406SOL    HW127854   1.975   4.635   4.656  0.5613  0.0765  2.1251
 5406SOL    HW227855   1.969   4.492   4.649  0.5109 -1.2457  0.7633
 5407SOL     OW27856   4.132   1.144   0.882 -0.7632  0.1245  0.0716
 5407SOL    HW127857   4.071   1.181   0.819 -0.0812  1.7881  0.3723
 5407SOL    HW227858   4.113   1.055   0.855  1.8277  0.0471 -1.5104
 5408SOL     OW27859   3.667   3.067   8.887 -0.0045 -0.0641  0.1208
 5408SOL    HW127860   3.723   3.044   8.962 -1.0017  3.4328  1.9171
 5408SOL    HW227861   3.701   3.145   8.844  1.2707 -0.8078 -0.2243
 5409SOL     OW27862   0.268   2.720   4.579  0.6646  0.4071 -0.1662
 5409SOL    HW127863   0.251   2.752   4.491  0.6156  2.5031  0.6042
 5409SOL    HW227864   0.331   2.648   4.570 -1.3473 -1.2235 -1.0242
 5410SOL     OW27865   2.239   0.275  17.017  0.7075  0.3230 -0.3269
 5410SOL    HW127866   2.172   0.342  17.034  0.7213 -0.2088  1.8083
 5410SOL    HW227867   2.266   0.247  17.105  0.9579  1.1432 -0.1395
 5411SOL     OW27868   1.751   0.625   6.455  0.0511  0.1446  0.0730
 5411SOL    HW127869   1.776   0.551   6.399 -0.3286 -1.0501  1.4916
 5411SOL    HW227870   1.793   0.593   6.535  0.1158  0.8880  0.3335
 5412SOL     OW27871   4.651   3.740   4.495 -0.1169  0.2110  1.1764
 5412SOL    HW127872   4.601   3.666   4.459  0.7472  0.1614  0.1009
 5412SOL    HW227873   0.004   3.720   4.467  0.5029  2.1724  1.7077
 5413SOL     OW27874   3.295   1.000   7.341  0.3309 -0.0237 -0.6926
 5413SOL    HW127875   3.260   1.079   7.383  0.7283  1.3191 -2.9057
 5413SOL    HW227876   3.307   0.939   7.414 -0.6049  0.3872 -0.2013
 5414SOL     OW27877   1.783   1.682  17.257  0.8889  0.0599 -0.4524
 5414SOL    HW127878   1.703   1.711  17.299  0.7827  0.8396 -1.1837
 5414SOL    HW227879   1.745   1.629  17.187  0.8468 -0.4750 -0.0199
 5415SOL     OW27880   4.412   0.032   3.660  0.2205  0.5697  0.1917
 5415SOL    HW127881   4.401   0.019   3.754  1.3684  1.2972  0.4337
 5415SOL    HW227882   4.332   0.084   3.651  0.2300  0.6519  0.5997
 5416SOL     OW27883   1.733   0.991  17.018 -0.6194  0.2563 -0.0671
 5416SOL    HW127884   1.747   0.913  17.072  0.7492  1.4503  1.2945
 5416SOL    HW227885   1.683   0.955  16.945  1.2931 -0.9131 -0.8027
 5417SOL     OW27886   4.268   2.103  14.483 -0.6358  0.2236 -0.1210
 5417SOL    HW127887   4.215   2.133  14.557  1.9079 -0.0707  1.8211
 5417SOL    HW227888   4.323   2.036  14.525 -1.1496  1.2421  2.1750
 5418SOL     OW27889   0.611   4.037   8.914 -0.4236  0.0998  0.1196
 5418SOL    HW127890   0.657   3.953   8.913  0.8454  0.7999 -0.0915
 5418SOL    HW227891   0.683   4.087   8.874 -0.8612 -0.0682 -0.8586
 5419SOL     OW27892   0.484   2.315   8.666 -0.2304 -0.2299  0.2828
 5419SOL    HW127893   0.551   2.324   8.734 -1.2252 -0.3874  1.2792
 5419SOL    HW227894   0.465   2.408   8.672  0.1740 -0.0579 -1.0777
 5420SOL     OW27895   0.361   4.571   0.636  0.1134 -0.1279 -0.5023
 5420SOL    HW127896   0.415   4.602   0.709  1.2060 -0.4226 -1.1849
 5420SOL    HW227897   0.391   4.625   0.563  2.0204 -0.6975 -0.1337
 5421SOL     OW27898   4.561   4.289  13.991 -0.0948 -0.0469  0.2702
 5421SOL    HW127899   4.504   4.365  13.978  0.0890  0.1379  0.5538
 5421SOL    HW227900   4.585   4.264  13.902 -1.8143  2.3911 -0.8845
 5422SOL     OW27901   3.877   3.738   9.352  0.5077  0.0543 -0.3358
 5422SOL    HW127902   3.847   3.649   9.369 -1.2961  0.6612 -0.3285
 5422SOL    HW227903   3.827   3.749   9.271 -0.0997 -0.3516 -0.0145
 5423SOL     OW27904   0.764   1.447   5.100 -0.2229 -0.4409  0.4448
 5423SOL    HW127905   0.738   1.355   5.097  0.3345 -0.5057 -2.1581
 5423SOL    HW227906   0.859   1.436   5.101 -0.2000 -0.3916 -0.6947
 5424SOL     OW27907   4.119   3.387   2.087 -0.2159  0.7612 -0.0865
 5424SOL    HW127908   4.072   3.303   2.089  0.4603  0.3637 -0.5812
 5424SOL    HW227909   4.207   3.356   2.064  0.0876  1.8269 -0.3656
 5425SOL     OW27910   3.618   0.146   4.375  0.6168 -0.3400 -0.0824
 5425SOL    HW127911   3.674   0.099   4.313 -1.6506 -1.0944 -1.5644
 5425SOL    HW227912   3.666   0.229   4.373 -0.2825  0.1586 -1.2023
 5426SOL     OW27913   3.293   1.949   3.929 -0.3897 -0.1986 -0.2043
 5426SOL    HW127914   3.351   1.879   3.899  0.7869  1.7514 -2.5344
 5426SOL    HW227915   3.218   1.934   3.870  2.0041  0.7151 -3.4998
 5427SOL     OW27916   0.595   2.707   4.288 -0.4249 -0.0973 -0.0819
 5427SOL    HW127917   0.607   2.617   4.317  2.4695  0.4281  0.3416
 5427SOL    HW227918   0.610   2.747   4.373 -0.5180  2.4233 -1.2343
 5428SOL     OW27919   0.823   2.809  16.063  0.2438 -0.2726 -0.5696
 5428SOL    HW127920   0.823   2.844  15.974  3.1095  2.2673  0.4335
 5428SOL    HW227921   0.912   2.814  16.097 -0.9629 -0.5693  2.6020
 5429SOL     OW27922   0.756   1.664   3.133  0.3797  0.1823 -0.7348
 5429SOL    HW127923   0.826   1.677   3.197 -0.9847  0.5115  0.6662
 5429SOL    HW227924   0.687   1.723   3.161  1.3878  1.2143 -0.4141
 5430SOL     OW27925   4.716   0.306   5.395 -0.0881 -0.2062 -0.3186
 5430SOL    HW127926   0.011   0.245   5.462  1.1856 -0.6420 -1.3095
 5430SOL    HW227927   4.716   0.264   5.309 -2.4115  0.3459 -0.5887
 5431SOL     OW27928   1.035   3.533  14.063 -0.3922 -0.6330  0.2176
 5431SOL    HW127929   1.114   3.479  14.061 -0.9603 -1.4980  1.3114
 5431SOL    HW227930   0.974   3.485  14.008 -0.8166  0.6900 -0.4774
 5432SOL     OW27931   2.351   0.831  10.924  0.2200 -0.0740  0.6843
 5432SOL    HW127932   2.396   0.900  10.876 -1.1288 -1.1036 -2.0438
 5432SOL    HW227933   2.396   0.843  11.008 -1.3887  1.4417  1.3228
 5433SOL     OW27934   1.249   1.687   2.432  0.2838  0.1726  0.7236
 5433SOL    HW127935   1.320   1.646   2.382 -0.0919  1.2108 -0.6717
 5433SOL    HW227936   1.182   1.618   2.432 -1.7902  2.2063  2.1657
 5434SOL     OW27937   0.250   0.279   1.460  0.2915 -0.0102  0.3393
 5434SOL    HW127938   0.215   0.264   1.547 -1.4725 -0.8164 -0.5206
 5434SOL    HW227939   0.326   0.337   1.469  0.4184 -0.0890 -0.1918
 5435SOL     OW27940   3.260   1.977  17.526  0.5723 -0.1953  0.0518
 5435SOL    HW127941   3.192   1.912  17.508  1.1603 -0.9504  0.5675
 5435SOL    HW227942   3.290   1.944  17.610  0.3437 -0.8966 -0.1465
 5436SOL     OW27943   3.837   1.339   5.364 -0.7961 -0.2629 -0.3569
 5436SOL    HW127944   3.750   1.359   5.399 -0.6129  0.2761 -0.2119
 5436SOL    HW227945   3.829   1.378   5.278 -2.1211 -2.3856 -1.2062
 5437SOL     OW27946   2.092   4.554   7.547  0.5425  0.6831  0.3269
 5437SOL    HW127947   2.093   4.465   7.582  0.1597 -0.2347 -2.0168
 5437SOL    HW227948   2.176   4.592   7.574  1.5848 -1.3099 -0.0333
 5438SOL     OW27949   0.175   0.664  11.426  0.1808  0.6859  0.1220
 5438SOL    HW127950   0.213   0.661  11.338  0.2511 -1.8811  0.2455
 5438SOL    HW227951   0.110   0.735  11.424 -1.1420 -0.5114  1.1617
 5439SOL     OW27952   1.049   1.265   7.145  0.1382 -0.8576 -0.2862
 5439SOL    HW127953   1.061   1.214   7.066 -1.2844 -1.6913  0.0306
 5439SOL    HW227954   1.024   1.207   7.217  0.9363 -0.2152  0.4979
 5440SOL     OW27955   2.511   0.251   9.643  0.0598 -0.3292  0.5110
 5440SOL    HW127956   2.427   0.235   9.686  0.1315  0.4594  0.9417
 5440SOL    HW227957   2.574   0.236   9.714  0.4492 -0.0118  0.2359
 5441SOL     OW27958   3.499   3.817   6.102 -0.0549  0.2725  0.5114
 5441SOL    HW127959   3.535   3.902   6.078 -0.0546  0.9902  3.0242
 5441SOL    HW227960   3.525   3.761   6.029  0.2198  0.9823  0.0646
 5442SOL     OW27961   0.069   4.500   8.332  0.8042  0.8916  0.3509
 5442SOL    HW127962   0.036   4.532   8.248  0.3978 -0.7707 -0.1177
 5442SOL    HW227963   0.122   4.431   8.292  1.3596  2.0594 -0.9284
 5443SOL     OW27964   0.670   3.397   9.689  0.3298 -0.5186 -0.2783
 5443SOL    HW127965   0.709   3.390   9.776  3.0987  1.7148 -1.3385
 5443SOL    HW227966   0.684   3.489   9.665 -2.6926 -0.5097 -2.0602
 5444SOL     OW27967   4.118   3.645   1.882  0.2253  0.0959  0.1435
 5444SOL    HW127968   4.184   3.585   1.917  0.7200 -0.0218 -0.9643
 5444SOL    HW227969   4.050   3.650   1.949 -0.4064 -0.4182 -0.4578
 5445SOL     OW27970   2.940   0.252   5.670 -0.0014 -0.9296  0.5056
 5445SOL    HW127971   2.980   0.210   5.593 -0.5514 -1.9383  0.7742
 5445SOL    HW227972   2.977   0.202   5.742  2.3149  1.1766  0.7874
 5446SOL     OW27973   0.382   0.821   3.926  0.2344 -0.1257 -0.1508
 5446SOL    HW127974   0.415   0.911   3.930 -0.5129  0.2166 -1.4219
 5446SOL    HW227975   0.456   0.773   3.961  2.1712  2.2594 -1.0161
 5447SOL     OW27976   0.014   2.263   2.885 -0.1317  0.1533 -0.3797
 5447SOL    HW127977   0.064   2.279   2.965 -2.4210  2.0448  0.6667
 5447SOL    HW227978   0.044   2.341   2.838 -1.4797 -0.4617 -2.2854
 5448SOL     OW27979   4.090   3.995  15.939 -0.0197 -0.5838 -0.1687
 5448SOL    HW127980   4.144   4.064  15.978 -0.5047  0.2978 -1.0381
 5448SOL    HW227981   4.004   4.034  15.948 -0.7073 -1.7639 -1.6387
 5449SOL     OW27982   4.481   2.650  11.625  0.0165  0.0994 -0.0395
 5449SOL    HW127983   4.478   2.595  11.703  1.1642 -0.7286 -0.5678
 5449SOL    HW227984   4.569   2.687  11.618 -0.4411  1.6056  2.1917
 5450SOL     OW27985   0.455   4.330   9.158  0.8187  0.4022 -0.1598
 5450SOL    HW127986   0.417   4.278   9.228  0.2388 -0.2020 -0.9185
 5450SOL    HW227987   0.486   4.266   9.094 -0.6055 -0.9358  0.5124
 5451SOL     OW27988   3.469   4.305   3.863  0.0403  0.0331  0.1897
 5451SOL    HW127989   3.375   4.322   3.869 -0.5597 -3.0776 -0.5534
 5451SOL    HW227990   3.462   4.212   3.885  0.7031 -0.2577 -0.8541
 5452SOL     OW27991   0.511   3.271  14.338  0.4739  0.2972 -0.1118
 5452SOL    HW127992   0.513   3.215  14.416 -0.1384  1.4598  0.7489
 5452SOL    HW227993   0.521   3.357  14.379  0.6869  0.0977  0.2495
 5453SOL     OW27994   4.172   3.163  14.311 -0.0538  0.5541 -0.5024
 5453SOL    HW127995   4.176   3.069  14.329 -1.0415  0.9893  2.1475
 5453SOL    HW227996   4.110   3.172  14.239 -0.7526 -0.3782 -0.0135
 5454SOL     OW27997   1.238   3.678   2.511  0.3951 -0.3969  0.0334
 5454SOL    HW127998   1.266   3.691   2.421  3.3215 -1.0982  0.8435
 5454SOL    HW227999   1.183   3.601   2.497 -3.3303  2.4284 -1.0013
 5455SOL     OW28000   3.947   2.594   5.140  0.0672 -0.1146 -0.2353
 5455SOL    HW128001   3.936   2.502   5.115  2.4240  0.1029 -2.0369
 5455SOL    HW228002   3.946   2.589   5.236  3.5664  1.3844 -0.1205
 5456SOL     OW28003   0.463   3.834   9.489  0.0267 -0.4124  0.3870
 5456SOL    HW128004   0.438   3.742   9.480 -0.9268 -0.0826 -0.3654
 5456SOL    HW228005   0.377   3.877   9.488  0.8078  1.1065 -0.9315
 5457SOL     OW28006   3.247   3.244   8.237 -0.2089  0.1698 -0.3947
 5457SOL    HW128007   3.321   3.199   8.278 -0.0933 -0.1107 -0.9133
 5457SOL    HW228008   3.229   3.310   8.304 -1.0156  1.6971 -2.1381
 5458SOL     OW28009   3.411   0.177  15.043 -0.1963 -0.5400  0.0979
 5458SOL    HW128010   3.319   0.176  15.068 -0.3978 -3.0561 -0.8070
 5458SOL    HW228011   3.402   0.174  14.948 -1.5467 -1.7996  0.2761
 5459SOL     OW28012   3.141   4.251  14.941  0.5258 -0.3604 -0.1577
 5459SOL    HW128013   3.081   4.197  14.992  0.9229  1.6891  2.4368
 5459SOL    HW228014   3.119   4.230  14.850  2.9576 -0.8213 -0.6292
 5460SOL     OW28015   2.231   3.930  10.345  0.3469  0.0028  0.0740
 5460SOL    HW128016   2.210   4.021  10.324 -0.0160  0.4700  2.5188
 5460SOL    HW228017   2.324   3.918  10.326  0.4551  1.1645 -0.1590
 5461SOL     OW28018   3.349   0.888   5.866  0.4301  0.0740 -0.2713
 5461SOL    HW128019   3.421   0.923   5.813  0.4722 -1.2482 -1.0648
 5461SOL    HW228020   3.317   0.828   5.799  1.3177 -0.9642  0.2363
 5462SOL     OW28021   0.844   3.880   6.060 -0.4542  0.5807  0.0327
 5462SOL    HW128022   0.752   3.897   6.081 -1.7523 -1.2851 -4.0861
 5462SOL    HW228023   0.876   3.827   6.133 -2.3982 -2.0670 -1.0281
 5463SOL     OW28024   4.608   1.300  16.275 -0.4693  0.0132 -0.2140
 5463SOL    HW128025   4.632   1.357  16.348  2.2541 -0.0370 -1.0794
 5463SOL    HW228026   4.527   1.345  16.249  1.3607  2.8254 -1.1015
 5464SOL     OW28027   4.674   1.344   4.598 -0.1630 -0.4878  0.0634
 5464SOL    HW128028   0.022   1.378   4.566  0.0992  0.6400  1.9493
 5464SOL    HW228029   4.688   1.313   4.687 -1.8218  0.9063  0.8178
 5465SOL     OW28030   1.401   3.566   7.748  0.2604  0.6213  0.0955
 5465SOL    HW128031   1.408   3.602   7.660  3.6491  2.3750  1.0730
 5465SOL    HW228032   1.409   3.646   7.802 -2.8480  1.6778 -1.0453
 5466SOL     OW28033   0.277   0.728   3.517  0.2147 -0.1489  0.8985
 5466SOL    HW128034   0.277   0.750   3.424 -0.9248 -0.4801  0.8226
 5466SOL    HW228035   0.212   0.658   3.517  0.1584 -0.0849 -2.2431
 5467SOL     OW28036   3.186   2.407  17.429  0.1234 -0.1865 -0.3164
 5467SOL    HW128037   3.166   2.496  17.398 -2.0658 -0.8061 -0.6477
 5467SOL    HW228038   3.235   2.364  17.359  0.8405 -0.6992  0.5029
 5468SOL     OW28039   2.139   4.632   7.018 -0.2885  0.0038 -0.4504
 5468SOL    HW128040   2.136   4.697   6.948  0.2301  1.0542  0.4995
 5468SOL    HW228041   2.059   4.582   7.008  0.4085 -0.8530 -1.7374
 5469SOL     OW28042   1.931   3.793   1.278 -0.2758  0.2262 -0.0418
 5469SOL    HW128043   2.003   3.760   1.332 -0.9149 -0.9715  0.0793
 5469SOL    HW228044   1.983   3.785   1.198 -1.7807  0.3837 -1.0283
 5470SOL     OW28045   3.621   1.996   2.968  0.1383  0.5577  0.5243
 5470SOL    HW128046   3.648   1.960   3.053  0.8946  2.4153  1.0734
 5470SOL    HW228047   3.544   2.049   2.987 -0.3935 -0.1827  0.4315
 5471SOL     OW28048   1.429   1.141  15.356 -0.0821  0.0599  0.1466
 5471SOL    HW128049   1.377   1.213  15.391 -0.4253 -0.0115 -0.2160
 5471SOL    HW228050   1.498   1.135  15.422  1.9218  2.0801 -1.7313
 5472SOL     OW28051   0.572   1.069   0.617  0.2297  0.5074  0.1195
 5472SOL    HW128052   0.486   1.032   0.596 -0.5810  1.0485  2.5706
 5472SOL    HW228053   0.622   0.988   0.625 -1.3025 -0.4087  0.4673
 5473SOL     OW28054   4.163   3.342   4.191 -0.2684 -0.8356  0.3492
 5473SOL    HW128055   4.185   3.377   4.104  1.8897  0.5836  1.4802
 5473SOL    HW228056   4.071   3.322   4.174 -0.2335  0.1336 -0.9817
 5474SOL     OW28057   4.371   4.719   6.043 -0.3578 -0.9625  0.1257
 5474SOL    HW128058   4.399   4.717   6.135  2.3340 -0.1065 -0.6893
 5474SOL    HW228059   4.279   4.694   6.055 -1.0854  0.9737 -1.3333
 5475SOL     OW28060   3.618   3.922   7.394 -0.5830  0.0224  0.5068
 5475SOL    HW128061   3.691   3.907   7.334 -1.1833  2.3646 -0.8009
 5475SOL    HW228062   3.578   3.995   7.346  0.5917 -1.1016 -2.1825
 5476SOL     OW28063   3.867   1.938   5.828  0.4396  0.9036  0.0517
 5476SOL    HW128064   3.891   1.970   5.741 -0.1254 -0.7125 -0.6786
 5476SOL    HW228065   3.794   1.994   5.855 -1.0288 -0.6856 -0.6785
 5477SOL     OW28066   0.117   3.588   1.756 -0.1925 -0.0669 -0.3147
 5477SOL    HW128067   0.191   3.528   1.745 -0.7015 -1.3024  2.9134
 5477SOL    HW228068   0.167   3.668   1.776 -0.1561 -0.6972  2.1942
 5478SOL     OW28069   2.094   2.495   5.408  0.2565 -0.0475 -0.3693
 5478SOL    HW128070   2.058   2.421   5.457 -0.3065 -0.6208 -1.6671
 5478SOL    HW228071   2.164   2.451   5.361  2.4340  1.2552  1.6460
 5479SOL     OW28072   4.642   3.275   6.669 -0.5901 -0.5550  0.0534
 5479SOL    HW128073   4.579   3.344   6.649  0.3732  0.0069 -1.0596
 5479SOL    HW228074   4.723   3.324   6.675 -0.1965 -1.0582 -1.2003
 5480SOL     OW28075   3.198   3.872  15.023 -0.0451  0.0357 -0.1288
 5480SOL    HW128076   3.193   3.783  14.987  1.6006 -0.1449  0.1160
 5480SOL    HW228077   3.285   3.899  14.994  0.7287 -0.6849  1.5330
 5481SOL     OW28078   4.227   1.534   1.968 -0.2632  0.3735  0.0685
 5481SOL    HW128079   4.172   1.502   1.896 -0.9460 -0.4256  0.9505
 5481SOL    HW228080   4.299   1.470   1.963 -0.2074  0.5016 -0.8676
 5482SOL     OW28081   4.614   1.767   4.743  0.0871 -0.5794  0.1633
 5482SOL    HW128082   4.689   1.825   4.755  0.4090 -0.9961  0.1495
 5482SOL    HW228083   4.630   1.699   4.808  0.8161 -0.5857 -0.0230
 5483SOL     OW28084   0.935   0.388   6.396 -0.2040  0.1879 -0.0551
 5483SOL    HW128085   0.947   0.347   6.482 -1.3064 -2.0776 -0.9659
 5483SOL    HW228086   0.882   0.462   6.427  0.2458  0.5034 -0.0435
 5484SOL     OW28087   1.452   2.625   5.568 -0.6748  0.0471  0.2220
 5484SOL    HW128088   1.483   2.702   5.615 -1.6005  1.0143 -0.7627
 5484SOL    HW228089   1.358   2.623   5.585 -0.3101  0.0105  2.2136
 5485SOL     OW28090   0.131   2.284   1.506 -0.2432  0.0815 -0.0893
 5485SOL    HW128091   0.106   2.331   1.427  4.5431 -0.6498 -2.0368
 5485SOL    HW228092   0.169   2.359   1.551  0.3207 -0.0732 -0.3118
 5486SOL     OW28093   4.217   2.203  15.933 -0.3192  0.1696 -0.0952
 5486SOL    HW128094   4.217   2.276  15.995  2.2458  0.4968 -0.4845
 5486SOL    HW228095   4.264   2.234  15.855  1.2579  1.2736  1.2989
 5487SOL     OW28096   3.222   1.637  12.740  0.8068  0.8404 -0.1733
 5487SOL    HW128097   3.297   1.622  12.682 -0.6611 -3.2513 -0.9998
 5487SOL    HW228098   3.227   1.565  12.803 -1.0982  1.8687  1.1217
 5488SOL     OW28099   1.795   3.029   8.297  0.1136  0.2639 -0.0091
 5488SOL    HW128100   1.763   3.035   8.387  0.8865 -0.7286  0.3272
 5488SOL    HW228101   1.799   2.936   8.276  1.4612  0.8221 -2.3097
 5489SOL     OW28102   3.243   2.442   2.236  0.2390 -0.3686 -0.2629
 5489SOL    HW128103   3.242   2.463   2.329 -1.5354 -0.5481 -0.2280
 5489SOL    HW228104   3.183   2.367   2.234  0.7767 -0.8212  1.1016
 5490SOL     OW28105   1.157   0.153   2.878  0.2258  0.3161 -0.0251
 5490SOL    HW128106   1.166   0.060   2.898  2.4462  0.6912  0.7804
 5490SOL    HW228107   1.074   0.171   2.922 -0.2285  0.8895 -1.1162
 5491SOL     OW28108   1.026   4.000  12.524  0.0235  0.3691 -0.1865
 5491SOL    HW128109   1.071   4.083  12.510  1.3683 -0.2156  0.6612
 5491SOL    HW228110   1.093   3.966  12.583 -1.1798 -0.0738  0.9409
 5492SOL     OW28111   4.535   0.624  12.145 -0.1068 -0.1237  0.3595
 5492SOL    HW128112   4.609   0.575  12.181  1.0057  2.0392  1.0351
 5492SOL    HW228113   4.569   0.640  12.057  0.0711 -0.5211  0.3576
 5493SOL     OW28114   3.832   3.206   3.605 -0.0718  0.1005 -0.1313
 5493SOL    HW128115   3.739   3.222   3.621  0.2388  0.5979  1.1465
 5493SOL    HW228116   3.844   3.214   3.510 -1.4729  1.4284 -0.1814
 5494SOL     OW28117   2.576   2.401   4.789  0.0609  0.4449 -0.1835
 5494SOL    HW128118   2.492   2.355   4.790 -0.8579  2.0624 -2.5663
 5494SOL    HW228119   2.637   2.327   4.779 -0.0522  0.4701 -1.0679
 5495SOL     OW28120   0.761   1.598   2.112  0.1249  0.2970 -0.5101
 5495SOL    HW128121   0.751   1.511   2.073 -0.6601  0.8570 -1.5547
 5495SOL    HW228122   0.679   1.641   2.090 -0.9482 -0.8461  1.1817
 5496SOL     OW28123   4.529   2.240   8.206 -0.0169 -0.1582  0.0304
 5496SOL    HW128124   4.492   2.287   8.132  0.8757 -1.0557 -0.9759
 5496SOL    HW228125   4.453   2.206   8.253  1.6370 -2.0413  1.3551
 5497SOL     OW28126   0.338   2.442   9.326 -0.5345 -0.0012 -0.3123
 5497SOL    HW128127   0.406   2.416   9.388  1.6197  1.9681 -1.8440
 5497SOL    HW228128   0.372   2.532   9.324  0.4454 -0.3479  0.7538
 5498SOL     OW28129   1.679   0.635   7.948  0.1612  0.2535 -0.2729
 5498SOL    HW128130   1.686   0.664   7.857  0.1847  1.1978  0.0298
 5498SOL    HW228131   1.648   0.545   7.944  0.7200 -0.0605  2.5614
 5499SOL     OW28132   0.493   0.002   6.341 -0.5713  0.1892  0.4498
 5499SOL    HW128133   0.485   4.644   6.354 -0.4853  0.2761  1.1254
 5499SOL    HW228134   0.450   0.045   6.415 -1.8196 -0.0940 -0.0937
 5500SOL     OW28135   1.404   1.422  16.943 -0.2477  0.4926 -0.1676
 5500SOL    HW128136   1.311   1.428  16.919 -0.2430 -1.1386 -0.6367
 5500SOL    HW228137   1.433   1.350  16.887  1.3518  0.7660  0.3298
 5501SOL     OW28138   0.482   3.338   9.041 -0.6060 -0.1258  0.4246
 5501SOL    HW128139   0.438   3.289   8.971 -0.7738 -0.7346  0.9606
 5501SOL    HW228140   0.547   3.382   8.986 -0.0527 -0.8610  0.4883
 5502SOL     OW28141   2.363   0.024   3.443 -0.0325 -0.5528  0.0549
 5502SOL    HW128142   2.347   4.713   3.525 -1.6373 -0.5319 -0.2528
 5502SOL    HW228143   2.359   0.114   3.475  0.5540  0.0183 -1.4517
 5503SOL     OW28144   1.884   2.211   2.315  0.0771  0.2476 -0.7250
 5503SOL    HW128145   1.849   2.288   2.360  0.2751 -2.6065  4.3819
 5503SOL    HW228146   1.968   2.247   2.286  0.2838  0.7943  0.5538
 5504SOL     OW28147   1.705   3.062  11.634  0.3094 -0.3206  0.0395
 5504SOL    HW128148   1.770   3.122  11.670 -0.6917 -0.6039  2.2843
 5504SOL    HW228149   1.693   3.001  11.707  1.1712  0.3045  0.7042
 5505SOL     OW28150   3.593   1.881   6.903  0.3052  0.2042 -0.1092
 5505SOL    HW128151   3.548   1.806   6.864  1.3648 -0.6114  0.2454
 5505SOL    HW228152   3.544   1.889   6.985  1.9526  1.4369  0.7455
 5506SOL     OW28153   2.321   1.621  16.853 -0.7212  0.7186  0.1782
 5506SOL    HW128154   2.283   1.597  16.769 -0.8296  0.4028  0.3184
 5506SOL    HW228155   2.359   1.707  16.836 -0.2784  0.4123 -0.3993
 5507SOL     OW28156   0.412   3.602   3.797 -0.5450  0.4844  0.0164
 5507SOL    HW128157   0.349   3.666   3.767 -1.2663 -0.2111  0.0451
 5507SOL    HW228158   0.417   3.543   3.722 -1.2853  0.6667 -0.1705
 5508SOL     OW28159   1.362   0.544   5.729 -0.2593  0.4703 -0.7375
 5508SOL    HW128160   1.416   0.543   5.650 -1.8933  3.0310 -1.8568
 5508SOL    HW228161   1.288   0.492   5.698 -0.2840  2.1378 -3.4325
 5509SOL     OW28162   3.345   1.723   8.619 -0.2614 -0.2009  0.0820
 5509SOL    HW128163   3.383   1.742   8.705 -1.8400  1.7452  0.3536
 5509SOL    HW228164   3.280   1.792   8.602  0.6479  0.4217 -0.8574
 5510SOL     OW28165   2.023   2.741   6.160 -0.2053 -0.3079 -0.5973
 5510SOL    HW128166   2.064   2.804   6.219  0.2714 -0.8359 -0.3767
 5510SOL    HW228167   1.991   2.803   6.094 -0.6511  1.2118  1.0385
 5511SOL     OW28168   0.899   4.408   5.466 -0.2591  0.2650  0.2156
 5511SOL    HW128169   0.864   4.405   5.377 -0.9642 -0.6879  0.5258
 5511SOL    HW228170   0.824   4.440   5.516  0.7335  2.4794  0.2672
 5512SOL     OW28171   1.862   1.571   4.839 -0.2085 -0.2971 -0.4176
 5512SOL    HW128172   1.914   1.644   4.807 -3.4614  2.6184  0.9088
 5512SOL    HW228173   1.934   1.511   4.855 -0.2302 -0.3861 -0.6623
 5513SOL     OW28174   0.935   0.534   1.978 -0.0361 -0.0192  0.2726
 5513SOL    HW128175   0.892   0.611   2.015 -2.0219 -0.8128 -0.3839
 5513SOL    HW228176   0.922   0.467   2.046 -0.0925 -0.2479  0.0373
 5514SOL     OW28177   1.371   0.775  12.687  0.3630  0.2945 -0.1841
 5514SOL    HW128178   1.325   0.804  12.608  0.1346 -1.1307 -0.5716
 5514SOL    HW228179   1.324   0.817  12.758 -0.2313  1.8824 -1.5204
 5515SOL     OW28180   4.585   1.305   7.875  0.2281 -0.6359  0.0705
 5515SOL    HW128181   4.613   1.281   7.963 -0.7192  0.0663  0.5669
 5515SOL    HW228182   4.658   1.273   7.822  0.4654  0.9360 -0.5429
 5516SOL     OW28183   0.017   1.394   6.644  0.6130 -0.3640 -0.6362
 5516SOL    HW128184   4.670   1.351   6.623  0.8794  0.7895 -4.1316
 5516SOL    HW228185   0.057   1.406   6.557  1.0026 -0.0347 -0.4135
 5517SOL     OW28186   2.394   2.785   8.098  0.2489  0.4196  0.2222
 5517SOL    HW128187   2.335   2.710   8.093  1.6620 -0.5877 -1.3594
 5517SOL    HW228188   2.435   2.767   8.182  0.3320 -3.0674 -0.5537
 5518SOL     OW28189   1.770   0.798  13.219  0.3352  0.0497 -0.1002
 5518SOL    HW128190   1.747   0.828  13.131 -1.4000 -1.7094 -0.2485
 5518SOL    HW228191   1.716   0.719  13.218  2.0171 -1.0899 -1.0143
 5519SOL     OW28192   4.498   1.058  14.404 -0.0816  0.3476 -0.1601
 5519SOL    HW128193   4.540   1.127  14.352  1.4918 -0.9810 -0.6543
 5519SOL    HW228194   4.493   1.113  14.482 -2.4760 -0.8733  0.5402
 5520SOL     OW28195   0.965   0.986  14.185 -0.4857 -0.3352 -0.5460
 5520SOL    HW128196   0.951   0.896  14.158  0.1270 -0.5244 -0.2255
 5520SOL    HW228197   0.893   0.985  14.248 -0.5726  1.1205 -0.6187
 5521SOL     OW28198   1.585   2.793   6.636  0.1154  0.3503  0.0584
 5521SOL    HW128199   1.502   2.765   6.599  0.1993  0.8593 -0.5213
 5521SOL    HW228200   1.644   2.792   6.560  1.1177 -0.4104  0.8432
 5522SOL     OW28201   1.392   0.588   2.423 -0.4932 -0.3817  0.3668
 5522SOL    HW128202   1.480   0.551   2.421 -0.6706 -0.7451 -1.2811
 5522SOL    HW228203   1.351   0.562   2.340  1.1772  1.4932 -1.0420
 5523SOL     OW28204   2.155   2.095   7.681  0.3938  0.1708  0.5611
 5523SOL    HW128205   2.139   2.137   7.765 -1.6600  1.7282 -0.5874
 5523SOL    HW228206   2.091   2.025   7.671 -1.9886  2.2042  1.6844
 5524SOL     OW28207   3.792   1.309   6.506  0.3265 -0.7152 -0.3654
 5524SOL    HW128208   3.861   1.276   6.449 -0.0670 -1.9599 -0.1335
 5524SOL    HW228209   3.743   1.230   6.529  0.4427 -0.8973 -0.7556
 5525SOL     OW28210   1.408   3.434   8.751  0.7635  0.3686  0.3711
 5525SOL    HW128211   1.403   3.526   8.778 -0.2292  0.3680  0.1957
 5525SOL    HW228212   1.428   3.446   8.658 -2.0285 -0.1369 -0.3202
 5526SOL     OW28213   1.745   0.772  11.384  0.1744  0.1324  0.1109
 5526SOL    HW128214   1.675   0.796  11.322 -1.0198 -1.3463  0.8913
 5526SOL    HW228215   1.819   0.774  11.323  0.8011 -0.5281  0.8564
 5527SOL     OW28216   3.018   1.338  11.431  0.4534  0.0598 -0.1959
 5527SOL    HW128217   2.964   1.417  11.431  0.3126 -0.0231 -2.2867
 5527SOL    HW228218   2.941   1.283  11.445  0.5084  0.6579  2.5045
 5528SOL     OW28219   3.871   1.381   3.239  0.0391  0.3452  0.3716
 5528SOL    HW128220   3.959   1.420   3.235  0.4915 -0.4603  2.1577
 5528SOL    HW228221   3.820   1.461   3.236 -1.1750 -0.3705  1.6528
 5529SOL     OW28222   0.952   1.640  17.305  0.0106 -0.3845 -0.1129
 5529SOL    HW128223   0.868   1.633  17.259 -1.3768 -0.1477  2.3693
 5529SOL    HW228224   0.928   1.666  17.394  1.5557  2.0230 -0.4237
 5530SOL     OW28225   1.864   3.193   5.258  0.0429 -0.1984 -1.0487
 5530SOL    HW128226   1.937   3.221   5.203  1.9360 -2.3688  0.3805
 5530SOL    HW228227   1.797   3.262   5.253 -1.0499 -1.1415  0.3003
 5531SOL     OW28228   1.481   3.970   5.754  0.7987  0.2001  0.0363
 5531SOL    HW128229   1.419   3.907   5.716  0.2632  0.9189 -0.2821
 5531SOL    HW228230   1.420   4.015   5.813 -0.1604  0.7886 -1.3859
 5532SOL     OW28231   1.486   1.023   2.354 -0.0290  0.0186  0.4810
 5532SOL    HW128232   1.558   0.997   2.412  1.7015 -1.3956 -2.2871
 5532SOL    HW228233   1.498   0.961   2.282 -1.9253  0.2621 -0.0458
 5533SOL     OW28234   4.630   4.073   5.303  0.0274  0.0327 -0.2804
 5533SOL    HW128235   4.539   4.053   5.325  0.4437  1.0867  2.3971
 5533SOL    HW228236   4.611   4.121   5.222  1.5031  0.4317 -0.3780
 5534SOL     OW28237   3.550   2.839   8.783  0.3764  0.4034  0.4370
 5534SOL    HW128238   3.605   2.874   8.713  0.2557  2.1483  1.2254
 5534SOL    HW228239   3.552   2.916   8.839 -0.9105 -1.1845  2.6809
 5535SOL     OW28240   4.363   2.934   1.014 -0.0487  0.2012 -0.0568
 5535SOL    HW128241   4.391   2.845   1.036  0.7207  0.8561  1.6066
 5535SOL    HW228242   4.381   2.929   0.920 -0.3896  0.2049 -0.1223
 5536SOL     OW28243   3.983   3.581  11.155  0.6602  0.0384  0.6353
 5536SOL    HW128244   4.039   3.504  11.143 -2.2201 -2.1167  0.9598
 5536SOL    HW228245   3.916   3.538  11.209 -1.9722  2.6669 -0.5847
 5537SOL     OW28246   2.570   3.611  10.951 -0.2655  0.2219 -0.1346
 5537SOL    HW128247   2.619   3.586  10.872 -0.2694 -1.6627  0.4510
 5537SOL    HW228248   2.646   3.632  11.005 -0.3644  0.6181 -0.1526
 5538SOL     OW28249   1.037   4.128   7.186  0.1764 -0.4936  0.1436
 5538SOL    HW128250   0.961   4.084   7.224  1.1912 -1.1084  1.4652
 5538SOL    HW228251   1.010   4.213   7.222 -1.1034 -0.9164  0.1967
 5539SOL     OW28252   1.635   4.620   6.135  0.0076 -0.0416  0.4642
 5539SOL    HW128253   1.568   4.686   6.154  1.2462  1.4239 -0.3402
 5539SOL    HW228254   1.603   4.551   6.194 -0.2896 -0.1558  0.1704
 5540SOL     OW28255   2.712   3.513   6.606  0.6495 -0.1991 -0.5452
 5540SOL    HW128256   2.762   3.510   6.687 -0.3163  3.6238  0.1776
 5540SOL    HW228257   2.732   3.598   6.567 -0.2694 -0.4740 -1.6350
 5541SOL     OW28258   3.828   0.010   4.239 -0.7364 -0.1342 -0.0308
 5541SOL    HW128259   3.824   0.035   4.146  2.3723 -1.6432 -0.5646
 5541SOL    HW228260   3.915   0.043   4.264 -0.2852 -2.2806  1.2012
 5542SOL     OW28261   0.044   3.009   2.545 -0.4438  0.0949  0.4595
 5542SOL    HW128262   0.036   2.960   2.627  0.0758  1.8143  1.5282
 5542SOL    HW228263   4.722   2.964   2.483  1.0552  1.5894 -2.0143
 5543SOL     OW28264   0.488   0.587   2.605 -0.4332 -0.8045 -0.6517
 5543SOL    HW128265   0.476   0.651   2.535  1.0033  0.0481 -0.1086
 5543SOL    HW228266   0.501   0.653   2.672  1.2556  0.1338 -1.9125
 5544SOL     OW28267   0.112   4.420   5.842 -0.0352  0.6569 -0.2576
 5544SOL    HW128268   0.188   4.470   5.873 -0.3836  1.2130 -0.3122
 5544SOL    HW228269   0.150   4.348   5.792  1.4981 -0.0690  1.9419
 5545SOL     OW28270   4.020   4.206   5.736  0.4569  0.4246 -0.1102
 5545SOL    HW128271   4.002   4.300   5.742  0.8584  0.6752 -2.9599
 5545SOL    HW228272   4.050   4.182   5.824  1.5961  0.8965 -0.3681
 5546SOL     OW28273   2.176   3.532   2.077 -0.0943  0.3806 -0.2692
 5546SOL    HW128274   2.243   3.484   2.126  1.3729 -0.2518 -2.8864
 5546SOL    HW228275   2.159   3.594   2.147 -0.5945 -0.5626  0.4364
 5547SOL     OW28276   0.672   3.519   8.080  0.4805 -0.0197  0.5047
 5547SOL    HW128277   0.711   3.606   8.088 -1.4965  0.8428  0.8826
 5547SOL    HW228278   0.684   3.492   7.989 -1.0569  0.3559  0.1848
 5548SOL     OW28279   3.099   0.599   2.065 -0.1495  0.0364 -0.4324
 5548SOL    HW128280   3.134   0.669   2.010  2.1705 -0.2507  0.6535
 5548SOL    HW228281   3.089   0.641   2.151  0.4037 -0.0220 -0.3379
 5549SOL     OW28282   0.256   2.910  11.754  0.2599  0.3449 -0.2591
 5549SOL    HW128283   0.346   2.926  11.781  0.5222 -1.7410  0.1289
 5549SOL    HW228284   0.281   2.852  11.682  0.6708 -3.0785  2.6598
 5550SOL     OW28285   2.584   4.630   3.236  0.1438  0.0743  0.1306
 5550SOL    HW128286   2.544   4.711   3.267 -0.8101  0.1271 -1.2273
 5550SOL    HW228287   2.555   4.562   3.298 -2.4138  0.8110 -0.2420
 5551SOL     OW28288   3.201   4.371   7.950 -0.2534  0.2317  0.5523
 5551SOL    HW128289   3.229   4.448   8.000  1.1100  0.0237  0.1104
 5551SOL    HW228290   3.132   4.421   7.907 -0.3734  0.1835  0.6906
 5552SOL     OW28291   3.390   1.841   9.696 -0.7352  0.2190  0.1900
 5552SOL    HW128292   3.315   1.869   9.643 -0.3186 -0.8511 -0.9761
 5552SOL    HW228293   3.388   1.891   9.778  1.5654 -2.1383  1.6625
 5553SOL     OW28294   4.709   2.657   1.581  0.1206  0.0797 -0.0985
 5553SOL    HW128295   4.663   2.573   1.587  2.0207 -0.6360  4.2031
 5553SOL    HW228296   0.020   2.666   1.664  0.4917  1.7296 -0.4848
 5554SOL     OW28297   4.448   3.218   6.109 -0.1523 -0.2140  0.5442
 5554SOL    HW128298   4.524   3.242   6.161 -0.1701 -1.4878  1.1342
 5554SOL    HW228299   4.408   3.305   6.099  0.3560 -0.2378 -1.7932
 5555SOL     OW28300   4.723   3.291   6.172 -0.3398  0.1304 -0.1030
 5555SOL    HW128301   0.006   3.372   6.219  0.5476 -0.3544  0.3840
 5555SOL    HW228302   0.042   3.305   6.095  0.2000  1.5680  0.5412
 5556SOL     OW28303   1.325   2.590   2.405 -0.0126  0.2902  0.0089
 5556SOL    HW128304   1.369   2.536   2.339 -0.3066 -0.7921  0.6911
 5556SOL    HW228305   1.236   2.556   2.393  0.6030 -1.4097  0.2398
 5557SOL     OW28306   4.099   3.123   2.820  0.4953  0.5939 -0.1495
 5557SOL    HW128307   4.158   3.051   2.795  0.7817  1.0989 -0.9338
 5557SOL    HW228308   4.036   3.071   2.868 -0.2387  0.1578 -1.5732
 5558SOL     OW28309   1.882   3.076   6.321 -0.5695  0.7046 -1.3183
 5558SOL    HW128310   1.963   3.070   6.270  1.6694  0.9440  2.2217
 5558SOL    HW228311   1.816   3.092   6.254  0.0015 -1.2897 -2.3410
 5559SOL     OW28312   2.254   4.188  14.729  0.1190  0.0838 -0.2554
 5559SOL    HW128313   2.182   4.204  14.667 -0.5242  1.4681  0.8468
 5559SOL    HW228314   2.268   4.093  14.721  0.8058  0.1741 -0.1520
 5560SOL     OW28315   3.784   0.005   3.276 -0.0233 -0.0708 -0.7880
 5560SOL    HW128316   3.757   0.085   3.231 -2.7691 -0.3493  0.3124
 5560SOL    HW228317   3.845   0.051   3.333  0.6127 -3.3499  1.1593
 5561SOL     OW28318   1.467   1.339  17.452 -0.6586  0.6231  0.3027
 5561SOL    HW128319   1.463   1.372  17.362  0.6865  0.2448  0.1156
 5561SOL    HW228320   1.517   1.408  17.496  1.2601 -1.5723  1.5241
 5562SOL     OW28321   1.462   0.692   5.492  0.1147  0.4274 -0.2629
 5562SOL    HW128322   1.451   0.735   5.577  0.2728  0.2228 -0.1400
 5562SOL    HW228323   1.554   0.712   5.474  0.7531 -0.3399  2.2455
 5563SOL     OW28324   1.159   3.067   1.991  0.2103 -0.0318 -0.5242
 5563SOL    HW128325   1.160   2.973   2.003  0.4828 -0.1353 -1.2952
 5563SOL    HW228326   1.254   3.082   1.991  0.2328 -0.1817 -2.3320
 5564SOL     OW28327   4.543   0.562   3.014 -0.2827  0.6626  0.7246
 5564SOL    HW128328   4.493   0.641   2.997 -0.5396  0.5536  0.9569
 5564SOL    HW228329   4.632   0.593   3.031  0.2646  0.4321 -1.7533
 5565SOL     OW28330   2.182   4.343   9.779 -0.0983 -0.2025  0.6251
 5565SOL    HW128331   2.262   4.294   9.761 -0.1904  0.1202 -0.6575
 5565SOL    HW228332   2.223   4.428   9.758 -0.3226  0.1222  1.5053
 5566SOL     OW28333   1.071   0.315  11.132  0.3477  0.2082 -0.2342
 5566SOL    HW128334   1.101   0.318  11.041  4.1386 -0.2812  1.0088
 5566SOL    HW228335   1.125   0.241  11.160 -0.5453 -0.7331 -1.0171
 5567SOL     OW28336   1.784   4.251   9.338  0.2391 -0.2079  0.1290
 5567SOL    HW128337   1.716   4.306   9.378  0.7295 -0.3995  1.2402
 5567SOL    HW228338   1.780   4.293   9.252 -0.0761 -0.0686  0.2110
 5568SOL     OW28339   1.383   2.870   1.936 -0.5415  0.0269 -0.2163
 5568SOL    HW128340   1.435   2.860   2.015 -0.0073  3.2872 -0.1527
 5568SOL    HW228341   1.440   2.865   1.860 -1.1430  2.4568 -0.8456
 5569SOL     OW28342   4.655   1.873  16.042 -0.1168 -0.3781  0.7715
 5569SOL    HW128343   4.603   1.928  15.982 -1.2800 -2.3224 -0.0077
 5569SOL    HW228344   0.006   1.909  16.025  0.0857 -1.7694 -1.0522
 5570SOL     OW28345   1.906   1.069   7.405  0.2477  0.5750 -0.4801
 5570SOL    HW128346   1.859   0.988   7.424  0.8026  0.1506 -0.9330
 5570SOL    HW228347   1.829   1.109   7.364 -0.9224  1.5548  2.6521
 5571SOL     OW28348   2.280   0.835  10.512 -0.4410 -0.1302 -0.0650
 5571SOL    HW128349   2.239   0.872  10.590 -0.6945 -1.1437  0.2830
 5571SOL    HW228350   2.285   0.745  10.541 -2.4240  0.0474  0.7794
 5572SOL     OW28351   2.249   0.442   3.012 -0.1585 -0.1105  0.1531
 5572SOL    HW128352   2.154   0.438   2.999 -0.5252  1.4396  2.4568
 5572SOL    HW228353   2.261   0.385   3.088  0.8556  0.2326  0.2455
 5573SOL     OW28354   1.619   0.989  15.217  0.1377 -0.3507  0.1734
 5573SOL    HW128355   1.540   1.001  15.269  0.3451  0.4001  0.3038
 5573SOL    HW228356   1.588   1.010  15.129 -1.7169 -1.5080  0.5456
 5574SOL     OW28357   4.660   0.619   2.472  0.3202  0.0651 -0.1826
 5574SOL    HW128358   4.671   0.612   2.377  1.6136  0.1052 -0.0386
 5574SOL    HW228359   4.678   0.713   2.481 -0.0421  0.2956 -1.9442
 5575SOL     OW28360   3.920   2.984   2.947  0.5508 -0.1361 -0.2570
 5575SOL    HW128361   3.985   2.929   2.991  0.2954 -0.4442 -0.2640
 5575SOL    HW228362   3.846   2.995   3.007  0.0152 -1.4767 -0.6744
 5576SOL     OW28363   3.061   2.752   7.982 -0.4531 -0.2374  0.0110
 5576SOL    HW128364   2.971   2.752   7.951 -0.8162  1.6308  1.0309
 5576SOL    HW228365   3.045   2.722   8.071  1.2765  3.0130  1.4335
 5577SOL     OW28366   2.026   2.577   4.937 -0.2381  0.4898  0.3850
 5577SOL    HW128367   2.015   2.622   5.020 -0.1031  1.2921 -0.0271
 5577SOL    HW228368   2.121   2.589   4.929 -0.3693  1.7143  0.5858
 5578SOL     OW28369   0.083   3.977   8.380 -0.3821  0.2020 -0.0256
 5578SOL    HW128370   0.023   3.973   8.455 -1.3333 -1.0516 -0.8539
 5578SOL    HW228371   0.144   3.912   8.416  1.5211  1.8225 -0.3338
 5579SOL     OW28372   0.329   4.031   2.418 -0.0670  0.0826  0.0414
 5579SOL    HW128373   0.343   4.107   2.362 -2.2368 -0.3871 -1.1587
 5579SOL    HW228374   0.246   3.996   2.385 -0.4879  1.5272 -0.4022
 5580SOL     OW28375   1.063   1.506   1.519 -0.0481  0.0651 -0.5255
 5580SOL    HW128376   1.159   1.500   1.516  0.0748  0.3914  2.5096
 5580SOL    HW228377   1.051   1.424   1.471  0.7290  1.5896 -3.3410
 5581SOL     OW28378   3.108   3.368  14.517 -0.0902  0.5235  0.1864
 5581SOL    HW128379   3.019   3.381  14.485  0.4775 -0.0594 -1.6010
 5581SOL    HW228380   3.156   3.353  14.436  0.6194 -1.5059  0.9578
 5582SOL     OW28381   2.241   0.153  14.089 -0.1444  0.5230  0.3490
 5582SOL    HW128382   2.277   0.096  14.022 -0.5513  2.4017 -1.4729
 5582SOL    HW228383   2.149   0.169  14.070 -0.4879 -0.0581  1.5650
 5583SOL     OW28384   4.393   2.529   3.043 -0.2790  0.1061  0.3968
 5583SOL    HW128385   4.441   2.486   3.114 -0.7337 -0.8945  0.0979
 5583SOL    HW228386   4.456   2.594   3.010 -1.3655  1.2276  0.5456
 5584SOL     OW28387   2.167   1.601   5.076 -0.1348  0.0890  0.6905
 5584SOL    HW128388   2.225   1.628   5.147 -1.2249  0.2347  1.5312
 5584SOL    HW228389   2.214   1.523   5.046  0.6195  0.4368  0.9805
 5585SOL     OW28390   1.884   2.614   3.863  0.7704 -0.0617 -0.1666
 5585SOL    HW128391   1.819   2.615   3.792 -0.7390 -0.0604  1.2273
 5585SOL    HW228392   1.959   2.617   3.803  1.8133  1.6433  1.2042
 5586SOL     OW28393   0.543   1.961  16.707  0.8129 -0.0807  0.5166
 5586SOL    HW128394   0.531   1.901  16.780  0.7980  1.1636  1.5471
 5586SOL    HW228395   0.590   1.911  16.641  2.7853  1.6578  0.6092
 5587SOL     OW28396   3.373   1.861  15.365  0.0769  0.1504 -0.1425
 5587SOL    HW128397   3.321   1.903  15.434 -2.1590  1.1027 -2.3966
 5587SOL    HW228398   3.308   1.797  15.337 -0.6717  0.0235  1.8927
 5588SOL     OW28399   3.891   3.651  11.495  0.0626  0.1500 -1.0103
 5588SOL    HW128400   3.808   3.663  11.541  0.5411 -0.6883  0.0510
 5588SOL    HW228401   3.931   3.577  11.540  0.6946  0.1921 -1.5099
 5589SOL     OW28402   2.611   4.459   9.719 -0.0164  0.6251 -0.0558
 5589SOL    HW128403   2.603   4.554   9.710  1.8107  0.8866  1.0057
 5589SOL    HW228404   2.670   4.462   9.795  0.6972  1.4088 -0.6361
 5590SOL     OW28405   2.235   0.033   1.299  0.1286  0.0526  0.2019
 5590SOL    HW128406   2.228   4.674   1.290  1.6129  0.0844 -1.2515
 5590SOL    HW228407   2.218   0.070   1.213  1.1018  1.1065  0.4568
 5591SOL     OW28408   2.013   0.479  15.278 -0.3540  0.6546 -0.1937
 5591SOL    HW128409   2.008   0.567  15.315 -1.0652  0.6876 -0.3765
 5591SOL    HW228410   1.983   0.499  15.189  0.2153  1.4216 -0.2108
 5592SOL     OW28411   3.956   3.359   4.400 -0.1293 -0.1964 -0.0462
 5592SOL    HW128412   4.013   3.433   4.379  0.4587 -0.4807  0.5984
 5592SOL    HW228413   3.923   3.342   4.311 -2.8513  0.3080  0.8429
 5593SOL     OW28414   1.397   2.563  14.597 -0.3716 -0.2599 -0.5796
 5593SOL    HW128415   1.422   2.514  14.676  0.2645 -2.6654 -2.2827
 5593SOL    HW228416   1.303   2.578  14.604 -0.1920  0.7574 -0.3129
 5594SOL     OW28417   4.513   1.458  15.892 -0.0753  0.4252  0.2085
 5594SOL    HW128418   4.448   1.472  15.960 -0.8845 -0.5160 -0.3620
 5594SOL    HW228419   4.454   1.422  15.825  3.0260  2.3799 -3.5940
 5595SOL     OW28420   1.128   4.223   2.702 -0.1654 -0.4046  0.2537
 5595SOL    HW128421   1.172   4.210   2.786 -1.3827  0.7870  1.0868
 5595SOL    HW228422   1.181   4.165   2.649  0.5185  1.8403 -1.4995
 5596SOL     OW28423   4.069   2.585   8.846  0.0301  0.2513  0.0971
 5596SOL    HW128424   4.048   2.492   8.856  0.4673  0.0305 -1.0367
 5596SOL    HW228425   4.053   2.613   8.936  0.6151 -0.9836  0.5921
 5597SOL     OW28426   0.756   4.517  10.684 -0.1842 -0.0637  0.1002
 5597SOL    HW128427   0.751   4.607  10.654 -0.5439  0.0270  0.4239
 5597SOL    HW228428   0.840   4.491  10.647  0.4201 -0.4428  1.7053
 5598SOL     OW28429   3.745   0.189   5.329 -0.1427 -0.6063 -0.5765
 5598SOL    HW128430   3.653   0.182   5.304 -0.8531 -0.3613  2.0281
 5598SOL    HW228431   3.786   0.236   5.257 -0.5339 -0.4599 -0.7046
 5599SOL     OW28432   2.674   2.645   4.748  0.5001  0.0593  0.1898
 5599SOL    HW128433   2.648   2.556   4.770  1.5008 -0.3292 -0.2004
 5599SOL    HW228434   2.748   2.650   4.808  0.2213 -0.2591  0.5634
 5600SOL     OW28435   3.941   1.529   1.007 -0.0607 -0.5383 -0.0434
 5600SOL    HW128436   3.890   1.609   1.013 -0.9529 -1.0586 -0.7234
 5600SOL    HW228437   3.929   1.501   1.098  1.4340 -0.9374  0.0432
 5601SOL     OW28438   0.047   4.145   0.189 -0.5863  0.7230  0.1523
 5601SOL    HW128439   0.037   4.190   0.273 -1.4476  0.6847  0.0741
 5601SOL    HW228440   0.068   4.061   0.231 -1.2486  1.3555  1.7338
 5602SOL     OW28441   2.254   2.340   5.256  0.1279  0.2422 -0.0639
 5602SOL    HW128442   2.328   2.279   5.255  0.7836  1.0455 -1.3304
 5602SOL    HW228443   2.230   2.322   5.165 -0.0904  1.4087 -0.2313
 5603SOL     OW28444   1.806   0.424  17.674  0.0237 -0.0967  0.0688
 5603SOL    HW128445   1.764   0.477  17.607 -0.3897 -0.1401  0.2937
 5603SOL    HW228446   1.888   0.474  17.681  0.0582 -0.1207 -0.1676
 5604SOL     OW28447   2.280   2.816  16.254 -0.3510  0.2434 -0.4373
 5604SOL    HW128448   2.208   2.753  16.250  0.4500 -0.7481  1.0444
 5604SOL    HW228449   2.259   2.878  16.184 -1.2938 -0.9950 -1.2518
 5605SOL     OW28450   1.085   3.846   1.666 -0.7851  0.0069 -0.4025
 5605SOL    HW128451   1.053   3.756   1.666 -2.4644  0.6394  1.9813
 5605SOL    HW228452   1.122   3.853   1.754 -1.5199  1.2986 -0.1950
 5606SOL     OW28453   0.879   0.938  16.205  1.0386 -0.1523 -0.2563
 5606SOL    HW128454   0.879   0.995  16.282 -0.3554 -0.6522  0.1089
 5606SOL    HW228455   0.970   0.958  16.183  1.2931 -0.1086  0.8328
 5607SOL     OW28456   3.458   3.459  15.133  0.3382 -0.4405 -0.3618
 5607SOL    HW128457   3.445   3.398  15.205 -0.3974  0.9833  0.7205
 5607SOL    HW228458   3.539   3.500  15.163 -1.0257  2.5306 -0.7284
 5608SOL     OW28459   2.327   3.844  11.275 -0.4135  0.0336 -0.2907
 5608SOL    HW128460   2.296   3.868  11.363 -0.0113 -0.1434 -0.1016
 5608SOL    HW228461   2.412   3.810  11.303  0.4128  2.9540  0.6410
 5609SOL     OW28462   4.067   1.231  12.640  0.1615  0.1185  0.1762
 5609SOL    HW128463   4.068   1.309  12.584  3.6619 -0.0036  0.0591
 5609SOL    HW228464   4.138   1.183  12.597  0.5445  0.2006  0.7113
 5610SOL     OW28465   0.191   1.689   0.908 -0.1611 -0.2178  0.2282
 5610SOL    HW128466   0.208   1.782   0.924  0.5134  0.1640 -2.6695
 5610SOL    HW228467   0.201   1.656   0.997 -2.3978  0.6983  0.8184
 5611SOL     OW28468   4.533   2.641   9.936 -0.1626  0.2042 -1.1893
 5611SOL    HW128469   4.597   2.580   9.899 -1.5083 -1.7865 -0.2430
 5611SOL    HW228470   4.580   2.722   9.917 -3.6675  2.6128  0.5694
 5612SOL     OW28471   4.071   4.404   3.165 -0.3991  0.0772  0.1570
 5612SOL    HW128472   3.981   4.435   3.170 -0.0654  1.1799 -0.7835
 5612SOL    HW228473   4.091   4.398   3.258  0.6598 -1.4487 -0.1677
 5613SOL     OW28474   3.339   3.346   2.970 -0.3693  0.6477 -0.5016
 5613SOL    HW128475   3.263   3.302   2.933  0.5137  0.2171 -1.7847
 5613SOL    HW228476   3.296   3.394   3.041  0.9590  1.8817 -0.5239
 5614SOL     OW28477   4.489   0.920   4.360  0.0774 -0.2073  0.4331
 5614SOL    HW128478   4.531   1.003   4.385  0.0064  0.1142 -0.4886
 5614SOL    HW228479   4.483   0.939   4.266  0.3702 -2.4223 -0.0288
 5615SOL     OW28480   2.117   2.476   2.927  0.6346 -0.0174  0.5763
 5615SOL    HW128481   2.061   2.546   2.960 -0.9983 -0.8608 -0.4332
 5615SOL    HW228482   2.061   2.449   2.855 -0.9280  0.8321  1.4837
 5616SOL     OW28483   1.482   0.152   1.716  0.2713  0.6072 -0.5290
 5616SOL    HW128484   1.447   0.073   1.674 -0.2269  0.6492 -0.1949
 5616SOL    HW228485   1.433   0.226   1.678 -0.6073  0.1285 -0.3284
 5617SOL     OW28486   3.045   1.736  12.410  0.1916 -0.2788 -0.2592
 5617SOL    HW128487   3.105   1.788  12.355 -2.0318  1.5563 -0.9428
 5617SOL    HW228488   3.000   1.678  12.349 -1.2466 -0.9703  1.4697
 5618SOL     OW28489   2.333   3.659   9.902 -0.3251  0.2129  0.4342
 5618SOL    HW128490   2.407   3.689   9.955 -1.6056 -0.7415  2.7321
 5618SOL    HW228491   2.356   3.702   9.819  0.0055 -2.6128 -0.9470
 5619SOL     OW28492   2.048   4.510   8.212 -0.3611 -0.6425 -0.1470
 5619SOL    HW128493   1.981   4.444   8.195 -1.0002  0.1133 -0.5958
 5619SOL    HW228494   2.125   4.458   8.235 -0.1800  0.1832  1.0767
 5620SOL     OW28495   2.693   0.945   2.484  0.0051  0.1631 -0.4985
 5620SOL    HW128496   2.758   0.947   2.414  0.2999 -0.9852 -0.2589
 5620SOL    HW228497   2.730   0.877   2.540  2.1328  0.4289 -1.5630
 5621SOL     OW28498   4.192   0.729   6.116 -0.1206 -0.6659 -0.0994
 5621SOL    HW128499   4.155   0.643   6.133 -0.4551 -0.3028  1.0106
 5621SOL    HW228500   4.228   0.728   6.027  1.2661  0.5565  0.4467
 5622SOL     OW28501   1.215   1.420  10.650 -0.2069  0.3070 -0.0026
 5622SOL    HW128502   1.243   1.391  10.736  0.3104  0.8211 -0.0037
 5622SOL    HW228503   1.206   1.515  10.652 -0.7325  0.2610 -0.0155
 5623SOL     OW28504   2.058   0.767   2.598  0.0282  0.1843 -0.3121
 5623SOL    HW128505   2.095   0.712   2.667  1.4808 -0.2549 -1.4452
 5623SOL    HW228506   2.003   0.704   2.550 -0.8862 -1.0951  2.4058
 5624SOL     OW28507   4.283   4.478   8.351 -0.1799  0.2395  0.3406
 5624SOL    HW128508   4.361   4.530   8.369  0.2013 -0.9589  2.2035
 5624SOL    HW228509   4.329   4.403   8.312 -1.9754 -0.6278 -0.0945
 5625SOL     OW28510   3.828   3.922   3.357  0.2411  0.2239 -0.3390
 5625SOL    HW128511   3.828   3.887   3.268 -0.7760  1.7334 -0.9195
 5625SOL    HW228512   3.734   3.935   3.369  0.3991  0.1879  0.9993
 5626SOL     OW28513   1.003   3.554   1.706 -0.2193 -0.2061  0.1161
 5626SOL    HW128514   1.096   3.545   1.728  0.2529 -1.2090 -2.2676
 5626SOL    HW228515   0.968   3.474   1.744  1.2285 -1.8915 -2.0404
 5627SOL     OW28516   4.217   2.125   1.632  0.1472  0.5573  0.1011
 5627SOL    HW128517   4.260   2.204   1.665  0.8434 -0.5687  1.8682
 5627SOL    HW228518   4.261   2.105   1.549  0.3437 -0.2778  0.4090
 5628SOL     OW28519   0.762   0.275   4.296 -0.6218  0.2189 -0.0095
 5628SOL    HW128520   0.769   0.189   4.339  3.2379  0.6008  0.1743
 5628SOL    HW228521   0.838   0.320   4.333  1.2371 -2.6331 -0.3954
 5629SOL     OW28522   2.074   1.041   0.045  0.1899  0.0912  0.3262
 5629SOL    HW128523   2.004   1.083   0.095  0.1370  0.2163  0.1460
 5629SOL    HW228524   2.144   1.039   0.111  0.5066  0.8035  0.0074
 5630SOL     OW28525   4.707   1.208  10.930 -0.3255 -0.4183  0.1889
 5630SOL    HW128526   4.615   1.230  10.917  0.6165  1.3315 -3.4837
 5630SOL    HW228527   4.703   1.113  10.928  0.0106 -0.4467  1.3639
 5631SOL     OW28528   4.671   1.029   6.521 -0.1122 -0.0436  0.0810
 5631SOL    HW128529   4.657   1.109   6.469  3.8330  2.7988  3.4005
 5631SOL    HW228530   4.583   1.011   6.553 -0.2230 -0.7132 -0.6072
 5632SOL     OW28531   4.136   2.294   6.774 -0.1933  0.2972 -0.1693
 5632SOL    HW128532   4.212   2.241   6.753  1.2909  1.6362  1.7782
 5632SOL    HW228533   4.092   2.306   6.690 -1.9139  0.5270  0.7518
 5633SOL     OW28534   1.991   4.467   2.395 -0.2562 -0.3844 -0.1596
 5633SOL    HW128535   2.081   4.435   2.405 -0.1543 -0.5913 -1.6986
 5633SOL    HW228536   1.981   4.441   2.303  0.1420  1.3184 -0.6791
 5634SOL     OW28537   3.185   1.228   3.036 -0.0963  0.0736 -0.1693
 5634SOL    HW128538   3.151   1.140   3.052  0.8737 -0.1681  0.5391
 5634SOL    HW228539   3.120   1.256   2.971 -1.4783 -0.7499  0.8334
 5635SOL     OW28540   1.862   1.998  16.056 -0.5660 -0.0678 -0.3443
 5635SOL    HW128541   1.818   2.033  16.134 -0.1461  2.5145 -1.2646
 5635SOL    HW228542   1.786   1.994  15.997  0.1043 -1.0664 -1.1383
 5636SOL     OW28543   3.664   4.229   6.381  0.1982  0.7012 -0.1913
 5636SOL    HW128544   3.647   4.196   6.469  1.8014  0.8163  0.1578
 5636SOL    HW228545   3.639   4.320   6.398  1.1710  0.8769  0.2736
 5637SOL     OW28546   4.316   3.431   1.133 -0.1141 -0.4699 -0.4383
 5637SOL    HW128547   4.381   3.366   1.160 -1.0142 -1.3299 -0.3120
 5637SOL    HW228548   4.260   3.385   1.070 -0.8303 -0.4218  0.1561
 5638SOL     OW28549   3.523   0.255   5.180 -0.2208  0.3213  0.0376
 5638SOL    HW128550   3.457   0.293   5.123 -1.4638 -0.5873  0.8751
 5638SOL    HW228551   3.602   0.283   5.134 -0.4529  3.5739  1.6422
 5639SOL     OW28552   4.316   2.928  15.558 -0.5178 -0.3453  0.5260
 5639SOL    HW128553   4.335   2.854  15.500  1.8155  0.8806 -0.2320
 5639SOL    HW228554   4.230   2.901  15.591 -1.6958  1.9016 -0.7295
 5640SOL     OW28555   1.423   0.718   6.898  0.2144  0.5343  0.1507
 5640SOL    HW128556   1.452   0.774   6.970 -3.0846  1.5416  0.6997
 5640SOL    HW228557   1.478   0.734   6.821 -0.5509  1.1779 -0.2653
 5641SOL     OW28558   4.061   2.307   8.909 -0.0768 -0.0329  0.1240
 5641SOL    HW128559   3.969   2.286   8.927  0.3457 -2.2185 -0.3374
 5641SOL    HW228560   4.098   2.290   8.995  0.4582 -0.1696 -0.1381
 5642SOL     OW28561   3.162   2.129   2.825  0.5398 -0.0245 -0.1975
 5642SOL    HW128562   3.131   2.194   2.762 -3.6637  0.2565  2.1982
 5642SOL    HW228563   3.216   2.074   2.769 -1.2416  0.5328 -2.4725
 5643SOL     OW28564   4.686   0.771  13.713  0.1663 -0.3844  0.0949
 5643SOL    HW128565   4.735   0.691  13.730  1.2541  0.5986  1.6298
 5643SOL    HW228566   0.019   0.811  13.659  0.6866  0.7709  1.6069
 5644SOL     OW28567   3.170   4.693   6.708  0.1793  0.9451  0.5494
 5644SOL    HW128568   3.137   0.045   6.687  1.3505  0.7031 -2.3575
 5644SOL    HW228569   3.089   4.645   6.722  1.0468 -0.5935  0.3205
 5645SOL     OW28570   2.400   2.869  14.923 -0.6814  0.8082  0.1389
 5645SOL    HW128571   2.411   2.964  14.913 -0.3640  0.6633 -0.9433
 5645SOL    HW228572   2.472   2.823  14.878  0.3085  2.2362  0.2503
 5646SOL     OW28573   1.724   4.307   3.606 -0.2004 -0.0393  0.5862
 5646SOL    HW128574   1.655   4.322   3.541  1.5583 -1.5993 -1.6023
 5646SOL    HW228575   1.746   4.216   3.587  1.6806  0.6014 -0.2616
 5647SOL     OW28576   4.514   1.675   5.756  0.6149 -0.4394 -0.0556
 5647SOL    HW128577   4.511   1.741   5.687  0.4520 -2.0133 -1.5339
 5647SOL    HW228578   4.423   1.664   5.784  0.5489 -0.6556 -0.3666
 5648SOL     OW28579   1.861   1.469   2.514 -0.1632 -0.0746  0.5452
 5648SOL    HW128580   1.873   1.405   2.443  0.5790  0.3539  0.2775
 5648SOL    HW228581   1.947   1.510   2.522 -1.0105  1.9924 -1.0768
 5649SOL     OW28582   2.574   0.004  11.550  0.1678  0.0070 -1.0995
 5649SOL    HW128583   2.630   4.670  11.515 -0.8271 -0.0568 -2.5611
 5649SOL    HW228584   2.575   0.072  11.483  2.1632  0.5530 -0.5172
 5650SOL     OW28585   0.394   0.509   4.785 -0.1119 -0.2198 -0.0582
 5650SOL    HW128586   0.464   0.458   4.826 -0.7052 -0.1232  1.0940
 5650SOL    HW228587   0.351   0.437   4.738 -2.7226  0.6067  1.0467
 5651SOL     OW28588   0.714   3.510   2.182  0.2547 -0.2948  0.3112
 5651SOL    HW128589   0.646   3.547   2.238 -0.8619 -0.7750 -0.7093
 5651SOL    HW228590   0.783   3.501   2.247 -1.5831  0.4373  2.3262
 5652SOL     OW28591   3.294   4.256   0.769  0.1524  0.1563  0.0335
 5652SOL    HW128592   3.380   4.217   0.754  0.4327  0.4620  0.8702
 5652SOL    HW228593   3.314   4.348   0.748  0.4034  0.2747  0.7928
 5653SOL     OW28594   1.497   2.422   4.573  0.1540  0.1324 -0.4258
 5653SOL    HW128595   1.450   2.476   4.510  1.7588 -0.1622 -1.8714
 5653SOL    HW228596   1.438   2.347   4.573  1.3610 -0.7935  2.9768
 5654SOL     OW28597   4.284   0.357  10.564 -0.2175  0.4318  0.1646
 5654SOL    HW128598   4.357   0.415  10.584 -0.5444  0.6384  0.7521
 5654SOL    HW228599   4.237   0.342  10.646  1.3753  1.1288  1.2125
 5655SOL     OW28600   4.732   4.697   9.521 -0.2083  0.9255 -0.1318
 5655SOL    HW128601   4.733   0.017   9.599 -2.8786  0.8100 -0.0027
 5655SOL    HW228602   0.069   4.730   9.468  0.8379  0.6669  1.1462
 5656SOL     OW28603   2.801   4.604  13.266 -0.0014  0.0089 -0.3509
 5656SOL    HW128604   2.710   4.636  13.265  0.3544  1.0122 -1.7918
 5656SOL    HW228605   2.807   4.516  13.303 -0.6121 -0.0126 -0.3000
 5657SOL     OW28606   0.536   1.063  16.954 -0.5367 -0.2843  0.9351
 5657SOL    HW128607   0.572   1.001  17.017  0.9642 -0.3871 -0.0155
 5657SOL    HW228608   0.583   1.144  16.974 -1.5279  0.8085 -1.1796
 5658SOL     OW28609   2.458   2.877  14.609  0.1562 -0.2618  0.3635
 5658SOL    HW128610   2.429   2.786  14.609 -0.2801 -0.1234 -2.1700
 5658SOL    HW228611   2.537   2.862  14.661  0.8673 -0.9682 -0.9121
 5659SOL     OW28612   0.240   0.708   8.429  0.2866 -0.3020 -0.2048
 5659SOL    HW128613   0.281   0.792   8.449  0.5417 -0.3843 -0.3695
 5659SOL    HW228614   0.148   0.730   8.416  0.6498  1.0733 -0.4460
 5660SOL     OW28615   4.132   2.532   2.440 -0.5962 -0.3283 -0.0977
 5660SOL    HW128616   4.037   2.528   2.442 -0.7739  3.4097 -0.3549
 5660SOL    HW228617   4.151   2.504   2.351  0.4379 -0.5440  0.1869
 5661SOL     OW28618   3.046   3.564   5.165  0.0231  0.3002  0.0765
 5661SOL    HW128619   3.089   3.622   5.102 -1.2499  0.1617 -0.9035
 5661SOL    HW228620   3.049   3.481   5.118  1.5171  0.5084 -0.2133
 5662SOL     OW28621   0.850   0.781  10.412 -0.0578 -0.2536 -0.0950
 5662SOL    HW128622   0.924   0.771  10.472 -0.9937  1.0587  1.2595
 5662SOL    HW228623   0.830   0.871  10.437 -1.0187 -0.6037  0.4095
 5663SOL     OW28624   1.627   0.244   9.246 -0.2919 -0.0190  0.3203
 5663SOL    HW128625   1.652   0.170   9.190  0.6769  0.7346 -0.2408
 5663SOL    HW228626   1.666   0.316   9.197 -1.0762  0.3695  0.2675
 5664SOL     OW28627   4.186   3.480   2.637 -0.1493 -0.6912 -0.2746
 5664SOL    HW128628   4.269   3.528   2.632  0.2933 -1.4769 -0.5041
 5664SOL    HW228629   4.166   3.450   2.548 -0.1436  1.5103 -1.0012
 5665SOL     OW28630   2.815   1.904  10.754  0.1859  0.0836 -0.1861
 5665SOL    HW128631   2.869   1.983  10.750 -1.6789  1.4746  2.6472
 5665SOL    HW228632   2.873   1.837  10.717 -0.0111  0.0272 -0.3946
 5666SOL     OW28633   2.618   4.713  12.279 -0.1630  0.3444  0.1082
 5666SOL    HW128634   2.618   0.062  12.234 -0.4452  1.4798  2.2659
 5666SOL    HW228635   2.654   4.656  12.211  2.6546  1.4978  0.6733
 5667SOL     OW28636   0.939   0.778   8.154  0.5188  0.1202  0.4498
 5667SOL    HW128637   0.967   0.804   8.242 -0.3181 -0.8916  1.0279
 5667SOL    HW228638   1.012   0.804   8.098  1.6191 -1.2720  1.2411
 5668SOL     OW28639   4.697   3.799  10.707  0.4900 -0.2240  0.3528
 5668SOL    HW128640   4.715   3.850  10.627 -0.4227  1.8703  1.4636
 5668SOL    HW228641   4.668   3.876  10.757 -1.5127 -0.0452 -1.0537
 5669SOL     OW28642   3.916   4.182   8.219 -0.5152 -0.0673 -0.4206
 5669SOL    HW128643   3.923   4.139   8.304 -2.0138  1.8395  0.6566
 5669SOL    HW228644   3.930   4.107   8.161  0.0445  0.1249 -0.5288
 5670SOL     OW28645   3.955   2.916   7.268  0.4925 -0.4972 -0.2955
 5670SOL    HW128646   3.974   2.984   7.204  0.2947 -1.7351 -1.6606
 5670SOL    HW228647   3.884   2.869   7.224 -0.9018  2.0594 -0.8034
 5671SOL     OW28648   0.157   2.410  16.974 -0.4395  0.0657  0.3978
 5671SOL    HW128649   0.219   2.462  16.924  0.4523 -1.2012  0.1809
 5671SOL    HW228650   0.181   2.442  17.060 -0.8282 -1.9809  1.2822
 5672SOL     OW28651   4.036   1.169   5.421 -0.4005  0.0274 -0.2190
 5672SOL    HW128652   3.967   1.233   5.407 -0.3596 -0.0484 -0.7721
 5672SOL    HW228653   3.984   1.089   5.428 -0.3260  0.0863  1.0576
 5673SOL     OW28654   2.190   1.365   9.859 -0.1697 -0.4964 -0.2627
 5673SOL    HW128655   2.176   1.389   9.767  1.4632 -2.2718 -0.9616
 5673SOL    HW228656   2.259   1.299   9.853 -0.2248 -0.5285 -0.5899
 5674SOL     OW28657   1.586   0.038   5.451 -0.4335 -0.3490 -0.5055
 5674SOL    HW128658   1.593   0.038   5.547  1.6861 -1.3909 -0.6570
 5674SOL    HW228659   1.544   4.688   5.444 -0.7006 -0.0538 -2.3867
 5675SOL     OW28660   2.674   3.721   8.483  0.5806 -0.4437  0.6098
 5675SOL    HW128661   2.741   3.785   8.460 -1.9546  1.0288 -2.6596
 5675SOL    HW228662   2.727   3.642   8.499  1.3012  0.1191  0.9909
 5676SOL     OW28663   2.994   3.506  16.928  0.3153  0.5361  0.0436
 5676SOL    HW128664   2.920   3.501  16.868 -0.8396  2.1645  1.3244
 5676SOL    HW228665   2.951   3.463  17.003 -1.0506  1.2062 -0.3516
 5677SOL     OW28666   4.042   4.511  12.352 -0.4126 -0.3073  0.6315
 5677SOL    HW128667   4.062   4.604  12.341 -2.1861 -0.1105 -0.8408
 5677SOL    HW228668   4.116   4.478  12.402 -0.8516 -1.5678  0.4371
 5678SOL     OW28669   3.862   2.148   2.919  0.3943  0.4928  0.5508
 5678SOL    HW128670   3.826   2.190   2.841  0.7093  0.4187  0.3661
 5678SOL    HW228671   3.807   2.070   2.921  1.3903 -0.2744 -1.6119
 5679SOL     OW28672   1.804   4.187  11.870  0.0600 -0.0012 -0.2056
 5679SOL    HW128673   1.722   4.234  11.887  0.0126  0.7086 -2.3206
 5679SOL    HW228674   1.806   4.186  11.774 -0.0749  1.2122 -0.2256
 5680SOL     OW28675   0.713   4.199   6.513 -0.2927  0.1510 -0.4248
 5680SOL    HW128676   0.685   4.287   6.537 -0.8911  0.2832 -1.6261
 5680SOL    HW228677   0.629   4.153   6.516  0.5478 -1.4440 -1.1774
 5681SOL     OW28678   2.194   0.318   1.227  0.1303 -0.0046 -0.5990
 5681SOL    HW128679   2.172   0.242   1.174 -0.5019 -0.1580 -0.1216
 5681SOL    HW228680   2.131   0.323   1.299  1.7434  0.7413  0.7636
 5682SOL     OW28681   3.894   2.320   3.437 -0.0762 -0.2841 -0.2553
 5682SOL    HW128682   3.949   2.386   3.396  0.9125 -0.8617  0.1448
 5682SOL    HW228683   3.928   2.316   3.527  2.6726 -0.6044 -1.3189
 5683SOL     OW28684   2.053   0.887   4.993 -0.0771 -0.1785 -0.1698
 5683SOL    HW128685   2.037   0.982   5.001  2.9965  0.1337  2.1931
 5683SOL    HW228686   1.964   0.859   4.969 -0.2950  1.5888 -1.5431
 5684SOL     OW28687   0.204   3.945   3.187 -0.3085  0.2595 -0.1769
 5684SOL    HW128688   0.146   3.869   3.185  0.9413 -0.6260 -2.4292
 5684SOL    HW228689   0.224   3.956   3.094  1.1395  2.7736  0.4490
 5685SOL     OW28690   2.054   0.584  10.132 -0.1651  0.5835  0.2798
 5685SOL    HW128691   2.061   0.603  10.225 -0.8019  0.3527  0.3758
 5685SOL    HW228692   1.959   0.576  10.127 -0.2895  1.7094  1.0340
 5686SOL     OW28693   1.472   0.026  11.151 -0.3199  0.1767 -0.3948
 5686SOL    HW128694   1.389   0.071  11.137 -0.7929  0.7610  4.2562
 5686SOL    HW228695   1.454   4.690  11.091 -0.1072  1.2497 -1.7383
 5687SOL     OW28696   0.220   2.231   9.950 -0.0320 -0.2603 -0.4375
 5687SOL    HW128697   0.216   2.136   9.956  1.4410 -0.2445  0.8840
 5687SOL    HW228698   0.298   2.248  10.004 -0.0247  1.4725 -1.0075
 5688SOL     OW28699   0.444   2.720   9.321  0.4797  0.4365  0.1514
 5688SOL    HW128700   0.432   2.781   9.394  1.6048  0.5305  0.2591
 5688SOL    HW228701   0.422   2.782   9.252 -3.0150 -0.3024  0.5691
 5689SOL     OW28702   4.209   3.947  12.510  0.4958 -0.4114 -0.6776
 5689SOL    HW128703   4.181   4.005  12.439 -2.9380 -1.1016  0.1348
 5689SOL    HW228704   4.174   3.861  12.486  1.2342 -1.0514  0.5048
 5690SOL     OW28705   0.431   4.108  15.870 -0.8231  0.3845 -0.6084
 5690SOL    HW128706   0.336   4.110  15.881 -0.6035 -0.1361  1.4043
 5690SOL    HW228707   0.432   4.173  15.800  0.5770  3.7864  2.5535
 5691SOL     OW28708   0.586   4.555   3.421 -0.4344 -0.7393 -0.1289
 5691SOL    HW128709   0.515   4.616   3.401 -0.6134 -0.9675 -0.1932
 5691SOL    HW228710   0.629   4.612   3.485 -1.0848  1.0766 -1.3161
 5692SOL     OW28711   3.535   2.919  14.345 -0.2891 -0.7443 -0.6188
 5692SOL    HW128712   3.468   2.900  14.411  0.7491  0.9640  0.9416
 5692SOL    HW228713   3.612   2.932  14.401  0.8056 -2.8050 -1.6429
 5693SOL     OW28714   4.130   1.891  14.337 -0.1860 -0.2631 -0.4938
 5693SOL    HW128715   4.124   1.923  14.247  1.3577 -1.8757 -1.1900
 5693SOL    HW228716   4.146   1.975  14.381  0.8620 -0.7311  0.0306
 5694SOL     OW28717   0.706   2.540   5.892 -0.1156 -0.1392  0.2494
 5694SOL    HW128718   0.715   2.447   5.871  0.9684 -0.0176  0.1993
 5694SOL    HW228719   0.686   2.531   5.985 -1.7894  1.2628  0.0180
 5695SOL     OW28720   4.641   1.560   8.434 -0.3293 -0.3198  0.0252
 5695SOL    HW128721   4.661   1.652   8.416  1.8536 -0.5074  1.5591
 5695SOL    HW228722   4.716   1.548   8.492  0.6070  1.8085 -0.7250
 5696SOL     OW28723   3.802   0.514   3.075  0.2295  0.3243 -0.0948
 5696SOL    HW128724   3.714   0.550   3.077 -0.3342 -1.0112 -0.4905
 5696SOL    HW228725   3.815   0.458   3.152 -0.4507  1.2298  0.6783
 5697SOL     OW28726   0.784   1.036   1.852  0.1061  0.1398 -0.6256
 5697SOL    HW128727   0.763   1.045   1.759 -0.3925  0.9651 -0.4296
 5697SOL    HW228728   0.698   1.010   1.887 -0.2533  2.3037  0.1113
 5698SOL     OW28729   1.494   3.296   4.003 -0.2643 -0.0412 -0.3408
 5698SOL    HW128730   1.419   3.275   4.057  0.8680 -0.7310  0.9674
 5698SOL    HW228731   1.517   3.205   3.984 -0.3973  0.3209 -2.3246
 5699SOL     OW28732   0.272   4.428  16.709 -0.2381  0.2569  0.1572
 5699SOL    HW128733   0.227   4.464  16.633  1.4861 -0.6637 -1.3116
 5699SOL    HW228734   0.230   4.474  16.781 -1.0607 -0.7158  0.2997
 5700SOL     OW28735   0.015   2.316   0.773  0.0285  0.8403  0.2951
 5700SOL    HW128736   0.102   2.350   0.794  0.4868  0.1905 -0.5519
 5700SOL    HW228737   0.030   2.234   0.821  1.3694 -0.1719 -1.8536
 5701SOL     OW28738   0.908   1.495  10.622 -0.5817 -0.4507 -0.1985
 5701SOL    HW128739   0.923   1.533  10.536  0.1333  3.2342  1.5586
 5701SOL    HW228740   0.912   1.401  10.602  0.8408  0.1588 -2.7208
 5702SOL     OW28741   1.415   3.706   9.468  0.2831  0.5399  0.2105
 5702SOL    HW128742   1.378   3.697   9.556 -1.3216 -1.5843 -0.7063
 5702SOL    HW228743   1.454   3.620   9.452  1.5698  0.9953  0.8078
 5703SOL     OW28744   1.872   4.470   7.417 -0.0958  0.4576 -0.2005
 5703SOL    HW128745   1.913   4.384   7.414 -0.1372  0.4731 -1.2271
 5703SOL    HW228746   1.949   4.513   7.454 -1.2140  1.4226  1.0234
 5704SOL     OW28747   1.235   3.254  15.534 -0.1226  0.3152  0.1244
 5704SOL    HW128748   1.143   3.231  15.539 -0.3170  0.9434 -0.6122
 5704SOL    HW228749   1.263   3.274  15.624  0.4658 -0.7562  0.1767
 5705SOL     OW28750   4.317   3.987   9.294  0.3078  0.7241  0.9774
 5705SOL    HW128751   4.276   4.029   9.369  2.9185  1.7883  1.7727
 5705SOL    HW228752   4.377   3.930   9.341 -0.6592 -0.5998  0.6314
 5706SOL     OW28753   3.086   3.818  11.671  0.5207 -0.1919 -0.1881
 5706SOL    HW128754   3.177   3.811  11.697  1.0299 -0.4593 -2.0172
 5706SOL    HW228755   3.080   3.897  11.616  0.6980 -0.2909 -0.3510
 5707SOL     OW28756   4.210   2.688  13.730  0.2369 -0.0463  0.5949
 5707SOL    HW128757   4.248   2.770  13.761  0.3258 -0.3944  1.4111
 5707SOL    HW228758   4.245   2.688  13.641 -3.8298 -1.8692 -1.0052
 5708SOL     OW28759   0.076   3.764   6.784 -0.2052  0.5338  0.0374
 5708SOL    HW128760   0.100   3.821   6.857  0.7643  3.2096 -2.4264
 5708SOL    HW228761   4.724   3.734   6.809 -0.2720  1.4322  0.8438
 5709SOL     OW28762   2.086   4.111   2.567 -0.1273  0.2032 -1.1076
 5709SOL    HW128763   2.179   4.133   2.568 -0.2362  0.5146  1.5326
 5709SOL    HW228764   2.073   4.107   2.661  2.7571  0.6836 -0.6907
 5710SOL     OW28765   2.331   1.468  17.323  0.2220  0.2321  0.1297
 5710SOL    HW128766   2.263   1.535  17.332 -0.0031  0.3327 -2.3234
 5710SOL    HW228767   2.390   1.501  17.255  0.1922  0.6087  0.2851
 5711SOL     OW28768   0.270   2.727   6.946 -0.1670 -0.4227 -0.5132
 5711SOL    HW128769   0.355   2.752   6.981  0.5572 -1.8309 -1.2637
 5711SOL    HW228770   0.226   2.686   7.021  1.4280  0.5235  0.9317
 5712SOL     OW28771   2.634   1.143   6.652  0.2738 -0.1600  0.0747
 5712SOL    HW128772   2.705   1.133   6.715  0.8561 -3.1573 -1.0656
 5712SOL    HW228773   2.672   1.174   6.570 -1.1188  1.2932 -0.0290
 5713SOL     OW28774   1.697   1.413   5.585  0.1506  0.6865 -0.3606
 5713SOL    HW128775   1.778   1.363   5.583  0.3341  0.9289  1.1366
 5713SOL    HW228776   1.641   1.349   5.628  0.9938 -0.3892 -0.8730
 5714SOL     OW28777   4.021   0.446   1.212 -0.6563 -0.1703  0.6771
 5714SOL    HW128778   4.092   0.485   1.160 -1.5192  2.5447  1.5320
 5714SOL    HW228779   4.011   0.363   1.165  1.5295 -0.0320 -0.0396
 5715SOL     OW28780   4.569   1.093   2.266 -0.0846  0.1216  0.6769
 5715SOL    HW128781   4.627   1.041   2.322  0.9922  1.4021  0.7660
 5715SOL    HW228782   4.623   1.139   2.202  3.0817 -0.4584  2.9269
 5716SOL     OW28783   3.661   0.029   7.106  0.3784  0.3210 -0.0128
 5716SOL    HW128784   3.608   0.104   7.134  3.5824  2.4722  0.2283
 5716SOL    HW228785   3.606   4.696   7.067  1.3552 -0.5257  0.0943
 5717SOL     OW28786   2.111   2.500   1.833  0.4953  0.1106 -0.2329
 5717SOL    HW128787   2.019   2.474   1.836  0.2562  0.9597 -0.2883
 5717SOL    HW228788   2.155   2.415   1.833 -1.2115 -0.7629 -0.9343
 5718SOL     OW28789   4.049   4.324   9.320 -0.2803 -0.3813  0.4857
 5718SOL    HW128790   4.045   4.417   9.339  0.8550 -0.5651  1.5995
 5718SOL    HW228791   4.040   4.328   9.225 -2.7239 -0.5626  0.7160
 5719SOL     OW28792   3.726   3.621   3.635 -0.5800  0.1184 -0.3277
 5719SOL    HW128793   3.776   3.582   3.563 -0.6102  3.1342 -1.9539
 5719SOL    HW228794   3.635   3.625   3.607 -0.5509  0.3383 -0.3850
 5720SOL     OW28795   4.404   3.374   7.222 -0.7505  0.1651  0.5656
 5720SOL    HW128796   4.419   3.285   7.252 -1.8092 -0.0427  0.4632
 5720SOL    HW228797   4.460   3.375   7.145 -1.2259  1.7077  0.2425
 5721SOL     OW28798   4.143   1.118   2.417 -0.0346  0.2019 -0.7191
 5721SOL    HW128799   4.083   1.185   2.449  0.2670  0.2937 -0.3352
 5721SOL    HW228800   4.074   1.075   2.367  1.2904 -0.2529 -2.1450
 5722SOL     OW28801   0.290   1.100  13.643  0.4335  0.0257  0.1558
 5722SOL    HW128802   0.358   1.161  13.612 -1.1435  1.0159 -1.3606
 5722SOL    HW228803   0.317   1.077  13.732 -0.7906 -0.9442  0.2683
 5723SOL     OW28804   2.440   2.604   6.385  0.1723 -0.5416  0.1558
 5723SOL    HW128805   2.348   2.586   6.369 -0.3880  2.2788  0.2643
 5723SOL    HW228806   2.478   2.529   6.432 -3.1000 -1.9280  0.5486
 5724SOL     OW28807   0.607   2.043   6.042  0.2023 -0.0658 -0.2223
 5724SOL    HW128808   0.626   1.955   6.008 -0.1782  0.3618 -1.5339
 5724SOL    HW228809   0.543   2.063   5.974 -1.8798 -0.2750  1.6857
 5725SOL     OW28810   4.179   2.265   5.767 -0.3867 -0.2366  0.3610
 5725SOL    HW128811   4.165   2.354   5.801  2.4503  1.4605 -2.9630
 5725SOL    HW228812   4.121   2.220   5.828 -0.5986  0.1296  0.4320
 5726SOL     OW28813   4.717   1.860   1.805  0.2642  0.0778 -0.0583
 5726SOL    HW128814   0.010   1.950   1.818  1.3150 -0.3254  0.4472
 5726SOL    HW228815   4.634   1.884   1.764 -0.3134 -0.8995  0.5434
 5727SOL     OW28816   0.007   3.012   1.023  0.0929  0.0808  0.0452
 5727SOL    HW128817   0.014   3.053   0.937 -0.2858  0.7743  0.3460
 5727SOL    HW228818   4.675   3.062   1.068  1.1376  0.0994  1.6118
 5728SOL     OW28819   4.148   1.735   7.257 -0.2115 -0.7367 -0.3450
 5728SOL    HW128820   4.164   1.644   7.235  3.5807 -0.2444  0.3635
 5728SOL    HW228821   4.175   1.779   7.177  2.0033 -1.2236  0.1498
 5729SOL     OW28822   4.051   4.159  17.625 -0.1047 -0.1695  0.2341
 5729SOL    HW128823   4.033   4.139  17.717 -1.0293 -0.5602 -0.0291
 5729SOL    HW228824   4.002   4.240  17.612 -0.1797 -0.2629 -0.0569
 5730SOL     OW28825   0.095   1.323   9.459 -0.4038  0.0079 -0.8555
 5730SOL    HW128826   0.059   1.266   9.527 -2.0922  0.4024 -1.3985
 5730SOL    HW228827   0.018   1.367   9.423 -0.3433  0.0817 -0.8958
 5731SOL     OW28828   4.689   2.916   0.201  0.1550 -0.4842 -0.2203
 5731SOL    HW128829   4.680   2.987   0.137 -3.0971  0.7457  1.6035
 5731SOL    HW228830   4.598   2.894   0.219  0.1038 -0.5720 -0.5720
 5732SOL     OW28831   2.856   0.948   2.277 -0.0344 -0.5962 -0.0295
 5732SOL    HW128832   2.944   0.920   2.304 -0.6911 -2.0412  0.6048
 5732SOL    HW228833   2.874   1.012   2.208  3.5816 -0.1857  1.3028
 5733SOL     OW28834   1.504   1.714  17.322  0.5885 -0.2330  0.6272
 5733SOL    HW128835   1.415   1.683  17.303  0.3005  1.7211 -1.3235
 5733SOL    HW228836   1.520   1.690  17.413  2.5408  3.1325  1.1840
 5734SOL     OW28837   0.119   0.758   4.009 -0.2814  0.4916  0.0881
 5734SOL    HW128838   0.194   0.794   3.961  0.2989 -1.2469 -0.3176
 5734SOL    HW228839   0.143   0.666   4.007 -1.7856  0.1084  0.1894
 5735SOL     OW28840   1.896   4.322   2.908 -0.1178  0.1040  0.5375
 5735SOL    HW128841   1.917   4.360   2.823  0.2499 -0.2588  0.4648
 5735SOL    HW228842   1.852   4.401   2.939 -0.3511 -0.0104  0.4969
 5736SOL     OW28843   3.023   1.238   6.607  0.1855 -0.0634 -0.5454
 5736SOL    HW128844   3.064   1.152   6.612  2.1171  0.8231 -1.1125
 5736SOL    HW228845   3.035   1.266   6.698 -0.1597  0.0231 -0.5269
 5737SOL     OW28846   0.149   0.502   4.005 -0.2301  0.7510 -0.1459
 5737SOL    HW128847   0.141   0.408   4.021 -2.7649  1.2864  1.8030
 5737SOL    HW228848   0.152   0.507   3.910  1.0438  0.3951 -0.1198
 5738SOL     OW28849   3.928   0.824   4.497 -0.6882 -0.2317  0.1349
 5738SOL    HW128850   3.942   0.823   4.592  0.6763 -1.9271 -0.0782
 5738SOL    HW228851   4.016   0.794   4.472 -0.6547 -0.6421  0.7539
 5739SOL     OW28852   2.491   0.501   7.020  0.6212  0.2701  0.3324
 5739SOL    HW128853   2.437   0.478   7.095  1.8495 -3.6029  0.0434
 5739SOL    HW228854   2.556   0.431   7.022  1.9754  1.4656 -1.6746
 5740SOL     OW28855   4.104   3.615   3.149 -0.3064 -0.5065 -0.2984
 5740SOL    HW128856   4.061   3.604   3.065 -1.3697 -3.9306  0.7070
 5740SOL    HW228857   4.191   3.632   3.113 -0.3743 -0.0997 -0.2740
 5741SOL     OW28858   1.512   2.708  10.846 -0.2226  0.5365 -0.2982
 5741SOL    HW128859   1.562   2.749  10.916 -0.7428 -0.2303  0.5207
 5741SOL    HW228860   1.516   2.775  10.777 -1.2051  0.4410 -0.4538
 5742SOL     OW28861   4.024   0.320   5.936 -0.6500 -0.4157  0.6148
 5742SOL    HW128862   4.020   0.264   5.858 -0.8104  1.0879 -0.4613
 5742SOL    HW228863   4.102   0.373   5.922  0.5227 -2.1061  0.7186
 5743SOL     OW28864   0.701   0.940  16.783  0.2319 -0.0035 -0.0240
 5743SOL    HW128865   0.743   0.933  16.869  1.7274 -1.8379 -0.8922
 5743SOL    HW228866   0.632   1.004  16.800 -0.5647 -0.6271 -0.9150
 5744SOL     OW28867   1.791   3.488   5.694 -0.4715  0.8328  0.0382
 5744SOL    HW128868   1.707   3.476   5.740 -1.4523  3.4796 -1.0717
 5744SOL    HW228869   1.775   3.436   5.615  1.6635 -0.5169  0.4922
 5745SOL     OW28870   4.416   2.634   5.264  0.4139  0.4292 -0.3095
 5745SOL    HW128871   4.404   2.629   5.170  2.6862  1.6295 -0.6597
 5745SOL    HW228872   4.477   2.565   5.288 -3.2322 -1.3544  3.8422
 5746SOL     OW28873   1.989   2.990   4.567 -0.0024  0.4519  0.8245
 5746SOL    HW128874   1.995   2.895   4.564 -0.1586  0.3975  2.4987
 5746SOL    HW228875   1.980   3.008   4.473  1.2517 -1.7394  0.2912
 5747SOL     OW28876   1.106   2.212   3.424  0.1454  0.0032 -0.3434
 5747SOL    HW128877   1.172   2.165   3.474 -0.0131  0.7908  0.6273
 5747SOL    HW228878   1.057   2.251   3.497 -1.7436 -2.2886 -0.3912
 5748SOL     OW28879   3.000   3.397   3.205  0.0381  0.1939  1.0688
 5748SOL    HW128880   2.965   3.486   3.205  0.8321  0.5140 -1.0541
 5748SOL    HW228881   2.988   3.357   3.118  1.0244  2.8120 -0.2778
 5749SOL     OW28882   3.593   3.251  13.591  0.1821  0.6213  0.3077
 5749SOL    HW128883   3.561   3.194  13.521  1.7242 -1.4301  1.2726
 5749SOL    HW228884   3.614   3.327  13.536  2.4537 -1.8010 -2.1073
 5750SOL     OW28885   2.187   3.927  10.949  0.6257 -0.0020  0.3040
 5750SOL    HW128886   2.256   3.873  10.910  1.0985  0.4708  0.4840
 5750SOL    HW228887   2.116   3.897  10.893 -0.0442  0.8216  0.7253
 5751SOL     OW28888   4.717   1.225  17.444 -0.4714 -0.8422  0.6630
 5751SOL    HW128889   0.009   1.149  17.495 -1.8733 -2.6436 -1.2202
 5751SOL    HW228890   0.071   1.253  17.426 -0.9768  0.5163  0.2870
 5752SOL     OW28891   3.267   1.897  12.557 -0.3550 -0.3153 -0.1475
 5752SOL    HW128892   3.302   1.899  12.468  3.1577  0.4087  1.2374
 5752SOL    HW228893   3.209   1.821  12.561 -1.4974  0.5028 -1.5784
 5753SOL     OW28894   4.579   3.329   1.463  0.5175  0.1565  0.2797
 5753SOL    HW128895   4.499   3.375   1.437  1.6005  1.2950 -1.0218
 5753SOL    HW228896   4.593   3.359   1.552 -0.8755  0.3479  0.4360
 5754SOL     OW28897   3.128   3.181  10.434 -0.4741  0.4863 -0.2033
 5754SOL    HW128898   3.200   3.217  10.382  0.0333 -0.1236  0.0695
 5754SOL    HW228899   3.142   3.234  10.512  1.0706 -1.2771  0.7340
 5755SOL     OW28900   4.551   4.308  16.461 -0.3531  0.1545  0.3510
 5755SOL    HW128901   4.531   4.239  16.524  0.9417 -0.9942 -0.4714
 5755SOL    HW228902   4.621   4.266  16.411 -0.4352  1.5809 -0.9812
 5756SOL     OW28903   0.400   0.462   1.269  0.0844 -0.3249  0.1767
 5756SOL    HW128904   0.460   0.458   1.344 -0.4629  0.6406  0.6663
 5756SOL    HW228905   0.454   0.480   1.192  1.3550  0.2203  1.1769
 5757SOL     OW28906   2.082   4.255   7.335 -0.0454  0.0185 -0.2980
 5757SOL    HW128907   2.036   4.184   7.291 -0.3983  0.0915 -0.0509
 5757SOL    HW228908   2.140   4.272   7.261 -0.5233 -0.9480 -0.8982
 5758SOL     OW28909   1.370   1.725   9.333 -0.2877 -0.5576 -0.3670
 5758SOL    HW128910   1.396   1.661   9.400  1.4666 -0.7792 -1.2748
 5758SOL    HW228911   1.453   1.767   9.313 -0.0713 -0.6580  0.3029
 5759SOL     OW28912   1.492   0.314   0.928  0.2206  0.5350 -0.0504
 5759SOL    HW128913   1.404   0.307   0.966  1.0424  0.3444  1.8273
 5759SOL    HW228914   1.474   0.366   0.850 -0.2727 -0.4523 -0.5948
 5760SOL     OW28915   0.299   4.149  14.794  0.2085  0.3781  0.0133
 5760SOL    HW128916   0.355   4.110  14.727 -1.4762 -1.6126 -0.2396
 5760SOL    HW228917   0.364   4.199  14.843  0.2937 -1.6245  1.9694
 5761SOL     OW28918   0.917   2.758   1.006 -0.4796  0.4397 -0.1934
 5761SOL    HW128919   0.886   2.731   0.920 -3.2885  1.6685  0.3971
 5761SOL    HW228920   0.969   2.835   0.983 -0.6137 -0.1023 -2.3216
 5762SOL     OW28921   2.637   0.699   8.167 -0.0299 -0.5554  0.5248
 5762SOL    HW128922   2.730   0.697   8.187  0.6440  2.9091 -2.2219
 5762SOL    HW228923   2.604   0.632   8.226 -0.3583  0.0523  1.0256
 5763SOL     OW28924   1.083   1.885  10.006  0.2295 -0.4496 -0.3799
 5763SOL    HW128925   1.128   1.815  10.053  2.6308  1.5957  0.3721
 5763SOL    HW228926   1.093   1.963  10.061 -0.1272 -2.0559  1.9558
 5764SOL     OW28927   0.301   2.774   1.570  0.3953  0.0905  0.3088
 5764SOL    HW128928   0.378   2.815   1.531  0.2422  0.4596  0.3920
 5764SOL    HW228929   0.231   2.835   1.546  0.3001 -0.4818 -0.8920
 5765SOL     OW28930   3.272   0.747  14.227 -0.1791  0.2795  0.3670
 5765SOL    HW128931   3.309   0.801  14.157 -1.5088 -1.0904 -1.3869
 5765SOL    HW228932   3.182   0.750  14.195  0.2549  1.1303 -0.7586
 5766SOL     OW28933   2.347   4.636   3.687  0.6173 -0.2098  0.6391
 5766SOL    HW128934   2.289   4.643   3.763 -0.6938  0.2283 -0.3807
 5766SOL    HW228935   2.431   4.645   3.732  0.1220  2.3670  1.0716
 5767SOL     OW28936   1.838   4.641  11.314 -0.3091 -0.3066 -0.2535
 5767SOL    HW128937   1.840   4.602  11.227  2.2509 -0.2582 -0.2340
 5767SOL    HW228938   1.862   4.566  11.369 -1.3236  0.6865  1.5262
 5768SOL     OW28939   1.175   1.588  14.572  0.1007 -0.4888 -0.7988
 5768SOL    HW128940   1.194   1.672  14.614  0.9444 -0.0043 -2.1337
 5768SOL    HW228941   1.261   1.544  14.573  2.1660  3.5577 -0.9557
 5769SOL     OW28942   0.147   1.148   7.059 -0.4943  0.5342 -0.3684
 5769SOL    HW128943   0.175   1.173   6.971  1.4201  1.6974  0.5821
 5769SOL    HW228944   0.061   1.190   7.067 -1.4681 -1.7211  1.0581
 5770SOL     OW28945   1.921   3.963  17.698 -0.2054  0.0690  0.3598
 5770SOL    HW128946   1.859   3.916  17.641 -0.0783 -1.3245  1.3530
 5770SOL    HW228947   1.933   3.894   0.022  0.7695  1.1579  1.3294
 5771SOL     OW28948   0.273   4.433   2.969 -0.0922  0.2740 -0.2165
 5771SOL    HW128949   0.255   4.348   3.009 -1.8362  0.8268  0.1526
 5771SOL    HW228950   0.339   4.462   3.032  0.5442 -0.8836 -0.3588
 5772SOL     OW28951   1.673   3.681  16.039  0.2118 -0.7315  0.4421
 5772SOL    HW128952   1.684   3.614  15.972  0.3884 -0.0122 -0.2397
 5772SOL    HW228953   1.692   3.763  15.994 -0.5695 -0.8124 -0.0317
 5773SOL     OW28954   4.051   1.748   2.558  0.1356 -0.1022  0.5887
 5773SOL    HW128955   4.059   1.663   2.515  2.2492  0.4388 -0.0921
 5773SOL    HW228956   4.130   1.749   2.612  0.3251 -0.6873  0.3193
 5774SOL     OW28957   2.502   3.911   7.939  0.1041 -0.3515  0.5159
 5774SOL    HW128958   2.542   3.831   7.974  1.9722  1.2129  1.9434
 5774SOL    HW228959   2.543   3.905   7.852 -0.0639  0.5634  0.3725
 5775SOL     OW28960   4.599   1.156   6.058 -0.5588  0.4560  0.3154
 5775SOL    HW128961   4.562   1.100   6.126  0.5261 -0.9160 -0.2220
 5775SOL    HW228962   4.602   1.101   5.980  2.6843 -0.0741  0.7966
 5776SOL     OW28963   1.088   2.738   6.522 -0.3813 -0.5369  0.0998
 5776SOL    HW128964   1.048   2.806   6.468 -0.8160 -1.3824 -0.6406
 5776SOL    HW228965   1.128   2.793   6.589 -1.5293  1.5520 -0.9480
 5777SOL     OW28966   0.748   3.216   4.737  0.0183  0.7288  0.0367
 5777SOL    HW128967   0.774   3.129   4.707  1.0878  1.2096 -0.4219
 5777SOL    HW228968   0.828   3.260   4.710 -0.8521  1.0181 -2.1451
 5778SOL     OW28969   4.146   0.153  13.229 -0.0977  0.2605  0.2334
 5778SOL    HW128970   4.241   0.144  13.226 -0.2668 -1.9311  1.4329
 5778SOL    HW228971   4.135   0.247  13.241  0.1439  0.4093 -0.7182
 5779SOL     OW28972   3.342   4.143   3.515 -0.5251 -0.0917  0.1437
 5779SOL    HW128973   3.382   4.228   3.502 -2.3805  0.8586  0.6173
 5779SOL    HW228974   3.300   4.132   3.430  0.9224  0.1188 -0.6016
 5780SOL     OW28975   1.243   4.004  14.159 -0.7328 -0.3833  0.2834
 5780SOL    HW128976   1.279   4.070  14.219  1.6031  0.3574 -1.9248
 5780SOL    HW228977   1.152   3.993  14.184 -0.4149  0.5020  1.8651
 5781SOL     OW28978   3.164   1.216   3.350 -0.6294 -0.5225  0.0041
 5781SOL    HW128979   3.140   1.264   3.271  1.5456 -0.1360 -0.4124
 5781SOL    HW228980   3.142   1.271   3.425 -0.8032 -0.8056  0.1649
 5782SOL     OW28981   4.402   1.984   1.407 -0.0234 -0.3868  0.1489
 5782SOL    HW128982   4.410   1.912   1.344  0.5199 -0.2304  0.0360
 5782SOL    HW228983   4.472   2.041   1.374 -0.1038 -1.2690 -1.5799
 5783SOL     OW28984   3.588   3.666   9.315  0.0016 -0.6032  0.0901
 5783SOL    HW128985   3.493   3.669   9.321  0.0008 -0.5990  0.0764
 5783SOL    HW228986   3.610   3.698   9.227 -2.8854  0.8611 -0.0871
 5784SOL     OW28987   2.870   1.022  17.428 -0.3031 -0.6022  0.8954
 5784SOL    HW128988   2.809   1.093  17.410  0.8722  0.5183  1.2728
 5784SOL    HW228989   2.957   1.060  17.412 -0.6730  0.1539  0.6432
 5785SOL     OW28990   4.215   1.248   2.077 -0.1238  0.3916  0.0969
 5785SOL    HW128991   4.123   1.230   2.092 -0.2938 -0.0087 -1.3843
 5785SOL    HW228992   4.235   1.316   2.141 -0.1015 -1.4040  1.9739
 5786SOL     OW28993   1.050   3.653   7.680  0.3670  0.6988 -0.9820
 5786SOL    HW128994   1.093   3.582   7.728 -1.1169  1.6567  1.7718
 5786SOL    HW228995   0.976   3.602   7.645  1.7488 -1.4916 -0.6815
 5787SOL     OW28996   2.968   3.502   0.821  0.1845 -0.3330 -0.0854
 5787SOL    HW128997   3.047   3.506   0.875  1.1971 -0.5621 -1.5591
 5787SOL    HW228998   2.905   3.525   0.889  0.6460  1.8366 -0.4084
 5788SOL     OW28999   0.938   4.382   7.213 -0.0907  0.2776 -0.3128
 5788SOL    HW129000   0.967   4.468   7.185  0.6548 -0.0553 -0.5462
 5788SOL    HW229001   0.860   4.384   7.156  0.1743  1.6480 -0.6131
 5789SOL     OW29002   4.462   1.870   9.090 -0.0423  0.0356  0.5418
 5789SOL    HW129003   4.450   1.814   9.013  0.9133  0.7285 -0.1092
 5789SOL    HW229004   4.552   1.847   9.114 -0.4539 -1.4759  0.6882
 5790SOL     OW29005   3.051   4.550   2.210  0.1237  0.4129  0.1717
 5790SOL    HW129006   3.124   4.560   2.149 -0.7200 -2.9691 -1.4138
 5790SOL    HW229007   2.995   4.628   2.210  0.6219  0.7709 -1.9358
 5791SOL     OW29008   4.232   1.750   2.897  0.0186  0.4765  0.3779
 5791SOL    HW129009   4.308   1.708   2.855 -0.2830  1.4474 -1.1565
 5791SOL    HW229010   4.266   1.748   2.986 -0.3071 -0.2927  0.4864
 5792SOL     OW29011   4.438   1.674   8.877  0.1560 -0.2118  0.2130
 5792SOL    HW129012   4.521   1.642   8.841 -0.0371  1.5039 -1.7831
 5792SOL    HW229013   4.398   1.715   8.800 -0.4885  1.1801  1.2884
 5793SOL     OW29014   4.319   1.527   7.974 -0.1317 -0.0844 -0.0725
 5793SOL    HW129015   4.301   1.497   7.884 -0.2475  1.4988 -0.5691
 5793SOL    HW229016   4.237   1.570   7.997 -0.0252 -0.9593  1.9233
 5794SOL     OW29017   4.121   3.659   5.287 -0.3726  0.3531 -0.6697
 5794SOL    HW129018   4.068   3.584   5.313 -0.9016  0.9220 -0.1058
 5794SOL    HW229019   4.104   3.731   5.347  1.7327  1.3222 -1.2308
 5795SOL     OW29020   4.686   2.530   3.213 -0.1534 -0.5025 -0.0650
 5795SOL    HW129021   4.671   2.616   3.175 -0.8173  0.8209  3.1790
 5795SOL    HW229022   0.037   2.548   3.248 -0.3203  1.1645 -0.5236
 5796SOL     OW29023   1.572   0.477   1.493 -0.4899 -0.2165  0.0876
 5796SOL    HW129024   1.500   0.471   1.556 -0.0741  1.1700  0.7010
 5796SOL    HW229025   1.537   0.435   1.416 -1.7925  1.6628 -0.3482
 5797SOL     OW29026   2.644   1.602  16.787 -0.7082  0.2930 -0.4183
 5797SOL    HW129027   2.620   1.668  16.722 -0.1246  1.4344  0.5306
 5797SOL    HW229028   2.635   1.523  16.734 -0.8518  0.0086  0.0280
 5798SOL     OW29029   0.036   1.194   7.375  0.4333 -1.0665  0.3857
 5798SOL    HW129030   4.732   1.150   7.450  0.0368  1.5099  1.6832
 5798SOL    HW229031   4.730   1.144   7.305  0.0935 -1.9436  1.2113
 5799SOL     OW29032   3.701   1.020   8.378  0.2011 -0.4974 -0.0115
 5799SOL    HW129033   3.714   1.071   8.458  1.8151  1.8074 -1.7358
 5799SOL    HW229034   3.723   0.932   8.409 -1.1452 -1.5895 -2.2105
 5800SOL     OW29035   1.134   4.143   3.499 -0.1805 -0.4463  0.1435
 5800SOL    HW129036   1.113   4.054   3.528 -1.4159  0.6219  2.5527
 5800SOL    HW229037   1.045   4.174   3.479 -0.6369 -0.5306  1.9962
 5801SOL     OW29038   1.340   4.354   7.308  0.0616 -0.2705 -0.0297
 5801SOL    HW129039   1.395   4.346   7.230 -2.4505  1.3371 -1.9998
 5801SOL    HW229040   1.347   4.448   7.329 -1.2436  0.1161 -1.3067
 5802SOL     OW29041   3.580   1.238  13.460  0.1646 -0.2697  0.2456
 5802SOL    HW129042   3.562   1.231  13.554  0.7873  0.2657  0.4039
 5802SOL    HW229043   3.595   1.149  13.428  1.0989  0.5748 -1.6179
 5803SOL     OW29044   1.949   4.535   4.006 -0.4467 -0.6152  0.2096
 5803SOL    HW129045   1.894   4.612   3.996  0.5186  0.2032  1.1966
 5803SOL    HW229046   1.933   4.496   4.092  1.2159  1.5520  1.4895
 5804SOL     OW29047   2.109   2.730   3.648 -0.1478  0.0852  0.0398
 5804SOL    HW129048   2.169   2.678   3.702  0.5582 -0.3153 -1.1280
 5804SOL    HW229049   2.174   2.756   3.583  2.9399  1.2954  3.5803
 5805SOL     OW29050   1.185   1.550   3.543  0.1440  0.0640 -0.0218
 5805SOL    HW129051   1.254   1.486   3.562 -0.9976 -1.3580 -0.6540
 5805SOL    HW229052   1.226   1.607   3.478  2.5552  0.1969  1.6382
 5806SOL     OW29053   2.540   3.226   3.474  0.3706  0.6478 -0.3365
 5806SOL    HW129054   2.478   3.254   3.542 -0.3171  0.2287 -0.7840
 5806SOL    HW229055   2.598   3.302   3.468  0.9256  0.3498  1.3511
 5807SOL     OW29056   0.478   2.246   5.142 -0.2521 -0.0790  0.0769
 5807SOL    HW129057   0.507   2.265   5.231  0.9352 -0.3642 -0.2474
 5807SOL    HW229058   0.430   2.324   5.115  1.3693  1.8120  2.6401
 5808SOL     OW29059   3.300   3.284   5.691 -0.4849 -0.0345  0.0297
 5808SOL    HW129060   3.209   3.292   5.722 -1.2780  0.5109 -2.4140
 5808SOL    HW229061   3.288   3.204   5.641 -1.1446 -0.1720  0.4027
 5809SOL     OW29062   4.529   3.192   2.789 -0.1426  0.0288  0.4542
 5809SOL    HW129063   4.451   3.239   2.818  0.3303  1.1787 -0.1352
 5809SOL    HW229064   4.501   3.168   2.701  0.5962 -0.8236  0.4469
 5810SOL     OW29065   0.109   2.425   8.623  0.5500  0.1117  0.0475
 5810SOL    HW129066   0.142   2.485   8.555  2.1697  0.7034  1.3467
 5810SOL    HW229067   0.024   2.409   8.582  0.9759 -0.7475 -0.5209
 5811SOL     OW29068   1.301   1.125  10.348 -0.7654  0.4868 -0.2723
 5811SOL    HW129069   1.384   1.166  10.325 -1.0569  0.6277 -1.0536
 5811SOL    HW229070   1.258   1.123  10.262 -0.8836  0.0067 -0.2047
 5812SOL     OW29071   0.321   3.354  17.178 -0.1025  0.6171 -0.3455
 5812SOL    HW129072   0.227   3.373  17.172 -0.0062  1.1617 -0.1657
 5812SOL    HW229073   0.350   3.428  17.124  0.4996  1.2875  0.8938
 5813SOL     OW29074   3.421   4.241   5.280 -0.0727  0.1519  0.3703
 5813SOL    HW129075   3.345   4.193   5.249 -0.7302  1.0358  0.6173
 5813SOL    HW229076   3.387   4.330   5.282  2.1037  0.9835  0.6676
 5814SOL     OW29077   3.507   2.810   9.110  0.1865  0.1588 -0.3163
 5814SOL    HW129078   3.445   2.738   9.127  0.3301  0.4548  1.4493
 5814SOL    HW229079   3.457   2.847   9.037 -1.7186 -1.2371  0.2870
 5815SOL     OW29080   1.405   0.280  17.351 -0.1703 -0.5381 -0.4547
 5815SOL    HW129081   1.401   0.252  17.443 -1.4298 -3.2353 -1.3300
 5815SOL    HW229082   1.488   0.328  17.345 -0.7126  0.4448  0.0353
 5816SOL     OW29083   0.800   2.013  12.345  0.5291  0.0340  0.0029
 5816SOL    HW129084   0.754   2.075  12.401 -0.8165 -2.2367  1.3915
 5816SOL    HW229085   0.870   2.071  12.315 -0.5799  0.7721 -1.1737
 5817SOL     OW29086   2.679   3.628   3.925 -0.1406 -0.3189 -0.4963
 5817SOL    HW129087   2.739   3.565   3.886  0.5534  1.3595 -2.1197
 5817SOL    HW229088   2.703   3.704   3.872 -2.0797 -0.2736 -1.3038
 5818SOL     OW29089   0.736   1.469   4.426 -0.3774  0.2480 -0.2108
 5818SOL    HW129090   0.657   1.459   4.374  0.3089  2.3483 -1.6659
 5818SOL    HW229091   0.780   1.544   4.385  0.8220  1.2318  2.8511
 5819SOL     OW29092   0.073   2.092   0.903 -0.0024 -0.1241 -0.6293
 5819SOL    HW129093   0.032   2.020   0.949 -3.1042  1.2235 -1.2868
 5819SOL    HW229094   0.161   2.056   0.912  0.3747  0.9095 -0.1726
 5820SOL     OW29095   0.748   0.948   4.379 -0.0216  0.0058  0.8894
 5820SOL    HW129096   0.680   1.003   4.341  0.6959 -0.0819 -0.5279
 5820SOL    HW229097   0.785   1.004   4.448  1.1862  0.7587 -0.3353
 5821SOL     OW29098   3.673   3.522  17.718  0.7683  0.5804  0.4875
 5821SOL    HW129099   3.687   3.472  17.637  2.7126 -1.2231  1.9644
 5821SOL    HW229100   3.603   3.583  17.695 -0.4414 -0.3042  1.8537
 5822SOL     OW29101   0.425   1.578   7.977  0.0927 -0.1462  0.3933
 5822SOL    HW129102   0.419   1.655   8.033 -3.1791  0.3199 -0.6081
 5822SOL    HW229103   0.507   1.589   7.928  1.3753 -3.0181  1.8455
 5823SOL     OW29104   4.082   2.498   6.182 -0.1572  0.1480 -0.1350
 5823SOL    HW129105   4.051   2.409   6.164 -3.2482  0.7667  2.0903
 5823SOL    HW229106   4.037   2.515   6.264 -0.3674  2.1135 -0.6509
 5824SOL     OW29107   3.537   4.082  10.890  0.1631 -0.2274 -0.0323
 5824SOL    HW129108   3.537   4.026  10.967 -1.0466  0.1136  0.2144
 5824SOL    HW229109   3.537   4.017  10.819  0.2388  3.3895 -3.3642
 5825SOL     OW29110   3.452   3.815   4.976 -0.0279  0.9497  0.0901
 5825SOL    HW129111   3.467   3.820   4.881 -0.7510  1.9343  0.0299
 5825SOL    HW229112   3.474   3.905   4.999 -2.0329  0.7963  2.4686
 5826SOL     OW29113   1.542   1.121   3.635  0.4626  0.1292 -0.0828
 5826SOL    HW129114   1.630   1.160   3.637 -0.2646  1.6662  3.5915
 5826SOL    HW229115   1.511   1.131   3.726 -0.5028 -2.3431 -0.1342
 5827SOL     OW29116   0.650   0.699   1.764  0.9145  0.2931 -0.1275
 5827SOL    HW129117   0.607   0.655   1.837 -0.9197  0.4315 -1.1299
 5827SOL    HW229118   0.568   0.734   1.731  0.2143 -0.2665  1.0379
 5828SOL     OW29119   4.718   4.113   5.733  0.3067  0.4140  0.0799
 5828SOL    HW129120   4.627   4.117   5.706  0.3821  1.9805  0.0558
 5828SOL    HW229121   4.695   4.070   5.815 -0.3069 -1.1309 -0.9147
 5829SOL     OW29122   0.561   1.186   2.652 -0.5386  0.2640 -0.2899
 5829SOL    HW129123   0.535   1.135   2.728  0.8925 -0.9030 -0.5769
 5829SOL    HW229124   0.638   1.223   2.695  1.0298 -0.4112 -2.4926
 5830SOL     OW29125   0.843   3.500  15.706  0.2441  0.1255  0.0333
 5830SOL    HW129126   0.849   3.590  15.737  2.3880  0.6801 -2.0079
 5830SOL    HW229127   0.750   3.507  15.682  0.6666 -3.5467 -2.6227
 5831SOL     OW29128   0.953   0.109   5.949 -0.2360 -0.4770  0.1671
 5831SOL    HW129129   0.904   0.175   5.999 -0.4673 -0.6737  0.2009
 5831SOL    HW229130   1.033   0.104   6.002 -0.8311 -1.8372  0.9406
 5832SOL     OW29131   4.248   3.162   5.528  0.5865 -0.4431  0.0934
 5832SOL    HW129132   4.335   3.134   5.500  0.7394  0.0002  0.1168
 5832SOL    HW229133   4.189   3.106   5.477 -0.7201  0.8296  0.2212
 5833SOL     OW29134   4.726   2.089   3.193 -0.2868  0.0199  0.3495
 5833SOL    HW129135   4.651   2.138   3.228 -0.5927 -1.4046  1.6762
 5833SOL    HW229136   0.057   2.121   3.253 -1.1374  1.8101  0.3455
 5834SOL     OW29137   0.366   4.169   7.312 -0.2737  0.4655  0.3936
 5834SOL    HW129138   0.457   4.176   7.340  0.4947  0.9057 -2.1815
 5834SOL    HW229139   0.335   4.257   7.334 -3.8881 -0.8551  0.5932
 5835SOL     OW29140   4.106   4.433   3.850  0.0345 -0.1575 -0.2223
 5835SOL    HW129141   4.193   4.418   3.814 -0.5910 -1.6029 -1.1050
 5835SOL    HW229142   4.125   4.397   3.937  0.1802 -0.8811 -0.5623
 5836SOL     OW29143   0.569   1.808   2.089  0.0818  0.3337 -0.0368
 5836SOL    HW129144   0.532   1.873   2.149 -2.2398 -0.8368 -0.1923
 5836SOL    HW229145   0.497   1.810   2.026  1.0525 -0.5293 -1.1716
 5837SOL     OW29146   3.675   2.365  13.159 -0.2876  0.1192 -0.2698
 5837SOL    HW129147   3.768   2.379  13.179  0.0306  1.0105 -2.3736
 5837SOL    HW229148   3.688   2.279  13.119 -0.2276  0.2683 -0.5771
 5838SOL     OW29149   1.714   4.601   1.109 -0.0172 -0.2907  0.3855
 5838SOL    HW129150   1.674   4.515   1.108  0.1051 -0.3512  0.6045
 5838SOL    HW229151   1.655   4.651   1.053  2.6686  2.9934  0.4609
 5839SOL     OW29152   4.610   2.643  12.764 -0.4483  0.2541 -0.1000
 5839SOL    HW129153   4.703   2.624  12.777 -0.1341  0.3244 -2.2866
 5839SOL    HW229154   4.580   2.567  12.814 -0.9761 -0.8986 -2.1901
 5840SOL     OW29155   0.995   0.936   5.246  0.1358 -0.4819 -0.0303
 5840SOL    HW129156   0.972   1.016   5.199  1.0749  0.4082  1.0357
 5840SOL    HW229157   1.090   0.938   5.258  0.1721  0.9137 -0.4941
 5841SOL     OW29158   3.075   2.682   1.380  0.6475 -0.2100  0.3257
 5841SOL    HW129159   3.147   2.677   1.317  0.1118 -0.3328 -0.2776
 5841SOL    HW229160   3.092   2.772   1.409 -1.2333  0.4923 -0.8272
 5842SOL     OW29161   2.284   3.680   1.325  0.4892 -0.4975 -0.5525
 5842SOL    HW129162   2.240   3.648   1.405 -2.7558  1.9267 -1.3457
 5842SOL    HW229163   2.294   3.771   1.352  0.8059 -1.0946  1.3990
 5843SOL     OW29164   3.466   3.135   3.767  0.2527  0.2276  0.4892
 5843SOL    HW129165   3.492   3.227   3.763  0.2381  0.3413  3.1827
 5843SOL    HW229166   3.462   3.117   3.673  0.0934  2.7922  0.0252
 5844SOL     OW29167   2.649   1.247   3.803  0.0957 -0.4766 -0.2702
 5844SOL    HW129168   2.669   1.305   3.730  0.4669  0.0517  0.2548
 5844SOL    HW229169   2.727   1.258   3.858  0.4605 -2.6014 -0.3903
 5845SOL     OW29170   2.164   1.464  10.140  0.3334 -0.3777 -0.5950
 5845SOL    HW129171   2.117   1.438  10.061 -1.7961  1.2175  0.1362
 5845SOL    HW229172   2.169   1.386  10.195  0.7486  0.3839  0.4652
 5846SOL     OW29173   3.930   1.630   5.879  0.3875  0.6063  0.1756
 5846SOL    HW129174   3.909   1.718   5.849  2.4433  0.8192 -0.6736
 5846SOL    HW229175   3.846   1.595   5.849  0.4833  2.0270 -1.7286
 5847SOL     OW29176   3.624   3.548  11.357  0.3790 -0.1112 -0.3340
 5847SOL    HW129177   3.629   3.566  11.451 -0.9879  0.1348 -0.3206
 5847SOL    HW229178   3.698   3.487  11.351  1.6832  1.2924  1.3225
 5848SOL     OW29179   2.441   0.955   3.136 -0.1893 -0.1815 -0.3639
 5848SOL    HW129180   2.360   0.921   3.097 -0.5090 -2.4852  2.3263
 5848SOL    HW229181   2.404   1.006   3.208  1.4111 -1.6912  1.5410
 5849SOL     OW29182   0.424   1.374   5.923 -0.2876 -0.4375 -0.0640
 5849SOL    HW129183   0.384   1.457   5.948  1.0733  0.6854 -1.6261
 5849SOL    HW229184   0.434   1.390   5.829 -0.8303 -1.4721 -0.3007
 5850SOL     OW29185   3.473   4.306  16.171  0.3305  1.1712 -0.1991
 5850SOL    HW129186   3.486   4.370  16.101 -0.6308  2.1993  0.5594
 5850SOL    HW229187   3.557   4.309  16.215  0.8368  0.6871 -1.1263
 5851SOL     OW29188   4.551   2.583   0.678 -0.3300 -0.1215  0.1796
 5851SOL    HW129189   4.540   2.618   0.766 -0.2412 -0.1500  0.2026
 5851SOL    HW229190   4.504   2.652   0.632 -0.6331 -1.0400 -0.8645
 5852SOL     OW29191   4.220   0.987   2.661 -0.3996 -0.0558 -0.0136
 5852SOL    HW129192   4.204   0.894   2.644  0.9084 -0.6434  1.9943
 5852SOL    HW229193   4.180   1.030   2.585 -2.5095  0.2061  1.2617
 5853SOL     OW29194   2.527   4.267  12.830  0.2518  0.2007  0.4191
 5853SOL    HW129195   2.566   4.288  12.745 -3.1409  3.9163 -0.2067
 5853SOL    HW229196   2.442   4.259  12.789  0.8974 -0.9498 -0.6905
 5854SOL     OW29197   1.050   3.438  15.106  0.2409  0.1268  0.4303
 5854SOL    HW129198   1.102   3.484  15.171  0.1978  1.1725 -0.2621
 5854SOL    HW229199   1.074   3.482  15.024 -0.8012 -0.7451 -0.3499
 5855SOL     OW29200   0.935   0.259   3.652  0.1225  0.7628  0.0753
 5855SOL    HW129201   0.999   0.227   3.587  0.3080  1.4812 -0.0937
 5855SOL    HW229202   0.986   0.311   3.714 -1.9307  0.7237  1.7937
 5856SOL     OW29203   2.534   0.026   8.726 -0.6642  0.3993 -0.1521
 5856SOL    HW129204   2.442   0.052   8.727 -1.0326 -0.9671  2.5640
 5856SOL    HW229205   2.535   4.675   8.767  2.3014  0.4398 -0.1235
 5857SOL     OW29206   3.568   2.629   4.553  0.2226 -0.2690  0.0491
 5857SOL    HW129207   3.578   2.589   4.639  2.6691  1.4521  0.5580
 5857SOL    HW229208   3.525   2.567   4.493  3.9485 -1.6995 -1.1461
 5858SOL     OW29209   3.499   4.709   8.192 -0.5227 -0.4106  0.1863
 5858SOL    HW129210   3.447   4.685   8.269 -0.8070 -1.4338 -0.3221
 5858SOL    HW229211   3.565   4.640   8.186 -0.1246 -0.0090 -0.0014
 5859SOL     OW29212   1.127   3.523   9.116  0.4404  1.0224  0.0923
 5859SOL    HW129213   1.104   3.602   9.165 -2.2202 -1.4742  2.8524
 5859SOL    HW229214   1.050   3.468   9.128  0.1374  1.0751 -1.6440
 5860SOL     OW29215   1.156   2.501   4.876 -0.1193 -0.4600 -0.2590
 5860SOL    HW129216   1.148   2.458   4.962 -0.8893 -0.1516 -0.1769
 5860SOL    HW229217   1.165   2.594   4.899 -0.9326 -0.0513 -1.5964
 5861SOL     OW29218   4.117   2.705   4.974  0.0453 -0.4585  0.0122
 5861SOL    HW129219   4.050   2.683   5.039 -0.8170 -1.0896 -1.0821
 5861SOL    HW229220   4.169   2.627   4.995 -1.7378 -2.2887 -2.3781
 5862SOL     OW29221   0.392   3.560   9.437 -0.2511 -0.4931 -0.2697
 5862SOL    HW129222   0.344   3.481   9.462 -1.2233  0.4092  0.7193
 5862SOL    HW229223   0.367   3.571   9.345  0.3996  2.1733 -0.1111
 5863SOL     OW29224   3.533   1.026  14.887  0.2538  0.2089  0.5206
 5863SOL    HW129225   3.496   1.108  14.920 -3.7731 -0.8961 -1.1658
 5863SOL    HW229226   3.619   1.041  14.925  0.5629  0.4271 -0.2530
 5864SOL     OW29227   3.752   0.758   9.099 -0.2007  0.6962 -0.3379
 5864SOL    HW129228   3.700   0.679   9.110 -0.7403  1.2237  0.9059
 5864SOL    HW229229   3.682   0.823   9.084  0.2191  1.1213 -0.4633
 5865SOL     OW29230   3.891   2.509   4.337  0.0220  0.2683 -0.4152
 5865SOL    HW129231   3.838   2.437   4.303 -0.0239  0.2326 -0.2692
 5865SOL    HW229232   3.843   2.541   4.413 -0.0047 -1.2055  0.1866
 5866SOL     OW29233   4.252   3.684   6.627 -0.4256 -0.1684  0.2289
 5866SOL    HW129234   4.289   3.770   6.607 -1.3100  0.1481 -0.0676
 5866SOL    HW229235   4.214   3.698   6.714  1.9987  1.9823  0.9306
 5867SOL     OW29236   2.474   0.679   5.943  0.0744  0.1328  0.5438
 5867SOL    HW129237   2.528   0.697   6.020 -0.8378 -2.3550  1.7542
 5867SOL    HW229238   2.520   0.602   5.911 -1.1441  0.2945 -1.5550
 5868SOL     OW29239   2.351   0.176  17.242  0.1352 -0.0293  0.0767
 5868SOL    HW129240   2.352   0.083  17.218  0.0835  0.2120 -0.8692
 5868SOL    HW229241   2.424   0.186  17.303 -0.3674  1.2188  0.4586
 5869SOL     OW29242   0.411   1.837  15.042 -0.1497 -0.1589 -0.1875
 5869SOL    HW129243   0.402   1.901  14.971  1.6162 -3.1979 -3.1696
 5869SOL    HW229244   0.436   1.897  15.113  0.3162 -0.5828  0.0002
 5870SOL     OW29245   1.760   4.380  17.617 -0.8939  0.4201 -0.0499
 5870SOL    HW129246   1.816   4.453  17.643 -0.5740 -0.2472  1.1105
 5870SOL    HW229247   1.734   4.407  17.529 -0.8124 -0.1316 -0.2433
 5871SOL     OW29248   3.036   1.755   6.043 -0.0837 -0.5614 -0.2920
 5871SOL    HW129249   2.945   1.775   6.066  0.5461 -0.8233  2.4557
 5871SOL    HW229250   3.053   1.693   6.114 -0.8151  1.0236  1.2795
 5872SOL     OW29251   2.047   0.122  15.546 -0.5400 -0.4073 -0.0939
 5872SOL    HW129252   2.042   0.101  15.452  0.1513 -1.0960  0.0180
 5872SOL    HW229253   2.110   0.059  15.581  0.9944  0.2918 -1.5523
 5873SOL     OW29254   4.535   0.217   1.568 -0.5782  0.0105 -0.3804
 5873SOL    HW129255   4.453   0.209   1.618 -0.6920  1.8406 -0.2597
 5873SOL    HW229256   4.605   0.223   1.633  0.5663  1.9145 -1.7927
 5874SOL     OW29257   1.029   2.879  17.402  0.2963  0.1656 -0.0388
 5874SOL    HW129258   1.056   2.968  17.424 -2.4349  1.2915 -1.2122
 5874SOL    HW229259   1.036   2.881  17.306  1.9634  0.3694  0.1027
 5875SOL     OW29260   1.161   0.636   2.166 -0.5629  0.6025 -0.2137
 5875SOL    HW129261   1.073   0.635   2.128  0.0500  1.2464 -1.6236
 5875SOL    HW229262   1.184   0.544   2.158 -1.4970  0.1831  1.7651
 5876SOL     OW29263   4.146   2.169   5.064 -0.0852 -0.0813  0.0972
 5876SOL    HW129264   4.228   2.120   5.054  0.1399  0.2253  0.4491
 5876SOL    HW229265   4.098   2.111   5.124 -1.2326 -0.7075 -1.4194
 5877SOL     OW29266   3.991   4.264  15.935  0.1104 -1.3754  0.5041
 5877SOL    HW129267   3.973   4.315  15.856  0.8433  1.6929  2.3278
 5877SOL    HW229268   4.073   4.306  15.962 -1.3140  1.2953  0.5733
 5878SOL     OW29269   1.424   0.346   4.194 -0.4051  0.0038 -0.1356
 5878SOL    HW129270   1.427   0.423   4.137  1.6503 -0.5346 -0.7795
 5878SOL    HW229271   1.441   0.379   4.282  3.0469 -0.5478 -0.6023
 5879SOL     OW29272   4.244   2.893   7.564  0.1490 -0.3620 -0.2136
 5879SOL    HW129273   4.269   2.975   7.522  2.3221 -2.6791 -3.4364
 5879SOL    HW229274   4.298   2.830   7.516  0.7847 -0.2349  0.3418
 5880SOL     OW29275   0.101   2.803   5.052  0.0643 -0.2105  0.3274
 5880SOL    HW129276   0.165   2.873   5.066  0.0045  0.4078 -2.3734
 5880SOL    HW229277   0.033   2.861   5.017  1.4804  1.9630  1.1228
 5881SOL     OW29278   4.265   2.869   5.810  0.3416  0.2691  0.2016
 5881SOL    HW129279   4.361   2.869   5.802  0.2289  0.9376 -1.1370
 5881SOL    HW229280   4.249   2.951   5.855 -1.6557  0.0823 -0.1733
 5882SOL     OW29281   3.757   4.508   4.305 -0.2730 -0.1565 -0.3215
 5882SOL    HW129282   3.798   4.595   4.302 -0.7182  0.1076  1.2351
 5882SOL    HW229283   3.737   4.510   4.211  2.2188  1.3826 -0.8218
 5883SOL     OW29284   0.442   0.670   9.914  0.1408 -0.1754  0.3315
 5883SOL    HW129285   0.535   0.676   9.894 -0.4149 -0.0407 -2.1433
 5883SOL    HW229286   0.435   0.762   9.940 -1.1314  0.3700 -1.9502
 5884SOL     OW29287   0.005   3.825   9.348  0.2460  0.3868 -0.2776
 5884SOL    HW129288   4.721   3.874   9.268  2.9402 -1.0834 -1.8204
 5884SOL    HW229289   0.028   3.743   9.303 -1.9855 -0.3047 -0.1910
 5885SOL     OW29290   4.354   1.976   7.785  0.0663 -0.9074  0.6129
 5885SOL    HW129291   4.328   1.985   7.694  1.0783  3.8893  0.7914
 5885SOL    HW229292   4.354   2.066   7.817 -0.9373 -0.5790 -0.3267
 5886SOL     OW29293   0.703   2.974   7.057 -0.4755  0.1688  0.3998
 5886SOL    HW129294   0.746   2.924   7.126  0.7143 -0.7091 -0.9967
 5886SOL    HW229295   0.703   2.902   6.994  2.0810 -0.1101  0.7478
 5887SOL     OW29296   0.568   3.708   5.011  0.1122 -0.2052  0.6826
 5887SOL    HW129297   0.578   3.614   5.030  2.5573  0.0559  0.6360
 5887SOL    HW229298   0.482   3.706   4.968 -0.8114 -1.7827  2.5777
 5888SOL     OW29299   3.994   4.728   2.237 -0.1066 -0.2071 -0.3338
 5888SOL    HW129300   3.921   0.049   2.259 -0.8130 -0.7920 -1.1635
 5888SOL    HW229301   3.995   4.690   2.325 -0.0543  2.9979  1.0230
 5889SOL     OW29302   1.150   2.121   4.203 -0.4270  0.0699 -0.3029
 5889SOL    HW129303   1.204   2.047   4.233 -0.9200 -0.8542 -1.6543
 5889SOL    HW229304   1.177   2.128   4.111 -1.5273 -0.7416 -0.6917
 5890SOL     OW29305   1.936   2.684   2.965 -0.5455  0.1010 -0.3439
 5890SOL    HW129306   1.916   2.727   2.882  1.3480 -0.7627 -1.2491
 5890SOL    HW229307   1.929   2.764   3.017 -1.3509  0.5615 -1.1581
 5891SOL     OW29308   2.440   1.866  16.849  0.6971  0.2751  0.0301
 5891SOL    HW129309   2.470   1.923  16.919 -0.9904 -0.5611  1.4235
 5891SOL    HW229310   2.482   1.904  16.772  2.7280  0.2237  1.0972
 5892SOL     OW29311   2.630   4.326  16.201 -0.6865  0.4091  0.1435
 5892SOL    HW129312   2.547   4.277  16.198 -0.5676  0.2501 -0.5707
 5892SOL    HW229313   2.677   4.269  16.261 -2.0544 -1.4395 -0.5230
 5893SOL     OW29314   1.594   4.092  14.686 -0.5584 -0.7607  0.2547
 5893SOL    HW129315   1.566   4.002  14.702 -2.0816 -0.2091  0.6804
 5893SOL    HW229316   1.657   4.094  14.614 -0.6331  0.5122  0.2410
 5894SOL     OW29317   3.937   2.261   6.236  0.6070  0.4577 -0.1061
 5894SOL    HW129318   3.988   2.220   6.166 -1.9936 -2.2213 -0.4063
 5894SOL    HW229319   3.848   2.231   6.218  0.6472  1.3021 -1.6504
 5895SOL     OW29320   0.781   0.047   2.072 -0.6091 -0.0397  0.1657
 5895SOL    HW129321   0.694   0.007   2.072 -0.7495  0.2899  1.7593
 5895SOL    HW229322   0.815   0.037   2.161 -0.3689 -1.2928 -0.0575
 5896SOL     OW29323   3.505   2.169   4.241 -0.8986 -0.2948  0.4015
 5896SOL    HW129324   3.427   2.115   4.253 -1.4591  0.6909  1.2289
 5896SOL    HW229325   3.578   2.107   4.245 -0.6793 -0.1458 -1.6989
 5897SOL     OW29326   3.948   3.692   4.379  0.3305  0.1974  0.2623
 5897SOL    HW129327   3.857   3.696   4.406  0.2218  0.9275 -0.2352
 5897SOL    HW229328   3.956   3.774   4.331 -1.9318  0.5439  0.4853
 5898SOL     OW29329   4.681   1.978   9.288 -0.1182 -0.5747 -0.7111
 5898SOL    HW129330   4.642   2.064   9.274  1.2006  0.2291  0.5473
 5898SOL    HW229331   4.688   1.968   9.383  0.2408 -0.3590 -0.7160
 5899SOL     OW29332   4.207   1.309  10.438 -0.4993 -0.0731  0.0018
 5899SOL    HW129333   4.276   1.342  10.380 -1.2844  0.2261 -0.7575
 5899SOL    HW229334   4.232   1.351  10.521  2.0412 -1.2223 -0.1795
 5900SOL     OW29335   3.311   1.025  12.318  0.8346 -0.8112 -1.1484
 5900SOL    HW129336   3.365   0.950  12.343  0.9179 -0.6226 -0.7733
 5900SOL    HW229337   3.225   1.008  12.355  1.7466 -1.2096  0.7506
 5901SOL     OW29338   3.887   4.208   3.932  0.0613  0.4363 -0.0682
 5901SOL    HW129339   3.820   4.247   3.989  0.9431  2.5690 -0.5195
 5901SOL    HW229340   3.969   4.249   3.959 -1.4745  1.3199  3.2341
 5902SOL     OW29341   1.705   4.070   8.732  0.8558  0.3813  0.0087
 5902SOL    HW129342   1.776   4.118   8.776 -0.7654  0.1571  2.9011
 5902SOL    HW229343   1.728   3.984   8.769  1.3101  1.0808  1.3581
 5903SOL     OW29344   3.812   4.156   4.531  0.0553  0.1931 -0.1575
 5903SOL    HW129345   3.827   4.062   4.546 -1.9170 -0.0773  0.0606
 5903SOL    HW229346   3.781   4.184   4.617  0.0201 -2.3026  0.6452
 5904SOL     OW29347   1.082   1.905   7.889 -0.4423 -0.0316 -0.2700
 5904SOL    HW129348   1.053   1.853   7.815 -1.5137 -0.0586  0.1699
 5904SOL    HW229349   1.006   1.962   7.899  0.7904  1.5694 -0.0025
 5905SOL     OW29350   2.785   0.593   7.576 -0.0323 -0.2789  0.7813
 5905SOL    HW129351   2.723   0.563   7.509  2.0011 -0.1299 -1.1492
 5905SOL    HW229352   2.754   0.536   7.646 -1.0224  2.0331  2.2193
 5906SOL     OW29353   2.850   0.943   4.725 -0.4376  0.0440  0.2946
 5906SOL    HW129354   2.880   0.924   4.637 -3.6151  1.1643 -1.0163
 5906SOL    HW229355   2.841   1.038   4.726  0.0470  0.1027 -1.9797
 5907SOL     OW29356   3.749   3.477  13.489  0.5722  0.0612  0.1519
 5907SOL    HW129357   3.748   3.573  13.489  2.4281  0.0872 -0.4206
 5907SOL    HW229358   3.843   3.459  13.476  0.3778  0.5960 -2.0167
 5908SOL     OW29359   3.754   4.337   8.074 -0.1679 -1.0543 -0.2248
 5908SOL    HW129360   3.823   4.304   8.130  1.8396  1.1521 -1.3955
 5908SOL    HW229361   3.749   4.425   8.112 -0.9864 -0.5707 -1.4283
 5909SOL     OW29362   4.490   4.063   8.500  1.0390  0.5117 -0.4765
 5909SOL    HW129363   4.468   3.981   8.542 -1.9248  0.8165 -1.4043
 5909SOL    HW229364   4.462   4.050   8.409 -0.7980  1.2930 -0.0414
 5910SOL     OW29365   4.457   4.558   5.814  0.1526  0.4728  0.3095
 5910SOL    HW129366   4.415   4.590   5.893 -0.6905 -1.6921  0.7490
 5910SOL    HW229367   4.502   4.483   5.854 -0.1435  0.2133  0.1555
 5911SOL     OW29368   3.981   2.622  13.871 -0.0362 -0.0259  0.2225
 5911SOL    HW129369   3.954   2.568  13.796 -0.1980  0.6803 -0.2257
 5911SOL    HW229370   4.057   2.669  13.837 -1.0109 -0.7360 -2.9463
 5912SOL     OW29371   0.027   1.397   2.440  0.1374  0.2144  0.1272
 5912SOL    HW129372   0.040   1.491   2.429 -0.5517  0.2741 -0.1541
 5912SOL    HW229373   4.672   1.392   2.469  0.6720 -2.9400  1.2987
 5913SOL     OW29374   0.607   3.322   1.335  0.2552  0.2108 -0.7743
 5913SOL    HW129375   0.525   3.277   1.355  1.4230 -0.4746  2.5232
 5913SOL    HW229376   0.642   3.341   1.423  1.4528  1.2782 -1.4794
 5914SOL     OW29377   4.274   4.433   6.887  0.0190  0.1168 -0.2457
 5914SOL    HW129378   4.281   4.519   6.928  2.1554 -0.6561  0.9759
 5914SOL    HW229379   4.178   4.434   6.894  0.0650 -1.1414  0.7452
 5915SOL     OW29380   4.607   0.239   3.051 -0.1138  0.0270  0.2291
 5915SOL    HW129381   4.604   0.148   3.022  1.3560  0.0934 -0.1233
 5915SOL    HW229382   4.669   0.283   2.993  0.9891 -0.1169  1.3103
 5916SOL     OW29383   2.537   1.108   2.105  0.4187  0.4968  0.5032
 5916SOL    HW129384   2.555   1.151   2.188 -0.4380 -3.5053  2.7914
 5916SOL    HW229385   2.442   1.097   2.106  0.5761 -0.8061  1.6375
 5917SOL     OW29386   3.378   0.089   6.822  0.1909  0.0987  0.3168
 5917SOL    HW129387   3.310   0.056   6.763  1.2191 -2.0879  0.3260
 5917SOL    HW229388   3.346   0.179   6.829  1.5493  0.3556  3.3443
 5918SOL     OW29389   1.291   1.199   7.757  0.0235 -0.0843  0.1059
 5918SOL    HW129390   1.251   1.271   7.709  2.9021  0.4733 -1.4563
 5918SOL    HW229391   1.213   1.145   7.750 -1.0049  1.6458 -1.6086
 5919SOL     OW29392   0.049   4.201   5.487  0.2288  0.0969  0.4317
 5919SOL    HW129393   0.003   4.187   5.570 -0.1854  1.8319  0.4853
 5919SOL    HW229394   0.018   4.132   5.427  0.3627 -0.3094  0.8259
 5920SOL     OW29395   2.267   2.211   2.966 -0.1169 -0.5055  0.1168
 5920SOL    HW129396   2.272   2.243   3.056  1.6250  1.1918 -0.5966
 5920SOL    HW229397   2.201   2.267   2.926  0.6379  0.6336  0.4763
 5921SOL     OW29398   0.667   3.896   1.178 -0.1933  0.1381 -0.1922
 5921SOL    HW129399   0.594   3.950   1.149 -0.1044 -0.1167 -0.8864
 5921SOL    HW229400   0.737   3.944   1.223 -0.0781  0.3692 -0.6233
 5922SOL     OW29401   2.007   1.161   0.558 -0.3875  0.3034  0.1543
 5922SOL    HW129402   2.077   1.196   0.504  0.2385 -3.5010 -1.5000
 5922SOL    HW229403   1.963   1.102   0.497 -0.5054  1.0507 -0.4868
 5923SOL     OW29404   1.172   4.256   4.461  0.8978  0.5622 -0.5097
 5923SOL    HW129405   1.078   4.271   4.468  1.0859  1.9054 -0.8277
 5923SOL    HW229406   1.202   4.327   4.403  1.5569  1.3953  0.8520
 5924SOL     OW29407   2.835   4.029   6.651 -0.9107 -0.1605 -0.3315
 5924SOL    HW129408   2.783   3.948   6.656 -0.2127 -0.4820  1.8094
 5924SOL    HW229409   2.924   4.005   6.625 -0.7294 -0.0480  0.1854
 5925SOL     OW29410   3.406   1.931   5.697 -0.1746 -0.2464  0.4848
 5925SOL    HW129411   3.368   1.917   5.784  0.1221 -2.6930  0.2098
 5925SOL    HW229412   3.394   1.842   5.663 -2.0596 -0.0190  0.5581
 5926SOL     OW29413   0.087   0.650   6.353  0.3325 -0.3415  0.6454
 5926SOL    HW129414   0.172   0.606   6.358 -0.2889 -1.4096  1.5747
 5926SOL    HW229415   0.100   0.713   6.424  0.4371 -0.4793  0.7485
 5927SOL     OW29416   0.768   1.500   9.468  0.2598  0.3587 -0.0783
 5927SOL    HW129417   0.849   1.489   9.419  0.0439 -2.2269  0.1447
 5927SOL    HW229418   0.799   1.546   9.546 -0.3909  0.3422  0.1902
 5928SOL     OW29419   1.552   3.966  10.679 -0.7050  0.7055 -0.1733
 5928SOL    HW129420   1.489   4.037  10.693 -1.2695  0.5894 -2.1415
 5928SOL    HW229421   1.505   3.922  10.608 -0.6737 -0.4492  0.5198
 5929SOL     OW29422   4.371   4.520  11.504  0.1299  0.5651 -0.0570
 5929SOL    HW129423   4.293   4.565  11.535  0.4439  0.4506  0.8792
 5929SOL    HW229424   4.337   4.452  11.445 -0.7868  2.4746 -1.7009
 5930SOL     OW29425   4.585   3.585   4.171  0.6971  0.6795 -0.2139
 5930SOL    HW129426   4.618   3.571   4.082  1.4368 -0.0917  0.1785
 5930SOL    HW229427   4.669   3.604   4.214  1.2945 -2.4187 -0.0279
 5931SOL     OW29428   1.324   0.598   6.001  0.4692  0.1453  0.0951
 5931SOL    HW129429   1.260   0.668   6.011  0.6885  0.5237 -1.1864
 5931SOL    HW229430   1.325   0.598   5.905  0.2570  0.6659  0.0909
 5932SOL     OW29431   1.431   1.088  17.289 -0.1578 -0.1667 -0.5239
 5932SOL    HW129432   1.440   1.024  17.360  1.2910  0.6857  0.0658
 5932SOL    HW229433   1.506   1.143  17.313 -0.3840 -0.5291  1.0301
 5933SOL     OW29434   0.329   0.194  15.876  0.2107 -0.3313 -0.2356
 5933SOL    HW129435   0.235   0.183  15.890  0.0708 -0.7479 -1.4734
 5933SOL    HW229436   0.338   0.278  15.832 -1.2665  1.1515  2.3172
 5934SOL     OW29437   1.077   3.155   3.012 -0.3334 -0.3127 -0.0607
 5934SOL    HW129438   1.033   3.138   2.929 -0.3980  0.7234 -0.2414
 5934SOL    HW229439   1.167   3.161   2.981  0.3306  0.2208  1.9216
 5935SOL     OW29440   0.832   4.524   8.581  0.7023 -0.8638 -0.1984
 5935SOL    HW129441   0.818   4.447   8.525 -0.4978 -1.0941  0.4210
 5935SOL    HW229442   0.905   4.496   8.636 -1.4402 -2.6499  1.7060
 5936SOL     OW29443   1.028   4.462   3.982 -0.7911 -0.1539  0.0868
 5936SOL    HW129444   0.983   4.462   4.067 -1.4933 -1.2972 -0.2835
 5936SOL    HW229445   1.037   4.556   3.968  0.7338 -0.1630  0.9997
 5937SOL     OW29446   3.073   1.933   5.495  0.4793  0.2782  0.1680
 5937SOL    HW129447   3.069   1.935   5.591 -0.0752  2.0356  0.1034
 5937SOL    HW229448   3.131   1.864   5.463 -1.3442 -0.5391 -1.3788
 5938SOL     OW29449   1.671   4.284   4.937 -0.4390  0.1774 -0.6412
 5938SOL    HW129450   1.653   4.194   4.963 -0.8159  0.5317  0.3342
 5938SOL    HW229451   1.712   4.327   5.012  0.0488 -0.1654 -0.7150
 5939SOL     OW29452   2.745   1.209   4.268 -0.3008  0.0936  0.4013
 5939SOL    HW129453   2.786   1.212   4.181  1.2372 -0.4314  1.1103
 5939SOL    HW229454   2.816   1.238   4.324  0.6141 -0.5413 -0.4352
 5940SOL     OW29455   0.580   2.450   6.449  0.6038  0.2088  0.4764
 5940SOL    HW129456   0.585   2.392   6.525  0.0652 -1.2713 -0.6252
 5940SOL    HW229457   0.487   2.445   6.428  1.0418  1.6183 -1.7931
 5941SOL     OW29458   2.074   2.199   7.113 -0.2732 -0.3094 -0.1802
 5941SOL    HW129459   2.091   2.110   7.082  1.0566  0.4000 -1.4435
 5941SOL    HW229460   2.072   2.185   7.208 -0.7980  1.3202  0.0461
 5942SOL     OW29461   2.825   3.847   6.887  0.5714 -0.0692  0.2502
 5942SOL    HW129462   2.899   3.808   6.935  0.0200  0.5939  1.6350
 5942SOL    HW229463   2.853   3.813   6.802  2.1452  2.0183 -0.0615
 5943SOL     OW29464   4.385   0.966  13.448 -0.3578  0.3973  0.4145
 5943SOL    HW129465   4.344   1.052  13.437 -1.0380  0.3451  2.4961
 5943SOL    HW229466   4.315   0.910  13.415 -0.2848  0.9669 -0.7239
 5944SOL     OW29467   3.758   0.124   4.021  0.0573  0.2845  0.4254
 5944SOL    HW129468   3.671   0.086   4.009  0.5244  0.0744 -2.3183
 5944SOL    HW229469   3.734   0.217   4.023 -0.3587  0.0885  3.2032
 5945SOL     OW29470   3.252   1.181   9.842  0.5605 -0.3564 -0.0608
 5945SOL    HW129471   3.304   1.185   9.761 -0.4582 -0.3552 -0.7143
 5945SOL    HW229472   3.213   1.094   9.845  1.2180 -0.7652 -3.5003
 5946SOL     OW29473   0.136   3.780  12.524  0.2557 -0.5445 -0.0891
 5946SOL    HW129474   0.121   3.707  12.584  1.3453 -1.8216 -1.3948
 5946SOL    HW229475   0.068   3.842  12.551  0.7620  0.1532 -0.4021
 5947SOL     OW29476   1.033   2.136  15.998  0.7073  0.7554  0.1329
 5947SOL    HW129477   1.004   2.058  16.044 -1.0079  1.5207  0.3463
 5947SOL    HW229478   0.946   2.172  15.979  1.1163  1.5869 -0.1873
 5948SOL     OW29479   2.962   0.923   6.362  0.0877  0.0556  0.1620
 5948SOL    HW129480   2.975   1.007   6.318 -1.6777 -0.9197 -2.1725
 5948SOL    HW229481   2.898   0.939   6.431 -2.1402  0.3000 -1.9600
 5949SOL     OW29482   2.707   1.194  17.118 -0.4675  0.4504  0.2146
 5949SOL    HW129483   2.698   1.257  17.046 -1.0176  0.7380  0.5388
 5949SOL    HW229484   2.794   1.156  17.104 -0.5309  0.4182 -0.1018
 5950SOL     OW29485   3.101   2.717   8.799  0.6485  0.1065  0.5694
 5950SOL    HW129486   3.048   2.794   8.818  0.0384 -0.7906  2.4777
 5950SOL    HW229487   3.068   2.648   8.856 -1.2792  1.0737  0.6300
 5951SOL     OW29488   4.281   0.134   1.177  1.0150 -0.1030  0.6756
 5951SOL    HW129489   4.264   0.208   1.235  2.3994  0.0360  0.8936
 5951SOL    HW229490   4.254   0.168   1.092 -1.1528 -3.1157  0.1586
 5952SOL     OW29491   1.709   1.594   3.729 -0.2137 -0.5471  0.7579
 5952SOL    HW129492   1.691   1.684   3.754 -0.1860 -0.2475 -0.3003
 5952SOL    HW229493   1.657   1.547   3.794  0.5003  0.2477  1.8808
 5953SOL     OW29494   2.663   3.602   5.026  0.4963  0.4227 -0.3131
 5953SOL    HW129495   2.728   3.545   4.984  1.0494 -1.4503  3.0753
 5953SOL    HW229496   2.583   3.550   5.029  0.9248 -0.3562 -2.0747
 5954SOL     OW29497   4.550   2.458   1.569 -0.3706  0.2736 -0.2212
 5954SOL    HW129498   4.481   2.465   1.503  0.0271 -1.8615 -0.8693
 5954SOL    HW229499   4.496   2.435   1.645  1.0987  1.5525  1.1950
 5955SOL     OW29500   3.267   3.741   1.097  0.1353  0.3471  0.2544
 5955SOL    HW129501   3.291   3.769   1.185 -0.4291 -2.5001  1.3120
 5955SOL    HW229502   3.237   3.827   1.068  0.9157  0.3648 -0.4894
 5956SOL     OW29503   3.247   2.473   6.099  0.2265  0.9061 -0.1767
 5956SOL    HW129504   3.300   2.515   6.031 -1.0666  0.7336 -1.2916
 5956SOL    HW229505   3.158   2.464   6.065  0.8220  0.7370 -1.7241
 5957SOL     OW29506   1.981   2.021  15.688 -0.0494  0.1301  0.3746
 5957SOL    HW129507   1.950   1.945  15.640  1.9909  0.0356 -0.7886
 5957SOL    HW229508   2.026   1.982  15.763  0.1364  1.5254  1.0113
 5958SOL     OW29509   3.108   1.706   6.660 -0.1395  0.3950  0.1610
 5958SOL    HW129510   3.171   1.665   6.601 -0.6375 -2.5756  1.6534
 5958SOL    HW229511   3.158   1.780   6.693 -1.1799  1.9540 -1.7783
 5959SOL     OW29512   4.437   3.394  15.506 -0.1289  0.0176 -0.0993
 5959SOL    HW129513   4.498   3.468  15.506  0.1742 -0.2307 -0.4540
 5959SOL    HW229514   4.477   3.332  15.568 -0.2161 -0.9895 -1.0392
 5960SOL     OW29515   0.600   4.511   4.240 -0.0275 -0.2758 -0.0598
 5960SOL    HW129516   0.510   4.494   4.212 -1.0031  4.4887  0.2408
 5960SOL    HW229517   0.587   4.547   4.328 -0.3122  0.7450 -0.5216
 5961SOL     OW29518   1.751   3.482   3.670 -0.2650 -0.3916  0.2161
 5961SOL    HW129519   1.734   3.389   3.685  2.5538 -1.0902 -0.9605
 5961SOL    HW229520   1.785   3.507   3.756 -1.8303 -0.4907  0.8704
 5962SOL     OW29521   0.569   3.242  16.286  0.1987  0.2179  0.3375
 5962SOL    HW129522   0.642   3.295  16.253 -0.2218  1.0048  0.6806
 5962SOL    HW229523   0.611   3.155  16.286  0.2679  0.2494 -0.3532
 5963SOL     OW29524   1.082   0.512   4.794  0.6117  0.1104  0.1172
 5963SOL    HW129525   1.045   0.470   4.716  0.6870 -0.0402  0.1631
 5963SOL    HW229526   1.107   0.442   4.855  0.3703 -0.9532 -1.0021
 5964SOL     OW29527   4.268   0.022   2.520  0.7559 -0.0670 -0.0935
 5964SOL    HW129528   4.217   0.102   2.510  0.2008 -0.5512 -1.1284
 5964SOL    HW229529   4.199   4.699   2.551 -0.2337  1.4718  0.6001
 5965SOL     OW29530   1.878   3.993   5.205 -0.8895  0.0584 -0.3779
 5965SOL    HW129531   1.926   3.977   5.287  0.3258  0.2101 -1.0514
 5965SOL    HW229532   1.795   3.946   5.211 -0.8993  0.0035 -0.9066
 5966SOL     OW29533   4.637   4.174  13.093  0.4099 -0.2565 -0.3986
 5966SOL    HW129534   4.685   4.230  13.032  1.5322 -1.0756 -0.2551
 5966SOL    HW229535   4.544   4.196  13.088  0.7173  0.8464 -1.1878
 5967SOL     OW29536   3.437   3.332  10.601 -0.2651 -0.5164 -0.0151
 5967SOL    HW129537   3.422   3.316  10.507 -0.0477 -0.0364 -0.1345
 5967SOL    HW229538   3.355   3.372  10.631  0.3027  0.5635  0.1049
 5968SOL     OW29539   0.224   0.358   7.318 -0.1623  0.3521 -0.2765
 5968SOL    HW129540   0.269   0.386   7.239  1.7249  0.3655  0.8068
 5968SOL    HW229541   0.290   0.297   7.351 -2.0618 -0.8273  1.3850
 5969SOL     OW29542   3.601   2.417   6.279  0.6151  0.1688 -0.4039
 5969SOL    HW129543   3.548   2.403   6.357 -1.1587 -0.1175 -1.6455
 5969SOL    HW229544   3.625   2.326   6.260 -0.2032 -0.0248 -0.5032
 5970SOL     OW29545   0.223   3.997  15.408 -0.1712 -0.0333  0.0155
 5970SOL    HW129546   0.283   4.034  15.344  0.9765 -0.9936  0.5346
 5970SOL    HW229547   0.147   4.054  15.395  1.3082  2.1147  0.8704
 5971SOL     OW29548   1.976   4.285   0.053 -0.4955 -0.2770  0.7089
 5971SOL    HW129549   1.912   4.316  17.730  0.7728  0.4228 -0.2155
 5971SOL    HW229550   2.053   4.265  17.740 -1.0529  0.3582 -0.3262
 5972SOL     OW29551   0.824   4.178   8.782 -0.4082  0.1244 -0.0311
 5972SOL    HW129552   0.886   4.250   8.787 -2.2577  1.7479 -0.5702
 5972SOL    HW229553   0.855   4.147   8.697  2.1939  1.3393  0.4856
 5973SOL     OW29554   0.068   0.118   9.787 -0.6517 -0.4034 -0.2647
 5973SOL    HW129555   0.118   0.051   9.834  1.1560  2.5019  1.9917
 5973SOL    HW229556   4.729   0.133   9.845  0.1931  1.4684  0.3483
 5974SOL     OW29557   1.318   1.432   6.649  0.3006  0.1843  0.5712
 5974SOL    HW129558   1.338   1.441   6.556 -2.9921  2.3309  0.0800
 5974SOL    HW229559   1.304   1.337   6.652  3.4510 -0.2892  0.2993
 5975SOL     OW29560   1.045   3.114   3.546 -0.3988 -0.2931  0.2931
 5975SOL    HW129561   1.067   3.091   3.455  0.5877  1.0176  0.1884
 5975SOL    HW229562   1.131   3.149   3.571  0.3468 -0.9927 -1.3148
 5976SOL     OW29563   1.981   0.312   1.386  0.3863  0.2836  0.1948
 5976SOL    HW129564   1.923   0.238   1.367  1.0444 -0.1940 -0.0010
 5976SOL    HW229565   1.927   0.390   1.377  4.3411  3.0111 -0.0561
 5977SOL     OW29566   1.789   4.617   1.954 -0.6522 -0.1970 -0.5783
 5977SOL    HW129567   1.709   4.669   1.962 -1.2158 -1.2029  0.2335
 5977SOL    HW229568   1.806   4.624   1.860  0.1153  1.7542 -0.2925
 5978SOL     OW29569   3.139   3.115   6.589  0.2235  0.3672  0.2739
 5978SOL    HW129570   3.164   3.094   6.679  1.2380 -0.9028 -0.3131
 5978SOL    HW229571   3.222   3.094   6.547  0.2892  1.5696 -0.1862
 5979SOL     OW29572   2.619   4.260   7.034 -0.7593  0.0299 -0.4517
 5979SOL    HW129573   2.708   4.296   7.033 -0.3975 -0.8625  0.6035
 5979SOL    HW229574   2.611   4.266   7.129 -1.3966  0.8997 -0.5571
 5980SOL     OW29575   0.936   4.172   3.723 -0.2438 -0.2615  0.1031
 5980SOL    HW129576   0.998   4.104   3.700 -0.4146 -0.1021 -0.8426
 5980SOL    HW229577   0.990   4.250   3.708  1.2067 -1.5852 -1.5420
 5981SOL     OW29578   1.510   4.403   6.839 -0.2033  0.2669 -0.2995
 5981SOL    HW129579   1.444   4.423   6.772  0.4144 -1.7290 -1.4914
 5981SOL    HW229580   1.549   4.490   6.830 -0.6338  0.6067  1.2191
 5982SOL     OW29581   0.974   0.505   8.838  0.3871  0.0385  1.0241
 5982SOL    HW129582   0.891   0.514   8.886 -0.0366  1.1994  0.0775
 5982SOL    HW229583   1.030   0.535   8.909  0.8368  0.5781  0.4365
 5983SOL     OW29584   2.737   2.839   2.808  0.1289 -0.1839 -0.1702
 5983SOL    HW129585   2.793   2.852   2.885 -1.1848  0.7749  0.6267
 5983SOL    HW229586   2.696   2.756   2.831  1.2745 -1.1908 -1.7819
 5984SOL     OW29587   2.153   0.119   2.343  0.3548  1.1757 -0.3437
 5984SOL    HW129588   2.207   0.082   2.413 -0.1683  0.2667 -0.4199
 5984SOL    HW229589   2.066   0.084   2.363 -0.2795  1.3196 -2.8308
 5985SOL     OW29590   1.067   2.486   1.908  0.0722  0.1749 -0.0893
 5985SOL    HW129591   1.069   2.397   1.945  0.3593 -0.2627 -1.1648
 5985SOL    HW229592   1.001   2.528   1.962  0.2099  0.6728 -0.3151
 5986SOL     OW29593   3.264   0.662  14.743 -0.1318 -0.1563 -0.0010
 5986SOL    HW129594   3.340   0.708  14.780  0.2411 -0.5617 -0.2653
 5986SOL    HW229595   3.292   0.653  14.652 -1.2819 -0.8059 -0.2944
 5987SOL     OW29596   1.074   3.464   2.476 -0.0360  0.2023 -0.1458
 5987SOL    HW129597   1.085   3.395   2.410 -0.6237  0.2580 -0.3043
 5987SOL    HW229598   1.024   3.416   2.542 -2.6497  1.7635 -0.9870
 5988SOL     OW29599   2.536   3.867  10.276 -0.6016 -0.3703 -0.4345
 5988SOL    HW129600   2.598   3.844  10.345  0.8518  3.4481 -0.4750
 5988SOL    HW229601   2.563   3.800  10.213 -2.4287  1.3074 -2.9743
 5989SOL     OW29602   2.367   4.163   2.621 -0.1252 -0.2038 -0.1894
 5989SOL    HW129603   2.389   4.254   2.637 -1.4968 -0.1044  1.1036
 5989SOL    HW229604   2.437   4.117   2.667  1.6586  0.6539 -2.0751
 5990SOL     OW29605   2.962   1.226   3.625  0.0469  0.5056 -0.0544
 5990SOL    HW129606   2.936   1.309   3.584 -1.6803 -0.7844 -1.5744
 5990SOL    HW229607   2.879   1.181   3.610 -0.5174  2.2361 -2.1312
 5991SOL     OW29608   1.700   3.384   9.939  0.1311  0.0852  0.3483
 5991SOL    HW129609   1.614   3.421   9.959 -0.1596 -0.1917 -0.3827
 5991SOL    HW229610   1.749   3.388  10.021  0.1510 -0.1098  0.3453
 5992SOL     OW29611   3.824   3.413   0.159 -0.1659 -0.2744 -0.4625
 5992SOL    HW129612   3.765   3.466   0.106 -0.2280 -0.7418 -0.8570
 5992SOL    HW229613   3.863   3.368   0.085 -0.1870 -1.1919  0.0856
 5993SOL     OW29614   1.037   4.307   2.239  0.2223  0.5699 -0.2283
 5993SOL    HW129615   1.117   4.316   2.187  0.7625  1.7722  0.8060
 5993SOL    HW229616   1.065   4.238   2.299 -3.5516 -0.6462  0.1616
 5994SOL     OW29617   3.593   2.061   5.014  0.3384 -0.0275  0.3653
 5994SOL    HW129618   3.605   2.070   5.109  0.7702 -1.8011  0.4775
 5994SOL    HW229619   3.574   1.972   4.985 -1.3259  0.9422 -1.5682
 5995SOL     OW29620   2.727   0.125  17.209 -0.6597 -0.1957  0.3202
 5995SOL    HW129621   2.716   0.184  17.135  1.9609 -0.1857 -0.0698
 5995SOL    HW229622   2.656   0.158  17.264 -0.5452 -1.7240  1.3860
 5996SOL     OW29623   4.296   0.545   1.615 -0.1990 -0.3695 -0.0789
 5996SOL    HW129624   4.316   0.481   1.683 -1.2457  2.3089  2.7529
 5996SOL    HW229625   4.295   0.492   1.535 -2.8738 -1.4504  0.6968
 5997SOL     OW29626   2.421   2.118   5.180  0.2041  0.4467  0.1102
 5997SOL    HW129627   2.500   2.158   5.144  0.8737 -0.4681  0.5460
 5997SOL    HW229628   2.428   2.033   5.137 -1.0299  0.2157  0.3610
 5998SOL     OW29629   2.301   2.599   0.562 -0.1901  0.1080  0.6926
 5998SOL    HW129630   2.256   2.515   0.553 -0.5070  0.3925 -0.2859
 5998SOL    HW229631   2.239   2.646   0.617  2.0831  1.2543  2.2976
 5999SOL     OW29632   2.378   3.577  14.477 -0.4153  0.1670  0.6355
 5999SOL    HW129633   2.342   3.616  14.398  0.6120  1.3610  0.7576
 5999SOL    HW229634   2.471   3.578  14.451 -0.5642  0.7139  0.1417
 6000SOL     OW29635   1.688   2.202   2.878 -0.0236  0.0041  0.3571
 6000SOL    HW129636   1.660   2.163   2.795  0.3253  1.6278 -0.5094
 6000SOL    HW229637   1.774   2.238   2.856  0.2903 -1.4688 -0.8890
 6001SOL     OW29638   1.336   3.696   8.866  0.1610  0.2962  0.8780
 6001SOL    HW129639   1.371   3.751   8.796  0.7321 -3.4780 -1.7925
 6001SOL    HW229640   1.408   3.689   8.929 -0.8529 -0.5529  1.9509
 6002SOL     OW29641   2.271   1.516   7.258  0.1267 -0.0772 -0.0773
 6002SOL    HW129642   2.266   1.504   7.163 -2.8053 -3.0877  0.4519
 6002SOL    HW229643   2.179   1.513   7.284  0.1500 -1.1491 -0.1197
 6003SOL     OW29644   2.537   0.265   3.103 -0.5302  0.2227 -0.1779
 6003SOL    HW129645   2.511   0.198   3.039  1.6686  0.8869 -1.7682
 6003SOL    HW229646   2.457   0.266   3.155 -0.0008  1.2759  0.6179
 6004SOL     OW29647   1.002   3.127   8.454  0.0330  0.3837 -0.0233
 6004SOL    HW129648   0.974   3.101   8.366 -3.4122  0.5180  1.0283
 6004SOL    HW229649   0.966   3.216   8.451 -2.5070 -0.6281 -0.1279
 6005SOL     OW29650   2.672   0.165   9.384 -0.5242 -0.7341 -0.2825
 6005SOL    HW129651   2.644   0.225   9.454  1.6956 -0.7414  0.6202
 6005SOL    HW229652   2.765   0.184   9.370 -0.8140  1.1334  0.2426
 6006SOL     OW29653   1.597   3.447  15.879  0.4154 -0.4974  0.0887
 6006SOL    HW129654   1.579   3.449  15.785 -1.8187  0.1406  0.5161
 6006SOL    HW229655   1.641   3.365  15.896 -0.4965 -0.5496  2.2139
 6007SOL     OW29656   0.051   3.165  10.959  0.1749  0.0696  0.4083
 6007SOL    HW129657   0.137   3.168  10.918 -0.3774 -0.3798 -0.7751
 6007SOL    HW229658   0.048   3.088  11.016 -0.3825  1.2815  2.0169
 6008SOL     OW29659   3.370   2.098  12.102  0.5017 -0.2988  0.5224
 6008SOL    HW129660   3.386   2.164  12.170  0.4973  1.0304 -0.7762
 6008SOL    HW229661   3.278   2.112  12.080  1.2120  1.5983 -1.1926
 6009SOL     OW29662   1.570   3.397   6.555  0.3037 -0.0718  0.2496
 6009SOL    HW129663   1.522   3.453   6.616 -0.9977  0.6616 -1.4495
 6009SOL    HW229664   1.550   3.311   6.593 -1.4991  0.4190  0.4333
 6010SOL     OW29665   3.219   1.361   8.856  0.2288 -0.3769  0.4007
 6010SOL    HW129666   3.291   1.418   8.831 -1.2238  0.2356 -2.3908
 6010SOL    HW229667   3.229   1.283   8.802  2.1651  1.1613 -1.4586
 6011SOL     OW29668   0.869   2.076   7.825  0.3853 -0.1579 -0.5578
 6011SOL    HW129669   0.928   2.141   7.786 -0.3336  0.2690 -0.9246
 6011SOL    HW229670   0.807   2.056   7.754  1.0946 -2.5680 -0.5046
 6012SOL     OW29671   3.366   2.473   2.731  0.5103 -0.0792 -0.0592
 6012SOL    HW129672   3.406   2.388   2.712 -1.2672 -0.5412 -1.7569
 6012SOL    HW229673   3.453   2.501   2.759  0.3617 -0.6230  0.9418
 6013SOL     OW29674   3.379   1.359   9.997 -0.0353 -0.1055  0.3118
 6013SOL    HW129675   3.333   1.305   9.932  1.4794  1.2870 -1.9346
 6013SOL    HW229676   3.372   1.435   9.938 -0.6668 -0.9138 -0.6583
 6014SOL     OW29677   2.082   2.124   7.372  0.3481  0.2220 -0.6489
 6014SOL    HW129678   2.128   2.165   7.446 -1.1615 -0.0922  0.4627
 6014SOL    HW229679   2.092   2.030   7.383  1.6123  0.2749 -1.3639
 6015SOL     OW29680   0.262   2.878   8.033 -0.4521  0.7169 -0.1192
 6015SOL    HW129681   0.290   2.907   8.119 -0.7042  1.3328 -0.2485
 6015SOL    HW229682   0.202   2.809   8.062  0.7248 -0.0167  0.5496
 6016SOL     OW29683   4.024   2.143   2.411  0.2136  0.4602  0.5582
 6016SOL    HW129684   3.936   2.138   2.448  0.3647  0.1670  0.8746
 6016SOL    HW229685   4.033   2.062   2.361  0.8202 -0.2610  1.8241
 6017SOL     OW29686   4.104   2.171   9.175 -0.4677  0.8269  0.0661
 6017SOL    HW129687   4.101   2.265   9.196  0.8842  1.2735 -1.8367
 6017SOL    HW229688   4.024   2.143   9.221 -1.6047  0.9200 -1.8407
 6018SOL     OW29689   1.253   3.453   5.705 -0.1426  0.1661  0.1531
 6018SOL    HW129690   1.176   3.498   5.670 -1.5270 -1.8711  0.5856
 6018SOL    HW229691   1.247   3.470   5.799  2.6602 -1.1277  0.5755
 6019SOL     OW29692   4.531   2.309   0.622  0.2263 -0.0389 -0.9319
 6019SOL    HW129693   4.521   2.404   0.621  3.6734  0.3254 -0.5653
 6019SOL    HW229694   4.606   2.311   0.682 -0.3583  2.2213 -0.2737
 6020SOL     OW29695   2.483   2.912  13.303  0.3693 -0.2855  0.2509
 6020SOL    HW129696   2.518   2.862  13.230  0.6460 -2.5124  1.9275
 6020SOL    HW229697   2.470   3.002  13.271  0.9808  0.3737  1.8703
 6021SOL     OW29698   1.258   1.280  11.423 -0.6859  0.0937 -0.7819
 6021SOL    HW129699   1.214   1.322  11.349  2.5081 -0.7971 -3.1700
 6021SOL    HW229700   1.195   1.212  11.449 -0.1164 -0.3425 -0.5248
 6022SOL     OW29701   4.657   0.401   1.897 -0.3402 -0.1712  0.1428
 6022SOL    HW129702   4.685   0.313   1.925  1.4375  0.1082 -0.8027
 6022SOL    HW229703   4.718   0.427   1.828 -1.8517 -2.5901 -2.1327
 6023SOL     OW29704   1.293   4.297   5.824 -0.0000  0.1955 -0.7552
 6023SOL    HW129705   1.220   4.241   5.799  0.6457 -0.6065 -0.8567
 6023SOL    HW229706   1.248   4.375   5.793  0.4857  1.4439  1.7406
 6024SOL     OW29707   2.503   1.000   3.622 -0.3452  0.4119 -0.5534
 6024SOL    HW129708   2.420   1.020   3.578 -0.7577 -2.0548 -0.8855
 6024SOL    HW229709   2.488   1.028   3.712 -0.2432  0.0204 -0.4157
 6025SOL     OW29710   3.572   3.282   3.508 -0.0189 -0.6462  0.4064
 6025SOL    HW129711   3.496   3.329   3.544  1.2306  0.8585  1.1062
 6025SOL    HW229712   3.575   3.337   3.430  0.1906 -0.3328  0.6351
 6026SOL     OW29713   0.157   3.624  11.774 -0.4375 -0.7433 -0.3646
 6026SOL    HW129714   0.217   3.599  11.703  1.3872 -0.0282  0.9275
 6026SOL    HW229715   0.081   3.616  11.716 -0.7947 -1.7222  0.2296
 6027SOL     OW29716   3.199   3.413   8.483  0.2692  0.2967 -0.0027
 6027SOL    HW129717   3.146   3.491   8.494  2.2349  1.5826  0.2999
 6027SOL    HW229718   3.289   3.443   8.499 -0.4897  3.2250 -1.3054
 6028SOL     OW29719   4.640   1.515   5.462  0.0904  0.4765  0.0515
 6028SOL    HW129720   4.613   1.588   5.407  1.2625  1.2725  0.5250
 6028SOL    HW229721   4.674   1.562   5.539 -0.3937  0.1650  0.4488
 6029SOL     OW29722   2.121   3.674   3.456 -0.0539 -0.3937 -0.3040
 6029SOL    HW129723   2.042   3.727   3.454  0.4009  0.3428  1.5883
 6029SOL    HW229724   2.091   3.592   3.415  0.3454 -0.9416  0.4973
 6030SOL     OW29725   0.777   4.311   1.455 -0.3589  0.7882 -0.8981
 6030SOL    HW129726   0.808   4.221   1.455 -0.2620  0.8308 -1.9384
 6030SOL    HW229727   0.854   4.365   1.476  2.1218 -3.3426  0.6860
 6031SOL     OW29728   1.366   0.841   7.902 -0.4874  0.1491  0.2573
 6031SOL    HW129729   1.390   0.872   7.815 -0.9507 -1.0867 -0.3155
 6031SOL    HW229730   1.453   0.853   7.941  0.6053 -0.2367 -2.0370
 6032SOL     OW29731   1.273   2.894   3.542 -0.1798  0.4304  0.2043
 6032SOL    HW129732   1.285   2.930   3.630  0.3239  1.5199 -0.3001
 6032SOL    HW229733   1.203   2.832   3.560  0.9728 -0.9559 -0.1543
 6033SOL     OW29734   0.196   1.048   2.303  0.6378  0.7432 -0.1615
 6033SOL    HW129735   0.284   1.018   2.281 -0.3201 -1.3963 -1.0582
 6033SOL    HW229736   0.208   1.142   2.318 -1.8436  1.0715 -0.2843
 6034SOL     OW29737   1.890   2.590   4.123 -0.3930 -0.3818  0.0953
 6034SOL    HW129738   1.800   2.558   4.126 -0.4387 -0.4338 -1.9656
 6034SOL    HW229739   1.890   2.609   4.029  0.7630 -2.5544 -0.3292
 6035SOL     OW29740   2.029   1.885  11.119 -0.0651  0.3753  0.2851
 6035SOL    HW129741   2.010   1.824  11.191  0.9373  0.5796  0.7327
 6035SOL    HW229742   2.035   1.821  11.049  2.9941  1.1790 -0.2060
 6036SOL     OW29743   4.732   3.195   3.612 -0.0570  0.0695  0.1101
 6036SOL    HW129744   0.092   3.198   3.602 -0.1658  2.9569 -0.1813
 6036SOL    HW229745   4.722   3.159   3.524 -0.0114  0.0736  0.1034
 6037SOL     OW29746   4.367   1.720   3.132  0.3849  0.0846  0.1876
 6037SOL    HW129747   4.376   1.643   3.189  0.8834 -0.7227 -0.9728
 6037SOL    HW229748   4.455   1.755   3.139  0.5734 -0.4143  0.3537
 6038SOL     OW29749   0.442   1.574  10.215 -0.2887  0.5014 -0.0342
 6038SOL    HW129750   0.354   1.607  10.197 -0.1382  1.1317  0.3921
 6038SOL    HW229751   0.431   1.479  10.204  0.6157  0.2694  1.0768
 6039SOL     OW29752   1.522   1.525   3.937 -0.4188  0.0490  0.0378
 6039SOL    HW129753   1.469   1.450   3.964  3.5165 -2.3202  1.1226
 6039SOL    HW229754   1.474   1.602   3.966 -0.2530 -0.8576  2.6809
 6040SOL     OW29755   0.151   0.462   0.070 -0.2171  0.1786  0.1717
 6040SOL    HW129756   0.090   0.472  17.737 -1.6510  1.6204  1.5332
 6040SOL    HW229757   0.129   0.374   0.102 -0.2456 -0.2525 -1.0347
 6041SOL     OW29758   3.903   2.790   3.695  0.0131  0.5016 -0.4811
 6041SOL    HW129759   3.984   2.741   3.692 -2.2176 -3.1200 -1.3554
 6041SOL    HW229760   3.935   2.872   3.732 -2.9272  2.3836 -2.0382
 6042SOL     OW29761   2.484   1.926   3.945  0.2859  0.4603 -0.0181
 6042SOL    HW129762   2.401   1.971   3.959  0.4070  0.3791  1.0103
 6042SOL    HW229763   2.541   1.999   3.919 -1.0435  1.0012 -1.3822
 6043SOL     OW29764   4.418   3.245   5.786 -0.2805 -0.7938  1.0341
 6043SOL    HW129765   4.393   3.153   5.776  1.1728 -1.3761  2.9394
 6043SOL    HW229766   4.395   3.265   5.876 -0.0614 -0.9688  1.1287
 6044SOL     OW29767   2.353   4.441   8.710 -0.2979  0.0220  0.3516
 6044SOL    HW129768   2.447   4.454   8.717 -0.5723  0.6309  2.7636
 6044SOL    HW229769   2.327   4.365   8.762  3.1738  0.5012  2.7959
 6045SOL     OW29770   0.552   3.626   1.621  0.2742  0.2148 -0.1946
 6045SOL    HW129771   0.564   3.622   1.526  0.2163 -0.3320 -0.1762
 6045SOL    HW229772   0.594   3.544   1.644 -3.6931 -1.1160  2.4001
 6046SOL     OW29773   3.796   0.216   8.402  0.3054  0.4875 -0.4398
 6046SOL    HW129774   3.744   0.152   8.451  0.9095 -1.1475 -1.9240
 6046SOL    HW229775   3.778   0.196   8.310 -0.3367  1.7646 -0.5989
 6047SOL     OW29776   0.638   4.708   8.858 -0.4059  0.5042 -0.2971
 6047SOL    HW129777   0.677   4.626   8.889  1.0258  1.4562  0.4234
 6047SOL    HW229778   0.553   4.694   8.899  0.7121 -3.2505  0.7191
 6048SOL     OW29779   0.320   3.488   4.397  0.1285 -0.3350 -0.1912
 6048SOL    HW129780   0.392   3.547   4.373 -0.6043  1.6881  2.5745
 6048SOL    HW229781   0.365   3.407   4.373  0.9082 -0.1682  0.7101
 6049SOL     OW29782   3.508   3.540   0.647 -0.0315 -0.2108  0.0040
 6049SOL    HW129783   3.445   3.544   0.574 -1.0945 -0.1201  0.9217
 6049SOL    HW229784   3.594   3.547   0.607  0.3052 -0.0008  0.7613
 6050SOL     OW29785   3.474   4.677   7.426  0.2105  0.1237 -0.1261
 6050SOL    HW129786   3.567   4.689   7.408  0.3060  0.1675  0.3992
 6050SOL    HW229787   3.445   4.623   7.352  0.0697 -0.4683  0.3638
 6051SOL     OW29788   1.358   3.940   6.407 -0.1724 -0.7008  0.0004
 6051SOL    HW129789   1.342   3.987   6.325 -1.1559 -1.0945 -0.0248
 6051SOL    HW229790   1.371   4.024   6.452 -0.8804 -1.2467  1.2143
 6052SOL     OW29791   0.215   1.146   5.602  0.3900 -0.4571  0.0218
 6052SOL    HW129792   0.191   1.237   5.586 -0.3714 -0.8545 -1.1606
 6052SOL    HW229793   0.145   1.097   5.558  0.2377  0.2975 -0.5684
 6053SOL     OW29794   2.720   1.726  16.529 -0.5228 -0.9528 -0.0095
 6053SOL    HW129795   2.706   1.653  16.468 -0.1476  0.3724 -1.6626
 6053SOL    HW229796   2.795   1.692  16.579 -0.4522 -1.5339 -0.5078
 6054SOL     OW29797   2.329   1.237   2.525 -0.3438 -0.2141  0.0216
 6054SOL    HW129798   2.377   1.154   2.533 -3.4519 -1.7518  2.4934
 6054SOL    HW229799   2.340   1.282   2.608  1.3610 -1.0633  0.2708
 6055SOL     OW29800   1.695   1.104   2.522 -0.2560 -0.2136  0.3191
 6055SOL    HW129801   1.741   1.121   2.604  0.5660 -1.7580  0.1724
 6055SOL    HW229802   1.733   1.022   2.490  0.5762  0.0265  0.6880
 6056SOL     OW29803   2.105   4.011   2.286  0.3834 -0.8081 -0.3249
 6056SOL    HW129804   2.181   4.067   2.275  0.5857 -1.0405 -0.1222
 6056SOL    HW229805   2.066   4.053   2.363 -0.3660 -1.1959 -0.4854
 6057SOL     OW29806   2.443   0.555   2.639 -0.0695  0.4584 -0.3143
 6057SOL    HW129807   2.393   0.481   2.673  2.0650 -1.0232 -0.3952
 6057SOL    HW229808   2.520   0.499   2.626 -1.2268 -0.8643 -1.3892
 6058SOL     OW29809   1.385   4.635   3.887 -0.0988  0.3283 -0.0768
 6058SOL    HW129810   1.315   4.662   3.827 -0.1688  0.7144  0.1761
 6058SOL    HW229811   1.372   4.691   3.964 -1.3868  1.2344 -0.9526
 6059SOL     OW29812   2.451   0.118   7.348 -0.7065 -0.1197  0.5953
 6059SOL    HW129813   2.453   0.104   7.442 -0.0410 -1.2621  0.4032
 6059SOL    HW229814   2.405   0.040   7.317  1.8406 -1.1633 -0.5742
 6060SOL     OW29815   4.373   3.035   9.921  0.1350  0.2027  0.8093
 6060SOL    HW129816   4.459   3.071   9.941  0.3044  0.0535  0.3307
 6060SOL    HW229817   4.368   2.955   9.974  2.1185  0.2044  0.9679
 6061SOL     OW29818   4.207   2.988   4.468  0.0022 -0.1555  0.0336
 6061SOL    HW129819   4.119   3.024   4.482 -0.9879 -2.7918  0.5984
 6061SOL    HW229820   4.254   3.067   4.443 -0.8386  0.1246 -0.6451
 6062SOL     OW29821   0.101   3.744   3.940 -0.1241  0.3015  0.2698
 6062SOL    HW129822   0.146   3.750   3.856 -0.7127 -1.1536 -0.1608
 6062SOL    HW229823   0.170   3.717   4.000 -0.3970  0.3943  0.6231
 6063SOL     OW29824   0.796   2.570   9.638 -0.9553  0.2889 -0.4508
 6063SOL    HW129825   0.877   2.612   9.666  0.1368 -2.6771  0.9460
 6063SOL    HW229826   0.732   2.641   9.639 -2.0450 -0.6859 -1.4034
 6064SOL     OW29827   2.257   4.434   9.030  0.3399  0.1282 -0.4674
 6064SOL    HW129828   2.250   4.376   9.106 -1.3793  0.3087 -0.4830
 6064SOL    HW229829   2.341   4.466   9.060 -0.1433  0.0445  0.9620
 6065SOL     OW29830   0.013   1.610   4.182  0.0349 -0.1726  0.4151
 6065SOL    HW129831   4.680   1.651   4.236  0.7603  1.1703  0.3026
 6065SOL    HW229832   4.713   1.526   4.153  0.6151  0.9718 -3.6482
 6066SOL     OW29833   3.742   3.068  13.026  0.4268  0.3732  0.1166
 6066SOL    HW129834   3.741   3.021  13.109 -1.1947 -1.1748 -0.7644
 6066SOL    HW229835   3.662   3.120  13.022  0.4165  0.6578  3.9942
 6067SOL     OW29836   0.264   1.791  10.189  0.1409  0.0538 -0.4871
 6067SOL    HW129837   0.173   1.763  10.193 -0.5674  2.3605 -0.5853
 6067SOL    HW229838   0.295   1.824  10.273 -1.4415  0.1509  0.0560
 6068SOL     OW29839   2.320   0.554  15.041  0.2703 -0.7288  0.4193
 6068SOL    HW129840   2.355   0.545  14.952  0.3842  1.1491  0.2815
 6068SOL    HW229841   2.289   0.463  15.047 -2.1939 -0.1274 -3.3064
 6069SOL     OW29842   1.218   3.126  12.164  0.2950  0.8045 -0.2416
 6069SOL    HW129843   1.296   3.182  12.152  0.1735  0.8220 -0.9858
 6069SOL    HW229844   1.246   3.086  12.246  2.8545  2.3616 -0.3290
 6070SOL     OW29845   3.237   4.637  15.213 -0.3158  0.3068 -0.5004
 6070SOL    HW129846   3.229   4.673  15.125  2.6795 -1.6087 -1.5587
 6070SOL    HW229847   3.263   4.546  15.196 -0.2640 -0.1406  2.0205
 6071SOL     OW29848   4.486   0.110   7.307 -0.5351  0.1879  0.0438
 6071SOL    HW129849   4.521   0.094   7.395 -1.0561 -0.1128  0.2018
 6071SOL    HW229850   4.460   0.020   7.287 -0.4820  0.2408 -0.2599
 6072SOL     OW29851   3.223   2.461   4.222 -0.2313 -0.0043 -0.1974
 6072SOL    HW129852   3.179   2.544   4.208 -1.3243 -0.3984  0.8961
 6072SOL    HW229853   3.161   2.393   4.194  0.5850 -0.9323  0.2297
 6073SOL     OW29854   4.614   3.925   3.689 -0.5011 -0.1918  0.1088
 6073SOL    HW129855   4.647   3.848   3.643 -2.4035  0.4838 -2.3573
 6073SOL    HW229856   4.545   3.949   3.627 -0.5628  0.2413  0.3481
 6074SOL     OW29857   0.103   1.424   6.380  0.5882 -0.3264  0.5304
 6074SOL    HW129858   0.148   1.503   6.351 -1.9957  1.1558  0.5761
 6074SOL    HW229859   0.162   1.367   6.331 -0.8601 -0.1371 -1.4448
 6075SOL     OW29860   2.448   2.143   6.468 -0.3443  0.3849 -0.6484
 6075SOL    HW129861   2.508   2.070   6.483  0.8560  1.0011 -2.4993
 6075SOL    HW229862   2.376   2.108   6.417 -1.6791 -1.1159  2.2909
 6076SOL     OW29863   4.307   2.840   3.866  0.3348 -0.3249 -0.1204
 6076SOL    HW129864   4.272   2.802   3.947  0.2483  0.8402  0.3909
 6076SOL    HW229865   4.260   2.922   3.851  0.4025 -0.2103  0.2892
 6077SOL     OW29866   3.832   0.805   7.759  0.1562 -0.1040 -0.7756
 6077SOL    HW129867   3.896   0.791   7.829 -1.0731 -1.2276  0.1421
 6077SOL    HW229868   3.786   0.721   7.767  2.1830 -1.2324 -0.9187
 6078SOL     OW29869   0.547   0.329   6.863  0.0938 -0.0433 -0.3735
 6078SOL    HW129870   0.634   0.354   6.832 -0.1294 -0.1813 -1.1291
 6078SOL    HW229871   0.505   0.322   6.777 -1.9083  1.0182  0.5238
 6079SOL     OW29872   1.989   0.134   4.955  0.1769 -0.5697  0.1268
 6079SOL    HW129873   2.016   0.043   4.965  0.8825 -0.6263 -2.4194
 6079SOL    HW229874   1.918   0.120   4.893 -1.8515  1.5059  1.9540
 6080SOL     OW29875   1.592   0.665   1.752 -0.3878 -0.6610 -0.1315
 6080SOL    HW129876   1.501   0.694   1.753  0.6596  2.6811 -1.8039
 6080SOL    HW229877   1.623   0.704   1.671 -0.7185  1.0588  0.5685
 6081SOL     OW29878   2.447   0.334   8.979 -0.1881 -0.1276 -0.2296
 6081SOL    HW129879   2.497   0.381   8.912 -0.7598  0.4726 -0.2350
 6081SOL    HW229880   2.508   0.270   9.017  1.4948  0.7798 -1.3821
 6082SOL     OW29881   3.938   2.486   7.631  0.0506 -0.0197  0.3291
 6082SOL    HW129882   3.992   2.467   7.708  0.3182  3.6857  1.0340
 6082SOL    HW229883   3.994   2.548   7.584  0.3616  1.0248  2.0917
 6083SOL     OW29884   4.410   4.671   1.850 -0.1718  0.1370  0.3746
 6083SOL    HW129885   4.327   4.705   1.885 -1.5069 -2.1887 -0.4927
 6083SOL    HW229886   4.467   4.688   1.925  2.4144  2.5022 -2.1097
 6084SOL     OW29887   4.225   3.314   8.087  0.3344  0.4454 -0.2741
 6084SOL    HW129888   4.299   3.346   8.137  0.1423  0.1393  0.2137
 6084SOL    HW229889   4.187   3.272   8.164  0.8198 -1.3483 -1.0015
 6085SOL     OW29890   1.872   1.200   0.793 -0.0317  0.8758  0.3376
 6085SOL    HW129891   1.859   1.295   0.795  4.0829  1.4462 -0.2373
 6085SOL    HW229892   1.935   1.190   0.722  0.7676  1.9074  0.8989
 6086SOL     OW29893   2.572   4.697   1.596 -0.0325  0.4131  0.0501
 6086SOL    HW129894   2.544   4.620   1.546 -1.4486 -0.3810  2.0837
 6086SOL    HW229895   2.551   0.028   1.530  1.3379 -0.2422 -1.0369
 6087SOL     OW29896   2.057   2.245   1.182 -0.0699 -0.3261 -0.0894
 6087SOL    HW129897   2.002   2.241   1.260 -0.7072  2.5015 -0.3908
 6087SOL    HW229898   2.048   2.335   1.151  1.2971 -0.0300  0.3701
 6088SOL     OW29899   1.822   0.598   8.366 -0.3780 -0.0570 -0.3364
 6088SOL    HW129900   1.854   0.678   8.408 -0.2532  0.1990 -0.9327
 6088SOL    HW229901   1.747   0.576   8.422  0.8097 -0.8031  0.9658
 6089SOL     OW29902   1.872   0.055   9.339 -0.0196 -0.0470  0.3670
 6089SOL    HW129903   1.911   0.035   9.254  3.5489 -1.0212  2.2241
 6089SOL    HW229904   1.915   0.139   9.350  1.5300 -0.6353 -1.1732
 6090SOL     OW29905   4.666   2.013   2.356 -0.1703 -0.4345  0.5977
 6090SOL    HW129906   4.611   1.999   2.433 -1.0957 -1.9706 -0.3417
 6090SOL    HW229907   4.648   2.106   2.341  0.2780 -0.3723  0.4426
 6091SOL     OW29908   2.725   0.595   5.735 -0.4201  0.3740 -0.1511
 6091SOL    HW129909   2.683   0.514   5.707 -0.7447  0.4017  0.2593
 6091SOL    HW229910   2.795   0.570   5.795 -0.5731  4.0582  1.5807
 6092SOL     OW29911   0.129   0.357   7.674  0.5931 -0.2207  0.2000
 6092SOL    HW129912   0.100   0.438   7.716  1.6813  0.5576 -0.5497
 6092SOL    HW229913   0.058   0.329   7.617 -0.2564  0.2948  1.0008
 6093SOL     OW29914   2.427   3.372   8.565 -0.0630 -0.4983 -0.1329
 6093SOL    HW129915   2.439   3.456   8.521  0.4534 -0.4282  0.1390
 6093SOL    HW229916   2.373   3.319   8.507 -2.1312 -0.6089  1.8832
 6094SOL     OW29917   3.930   3.625   2.581 -0.1966 -1.1114  0.2967
 6094SOL    HW129918   3.910   3.534   2.558 -0.3839 -0.9450 -0.2006
 6094SOL    HW229919   3.989   3.623   2.656  2.2325 -0.0294 -1.5817
 6095SOL     OW29920   0.749   1.240   7.472 -0.4429  0.0232 -0.0976
 6095SOL    HW129921   0.802   1.190   7.410 -2.0328 -1.9315  0.1274
 6095SOL    HW229922   0.751   1.327   7.433  1.8931 -0.3077 -0.7005
 6096SOL     OW29923   1.860   0.224   5.189  0.0848  0.4034 -0.0181
 6096SOL    HW129924   1.901   0.204   5.105 -1.8103  1.3200 -1.1633
 6096SOL    HW229925   1.793   0.156   5.192  0.8227 -0.2556  1.4447
 6097SOL     OW29926   4.533   2.220   4.836 -0.1804  0.3923 -0.0238
 6097SOL    HW129927   4.556   2.309   4.809 -2.1324  0.7150 -0.6181
 6097SOL    HW229928   4.572   2.226   4.923  0.8931  2.3409 -0.6561
 6098SOL     OW29929   1.491   3.850   4.407  0.0092  0.4175 -0.8708
 6098SOL    HW129930   1.529   3.938   4.416 -2.3736  1.4237 -0.6122
 6098SOL    HW229931   1.544   3.801   4.344  1.7755 -1.1572  1.8752
 6099SOL     OW29932   4.224   2.345   4.712  0.6213  0.6134  0.3222
 6099SOL    HW129933   4.244   2.252   4.723 -2.3985  0.0979  1.3821
 6099SOL    HW229934   4.297   2.371   4.655 -0.3647  1.5055 -0.5279
 6100SOL     OW29935   1.180   1.412  16.157 -0.2154 -0.2912  0.3318
 6100SOL    HW129936   1.175   1.380  16.067  0.1638 -0.6654  0.4452
 6100SOL    HW229937   1.129   1.493  16.154  1.6945  0.9571  1.3106
 6101SOL     OW29938   4.014   1.924   4.880 -0.2579  0.0718 -0.0803
 6101SOL    HW129939   4.062   1.854   4.924 -1.1936  0.7496  2.0418
 6101SOL    HW229940   4.079   1.990   4.907 -1.8070  0.9349  1.5738
 6102SOL     OW29941   1.555   0.908  17.444  0.5907 -0.0519  0.0839
 6102SOL    HW129942   1.556   0.822  17.401 -1.1143  1.3146 -2.7105
 6102SOL    HW229943   1.621   0.891  17.510  0.9190 -2.9323 -0.9365
 6103SOL     OW29944   1.262   3.364   6.244 -0.1151  0.1139 -0.0124
 6103SOL    HW129945   1.262   3.435   6.308 -0.5014 -0.2315  0.3729
 6103SOL    HW229946   1.355   3.343   6.247  0.0440  0.5823 -2.0043
 6104SOL     OW29947   1.126   1.996  12.491 -0.0115 -0.1319  0.1336
 6104SOL    HW129948   1.201   2.052  12.514 -0.5278  0.1969  1.0019
 6104SOL    HW229949   1.121   1.919  12.548  0.9629 -0.4739 -0.2318
 6105SOL     OW29950   0.758   3.751   6.985 -0.6227 -0.2376 -0.3042
 6105SOL    HW129951   0.854   3.744   6.981 -0.6834 -1.5301  0.8898
 6105SOL    HW229952   0.743   3.660   7.008  1.2731 -0.5412 -0.2866
 6106SOL     OW29953   4.701   3.251   5.384  0.1066 -0.4510  0.0074
 6106SOL    HW129954   4.668   3.340   5.400 -0.2597 -1.1000  2.8141
 6106SOL    HW229955   4.616   3.211   5.366 -0.4081  0.7950 -0.3170
 6107SOL     OW29956   0.677   2.092   6.665 -0.5688 -0.0745  0.3646
 6107SOL    HW129957   0.633   2.094   6.580 -0.2272 -0.2462  0.1825
 6107SOL    HW229958   0.649   2.008   6.701 -1.1550 -0.0905 -0.1231
 6108SOL     OW29959   0.124   0.810   5.688  0.2472  0.5694  0.1322
 6108SOL    HW129960   0.064   0.825   5.615 -0.4028  0.1671  0.5824
 6108SOL    HW229961   0.209   0.793   5.647  0.8472 -0.2171  1.7261
 6109SOL     OW29962   0.538   2.024  15.214  0.4525  0.6892  0.3888
 6109SOL    HW129963   0.627   2.011  15.247  0.9449 -1.9173 -1.9254
 6109SOL    HW229964   0.554   2.101  15.161  0.8155  1.9687  2.3786
 6110SOL     OW29965   0.783   4.314   4.178 -0.0400 -0.6419 -0.4841
 6110SOL    HW129966   0.809   4.306   4.086  0.7293  0.6681 -0.3831
 6110SOL    HW229967   0.715   4.381   4.172  0.6448  0.1296  0.4964
 6111SOL     OW29968   0.066   1.167   7.722 -0.4863 -0.5988  0.4592
 6111SOL    HW129969   0.089   1.086   7.677  1.7588 -0.3289  1.1238
 6111SOL    HW229970   0.151   1.176   7.765 -0.5465 -2.0312  0.8934
 6112SOL     OW29971   2.989   0.916   5.114 -0.4773 -0.3009 -0.3724
 6112SOL    HW129972   2.908   0.884   5.074 -0.9546  0.7999 -0.2987
 6112SOL    HW229973   3.055   0.868   5.065  1.7182 -0.5347  2.8438
 6113SOL     OW29974   3.930   4.230  16.729 -0.6307 -0.0752  0.7722
 6113SOL    HW129975   3.879   4.311  16.721  0.4718  0.5858  0.5089
 6113SOL    HW229976   3.896   4.187  16.807 -0.3362 -2.1818 -0.2671
 6114SOL     OW29977   1.497   2.303   2.619  0.1067 -0.7022  0.3896
 6114SOL    HW129978   1.500   2.278   2.527  1.1477 -1.5309  0.6482
 6114SOL    HW229979   1.497   2.215   2.658  2.3545 -1.1143 -0.5478
 6115SOL     OW29980   1.971   2.945   5.563 -0.3921  0.2299 -0.3845
 6115SOL    HW129981   1.888   2.977   5.528 -0.4336  1.3257  0.7281
 6115SOL    HW229982   1.948   2.866   5.611 -0.0790  0.1820 -0.3159
 6116SOL     OW29983   3.866   3.517   0.809  0.0870 -0.2652  0.2689
 6116SOL    HW129984   3.838   3.553   0.724  0.3811 -2.2777 -0.6646
 6116SOL    HW229985   3.803   3.552   0.872  0.4985  2.3616 -0.7382
 6117SOL     OW29986   4.279   0.845   6.343 -0.0187  0.1789  0.1635
 6117SOL    HW129987   4.371   0.821   6.340 -0.3274 -0.9139 -0.8776
 6117SOL    HW229988   4.250   0.797   6.265  1.5670  1.5266 -1.2524
 6118SOL     OW29989   2.261   2.798   5.607  0.2498  0.4963 -0.2732
 6118SOL    HW129990   2.259   2.892   5.623  1.1652  0.4585  0.0104
 6118SOL    HW229991   2.172   2.766   5.588  0.7645  1.2469 -3.9398
 6119SOL     OW29992   4.446   3.972   4.957  0.6444  0.0257 -0.1669
 6119SOL    HW129993   4.460   3.882   4.986  0.3695 -0.5935 -1.9280
 6119SOL    HW229994   4.516   4.012   5.008 -1.0802  0.1484  2.1239
 6120SOL     OW29995   0.612   0.931   8.441 -0.6662  0.3686 -0.0464
 6120SOL    HW129996   0.663   0.991   8.387  0.4239 -0.9423 -0.4851
 6120SOL    HW229997   0.523   0.960   8.420  0.1259  0.6421 -3.0206
 6121SOL     OW29998   4.001   3.251   6.653 -0.1359  0.3212  0.0115
 6121SOL    HW129999   3.927   3.286   6.603 -0.3487  0.9906  0.7809
 6121SOL    HW230000   3.959   3.212   6.729 -1.0201 -0.8480 -1.0857
 6122SOL     OW30001   4.206   0.507   8.095  0.2588  0.6223  0.4111
 6122SOL    HW130002   4.273   0.482   8.159  1.7459  2.3614 -0.4854
 6122SOL    HW230003   4.182   0.420   8.062  0.7389  0.6019  0.1174
 6123SOL     OW30004   2.516   4.551   7.045 -0.0520  0.4196 -0.0153
 6123SOL    HW130005   2.435   4.600   7.060 -0.8386 -0.6000 -0.9705
 6123SOL    HW230006   2.522   4.497   7.125  0.4909  1.3541  0.5780
 6124SOL     OW30007   3.905   0.395  12.481  0.0509  0.8349  0.3444
 6124SOL    HW130008   3.920   0.450  12.558 -1.2890  0.0408  1.1757
 6124SOL    HW230009   3.911   0.458  12.409  2.0144 -0.4353 -0.5980
 6125SOL     OW30010   1.893   0.831   8.481  0.3478  0.1510 -0.1911
 6125SOL    HW130011   1.828   0.873   8.537  0.9481 -0.3147  0.8627
 6125SOL    HW230012   1.982   0.865   8.491 -0.4673  1.8648  1.1077
 6126SOL     OW30013   4.725   4.459   3.054 -0.2512 -0.0163 -0.0149
 6126SOL    HW130014   4.667   4.413   3.114 -1.4357  0.2299 -0.9703
 6126SOL    HW230015   0.073   4.414   3.058  0.8679  2.0406 -0.0553
 6127SOL     OW30016   0.480   2.527   5.156  0.0481 -0.0950 -0.3737
 6127SOL    HW130017   0.492   2.617   5.125  1.6167 -0.0931  0.2157
 6127SOL    HW230018   0.565   2.516   5.199 -0.8016  0.2642  1.3807
 6128SOL     OW30019   3.705   1.537   7.169 -0.3391  0.2889  0.4101
 6128SOL    HW130020   3.618   1.547   7.131 -0.0449  3.7492  0.6454
 6128SOL    HW230021   3.699   1.602   7.239  2.0538 -0.1263  0.9861
 6129SOL     OW30022   0.784   3.665   5.614 -0.5343  0.2473 -0.2978
 6129SOL    HW130023   0.722   3.633   5.548 -0.3232  2.8036 -1.7462
 6129SOL    HW230024   0.726   3.731   5.650 -1.1728 -0.3229 -0.2700
 6130SOL     OW30025   2.762   4.368  13.418 -0.1296 -0.2818 -0.3900
 6130SOL    HW130026   2.784   4.360  13.510 -1.5674 -0.1728 -0.0380
 6130SOL    HW230027   2.666   4.367  13.426 -0.2796 -1.9244 -2.5212
 6131SOL     OW30028   0.220   1.903   3.280 -0.2750  0.4473  0.3147
 6131SOL    HW130029   0.282   1.950   3.225 -2.1364 -1.5843 -3.5309
 6131SOL    HW230030   0.252   1.813   3.288 -3.2723 -0.5072  1.9537
 6132SOL     OW30031   3.280   3.614  14.958  0.3077  0.4644  0.3317
 6132SOL    HW130032   3.300   3.591  14.867  0.9541 -1.8952  1.0853
 6132SOL    HW230033   3.352   3.572  15.003 -1.1224 -2.5043 -0.1461
 6133SOL     OW30034   4.216   1.272   3.673  0.1787 -0.1482  0.0156
 6133SOL    HW130035   4.141   1.223   3.637  0.4672 -0.5592 -0.0238
 6133SOL    HW230036   4.215   1.270   3.769 -0.6394 -1.2163 -0.0139
 6134SOL     OW30037   3.301   2.727  12.171  0.2082 -0.2732 -0.7408
 6134SOL    HW130038   3.360   2.759  12.239  1.2821 -0.9177 -1.3686
 6134SOL    HW230039   3.287   2.793  12.103 -0.3866  0.6458  0.2727
 6135SOL     OW30040   1.978   0.922  13.315  0.3713  0.3046 -0.8253
 6135SOL    HW130041   1.901   0.870  13.293 -0.3864  1.4156 -0.7722
 6135SOL    HW230042   2.029   0.893  13.240 -1.4486  0.5951 -2.1477
 6136SOL     OW30043   1.663   4.678   8.324 -0.0332 -0.2696 -0.6456
 6136SOL    HW130044   1.666   4.585   8.302  2.0306 -0.1335 -0.9362
 6136SOL    HW230045   1.568   4.689   8.316 -0.2260 -2.9873 -2.2548
 6137SOL     OW30046   3.173   2.175   4.422  0.4245 -0.2960 -0.5595
 6137SOL    HW130047   3.193   2.136   4.338  0.0152 -0.7636 -0.4410
 6137SOL    HW230048   3.224   2.113   4.474  0.3351 -0.2550 -0.4211
 6138SOL     OW30049   1.786   3.269  11.790  0.2958  0.0119  0.0356
 6138SOL    HW130050   1.827   3.318  11.862 -3.3219  4.7650 -1.1273
 6138SOL    HW230051   1.697   3.253  11.821  0.1627  3.1365  1.3220
 6139SOL     OW30052   4.385   1.259   8.132  0.3525 -0.1569  0.5679
 6139SOL    HW130053   4.474   1.256   8.166  0.4245 -0.6284  0.3407
 6139SOL    HW230054   4.380   1.338   8.079 -0.4953 -0.4269  0.2373
 6140SOL     OW30055   0.704   0.296   0.490 -0.0902  0.5360 -0.8109
 6140SOL    HW130056   0.744   0.369   0.538  2.0619 -1.1184 -0.1366
 6140SOL    HW230057   0.627   0.348   0.465 -1.3469 -0.0753  1.7603
 6141SOL     OW30058   3.220   4.425   2.589 -0.7159  0.0382  0.0638
 6141SOL    HW130059   3.258   4.362   2.529 -1.7118 -0.0289 -0.4971
 6141SOL    HW230060   3.131   4.391   2.576 -1.3009  2.0457 -1.2436
 6142SOL     OW30061   0.023   0.380   4.940  0.1845  0.4934 -0.1258
 6142SOL    HW130062   4.730   0.431   5.016 -4.2322 -0.2293 -1.3326
 6142SOL    HW230063   0.102   0.342   4.978  1.2896 -0.0048 -2.9240
 6143SOL     OW30064   1.135   2.807   6.951 -0.1310 -0.5575 -0.1624
 6143SOL    HW130065   1.194   2.761   7.010 -0.8700 -1.4123 -0.1048
 6143SOL    HW230066   1.121   2.885   7.005 -0.8415 -1.0409  0.3444
 6144SOL     OW30067   3.643   1.838   5.325  0.1951 -0.2412  0.0744
 6144SOL    HW130068   3.560   1.819   5.283 -0.6184  0.5883  1.3138
 6144SOL    HW230069   3.644   1.762   5.383  3.1566  0.9692  1.6337
 6145SOL     OW30070   0.037   1.813   9.086 -0.0064 -0.1476  0.1242
 6145SOL    HW130071   0.133   1.817   9.089 -0.0064  0.2982 -0.4891
 6145SOL    HW230072   0.014   1.881   9.149 -0.5904 -0.2477  0.0133
 6146SOL     OW30073   0.780   2.936   5.747 -0.5559 -0.0170 -0.0105
 6146SOL    HW130074   0.741   2.907   5.830  0.3056 -0.1813  0.3343
 6146SOL    HW230075   0.812   3.024   5.765  0.1672 -0.7049  1.9929
 6147SOL     OW30076   4.429   0.557   5.011  0.2853 -0.0387  0.1864
 6147SOL    HW130077   4.414   0.479   5.065 -1.0711 -1.7990 -2.7385
 6147SOL    HW230078   4.397   0.531   4.925 -3.1614 -1.8657  1.9867
 6148SOL     OW30079   3.590   1.114   7.131 -0.3457  0.3298 -0.1976
 6148SOL    HW130080   3.599   1.020   7.114  3.3574  0.5789  0.5198
 6148SOL    HW230081   3.675   1.138   7.166 -0.1549 -0.6532  0.0210
 6149SOL     OW30082   1.692   2.815   5.030 -0.1137 -0.1060  0.6269
 6149SOL    HW130083   1.649   2.829   5.115 -0.2039  1.0391  0.3943
 6149SOL    HW230084   1.782   2.843   5.043 -0.3021  0.4039  0.8443
 6150SOL     OW30085   1.234   4.332   1.749 -0.0257  0.0568  0.0161
 6150SOL    HW130086   1.210   4.281   1.826  0.8281 -1.7464 -0.9293
 6150SOL    HW230087   1.149   4.367   1.723  0.5900  1.1106 -0.5783
 6151SOL     OW30088   1.462   3.447   9.158 -0.6749 -0.3474  0.4472
 6151SOL    HW130089   1.408   3.376   9.124  0.0067 -0.8571  0.4313
 6151SOL    HW230090   1.469   3.416   9.249 -2.2942  0.4758  0.8491
 6152SOL     OW30091   2.096   1.167   7.842  0.1510 -0.1640  0.4689
 6152SOL    HW130092   2.178   1.136   7.880  0.8675 -1.0410 -1.8097
 6152SOL    HW230093   2.127   1.160   7.752 -0.4277 -2.6338  0.4412
 6153SOL     OW30094   3.991   4.023   8.916  0.0119 -0.0453  0.3824
 6153SOL    HW130095   4.040   3.994   8.839  0.2588  1.4382 -0.0289
 6153SOL    HW230096   4.038   3.981   8.988  1.3518 -1.8772 -1.5536
 6154SOL     OW30097   3.807   4.610  10.293  0.2907 -0.0992  0.0117
 6154SOL    HW130098   3.864   4.541  10.257  0.0472 -0.3107  0.0361
 6154SOL    HW230099   3.726   4.563  10.310  0.3260  0.0521  0.6003
 6155SOL     OW30100   0.569   2.144  15.809 -0.2247 -0.0455  0.7558
 6155SOL    HW130101   0.536   2.110  15.892 -1.9716  1.4432  0.6774
 6155SOL    HW230102   0.633   2.207  15.841 -1.9511  2.8801 -1.4881
 6156SOL     OW30103   1.711   2.479  17.367 -0.2889  0.0208  0.3933
 6156SOL    HW130104   1.749   2.561  17.396  0.3617  0.0153 -0.4750
 6156SOL    HW230105   1.790   2.436  17.334  0.3180  0.2469  1.5546
 6157SOL     OW30106   3.184   3.933   2.711  0.2389  0.1277 -0.1399
 6157SOL    HW130107   3.276   3.954   2.726  0.3805 -0.7458  0.2277
 6157SOL    HW230108   3.179   3.938   2.616  0.2454  0.8815 -0.0975
 6158SOL     OW30109   0.985   3.171   8.916  0.2810  0.2321  0.5157
 6158SOL    HW130110   1.068   3.187   8.871 -0.5154 -0.3206 -1.1167
 6158SOL    HW230111   1.005   3.108   8.986 -0.8172  1.5715  2.0261
 6159SOL     OW30112   1.377   2.710   7.043  0.3563 -0.1470  0.2932
 6159SOL    HW130113   1.445   2.692   6.978  1.7317  0.4281  1.5652
 6159SOL    HW230114   1.415   2.797   7.059 -0.0096  0.2569 -1.0383
 6160SOL     OW30115   3.624   0.617   6.373 -0.0741 -0.4629 -0.4631
 6160SOL    HW130116   3.564   0.675   6.327  0.1632  1.2940  1.4244
 6160SOL    HW230117   3.698   0.611   6.313  0.8099 -2.8493  0.8270
 6161SOL     OW30118   3.011   2.099   6.370 -0.1490  0.0171  0.0977
 6161SOL    HW130119   3.061   2.096   6.288  1.8545 -0.1543  1.3333
 6161SOL    HW230120   3.084   2.107   6.431 -0.3208 -3.3274  0.7807
 6162SOL     OW30121   4.319   2.152   1.082  0.8168  0.3465 -0.2877
 6162SOL    HW130122   4.363   2.206   1.147  0.2044 -0.7542  1.0506
 6162SOL    HW230123   4.376   2.155   1.006 -0.4356 -2.5620 -1.3387
 6163SOL     OW30124   2.686   3.542   2.997  0.0681  0.6315 -0.1203
 6163SOL    HW130125   2.766   3.573   3.039  1.7134 -0.4073 -2.5157
 6163SOL    HW230126   2.702   3.540   2.903  3.9205  0.5443  0.5311
 6164SOL     OW30127   3.872   1.891   8.220 -0.1954  0.0600  0.4885
 6164SOL    HW130128   3.839   1.900   8.130  1.5969  0.0328 -0.1871
 6164SOL    HW230129   3.885   1.985   8.234 -1.1524  0.6102 -2.3342
 6165SOL     OW30130   3.648   1.382   2.486  0.3071 -0.3953 -0.0581
 6165SOL    HW130131   3.560   1.388   2.523 -0.1751  0.7063 -1.3886
 6165SOL    HW230132   3.635   1.296   2.446  1.3364 -0.1126 -1.0073
 6166SOL     OW30133   3.664   3.581   9.562 -0.0151 -0.5830 -0.1541
 6166SOL    HW130134   3.646   3.602   9.470 -0.4846 -0.1627  0.0346
 6166SOL    HW230135   3.590   3.524   9.585 -0.9860  0.3822 -0.8838
 6167SOL     OW30136   1.339   4.683   5.075 -0.1119  0.5481 -0.0876
 6167SOL    HW130137   1.305   0.024   5.122  1.2271  2.0706 -1.6280
 6167SOL    HW230138   1.264   4.669   5.017  0.6580 -1.3805 -0.6128
 6168SOL     OW30139   4.111   2.844   3.075 -0.7478 -0.6386  0.1064
 6168SOL    HW130140   4.097   2.834   3.169 -0.0244  2.1581  0.5231
 6168SOL    HW230141   4.128   2.751   3.059  1.1516 -0.3940  0.6158
 6169SOL     OW30142   0.241   3.042   0.537  0.0115 -0.2927 -0.4508
 6169SOL    HW130143   0.149   3.061   0.556 -1.0338 -3.5360 -2.3708
 6169SOL    HW230144   0.291   3.123   0.548 -3.9958  2.2341 -0.9152
 6170SOL     OW30145   0.142   2.596  12.727 -0.2255 -0.1386 -0.7308
 6170SOL    HW130146   0.166   2.508  12.697 -2.1301 -1.2502  0.9611
 6170SOL    HW230147   0.150   2.651  12.649 -0.6504  1.1790  0.1655
 6171SOL     OW30148   1.309   0.420   2.185 -0.1093  0.1510  0.3620
 6171SOL    HW130149   1.291   0.354   2.253 -0.0367 -1.7397 -1.4377
 6171SOL    HW230150   1.394   0.382   2.163  0.5160  1.4925  0.4641
 6172SOL     OW30151   1.054   0.364   9.678 -0.0492 -0.0897 -0.0048
 6172SOL    HW130152   0.979   0.338   9.732 -0.5413  0.1868 -0.5607
 6172SOL    HW230153   1.112   0.288   9.684 -0.4140 -0.3794 -0.1480
 6173SOL     OW30154   0.850   0.986  13.511 -0.5611 -0.0719  0.7503
 6173SOL    HW130155   0.841   1.068  13.561 -0.4228  0.2347  0.2736
 6173SOL    HW230156   0.867   0.927  13.585  0.8816  1.4105  1.6155
 6174SOL     OW30157   3.223   2.044  16.163  0.0358 -0.3283 -0.0112
 6174SOL    HW130158   3.299   1.991  16.187  0.4709  0.4592  0.3411
 6174SOL    HW230159   3.259   2.084  16.084  0.2551 -1.0623 -0.2848
 6175SOL     OW30160   4.454   3.189   7.927  0.0282 -0.1729 -0.6605
 6175SOL    HW130161   4.414   3.214   8.011 -0.2508 -3.8260  0.2724
 6175SOL    HW230162   4.548   3.202   7.943 -0.2273  1.0204 -0.1114
 6176SOL     OW30163   4.549   4.035   7.457 -0.0309 -0.0791 -0.6822
 6176SOL    HW130164   4.458   4.006   7.457  0.2644 -0.9952 -2.0727
 6176SOL    HW230165   4.545   4.095   7.382  0.1533 -0.9761 -1.3993
 6177SOL     OW30166   3.363   3.193   3.274  0.1665  0.2657 -0.1305
 6177SOL    HW130167   3.422   3.133   3.320  0.3383  0.1205 -0.5359
 6177SOL    HW230168   3.281   3.143   3.273 -1.8434  3.6061 -2.4001
 6178SOL     OW30169   4.098   0.844   9.958  0.2925 -0.0388 -0.1364
 6178SOL    HW130170   4.148   0.796  10.025  1.6995  2.0352  0.3215
 6178SOL    HW230171   4.036   0.892  10.013 -0.3164  0.8869 -1.6460
 6179SOL     OW30172   0.573   0.473   2.273 -0.1164  0.3929  0.2267
 6179SOL    HW130173   0.557   0.473   2.178 -1.0329 -0.0980  0.3775
 6179SOL    HW230174   0.611   0.560   2.280 -0.4649  0.6060 -0.4648
 6180SOL     OW30175   3.127   2.149   9.876 -0.3737 -0.3060  0.4166
 6180SOL    HW130176   3.204   2.151   9.933  0.4913  2.0578 -0.8209
 6180SOL    HW230177   3.070   2.095   9.930 -1.7484  1.7777  1.0764
 6181SOL     OW30178   3.008   1.031   5.803 -0.2487  0.1369 -0.4668
 6181SOL    HW130179   2.951   1.102   5.832 -1.0743 -0.0953 -1.5592
 6181SOL    HW230180   3.064   1.086   5.749  2.1897 -0.7037  1.1766
 6182SOL     OW30181   0.283   2.200   3.631  0.4225  0.0043  0.4244
 6182SOL    HW130182   0.266   2.265   3.700 -0.4279 -0.6922  0.8618
 6182SOL    HW230183   0.258   2.114   3.663  2.6347 -0.1088  1.8253
 6183SOL     OW30184   0.395   0.443   7.088  0.0431  0.0233 -0.3038
 6183SOL    HW130185   0.451   0.373   7.055  0.2111  0.3843 -0.7939
 6183SOL    HW230186   0.335   0.451   7.014  0.8404 -2.4148 -1.2035
 6184SOL     OW30187   4.599   3.373   1.748 -0.1888 -0.0079 -0.4531
 6184SOL    HW130188   4.673   3.432   1.763  0.0842  0.2587 -2.9972
 6184SOL    HW230189   4.525   3.404   1.800  0.6162  0.7067  0.2754
 6185SOL     OW30190   0.312   0.551  17.596 -0.0989  0.0820  0.0776
 6185SOL    HW130191   0.295   0.493  17.670 -0.4183 -1.4515 -1.1977
 6185SOL    HW230192   0.371   0.505  17.536 -0.1803  0.7124 -0.4911
 6186SOL     OW30193   0.459   1.917  15.489  0.2180  0.5517 -0.2872
 6186SOL    HW130194   0.454   1.951  15.400 -0.1577 -0.1561 -0.5309
 6186SOL    HW230195   0.507   1.985  15.538 -0.1288  0.1846  0.5583
 6187SOL     OW30196   2.723   0.239   8.765  0.1037 -0.1355  0.5022
 6187SOL    HW130197   2.662   0.167   8.780 -1.3794  0.8987 -0.7029
 6187SOL    HW230198   2.758   0.237   8.676 -3.0049 -0.6252 -0.7089
 6188SOL     OW30199   3.822   2.243   7.417 -0.5207 -0.1476 -0.2717
 6188SOL    HW130200   3.890   2.185   7.382  0.8076  1.3373 -0.1320
 6188SOL    HW230201   3.874   2.290   7.483  0.0740  0.8928 -1.4967
 6189SOL     OW30202   3.624   2.510   5.636  0.8277 -0.6771  0.0694
 6189SOL    HW130203   3.641   2.591   5.685  0.9095  0.0444 -1.1719
 6189SOL    HW230204   3.676   2.445   5.684 -1.5105  0.8806  4.7085
 6190SOL     OW30205   1.632   1.597  13.724 -0.0564  0.3887 -0.2404
 6190SOL    HW130206   1.569   1.613  13.795  0.8024 -1.2900  0.8927
 6190SOL    HW230207   1.576   1.578  13.649 -0.1953 -0.9636  0.2154
 6191SOL     OW30208   3.664   0.501  15.232  0.4493 -0.1046 -0.3773
 6191SOL    HW130209   3.576   0.512  15.196  0.5212  0.5478 -0.3441
 6191SOL    HW230210   3.718   0.492  15.153  1.2347  1.3991  0.0061
 6192SOL     OW30211   3.955   0.202  17.460 -0.8220 -0.5153 -0.6511
 6192SOL    HW130212   3.883   0.228  17.517 -0.9443 -1.2262 -0.4715
 6192SOL    HW230213   3.971   0.289  17.424  1.9532 -0.9257 -0.4534
 6193SOL     OW30214   4.443   3.296  16.785  0.2545 -0.3384 -0.5718
 6193SOL    HW130215   4.352   3.271  16.769 -0.1684  1.2050 -0.5314
 6193SOL    HW230216   4.462   3.352  16.709 -0.0071 -1.8473 -1.7555
 6194SOL     OW30217   2.083   2.987   8.674  0.0891 -0.2775  0.2649
 6194SOL    HW130218   2.073   3.072   8.631  0.6637 -0.6430 -0.5823
 6194SOL    HW230219   2.005   2.970   8.726 -0.6267  0.0145 -0.7172
 6195SOL     OW30220   1.187   2.834   5.924  0.1510  0.2246  0.5993
 6195SOL    HW130221   1.238   2.911   5.949  0.6683  1.1295 -3.2297
 6195SOL    HW230222   1.148   2.806   6.007  1.5284 -1.6810  0.6298
 6196SOL     OW30223   2.953   2.593   2.604 -0.3039 -0.3474 -0.4339
 6196SOL    HW130224   3.003   2.661   2.648  1.1976 -1.3761 -0.5195
 6196SOL    HW230225   3.026   2.547   2.562  0.4138  1.5975 -1.3171
 6197SOL     OW30226   0.523   1.074   3.793  0.1822 -0.5094 -0.1526
 6197SOL    HW130227   0.531   1.009   3.723  1.0620 -0.1835 -0.3568
 6197SOL    HW230228   0.508   1.156   3.745  1.0043  0.1470  0.6942
 6198SOL     OW30229   2.668   2.117   4.752  0.3855 -0.1731 -0.4616
 6198SOL    HW130230   2.748   2.132   4.701  0.8251  0.1516  0.3196
 6198SOL    HW230231   2.639   2.038   4.707  2.6348 -2.8328  2.7257
 6199SOL     OW30232   1.394   2.183   3.594  0.6185  0.3531  0.2807
 6199SOL    HW130233   1.328   2.175   3.663  0.8438 -2.4963  0.1567
 6199SOL    HW230234   1.427   2.094   3.606  0.6368  0.4153  0.6959
 6200SOL     OW30235   0.225   0.764   0.659 -0.2857  0.3697 -0.6626
 6200SOL    HW130236   0.214   0.702   0.587 -1.2622 -1.8569  1.4125
 6200SOL    HW230237   0.140   0.793   0.690 -0.7482 -1.1757 -0.5172
 6201SOL     OW30238   0.273   3.872   4.562  0.6889  0.3874 -0.3798
 6201SOL    HW130239   0.313   3.791   4.595 -0.3711  0.7980  1.8739
 6201SOL    HW230240   0.273   3.853   4.468 -1.1452  0.7909 -0.4556
 6202SOL     OW30241   4.257   1.525   7.689  0.1667 -0.1055 -0.6314
 6202SOL    HW130242   4.242   1.609   7.645 -0.0926  0.1143 -0.1214
 6202SOL    HW230243   4.340   1.499   7.648 -0.8730 -0.9948 -2.1807
 6203SOL     OW30244   3.627   4.316  14.265 -0.0112 -0.3567 -0.4424
 6203SOL    HW130245   3.615   4.343  14.174  0.0853 -0.6910 -0.5578
 6203SOL    HW230246   3.604   4.400  14.303 -1.3409 -2.0180  2.4196
 6204SOL     OW30247   0.847   2.640  14.673 -0.1485 -0.0873  0.1430
 6204SOL    HW130248   0.776   2.577  14.689  0.2083 -0.0913  1.6591
 6204SOL    HW230249   0.845   2.691  14.754  1.2104  0.1727  0.0092
 6205SOL     OW30250   4.412   2.380  16.927 -0.1355  0.2399 -0.3959
 6205SOL    HW130251   4.476   2.366  16.997  0.7752  0.7958 -1.1350
 6205SOL    HW230252   4.336   2.402  16.980  0.3285 -0.3041  0.5024
 6206SOL     OW30253   1.264   2.318   2.234 -0.3295  0.4033 -0.3979
 6206SOL    HW130254   1.199   2.295   2.301  0.7753  0.5848  0.7415
 6206SOL    HW230255   1.216   2.315   2.152 -1.1861 -0.9241  0.1495
 6207SOL     OW30256   2.276   3.933  14.652  0.1093 -0.5926  0.6271
 6207SOL    HW130257   2.315   3.876  14.717 -0.0417  0.0179  1.2549
 6207SOL    HW230258   2.346   3.912  14.591 -0.2079  1.9484 -0.6212
 6208SOL     OW30259   3.405   1.437  17.468  0.5848 -0.0515 -0.3180
 6208SOL    HW130260   3.422   1.481  17.384  1.1701  0.8236  0.2652
 6208SOL    HW230261   3.488   1.422  17.513  0.2479  1.3110  0.7273
 6209SOL     OW30262   1.012   3.106   5.988  0.0932 -0.2115  0.1485
 6209SOL    HW130263   0.947   3.176   5.980 -0.5742 -0.9039 -0.5158
 6209SOL    HW230264   1.032   3.100   5.894 -2.1428  0.6929 -0.3951
 6210SOL     OW30265   0.253   2.670  10.320 -0.1924 -0.5433  0.0925
 6210SOL    HW130266   0.260   2.765  10.311 -1.3563 -0.4526  0.0801
 6210SOL    HW230267   0.234   2.640  10.231  3.0196 -0.9566 -0.4350
 6211SOL     OW30268   4.237   4.232   5.448 -0.0417 -0.3908  0.0622
 6211SOL    HW130269   4.241   4.317   5.405 -0.0877 -0.4104  0.0185
 6211SOL    HW230270   4.166   4.244   5.511  0.2541  0.3995  0.2354
 6212SOL     OW30271   2.677   0.365   5.614 -0.2872 -0.0267  0.0178
 6212SOL    HW130272   2.752   0.309   5.635 -2.5939 -3.0312  0.2217
 6212SOL    HW230273   2.617   0.306   5.568  0.5933 -1.7449  1.0667
 6213SOL     OW30274   0.705   1.770   1.677 -0.2494 -0.5501 -0.2040
 6213SOL    HW130275   0.655   1.732   1.749 -1.4054 -0.0044 -0.7277
 6213SOL    HW230276   0.786   1.720   1.680 -0.1004 -0.4061 -2.0338
 6214SOL     OW30277   2.295   3.669  17.174 -0.3435  0.0819  0.0603
 6214SOL    HW130278   2.218   3.614  17.166 -0.8561  0.6838  1.0142
 6214SOL    HW230279   2.357   3.614  17.125 -0.1182 -0.4624  0.9608
 6215SOL     OW30280   0.587   4.472   6.291  0.0804  0.5277  0.2097
 6215SOL    HW130281   0.504   4.425   6.278  0.5016 -0.0249 -0.4818
 6215SOL    HW230282   0.645   4.438   6.223 -1.2281 -0.0156 -0.6478
 6216SOL     OW30283   0.074   2.551   2.209 -0.1337  0.7916 -0.6880
 6216SOL    HW130284   4.727   2.596   2.226 -0.6674 -1.8906  3.9438
 6216SOL    HW230285   0.136   2.622   2.230 -1.9526  2.0385  0.4182
 6217SOL     OW30286   2.789   1.606   4.385 -0.7329 -0.1726  0.0658
 6217SOL    HW130287   2.844   1.546   4.437  2.1616  1.5322 -1.0267
 6217SOL    HW230288   2.708   1.608   4.436 -0.1340 -0.1791  1.0346
 6218SOL     OW30289   0.132   0.093  17.221 -0.7967  0.1171  0.0819
 6218SOL    HW130290   0.053   0.069  17.270 -0.4326  0.5687  0.8982
 6218SOL    HW230291   0.117   0.187  17.226 -3.2702 -0.2595 -0.1116
 6219SOL     OW30292   4.123   1.074   6.868  0.9477 -0.3372 -0.3768
 6219SOL    HW130293   4.086   1.079   6.780 -0.9696  4.0346  0.6592
 6219SOL    HW230294   4.052   1.121   6.913  0.3267 -0.6362 -1.0570
 6220SOL     OW30295   0.736   1.897   0.327  0.3360 -0.2849  0.2929
 6220SOL    HW130296   0.709   1.806   0.318 -0.2991 -0.0557 -0.1269
 6220SOL    HW230297   0.727   1.933   0.239  0.1842  0.2492  0.5278
 6221SOL     OW30298   2.486   2.771  17.014 -0.1036  0.6535 -0.0715
 6221SOL    HW130299   2.566   2.727  16.984  1.3839  2.7365  0.8215
 6221SOL    HW230300   2.411   2.716  16.992  1.7980 -1.9279  0.0069
 6222SOL     OW30301   0.656   3.890   3.092 -0.2515  1.2251 -0.0628
 6222SOL    HW130302   0.638   3.844   3.010  0.5611 -0.1081  0.5134
 6222SOL    HW230303   0.740   3.853   3.119  0.2024  1.8028 -0.6848
 6223SOL     OW30304   4.545   0.090  14.679 -0.2632  0.5300 -0.5786
 6223SOL    HW130305   4.555   0.009  14.629  0.5088  1.7682 -2.4321
 6223SOL    HW230306   4.503   0.049  14.754  0.0304  2.0699  0.4294
 6224SOL     OW30307   2.842   4.037   2.556  0.1410 -0.0721  0.1839
 6224SOL    HW130308   2.915   3.977   2.543 -0.1963 -0.4357 -0.0548
 6224SOL    HW230309   2.881   4.123   2.567 -0.9585  0.6070 -1.2234
 6225SOL     OW30310   3.558   1.831   9.223 -0.2038 -0.1163 -0.6051
 6225SOL    HW130311   3.523   1.908   9.178 -0.8372  0.8458  1.5286
 6225SOL    HW230312   3.650   1.823   9.197  0.0302  2.2857 -0.5532
 6226SOL     OW30313   2.136   0.985  12.122  0.0825  0.2463  0.0666
 6226SOL    HW130314   2.172   0.920  12.063 -1.8827  0.7443 -1.6671
 6226SOL    HW230315   2.180   0.958  12.202 -2.7051 -0.1211  1.4883
 6227SOL     OW30316   2.480   3.252   8.972 -0.5363  0.4667 -0.2887
 6227SOL    HW130317   2.443   3.163   8.970  1.2294 -0.3601  3.4753
 6227SOL    HW230318   2.413   3.310   9.006  1.3153  2.2940  0.2266
 6228SOL     OW30319   2.897   4.449   4.257 -0.1730 -0.3854  0.0578
 6228SOL    HW130320   2.883   4.357   4.236  1.3869 -0.4420 -0.7534
 6228SOL    HW230321   2.842   4.448   4.335  1.3146 -1.7037  1.0916
 6229SOL     OW30322   3.540   3.368   8.176 -0.7114 -0.3851 -0.4574
 6229SOL    HW130323   3.553   3.276   8.199 -0.8184 -0.4173 -0.5243
 6229SOL    HW230324   3.549   3.368   8.081  1.2907 -2.5772 -0.2831
 6230SOL     OW30325   2.529   2.137   2.456 -0.1463  0.6559 -0.2733
 6230SOL    HW130326   2.493   2.219   2.421 -1.4932 -1.0105 -2.7841
 6230SOL    HW230327   2.483   2.146   2.540  0.7760 -1.4893  0.4709
 6231SOL     OW30328   1.344   4.576   7.126  0.0697 -0.6394 -0.1915
 6231SOL    HW130329   1.405   4.641   7.160 -1.2938  0.9193 -0.7506
 6231SOL    HW230330   1.293   4.560   7.206  0.3135 -0.4254  0.0065
 6232SOL     OW30331   0.797   4.420   0.500  0.1542  0.0879 -0.6024
 6232SOL    HW130332   0.773   4.503   0.541  0.4177 -0.1299 -0.0175
 6232SOL    HW230333   0.729   4.410   0.433  1.1219  0.6695 -1.6695
 6233SOL     OW30334   2.759   0.471  11.595  0.2195  0.0027  0.2306
 6233SOL    HW130335   2.668   0.476  11.567  0.3190  2.4033  0.3908
 6233SOL    HW230336   2.747   0.490  11.688  0.1644 -0.3930  0.3072
 6234SOL     OW30337   3.265   2.292   5.545 -0.0394  0.6357 -0.7531
 6234SOL    HW130338   3.306   2.378   5.554  3.6450 -1.0767 -1.2802
 6234SOL    HW230339   3.208   2.307   5.470 -1.9704 -0.6327  0.4681
 6235SOL     OW30340   0.335   0.776   4.815  0.4870 -0.4840 -0.2396
 6235SOL    HW130341   0.415   0.825   4.796 -0.4954  0.6469 -1.4584
 6235SOL    HW230342   0.358   0.687   4.790  2.1129 -0.7790  2.2983
 6236SOL     OW30343   1.779   3.839   8.870  0.5662  0.0030 -0.4939
 6236SOL    HW130344   1.702   3.793   8.905  2.0177 -0.2475  2.3764
 6236SOL    HW230345   1.843   3.805   8.932 -0.5304 -0.5800  0.3169
 6237SOL     OW30346   0.248   1.591   5.257 -0.7171 -0.3613  0.7899
 6237SOL    HW130347   0.182   1.563   5.194 -0.1281 -0.6836  0.3037
 6237SOL    HW230348   0.191   1.638   5.317 -1.0381  1.3472 -0.8512
 6238SOL     OW30349   0.067   3.564   9.279  0.5032  0.1583  0.4215
 6238SOL    HW130350   0.113   3.553   9.196 -2.8952  1.7311 -1.7087
 6238SOL    HW230351   0.099   3.488   9.328  1.4499 -0.0747 -0.5650
 6239SOL     OW30352   2.480   3.751   2.129  0.0508  0.4035 -0.0473
 6239SOL    HW130353   2.401   3.787   2.089 -1.2794 -0.8393  1.4785
 6239SOL    HW230354   2.535   3.827   2.108  0.9401  0.6466  3.0863
 6240SOL     OW30355   1.596   3.765   4.647 -0.5203 -0.1856 -0.1515
 6240SOL    HW130356   1.564   3.785   4.559 -0.3333 -2.3664 -0.7202
 6240SOL    HW230357   1.682   3.723   4.637 -0.1852 -0.2620  2.9045
 6241SOL     OW30358   3.911   1.170   4.762 -0.3807 -0.2089 -0.0377
 6241SOL    HW130359   4.004   1.188   4.776 -0.5872  1.1751 -0.4501
 6241SOL    HW230360   3.910   1.162   4.667 -0.7464 -1.2135  0.0562
 6242SOL     OW30361   1.007   0.338   9.365 -0.5291  0.4217  0.3815
 6242SOL    HW130362   1.013   0.310   9.457 -0.9006  0.6349  0.4694
 6242SOL    HW230363   0.955   0.271   9.321 -1.2653  0.0845  1.7442
 6243SOL     OW30364   1.304   2.271   9.208  0.2821  0.2215 -0.2660
 6243SOL    HW130365   1.217   2.263   9.249  1.1322 -0.6200  1.4050
 6243SOL    HW230366   1.363   2.293   9.280  0.9538  0.3920 -0.8691
 6244SOL     OW30367   0.558   0.651   8.307 -0.1401 -0.0024 -0.4320
 6244SOL    HW130368   0.483   0.675   8.251  0.4340  0.9596 -0.7937
 6244SOL    HW230369   0.566   0.743   8.332 -1.1137 -0.6341  2.1265
 6245SOL     OW30370   3.758   4.365  15.086  0.1276 -0.8273 -0.5232
 6245SOL    HW130371   3.818   4.387  15.157 -0.6392  0.4198 -0.2714
 6245SOL    HW230372   3.800   4.391  15.004  1.1989 -0.5159  0.1409
 6246SOL     OW30373   3.039   3.368   4.255 -0.1676 -0.3772 -0.1487
 6246SOL    HW130374   3.123   3.399   4.289 -1.4031  1.0444  1.6144
 6246SOL    HW230375   3.059   3.386   4.163  2.5529  0.2729  0.5876
 6247SOL     OW30376   0.577   3.652   1.329 -1.3394 -0.1659 -0.4262
 6247SOL    HW130377   0.629   3.727   1.299  1.6428 -1.0796  2.4123
 6247SOL    HW230378   0.601   3.586   1.264 -0.6881 -0.8353  0.4987
 6248SOL     OW30379   0.109   1.001   8.835 -0.4665 -0.4928  0.0872
 6248SOL    HW130380   0.202   1.008   8.811 -0.5731  0.6421  0.0149
 6248SOL    HW230381   0.095   1.084   8.881 -0.6149  0.0118 -0.8753
 6249SOL     OW30382   1.892   2.893   3.980  0.1983 -0.0147  0.4573
 6249SOL    HW130383   1.822   2.834   3.950  1.2938 -1.3507  0.5473
 6249SOL    HW230384   1.863   2.936   4.061 -3.3647 -2.1450  0.3329
 6250SOL     OW30385   1.180   4.150   0.792 -0.5203 -0.0580 -0.4367
 6250SOL    HW130386   1.131   4.213   0.738 -2.6307 -2.2030 -1.0163
 6250SOL    HW230387   1.264   4.149   0.745  1.5514 -2.4715  3.3671
 6251SOL     OW30388   4.562   2.027   3.720 -0.0677 -0.1233  0.2458
 6251SOL    HW130389   4.541   2.114   3.753  1.3843  0.3066  0.0461
 6251SOL    HW230390   4.528   2.018   3.631 -1.4012  0.9936  0.6492
 6252SOL     OW30391   4.498   2.843   1.527  0.3376 -0.1109 -0.5464
 6252SOL    HW130392   4.576   2.789   1.535  0.1187 -0.2799  0.4356
 6252SOL    HW230393   4.463   2.805   1.446  0.2352 -2.5161  0.6342
 6253SOL     OW30394   0.381   1.564   7.504  0.5948  0.1641  0.3378
 6253SOL    HW130395   0.349   1.486   7.459 -0.4130  1.6664 -1.5181
 6253SOL    HW230396   0.315   1.567   7.573  0.3595 -0.8470  0.1565
 6254SOL     OW30397   3.846   1.770   1.030 -0.3626  0.2156 -0.2986
 6254SOL    HW130398   3.839   1.831   0.957  0.3663 -0.4007 -0.8796
 6254SOL    HW230399   3.761   1.796   1.065 -0.5864 -2.3970  1.0827
 6255SOL     OW30400   4.535   2.986   5.160  0.1639  0.4599 -0.2007
 6255SOL    HW130401   4.462   2.942   5.117 -0.2352  0.0167  0.9218
 6255SOL    HW230402   4.597   3.003   5.089  0.4010  0.5014  0.0127
 6256SOL     OW30403   0.607   0.356   8.670 -0.4725 -0.2653  0.2439
 6256SOL    HW130404   0.524   0.390   8.637  1.0531  1.0221 -2.2629
 6256SOL    HW230405   0.620   0.418   8.742 -2.1130 -1.2363  1.3912
 6257SOL     OW30406   2.267   3.705   8.725  0.4157  0.0526 -0.3097
 6257SOL    HW130407   2.180   3.736   8.698  0.4873  1.1678  0.7337
 6257SOL    HW230408   2.301   3.693   8.636  0.8065 -1.8893  0.1037
 6258SOL     OW30409   0.404   0.887   8.981  0.9585  0.3736 -0.3697
 6258SOL    HW130410   0.339   0.869   9.049  1.4304  2.1688  0.5469
 6258SOL    HW230411   0.421   0.796   8.957  1.1712 -0.2336  2.1413
 6259SOL     OW30412   3.481   0.386   5.416 -0.4375  0.1112  0.2313
 6259SOL    HW130413   3.497   0.340   5.333  0.7328 -1.2564  1.2279
 6259SOL    HW230414   3.396   0.427   5.396 -1.9282 -2.2715  1.7209
 6260SOL     OW30415   1.129   4.026   1.371 -0.7968  0.2686  0.4006
 6260SOL    HW130416   1.102   4.061   1.456 -0.9332  1.2919 -0.0545
 6260SOL    HW230417   1.224   4.037   1.363 -0.9452  0.0918 -1.7473
 6261SOL     OW30418   0.115   3.191   9.036 -0.2526 -0.0826 -0.0034
 6261SOL    HW130419   0.038   3.136   9.055  0.3047 -0.6551  0.5806
 6261SOL    HW230420   0.078   3.265   8.988  0.4991  0.9100  0.9433
 6262SOL     OW30421   2.641   3.294   8.736  0.3573 -0.2207 -0.6430
 6262SOL    HW130422   2.581   3.342   8.679  1.8628  0.3953 -1.7364
 6262SOL    HW230423   2.593   3.273   8.816  2.9651 -0.2413  0.9314
 6263SOL     OW30424   2.871   2.849   8.366  0.0804 -0.3898  0.0787
 6263SOL    HW130425   2.927   2.783   8.325 -2.0177 -0.7339 -2.2758
 6263SOL    HW230426   2.817   2.781   8.407  0.6817  0.4633  2.2826
 6264SOL     OW30427   0.964   3.671   3.342  0.1256 -0.0624 -0.2171
 6264SOL    HW130428   1.030   3.655   3.410 -0.0471  0.5484  0.0846
 6264SOL    HW230429   0.879   3.657   3.384  0.2176  0.9006  0.2809
 6265SOL     OW30430   4.484   3.108   2.531 -0.0615 -0.7608  0.0398
 6265SOL    HW130431   4.550   3.153   2.478  0.3966 -1.1715  0.2659
 6265SOL    HW230432   4.517   3.019   2.523  0.5062 -0.4657 -0.8898
 6266SOL     OW30433   0.903   3.250   9.897 -0.1295  0.2986 -0.2647
 6266SOL    HW130434   0.840   3.193   9.941 -1.6881  0.6588 -2.0407
 6266SOL    HW230435   0.923   3.199   9.819 -1.6670 -0.3121 -0.2557
 6267SOL     OW30436   2.363   3.932  10.620  0.5973 -0.3776 -0.5700
 6267SOL    HW130437   2.356   3.904  10.711  1.6771 -0.2701 -0.4595
 6267SOL    HW230438   2.433   3.879  10.583  2.2650  1.4157 -0.0036
 6268SOL     OW30439   0.308   3.472  16.809  0.7637  0.2143 -0.0027
 6268SOL    HW130440   0.384   3.431  16.849  0.7086  0.1424  0.0273
 6268SOL    HW230441   0.344   3.546  16.760  2.5497 -0.9317 -0.4015
 6269SOL     OW30442   4.555   1.864   8.636 -0.5794 -0.9848  0.2027
 6269SOL    HW130443   4.592   1.821   8.559 -0.3952  3.1705 -2.0285
 6269SOL    HW230444   4.466   1.829   8.629 -0.7593 -0.3986 -0.4191
 6270SOL     OW30445   3.146   0.044  16.013  0.2268  0.6110 -0.4540
 6270SOL    HW130446   3.110   0.090  15.938 -0.6320  1.4576  0.4875
 6270SOL    HW230447   3.163   4.692  15.979 -1.4216  0.2493 -0.3449
 6271SOL     OW30448   2.190   3.582  11.507  0.2506 -0.1901  0.4796
 6271SOL    HW130449   2.109   3.538  11.531  0.2741 -0.9341 -0.8324
 6271SOL    HW230450   2.194   3.582  11.412  4.1817 -0.6063  0.6206
 6272SOL     OW30451   3.488   0.756  14.817 -0.0364 -0.1423 -0.3407
 6272SOL    HW130452   3.492   0.851  14.819 -2.6300 -0.0708  1.1125
 6272SOL    HW230453   3.509   0.746  14.724 -3.4316 -0.5185 -1.0630
 6273SOL     OW30454   0.029   2.600   6.202  0.0133  0.3378  0.4826
 6273SOL    HW130455   0.045   2.569   6.113  1.0486  0.7294  0.5298
 6273SOL    HW230456   0.117   2.624   6.232 -0.8383 -1.4690  4.4310
 6274SOL     OW30457   0.933   3.945   7.651  0.2006  0.1406 -0.0596
 6274SOL    HW130458   0.847   3.914   7.678 -0.5825  0.3723 -2.2671
 6274SOL    HW230459   0.945   4.025   7.702 -0.2031  0.4489 -0.4519
 6275SOL     OW30460   0.031   2.634   5.305 -0.2661 -0.3981  0.3128
 6275SOL    HW130461   0.113   2.668   5.340 -0.3369 -0.6672  0.7398
 6275SOL    HW230462   0.015   2.695   5.233 -0.6328  0.1348  0.8541
 6276SOL     OW30463   3.104   3.256   7.793  0.3312 -0.2714  0.4468
 6276SOL    HW130464   3.162   3.211   7.853  0.8758 -1.5976 -1.0765
 6276SOL    HW230465   3.132   3.223   7.708  0.7506  2.0426 -0.3192
 6277SOL     OW30466   2.340   1.365   2.288 -0.4384  0.0383  0.0158
 6277SOL    HW130467   2.340   1.304   2.362  0.8875  0.3917  0.2975
 6277SOL    HW230468   2.329   1.298   2.220 -2.0999  1.0906 -0.7611
 6278SOL     OW30469   3.348   0.670   2.695  0.2286  0.1415 -0.3098
 6278SOL    HW130470   3.386   0.637   2.614  0.7236  0.1860 -0.0930
 6278SOL    HW230471   3.418   0.660   2.760  0.8389  1.6841 -0.7432
 6279SOL     OW30472   2.710   0.452   4.190 -0.2167 -0.7725  0.4839
 6279SOL    HW130473   2.626   0.407   4.191 -0.5699 -0.2091 -2.8347
 6279SOL    HW230474   2.755   0.394   4.129  0.8947 -0.7104  1.2448
 6280SOL     OW30475   4.488   3.877   7.977 -0.2749  0.5847  0.1623
 6280SOL    HW130476   4.573   3.921   7.980  0.3110 -0.5693  0.0777
 6280SOL    HW230477   4.452   3.876   7.888  0.8021 -0.9614 -0.2362
 6281SOL     OW30478   2.826   4.362   9.041 -0.3037  0.4529 -0.1760
 6281SOL    HW130479   2.808   4.444   8.994 -2.2532  0.0948 -0.0682
 6281SOL    HW230480   2.884   4.395   9.109 -1.7496  2.1235  0.2466
 6282SOL     OW30481   1.182   0.322   7.964  0.0251  0.0745 -0.3858
 6282SOL    HW130482   1.247   0.303   8.032 -0.4745  0.0446  0.0787
 6282SOL    HW230483   1.236   0.356   7.892 -0.2807  1.7011  0.1405
 6283SOL     OW30484   0.866   3.075   7.485 -0.3694  1.0511 -0.6720
 6283SOL    HW130485   0.811   3.010   7.528  0.2968  0.1492 -1.1912
 6283SOL    HW230486   0.810   3.102   7.411 -1.4913  0.8247  0.0965
 6284SOL     OW30487   1.202   1.935   3.948  0.0128  0.4925 -0.0924
 6284SOL    HW130488   1.180   2.006   3.888  0.2581  1.6816  1.2156
 6284SOL    HW230489   1.114   1.922   3.983  0.4692  1.9669  1.6318
 6285SOL     OW30490   2.344   0.720  15.531  0.1380 -0.0116  0.6873
 6285SOL    HW130491   2.414   0.776  15.565 -1.4683  3.4708 -1.7159
 6285SOL    HW230492   2.346   0.738  15.437  1.4716  0.8888  0.8824
 6286SOL     OW30493   0.480   4.171   8.509  0.4726 -0.1203  0.7044
 6286SOL    HW130494   0.506   4.084   8.537 -0.3874 -1.3617 -2.3127
 6286SOL    HW230495   0.539   4.177   8.434 -0.1701  0.3711  0.2386
 6287SOL     OW30496   0.789   3.599   6.659 -0.3253  0.2412 -0.3977
 6287SOL    HW130497   0.723   3.668   6.664  2.0429  2.5036  0.1232
 6287SOL    HW230498   0.869   3.650   6.671 -0.3973 -0.1637  1.8889
 6288SOL     OW30499   3.354   4.260  13.787  0.5807 -0.4635 -0.1856
 6288SOL    HW130500   3.322   4.170  13.780 -1.8194  0.5529 -2.3720
 6288SOL    HW230501   3.449   4.252  13.797  0.7478  0.0886 -1.2638
 6289SOL     OW30502   2.307   2.560   5.784 -0.0770 -0.2324 -0.0226
 6289SOL    HW130503   2.294   2.614   5.706 -0.4239  0.2687  0.3796
 6289SOL    HW230504   2.348   2.629   5.837 -1.0867  0.4488 -0.1380
 6290SOL     OW30505   4.649   2.839  15.771 -0.2641 -0.1531 -0.3610
 6290SOL    HW130506   4.597   2.768  15.808 -0.0120  0.7165  1.6785
 6290SOL    HW230507   4.621   2.912  15.827  0.3641 -0.4448  0.3324
 6291SOL     OW30508   4.445   4.530   1.621  0.5241  0.5202  0.6681
 6291SOL    HW130509   4.408   4.599   1.565  2.1408 -0.8957 -2.1437
 6291SOL    HW230510   4.442   4.570   1.708 -1.0801 -0.4135  1.0481
 6292SOL     OW30511   2.782   4.338   7.361 -0.1785  0.1361  0.2541
 6292SOL    HW130512   2.759   4.258   7.408 -0.5045 -1.1539 -2.1290
 6292SOL    HW230513   2.867   4.312   7.326  1.1206  0.9117  2.7976
 6293SOL     OW30514   4.247   0.587   8.871  0.9124  0.1274 -0.5005
 6293SOL    HW130515   4.160   0.592   8.911  0.9994  0.0230 -0.2982
 6293SOL    HW230516   4.255   0.494   8.852  2.7997  0.1103  0.3815
 6294SOL     OW30517   1.431   4.388  16.891  0.0935 -0.5011  0.6212
 6294SOL    HW130518   1.499   4.334  16.932  1.5629  0.8655 -0.0255
 6294SOL    HW230519   1.456   4.392  16.799  5.2688 -1.9043  1.9854
 6295SOL     OW30520   3.640   0.219   3.100  0.4319  0.0917  0.1522
 6295SOL    HW130521   3.600   0.193   3.183 -0.1491 -0.3026 -0.2501
 6295SOL    HW230522   3.600   0.306   3.094  1.5957  0.5325 -1.1470
 6296SOL     OW30523   1.120   2.639   2.820  0.1956 -0.1389  0.0990
 6296SOL    HW130524   1.143   2.725   2.855  0.2587 -1.0433  2.2978
 6296SOL    HW230525   1.201   2.618   2.774  0.3687 -0.2917  0.4678
 6297SOL     OW30526   4.247   4.031  11.604  0.3616 -0.0627  0.1012
 6297SOL    HW130527   4.170   4.061  11.556  0.0944  0.1827  0.6841
 6297SOL    HW230528   4.269   3.960  11.544 -0.0543  1.2371 -1.6020
 6298SOL     OW30529   4.663   1.213   4.852 -0.0569  0.4578  0.0127
 6298SOL    HW130530   0.019   1.191   4.869 -1.0452 -2.8236  1.2199
 6298SOL    HW230531   4.610   1.174   4.922 -0.3500 -1.9482 -1.5406
 6299SOL     OW30532   1.759   1.605   2.807 -0.2693  0.0904  0.3168
 6299SOL    HW130533   1.793   1.522   2.775 -1.2179 -0.2330  0.1402
 6299SOL    HW230534   1.749   1.656   2.726  1.4915  0.9879  0.6620
 6300SOL     OW30535   3.976   1.366  15.031  0.4015 -1.1563 -0.1446
 6300SOL    HW130536   4.026   1.448  15.037 -2.7293  0.8180 -0.9959
 6300SOL    HW230537   3.927   1.394  14.954  1.1488  1.4118  0.3065
 6301SOL     OW30538   3.708   3.776   9.733 -0.0202  0.7810 -0.4230
 6301SOL    HW130539   3.699   3.701   9.673 -0.8677  0.9636 -0.5220
 6301SOL    HW230540   3.788   3.816   9.699  2.2271 -2.0536  1.5404
 6302SOL     OW30541   0.127   1.403  10.847  0.6074 -0.4754 -0.2344
 6302SOL    HW130542   0.063   1.474  10.852 -0.2563 -1.2923  0.3032
 6302SOL    HW230543   0.070   1.331  10.875  1.4906 -0.8368  0.6383
 6303SOL     OW30544   0.308   4.536   5.233  0.9446  0.2410 -0.1726
 6303SOL    HW130545   0.372   4.494   5.175  1.2298  1.5767 -0.8401
 6303SOL    HW230546   0.286   4.465   5.293 -0.3214  1.0415  0.3041
 6304SOL     OW30547   0.537   0.018   2.525  0.2727  0.6171  0.0471
 6304SOL    HW130548   0.492   0.033   2.442  0.3806  0.5770 -0.0170
 6304SOL    HW230549   0.555   0.108   2.553  0.7583  0.0138  1.6553
 6305SOL     OW30550   0.490   1.707   6.927 -1.0113 -0.0700 -0.3811
 6305SOL    HW130551   0.557   1.671   6.986 -0.3667  0.0054 -1.0774
 6305SOL    HW230552   0.476   1.796   6.960  0.2367 -0.1289  0.3153
 6306SOL     OW30553   2.522   0.182   5.417  0.0323  0.0165 -0.8183
 6306SOL    HW130554   2.483   0.248   5.359  0.1708  1.7669  1.0917
 6306SOL    HW230555   2.599   0.179   5.361 -0.4390 -0.1872 -1.4644
 6307SOL     OW30556   2.931   3.887   8.463  0.4128  0.6830  0.1228
 6307SOL    HW130557   2.995   3.816   8.461  0.6597  0.9104 -0.1971
 6307SOL    HW230558   2.959   3.933   8.383  0.1873 -0.6985 -0.7486
 6308SOL     OW30559   1.459   2.328   8.491  0.0444  0.7376  0.3633
 6308SOL    HW130560   1.522   2.378   8.441 -1.5198  0.9295 -1.4132
 6308SOL    HW230561   1.487   2.355   8.578 -0.3238 -2.3822  1.4672
 6309SOL     OW30562   3.525   0.936   9.131  0.0241 -0.1732 -0.0668
 6309SOL    HW130563   3.606   0.949   9.180 -0.3473  1.0150  0.2281
 6309SOL    HW230564   3.466   0.988   9.184 -1.6572 -4.3176  2.1694
 6310SOL     OW30565   2.485   0.497  11.571  0.0570 -0.4999 -0.0138
 6310SOL    HW130566   2.407   0.508  11.518  0.5820  1.1252 -0.4502
 6310SOL    HW230567   2.443   0.471  11.653 -0.9903  0.8953 -0.1202
 6311SOL     OW30568   1.257   0.212  17.150 -0.2802 -0.4841  0.4496
 6311SOL    HW130569   1.172   0.227  17.191  0.9354  0.2464  2.6940
 6311SOL    HW230570   1.311   0.236  17.224 -0.1057 -2.5532  0.9918
 6312SOL     OW30571   0.965   0.229  16.650 -0.3228 -0.7548 -0.1977
 6312SOL    HW130572   0.962   0.134  16.657  0.5807 -0.6414  1.6710
 6312SOL    HW230573   1.019   0.246  16.573  0.8127 -0.3120  0.6978
 6313SOL     OW30574   2.959   1.676  12.787 -0.3188  0.6718 -0.4718
 6313SOL    HW130575   3.050   1.676  12.758  0.2025 -1.0595  1.1802
 6313SOL    HW230576   2.954   1.588  12.825  1.9655 -0.1705 -2.1671
 6314SOL     OW30577   1.747   4.715   4.843 -0.1840 -0.2908 -0.3959
 6314SOL    HW130578   1.724   0.009   4.931 -2.2401  2.0833 -1.7093
 6314SOL    HW230579   1.675   4.660   4.813 -1.5915  0.7462  1.0998
 6315SOL     OW30580   2.616   2.748   4.512  0.3939 -0.2675  0.1268
 6315SOL    HW130581   2.705   2.713   4.507  1.2333  1.4528  3.2819
 6315SOL    HW230582   2.597   2.744   4.606 -2.5184 -2.6728 -0.5854
 6316SOL     OW30583   4.515   0.198  14.188 -0.4457  0.0532 -0.1175
 6316SOL    HW130584   4.547   0.109  14.192  0.8692  0.5668  0.5668
 6316SOL    HW230585   4.426   0.183  14.220 -0.0749 -1.1045  0.3296
 6317SOL     OW30586   0.901   4.442   8.174 -0.0576 -0.0645  0.5004
 6317SOL    HW130587   0.904   4.424   8.081  1.6726 -1.4274  0.8123
 6317SOL    HW230588   0.931   4.533   8.169  0.8877 -0.4064  0.1092
 6318SOL     OW30589   2.813   1.274  17.620  0.4657  0.0658  0.9054
 6318SOL    HW130590   2.782   1.353  17.665  3.7166  2.1827 -0.5461
 6318SOL    HW230591   2.752   1.270  17.547 -2.0386 -1.5072  3.0617
 6319SOL     OW30592   3.423   0.689   9.235  0.3010 -0.5139  0.6160
 6319SOL    HW130593   3.439   0.783   9.225 -1.9148 -0.3136 -0.8656
 6319SOL    HW230594   3.375   0.693   9.317 -1.1133 -2.2189 -0.1393
 6320SOL     OW30595   3.269   4.400   8.490  0.1397 -0.5690  0.0012
 6320SOL    HW130596   3.201   4.344   8.528 -0.2340 -1.0451 -1.3830
 6320SOL    HW230597   3.279   4.351   8.409  1.7904 -0.3674  0.0781
 6321SOL     OW30598   3.039   4.233  12.170 -0.2215  0.1895 -0.4013
 6321SOL    HW130599   3.051   4.273  12.256 -1.2287  0.2363 -0.2799
 6321SOL    HW230600   3.021   4.316  12.124 -0.5856  0.7353  0.7280
 6322SOL     OW30601   2.713   1.515   6.809  0.9470  0.1355 -0.1079
 6322SOL    HW130602   2.713   1.503   6.904 -0.1878  0.2137 -0.0955
 6322SOL    HW230603   2.636   1.567   6.788 -0.0478 -1.6879 -1.0021
 6323SOL     OW30604   0.079   1.826   7.940 -0.5854  0.9390  0.0529
 6323SOL    HW130605   0.006   1.875   7.901 -1.6157  0.2938  1.1733
 6323SOL    HW230606   0.052   1.743   7.979 -2.2348  2.1440  1.5042
 6324SOL     OW30607   0.101   2.842   3.122  0.2340  0.4801  0.0245
 6324SOL    HW130608   0.132   2.839   3.213  1.7130  1.3654 -0.4495
 6324SOL    HW230609   0.173   2.879   3.071  0.3052 -0.7692 -0.7873
 6325SOL     OW30610   2.085   0.177  11.483 -0.3199 -0.7249  0.3412
 6325SOL    HW130611   2.037   0.144  11.408  1.0850  0.8442 -1.2475
 6325SOL    HW230612   2.025   0.148  11.551 -1.0521  0.7761  0.3513
 6326SOL     OW30613   1.274   3.624  11.660  0.1934 -0.0722  0.0116
 6326SOL    HW130614   1.359   3.597  11.626 -0.3377 -1.3412 -0.3035
 6326SOL    HW230615   1.239   3.535  11.664  0.5177 -0.3145 -2.4230
 6327SOL     OW30616   0.904   3.367   9.114  0.2015  0.0985 -0.4881
 6327SOL    HW130617   0.893   3.323   9.198 -0.9306  3.1566  0.9444
 6327SOL    HW230618   0.920   3.300   9.048  0.4662  0.2389 -0.5673
 6328SOL     OW30619   0.282   0.182   4.425 -0.2384 -0.2640  0.3653
 6328SOL    HW130620   0.289   0.108   4.485  0.7804  0.4399  1.1014
 6328SOL    HW230621   0.291   0.141   4.339 -2.7918 -2.4465  1.1148
 6329SOL     OW30622   4.358   3.903  12.987 -0.3645 -0.4897 -0.0230
 6329SOL    HW130623   4.326   3.882  12.899  0.1802  1.4404 -0.6924
 6329SOL    HW230624   4.387   3.994  12.984  2.0000 -1.2729 -0.9381
 6330SOL     OW30625   0.513   0.623   5.732 -0.0613  0.0462  0.2406
 6330SOL    HW130626   0.436   0.577   5.764 -0.5645 -0.9714 -2.4141
 6330SOL    HW230627   0.564   0.603   5.810 -0.1987 -0.5363  0.1813
 6331SOL     OW30628   3.179   0.168   7.143  0.2552  0.0635  0.0190
 6331SOL    HW130629   3.242   0.205   7.082  0.4563  1.1802  0.9070
 6331SOL    HW230630   3.114   0.238   7.144  1.3669  1.0864 -0.1212
 6332SOL     OW30631   2.163   1.595   3.336 -0.2367 -0.5266  0.4597
 6332SOL    HW130632   2.149   1.595   3.431 -4.2604  0.2447 -0.1244
 6332SOL    HW230633   2.089   1.653   3.319 -1.3908 -2.3798 -0.8473
 6333SOL     OW30634   2.365   1.236  15.107 -0.1003 -0.4114 -0.7375
 6333SOL    HW130635   2.356   1.179  15.031  0.6321 -2.5346  0.7680
 6333SOL    HW230636   2.449   1.205  15.141  0.2669  2.0126  0.5532
 6334SOL     OW30637   3.366   4.318   1.964  0.6678 -0.0896 -0.5056
 6334SOL    HW130638   3.433   4.263   1.922  0.6806 -0.9910  0.6798
 6334SOL    HW230639   3.329   4.347   1.881  0.5202 -1.0926 -0.7955
 6335SOL     OW30640   2.586   0.966   7.508  0.3824 -0.5803  0.2318
 6335SOL    HW130641   2.551   0.880   7.533  0.9399 -0.6531  0.7500
 6335SOL    HW230642   2.678   0.948   7.489  1.1478  1.3152  2.1143
 6336SOL     OW30643   4.043   4.509   7.547 -0.2529  0.2112 -0.5334
 6336SOL    HW130644   4.120   4.558   7.576 -0.1549  0.7243 -1.7013
 6336SOL    HW230645   4.057   4.534   7.456  1.3598 -1.3055 -0.7110
 6337SOL     OW30646   4.032   3.252   8.285 -0.4214  0.9698  0.2040
 6337SOL    HW130647   4.061   3.163   8.304  2.3395  2.0275  0.8750
 6337SOL    HW230648   3.986   3.279   8.364 -0.8986 -0.6811  0.4952
 6338SOL     OW30649   0.570   3.929   7.254  0.9188 -0.4179  0.7136
 6338SOL    HW130650   0.504   3.903   7.191 -0.2189  3.4491  0.3187
 6338SOL    HW230651   0.559   3.863   7.323  1.7547 -2.4356 -1.0872
 6339SOL     OW30652   2.493   2.547   2.038  0.3390 -0.0706  0.4600
 6339SOL    HW130653   2.564   2.492   2.006  1.3126  0.7905  1.1253
 6339SOL    HW230654   2.480   2.506   2.123  2.1924 -1.5579  0.0104
 6340SOL     OW30655   1.896   1.026  11.963  0.2024  0.1316  0.0213
 6340SOL    HW130656   1.974   1.066  12.002  1.5066 -0.9494 -1.4680
 6340SOL    HW230657   1.898   0.939  12.001  0.0110  0.8404  1.6333
 6341SOL     OW30658   2.313   2.969   3.299  0.5451 -0.0197  1.0792
 6341SOL    HW130659   2.363   2.921   3.233 -2.3092  0.0605 -1.1232
 6341SOL    HW230660   2.219   2.966   3.286  0.6451 -2.2579  0.8467
 6342SOL     OW30661   2.767   1.851   2.512  0.0980  0.7307 -0.6696
 6342SOL    HW130662   2.751   1.909   2.586  2.5221  1.4719 -0.7061
 6342SOL    HW230663   2.848   1.893   2.480 -0.4513  0.6011 -2.2533
 6343SOL     OW30664   1.840   3.368   5.976  0.2472  0.0885  0.0462
 6343SOL    HW130665   1.811   3.454   5.945  1.2272 -0.2443 -1.7877
 6343SOL    HW230666   1.883   3.331   5.899 -1.6712 -0.3161 -0.8430
 6344SOL     OW30667   1.455   4.420   8.558  0.3665  0.3270  0.6413
 6344SOL    HW130668   1.484   4.356   8.623  1.0300 -1.9401 -1.8935
 6344SOL    HW230669   1.528   4.404   8.497 -0.3849  1.2851 -0.5090
 6345SOL     OW30670   2.865   2.551  11.310 -0.4528 -0.6719 -0.1974
 6345SOL    HW130671   2.920   2.583  11.240  0.2212 -0.3720  0.4665
 6345SOL    HW230672   2.860   2.456  11.301 -1.9383 -1.0134  4.0346
 6346SOL     OW30673   1.447   1.761  16.030  0.4450 -0.1801 -0.2368
 6346SOL    HW130674   1.484   1.678  16.000 -1.9698 -1.8210  1.3930
 6346SOL    HW230675   1.402   1.791  15.951  1.8839 -1.1771 -1.4390
 6347SOL     OW30676   4.103   1.720   9.474  0.2115 -0.4454 -0.3492
 6347SOL    HW130677   4.175   1.753   9.420 -0.8092  0.9175 -0.8850
 6347SOL    HW230678   4.050   1.794   9.504 -0.0978 -0.2936 -1.2680
 6348SOL     OW30679   3.758   1.358   1.893  0.0135 -0.4239  0.0117
 6348SOL    HW130680   3.809   1.365   1.812  0.3661  2.6916  0.4679
 6348SOL    HW230681   3.765   1.263   1.901  0.7024 -0.5001 -1.4624
 6349SOL     OW30682   4.455   2.348  14.455 -0.0202  0.1447 -0.2103
 6349SOL    HW130683   4.401   2.270  14.451  2.6977 -1.6068 -3.4043
 6349SOL    HW230684   4.440   2.391  14.371 -0.6411  0.5899  0.1317
 6350SOL     OW30685   0.120   2.506   1.207  0.4042  0.3512 -0.4697
 6350SOL    HW130686   0.203   2.483   1.249 -0.1745 -2.4234 -0.8668
 6350SOL    HW230687   0.156   2.570   1.145  0.3418  1.3401  0.5247
 6351SOL     OW30688   0.581   2.954   5.527 -0.0389 -0.0399  0.2485
 6351SOL    HW130689   0.606   2.910   5.446  0.7626  0.2553  0.3341
 6351SOL    HW230690   0.639   2.910   5.589 -0.0888  2.4443  2.0747
 6352SOL     OW30691   0.849   4.622   3.554 -0.3787  0.5373 -0.1241
 6352SOL    HW130692   0.930   4.571   3.558  0.6118  2.2698  1.9123
 6352SOL    HW230693   0.818   4.608   3.644 -0.3933 -4.2358 -0.8591
 6353SOL     OW30694   3.872   3.588   8.917  0.9020 -0.0945  0.5897
 6353SOL    HW130695   3.958   3.594   8.959  0.6115  1.0263  1.0253
 6353SOL    HW230696   3.900   3.626   8.834 -0.7452  1.1343  0.6053
 6354SOL     OW30697   1.208   1.707   6.073  0.4289  0.5443 -0.2582
 6354SOL    HW130698   1.134   1.767   6.068 -0.3549 -0.2103  2.0424
 6354SOL    HW230699   1.272   1.775   6.052 -0.6471  0.8249 -2.6199
 6355SOL     OW30700   4.283   0.301   8.803  0.3107 -0.3424  0.2624
 6355SOL    HW130701   4.275   0.212   8.837 -3.5156  0.0016  0.2653
 6355SOL    HW230702   4.375   0.313   8.776  0.4456 -0.7743  0.5368
 6356SOL     OW30703   2.517   1.264   3.407 -0.3665  0.1771 -0.1471
 6356SOL    HW130704   2.457   1.194   3.383 -0.5912  0.2101  0.3137
 6356SOL    HW230705   2.545   1.302   3.323  3.4557 -3.3037 -0.4708
 6357SOL     OW30706   1.758   2.607   3.619 -0.3692  0.3582 -0.3436
 6357SOL    HW130707   1.752   2.673   3.550 -1.8629 -0.9748 -1.4912
 6357SOL    HW230708   1.758   2.529   3.563  0.4541 -0.1366  0.3341
 6358SOL     OW30709   1.635   3.323   3.194 -0.1890 -0.0523 -0.9104
 6358SOL    HW130710   1.703   3.380   3.159 -0.6966  1.7830  1.0871
 6358SOL    HW230711   1.554   3.354   3.154  0.0528 -1.5384 -2.5147
 6359SOL     OW30712   0.243   1.516   1.130  0.1729 -0.3780  0.1488
 6359SOL    HW130713   0.223   1.425   1.110 -2.1400 -0.2100  1.8213
 6359SOL    HW230714   0.326   1.525   1.082  1.4420 -0.5495  2.3064
 6360SOL     OW30715   2.196   4.059  12.467  0.4853  0.0134 -0.2476
 6360SOL    HW130716   2.142   3.987  12.434 -1.1447  0.4391  1.4512
 6360SOL    HW230717   2.266   4.012  12.513 -0.4050 -0.5072  0.5780
 6361SOL     OW30718   2.218   3.664   6.538  0.1026 -0.3508  0.1841
 6361SOL    HW130719   2.270   3.744   6.553  1.2710 -1.0768  0.0051
 6361SOL    HW230720   2.288   3.599   6.548  1.3401  0.6579 -1.7142
 6362SOL     OW30721   4.306   1.772   9.273  0.4270  0.0689 -0.0921
 6362SOL    HW130722   4.381   1.814   9.230 -0.0712  1.0697  0.0387
 6362SOL    HW230723   4.327   1.687   9.233  0.2858  0.8339 -1.8025
 6363SOL     OW30724   1.233   4.440   3.316  0.1797 -0.3500 -0.6786
 6363SOL    HW130725   1.324   4.438   3.346  0.1611 -0.5669 -0.6340
 6363SOL    HW230726   1.233   4.398   3.230  0.6846 -0.9793 -0.3679
 6364SOL     OW30727   1.106   1.976   6.071  0.3148  0.5623 -0.5191
 6364SOL    HW130728   1.087   2.069   6.062  0.6505  0.4111 -3.0286
 6364SOL    HW230729   1.191   1.989   6.111  0.3643  0.0631 -0.4624
 6365SOL     OW30730   3.983   4.687   2.506 -0.9702  0.0300 -0.2788
 6365SOL    HW130731   3.995   4.620   2.573 -0.9580  1.6347  1.3384
 6365SOL    HW230732   3.915   0.012   2.534  0.5992  2.0673 -0.8214
 6366SOL     OW30733   0.815   1.167   8.527 -0.0556 -0.4191  0.4475
 6366SOL    HW130734   0.876   1.095   8.506  1.0839 -0.2726  3.2644
 6366SOL    HW230735   0.768   1.167   8.444  0.4513 -0.4549  0.1553
 6367SOL     OW30736   4.507   0.952   5.441  0.1965  0.5510  0.3324
 6367SOL    HW130737   4.472   0.907   5.364  1.0868 -1.8600  1.3599
 6367SOL    HW230738   4.431   1.001   5.472 -0.3387 -0.1530  0.1472
 6368SOL     OW30739   4.111   1.328   3.367  0.5773 -0.1200 -0.4222
 6368SOL    HW130740   4.072   1.257   3.417 -0.3538 -0.4761 -1.6644
 6368SOL    HW230741   4.079   1.408   3.410  1.8839 -0.6557  1.5828
 6369SOL     OW30742   3.795   0.365   4.392  1.0450  0.0665 -0.2841
 6369SOL    HW130743   3.845   0.412   4.326 -2.3380  4.0638  0.0058
 6369SOL    HW230744   3.755   0.437   4.440  2.2538 -0.5731  1.6864
 6370SOL     OW30745   3.202   3.424   2.661 -0.0758 -0.6354  0.3600
 6370SOL    HW130746   3.284   3.421   2.711 -1.0844  0.2400  2.0731
 6370SOL    HW230747   3.165   3.505   2.696  0.0945 -0.9138  1.1912
 6371SOL     OW30748   2.716   4.348   4.476  0.9006  0.3977  0.4610
 6371SOL    HW130749   2.738   4.407   4.549 -0.1736 -1.9757  2.7143
 6371SOL    HW230750   2.622   4.333   4.480  0.8440  0.6484  0.0546
 6372SOL     OW30751   2.562   4.167   8.003 -0.2071  0.0899  0.1345
 6372SOL    HW130752   2.493   4.187   8.067  1.9680  0.4165  2.3804
 6372SOL    HW230753   2.551   4.078   7.972  0.0324  0.0339  0.2117
 6373SOL     OW30754   4.485   0.345   8.642  0.1493 -0.4488  0.1758
 6373SOL    HW130755   4.538   0.376   8.715 -0.8681 -1.0400  1.1639
 6373SOL    HW230756   4.537   0.381   8.570  0.0340  1.0919  0.8692
 6374SOL     OW30757   4.431   0.493   6.147 -0.1488  0.1130 -0.3734
 6374SOL    HW130758   4.429   0.423   6.081  1.5495  0.8956 -1.2598
 6374SOL    HW230759   4.367   0.554   6.112  0.0409  0.1536 -0.6531
 6375SOL     OW30760   2.330   2.699  10.695 -0.2407  0.0294 -0.1067
 6375SOL    HW130761   2.341   2.623  10.752 -0.9794  0.0323  0.0420
 6375SOL    HW230762   2.242   2.719  10.727 -0.0522 -0.3462  0.6530
 6376SOL     OW30763   2.553   1.969   0.258  0.3824 -0.0314 -0.1193
 6376SOL    HW130764   2.544   1.902   0.326 -0.0295 -1.9193 -2.0336
 6376SOL    HW230765   2.640   1.964   0.218  0.2563  2.9295 -0.7248
 6377SOL     OW30766   2.224   2.974  17.247 -0.2226  0.2767  0.7661
 6377SOL    HW130767   2.283   2.905  17.276 -0.8192 -0.7455 -0.4778
 6377SOL    HW230768   2.139   2.937  17.271  0.4930 -1.1167  1.1287
 6378SOL     OW30769   2.068   1.917   6.131 -0.2090 -0.2197 -0.3851
 6378SOL    HW130770   2.035   1.942   6.045  0.6209 -0.2521 -0.7084
 6378SOL    HW230771   2.046   1.824   6.139 -0.5026 -0.2339 -1.3291
 6379SOL     OW30772   1.429   1.909   3.600  0.0705 -0.4931 -0.4190
 6379SOL    HW130773   1.491   1.880   3.668 -0.5033 -0.3873  0.1504
 6379SOL    HW230774   1.476   1.884   3.521  1.1281 -3.2428  1.0425
 6380SOL     OW30775   2.235   1.126   9.681 -0.1917 -0.2957  0.0792
 6380SOL    HW130776   2.312   1.135   9.738  0.5734  0.7280 -1.1274
 6380SOL    HW230777   2.207   1.035   9.694  0.1958 -0.3916  0.2728
 6381SOL     OW30778   4.636   3.386  10.913  0.0044  0.4303 -0.3414
 6381SOL    HW130779   4.698   3.457  10.894 -1.3736  0.3638 -5.0833
 6381SOL    HW230780   4.696   3.317  10.942  0.9642  1.9634  1.3751
 6382SOL     OW30781   4.636   2.948   4.335  0.1409  0.5177  0.2385
 6382SOL    HW130782   4.566   2.941   4.270 -1.0191 -2.2967  1.8339
 6382SOL    HW230783   4.660   2.856   4.346  3.0229  1.4178  1.4823
 6383SOL     OW30784   2.632   2.125   8.839  0.6096  0.2718 -0.0917
 6383SOL    HW130785   2.652   2.037   8.871  0.0943  0.7470  1.5378
 6383SOL    HW230786   2.715   2.140   8.792  1.3994 -0.2553  1.1265
 6384SOL     OW30787   4.560   0.766  14.902 -0.0360  0.2721 -0.4699
 6384SOL    HW130788   4.592   0.769  14.992  1.3158 -1.3245 -0.8949
 6384SOL    HW230789   4.614   0.689  14.881 -0.6238 -0.0802 -0.6693
 6385SOL     OW30790   4.442   4.508   6.384  0.1034  0.4675 -0.3633
 6385SOL    HW130791   4.386   4.475   6.454  0.6860 -1.3187 -0.7491
 6385SOL    HW230792   4.403   4.593   6.365 -0.1733  0.9624  2.4836
 6386SOL     OW30793   3.525   0.408   6.519  0.0198 -0.1190 -0.3659
 6386SOL    HW130794   3.590   0.349   6.557  0.8967  1.3417  0.3932
 6386SOL    HW230795   3.575   0.459   6.456  1.7214 -0.2001  0.9299
 6387SOL     OW30796   2.870   2.770   6.639  0.3565  0.0496  0.4844
 6387SOL    HW130797   2.865   2.684   6.681 -0.9178 -0.6661 -1.1599
 6387SOL    HW230798   2.850   2.753   6.547 -0.6403  0.9295  0.5395
 6388SOL     OW30799   1.510   2.055   4.091  0.3480  0.5532  0.0528
 6388SOL    HW130800   1.437   2.005   4.130  0.7155 -0.1527 -0.1593
 6388SOL    HW230801   1.582   1.994   4.109  0.5209  0.5323 -0.7227
 6389SOL     OW30802   4.073   1.893  15.223 -0.0603  0.1607 -0.2404
 6389SOL    HW130803   4.036   1.805  15.227  0.0372  0.2005  1.7068
 6389SOL    HW230804   4.100   1.904  15.315  1.5354 -1.6461 -0.4924
 6390SOL     OW30805   0.271   4.568   1.791 -0.1944  0.1114  0.5523
 6390SOL    HW130806   0.270   4.580   1.696 -0.5769  1.4389  0.7259
 6390SOL    HW230807   0.239   4.479   1.805 -2.6758  0.9888  0.5024
 6391SOL     OW30808   0.993   2.192  15.724  0.1059  0.2835  0.2793
 6391SOL    HW130809   0.991   2.262  15.658  0.2738 -1.8624 -2.0120
 6391SOL    HW230810   0.997   2.242  15.805 -1.3093 -1.1649  1.2375
 6392SOL     OW30811   2.982   2.585  10.231 -0.3605  0.2719 -0.5176
 6392SOL    HW130812   3.028   2.506  10.203 -1.1664  0.2496 -1.7839
 6392SOL    HW230813   2.986   2.642  10.153  0.0387  0.3585 -0.4337
 6393SOL     OW30814   4.342   0.347  16.246  0.4303 -0.6381 -0.1621
 6393SOL    HW130815   4.297   0.392  16.318  2.1091  0.3008  0.3075
 6393SOL    HW230816   4.285   0.271  16.235 -1.0823  0.1897  1.7983
 6394SOL     OW30817   4.568   2.157   1.272  0.9205 -0.4663  0.4301
 6394SOL    HW130818   4.602   2.183   1.358  1.2977 -0.6560  0.3343
 6394SOL    HW230819   4.582   2.224   1.205 -0.0019 -0.0457  0.6444
 6395SOL     OW30820   1.617   1.635   9.978 -0.4304 -0.0608 -0.2837
 6395SOL    HW130821   1.705   1.640  10.016  0.7178 -0.8482 -2.8061
 6395SOL    HW230822   1.612   1.707   9.915  2.3617  0.3440 -0.0400
 6396SOL     OW30823   1.929   3.929   4.931 -1.0510 -0.2926  0.6571
 6396SOL    HW130824   1.927   3.963   5.021  0.9694 -1.5786  1.1890
 6396SOL    HW230825   1.900   4.000   4.874  0.2867  0.6283  1.1004
 6397SOL     OW30826   2.535   2.858   6.453  0.1704 -0.2640  0.1585
 6397SOL    HW130827   2.519   2.879   6.545 -1.7484 -1.5161  0.0927
 6397SOL    HW230828   2.496   2.772   6.444  2.0425 -0.8421 -2.4612
 6398SOL     OW30829   1.811   3.032   2.306 -0.1518 -0.2979  0.5912
 6398SOL    HW130830   1.768   3.099   2.253 -2.9392 -1.4809  1.4181
 6398SOL    HW230831   1.896   3.076   2.320  0.2030 -0.5095 -0.8878
 6399SOL     OW30832   0.612   0.138   8.286  0.0920  0.1711 -0.3118
 6399SOL    HW130833   0.702   0.168   8.269  1.0090 -2.3058  0.2347
 6399SOL    HW230834   0.628   0.112   8.376 -3.2013 -1.9004 -0.3459
 6400SOL     OW30835   1.090   4.120   6.407  0.0322 -0.0829  0.1767
 6400SOL    HW130836   1.120   4.141   6.319  0.3380  0.6226  0.4500
 6400SOL    HW230837   1.016   4.062   6.392 -0.4181  0.1502  1.4508
 6401SOL     OW30838   4.178   3.868   9.091  0.2198  0.1265  0.6297
 6401SOL    HW130839   4.245   3.886   9.024 -0.3444 -0.3978 -0.0739
 6401SOL    HW230840   4.207   3.915   9.170 -0.5170  1.5965  0.0315
 6402SOL     OW30841   1.842   2.930   1.212  0.2057 -0.2615  0.6143
 6402SOL    HW130842   1.917   2.910   1.268 -0.3980 -0.8949  1.1962
 6402SOL    HW230843   1.776   2.901   1.275  0.2610  0.9929  1.2391
 6403SOL     OW30844   1.206   3.928   3.293  0.1989  0.1310 -0.6093
 6403SOL    HW130845   1.245   3.868   3.356  1.1119  1.1998 -0.1521
 6403SOL    HW230846   1.200   3.862   3.223 -1.3129  0.2178 -0.5634
 6404SOL     OW30847   2.073   4.123   4.668 -0.3050 -0.3050  0.1015
 6404SOL    HW130848   2.063   4.044   4.720 -0.6331  1.2777  2.4421
 6404SOL    HW230849   1.983   4.153   4.657 -0.0938  0.5214  0.6395
 6405SOL     OW30850   1.568   0.441   3.585 -0.0687  0.1496 -0.2050
 6405SOL    HW130851   1.537   0.466   3.498  0.1938 -0.5617 -0.4994
 6405SOL    HW230852   1.523   0.356   3.586  1.3704 -0.6170 -1.1398
 6406SOL     OW30853   4.135   1.875  16.538 -0.6565  0.2157 -0.1975
 6406SOL    HW130854   4.049   1.911  16.516 -0.9955 -0.9688 -0.7681
 6406SOL    HW230855   4.172   1.884  16.450  1.7253  0.5635  0.8349
 6407SOL     OW30856   4.647   1.944  13.728  0.1207  0.0491 -0.5240
 6407SOL    HW130857   4.623   1.852  13.741  0.1992  0.2732  1.2374
 6407SOL    HW230858   0.005   1.948  13.748 -0.0464 -1.6712  0.5903
 6408SOL     OW30859   4.032   1.930  11.031 -0.0310 -0.2245  0.2147
 6408SOL    HW130860   4.037   1.855  10.971 -1.6587 -1.3144  1.4562
 6408SOL    HW230861   3.939   1.915  11.049  0.2563 -1.5207  0.6206
 6409SOL     OW30862   4.692   1.995   7.523 -0.4031 -0.3147  0.1581
 6409SOL    HW130863   4.730   2.061   7.465 -3.0840  0.4909 -0.6929
 6409SOL    HW230864   4.649   1.939   7.458  1.4727 -0.8015 -0.6799
 6410SOL     OW30865   4.188   3.370  11.171 -0.0894  0.2351  0.2860
 6410SOL    HW130866   4.278   3.389  11.145 -1.1535  1.4288 -2.5028
 6410SOL    HW230867   4.203   3.366  11.266 -1.0913 -1.6439  0.3584
 6411SOL     OW30868   1.756   1.898   4.670  0.0841  0.3962  0.8111
 6411SOL    HW130869   1.718   1.980   4.700 -0.7075 -0.7401  2.8971
 6411SOL    HW230870   1.689   1.839   4.705 -1.0816 -0.1886 -2.3073
 6412SOL     OW30871   3.362   2.418   3.413 -0.0043 -0.2120 -0.5070
 6412SOL    HW130872   3.449   2.452   3.435  0.1574 -0.0868 -1.3173
 6412SOL    HW230873   3.375   2.411   3.318  0.0528  1.9503 -0.6555
 6413SOL     OW30874   2.032   2.984   6.786  0.2601  0.5094  0.1183
 6413SOL    HW130875   1.983   3.040   6.726  1.3484 -0.6406 -1.8515
 6413SOL    HW230876   1.962   2.944   6.838 -0.2224  1.1377 -0.0537
 6414SOL     OW30877   0.381   4.104   9.340  0.1978  0.3746  0.4791
 6414SOL    HW130878   0.353   4.013   9.331 -1.1446  0.8731 -0.5232
 6414SOL    HW230879   0.469   4.099   9.303  0.6457  1.3661  1.4026
 6415SOL     OW30880   2.677   0.307  17.016  0.0154  0.0775  0.2947
 6415SOL    HW130881   2.746   0.365  17.049  1.3054 -4.0468  4.8666
 6415SOL    HW230882   2.632   0.369  16.959 -0.0726 -0.1609  0.1087
 6416SOL     OW30883   4.228   3.389   0.258 -0.5721  0.0426 -0.1144
 6416SOL    HW130884   4.238   3.436   0.176 -1.3014 -1.0429 -0.8168
 6416SOL    HW230885   4.188   3.310   0.223 -0.7331  0.3271 -0.5687
 6417SOL     OW30886   0.627   1.183   5.284  1.2039  0.3932 -0.0650
 6417SOL    HW130887   0.595   1.118   5.222  1.4627 -1.3881  1.6542
 6417SOL    HW230888   0.683   1.131   5.342  0.9888 -0.7125 -0.8687
 6418SOL     OW30889   0.302   0.290   3.484 -0.0723  0.4316 -0.3506
 6418SOL    HW130890   0.236   0.338   3.435 -0.2421 -0.8511 -1.3813
 6418SOL    HW230891   0.262   0.208   3.513  0.7818  1.9592  5.1912
 6419SOL     OW30892   3.701   2.680   6.336 -0.0716 -0.4834 -0.2117
 6419SOL    HW130893   3.683   2.725   6.253  1.4276  0.9191  0.2243
 6419SOL    HW230894   3.663   2.592   6.332  1.9175 -1.1927 -3.4312
 6420SOL     OW30895   4.205   0.637  10.728  0.6100  0.2173 -0.7382
 6420SOL    HW130896   4.166   0.661  10.812 -1.1550 -0.0388 -1.4743
 6420SOL    HW230897   4.298   0.634  10.749 -0.1374 -1.0099  2.3819
 6421SOL     OW30898   4.366   2.805  17.226 -0.1822 -0.1857 -0.9659
 6421SOL    HW130899   4.416   2.730  17.192  1.6897  0.3122  0.6446
 6421SOL    HW230900   4.362   2.874  17.160  0.1303  0.7152 -0.0360
 6422SOL     OW30901   2.060   0.038   8.329 -0.5329 -0.2487 -0.7272
 6422SOL    HW130902   2.153   0.047   8.309 -0.1768  0.5612  1.3251
 6422SOL    HW230903   2.042   4.679   8.328 -0.2397 -0.3151  1.7691
 6423SOL     OW30904   1.484   2.617   8.094  0.8867 -0.1357 -0.2361
 6423SOL    HW130905   1.498   2.692   8.037  2.1862  0.1810  0.5069
 6423SOL    HW230906   1.570   2.576   8.102 -0.2569 -2.7148 -0.8614
 6424SOL     OW30907   3.310   4.163   4.452 -0.0047  0.1726 -0.1196
 6424SOL    HW130908   3.369   4.188   4.524  0.0032  0.9865 -0.4057
 6424SOL    HW230909   3.347   4.083   4.415  0.4822  0.2616  0.1762
 6425SOL     OW30910   0.193   0.465   6.899 -0.1751 -0.3973  0.2592
 6425SOL    HW130911   0.099   0.449   6.893 -0.2589  0.1059  0.2384
 6425SOL    HW230912   0.201   0.560   6.906 -3.2179 -0.0125 -1.3987
 6426SOL     OW30913   1.040   3.448   0.612 -0.0509 -0.3940 -0.1106
 6426SOL    HW130914   1.020   3.534   0.648  1.3270  0.3065 -1.0254
 6426SOL    HW230915   0.953   3.429   0.576 -0.5582  0.1841  0.8091
 6427SOL     OW30916   3.530   0.944   5.417  0.1635  0.0520 -0.1096
 6427SOL    HW130917   3.516   0.849   5.419  1.8620 -0.2357 -2.6374
 6427SOL    HW230918   3.564   0.971   5.332  0.7442  2.4058  0.8966
 6428SOL     OW30919   0.583   0.197   5.638 -0.7953 -0.5349 -0.2920
 6428SOL    HW130920   0.633   0.124   5.602 -0.7137 -1.9015  2.5439
 6428SOL    HW230921   0.517   0.155   5.693  0.4463 -0.7708  1.0165
 6429SOL     OW30922   3.322   4.695   1.907  0.0766  0.3062 -0.4300
 6429SOL    HW130923   3.324   4.627   1.840  1.0887 -0.3302  0.2536
 6429SOL    HW230924   3.227   4.708   1.906 -0.2045 -1.8558 -0.3227
 6430SOL     OW30925   3.938   3.458   5.341 -0.2073 -0.0538 -0.1934
 6430SOL    HW130926   3.936   3.390   5.409  1.1797  0.7182  0.6096
 6430SOL    HW230927   3.891   3.425   5.265  0.3680 -0.0975 -0.5261
 6431SOL     OW30928   2.249   1.337   6.280 -0.2111 -0.4312  0.2317
 6431SOL    HW130929   2.177   1.286   6.243 -0.7155  0.7729 -0.4325
 6431SOL    HW230930   2.247   1.315   6.373 -0.1048 -0.6109  0.1914
 6432SOL     OW30931   4.053   2.203  15.114  0.1304 -0.0010  0.5824
 6432SOL    HW130932   4.144   2.189  15.141  0.6912  1.8923 -0.3780
 6432SOL    HW230933   4.008   2.130  15.158  0.8842 -0.7199  0.1614
 6433SOL     OW30934   1.597   2.549  15.930 -0.2943  0.1307 -0.1379
 6433SOL    HW130935   1.558   2.477  15.880  0.9830 -1.1231  0.6522
 6433SOL    HW230936   1.523   2.602  15.958 -1.8069 -0.3488 -3.2270
 6434SOL     OW30937   4.270   0.626   7.367 -0.3826  0.2788  0.2125
 6434SOL    HW130938   4.221   0.698   7.326  1.9102  0.4756 -2.2002
 6434SOL    HW230939   4.312   0.591   7.288  0.2244  0.0415  0.6394
 6435SOL     OW30940   4.093   1.893   2.327  0.5399 -0.4808  0.0190
 6435SOL    HW130941   4.112   1.861   2.415  0.3802 -0.1302  0.1806
 6435SOL    HW230942   4.088   1.811   2.278 -2.6816 -1.8382  2.6562
 6436SOL     OW30943   3.221   1.390   2.267 -0.3238 -0.5094  0.1318
 6436SOL    HW130944   3.180   1.417   2.185 -4.9455  2.9583  3.5992
 6436SOL    HW230945   3.205   1.466   2.323  0.5867 -0.5724  0.4757
 6437SOL     OW30946   4.733   0.407  17.586  0.1528 -0.0447  0.1377
 6437SOL    HW130947   0.065   0.339  17.577 -0.8228 -1.0630  0.5183
 6437SOL    HW230948   4.684   0.396  17.505 -0.6924  1.6738  0.4254
 6438SOL     OW30949   4.533   3.182   3.769 -0.2019 -1.0576  0.2842
 6438SOL    HW130950   4.483   3.257   3.735  1.4171 -1.0055 -1.9418
 6438SOL    HW230951   4.608   3.195   3.712 -1.5156  0.7376 -1.0535
 6439SOL     OW30952   3.825   0.227  13.780 -0.2427  0.4706  0.1591
 6439SOL    HW130953   3.792   0.168  13.712 -1.3078  1.7656 -0.4646
 6439SOL    HW230954   3.877   0.170  13.836 -1.2942  0.6460  1.3310
 6440SOL     OW30955   2.425   0.794  12.542  0.2809  0.3489 -0.0521
 6440SOL    HW130956   2.366   0.719  12.551 -0.1068  0.7271  0.5243
 6440SOL    HW230957   2.487   0.783  12.613  0.0033  0.8156  0.2601
 6441SOL     OW30958   1.986   0.382   8.564 -0.0882  0.0547  0.7465
 6441SOL    HW130959   1.910   0.425   8.524 -0.1408 -2.0420 -1.3642
 6441SOL    HW230960   2.041   0.367   8.488  0.6439 -2.7436  1.8514
 6442SOL     OW30961   0.781   4.478   3.247  0.3011  0.4585  0.5555
 6442SOL    HW130962   0.731   4.506   3.325 -0.9956  1.0749 -0.4935
 6442SOL    HW230963   0.795   4.564   3.208 -0.9101  0.0482 -0.7859
 6443SOL     OW30964   4.000   2.352   6.505 -0.0636 -0.0255 -0.0566
 6443SOL    HW130965   3.971   2.434   6.466  0.5127  0.1833 -0.0419
 6443SOL    HW230966   4.008   2.297   6.427 -0.4892 -0.1874  0.0132
 6444SOL     OW30967   0.899   1.814   5.570 -0.4553  0.0061  0.1498
 6444SOL    HW130968   0.917   1.816   5.664 -0.1949  2.0881  0.0439
 6444SOL    HW230969   0.972   1.859   5.529 -1.0056 -0.6196 -1.5458
 6445SOL     OW30970   1.543   3.538  12.816  0.0205  0.0574  0.4460
 6445SOL    HW130971   1.622   3.489  12.795 -1.5645 -1.7521 -1.3877
 6445SOL    HW230972   1.484   3.518  12.743  0.0251 -2.1322  1.0276
 6446SOL     OW30973   0.393   2.746   2.027 -0.0230 -0.4178 -0.2520
 6446SOL    HW130974   0.443   2.754   1.946  1.2929  1.6287  0.7507
 6446SOL    HW230975   0.304   2.745   1.992 -0.5876  0.8559  1.1044
 6447SOL     OW30976   3.279   2.832   5.581  0.0118 -0.0904  0.6379
 6447SOL    HW130977   3.358   2.843   5.527 -1.6822  0.9864 -1.6073
 6447SOL    HW230978   3.314   2.859   5.665  1.6445  1.5205 -0.5602
 6448SOL     OW30979   3.801   4.006   2.376  0.6440 -0.2819  1.4165
 6448SOL    HW130980   3.855   3.949   2.321 -0.0399 -0.4057  0.8777
 6448SOL    HW230981   3.788   3.947   2.450  0.0986 -2.8912 -0.7582
 6449SOL     OW30982   0.642   0.442   9.805  0.5581 -0.1502 -0.4266
 6449SOL    HW130983   0.569   0.386   9.778 -0.9747  1.1389  1.0391
 6449SOL    HW230984   0.711   0.386   9.769  1.0246 -0.2634  0.6273
 6450SOL     OW30985   2.958   3.337   2.361  0.0509 -0.2149 -0.1629
 6450SOL    HW130986   3.011   3.312   2.285  0.4436  0.9490 -0.2714
 6450SOL    HW230987   2.978   3.262   2.416 -0.3278  1.1510  1.8394
 6451SOL     OW30988   4.478   0.694  15.385  0.3330  0.1005  0.0924
 6451SOL    HW130989   4.458   0.653  15.469 -1.4432  2.5799  0.8585
 6451SOL    HW230990   4.443   0.782  15.399 -3.1431 -1.4611  1.2391
 6452SOL     OW30991   0.264   1.135  13.375 -0.5630 -0.0419  0.8370
 6452SOL    HW130992   0.253   1.101  13.464  0.6916  1.9752  1.7815
 6452SOL    HW230993   0.281   1.227  13.396 -2.5764  0.2758  1.0259
 6453SOL     OW30994   4.358   3.497   6.053 -0.1533 -0.4147  0.2407
 6453SOL    HW130995   4.286   3.499   6.117 -0.3596  0.2340 -0.0087
 6453SOL    HW230996   4.363   3.593   6.049  4.3451 -0.6617  0.3529
 6454SOL     OW30997   1.240   0.292   4.888 -0.2473 -0.1763 -0.2452
 6454SOL    HW130998   1.290   0.289   4.807 -0.8809  1.5485 -0.6928
 6454SOL    HW230999   1.306   0.265   4.953 -0.2569  2.6644  0.9733
 6455SOL     OW31000   0.993   4.597  15.500 -0.3410 -0.3422  0.1918
 6455SOL    HW131001   0.900   4.600  15.521 -0.4370 -0.2832 -0.2367
 6455SOL    HW231002   1.036   4.646  15.570 -0.1834 -1.1820  0.6800
 6456SOL     OW31003   4.605   3.032   7.081  0.1694  1.0716  0.4231
 6456SOL    HW131004   4.698   3.051   7.094  0.8962 -0.7781 -1.8807
 6456SOL    HW231005   4.570   3.083   7.008 -0.6378  0.0045  0.0547
 6457SOL     OW31006   3.873   2.540   2.433  0.1542  0.0388 -0.4518
 6457SOL    HW131007   3.827   2.484   2.370  1.6970 -1.0295 -0.6277
 6457SOL    HW231008   3.833   2.626   2.416  0.2842  0.6122  2.2487
 6458SOL     OW31009   0.235   0.261  12.416 -0.1961 -0.0246  0.2468
 6458SOL    HW131010   0.233   0.301  12.329  0.2315  0.4805  0.4717
 6458SOL    HW231011   0.186   0.326  12.467 -0.0808  0.0381  0.2763
 6459SOL     OW31012   0.238   4.282   8.588  0.6136  0.2221  0.7607
 6459SOL    HW131013   0.167   4.223   8.563  0.6450 -1.0490  3.6549
 6459SOL    HW231014   0.315   4.236   8.556  0.0245 -1.0463  1.1327
 6460SOL     OW31015   3.432   0.490   8.583 -0.2604  0.1684 -0.0581
 6460SOL    HW131016   3.350   0.531   8.558  0.2722  1.3067  0.0685
 6460SOL    HW231017   3.441   0.411   8.529 -0.7955  0.8698 -1.1701
 6461SOL     OW31018   1.478   3.719   6.583 -0.4386  0.3090  0.4012
 6461SOL    HW131019   1.566   3.689   6.605  0.8242  2.7790 -1.3223
 6461SOL    HW231020   1.496   3.784   6.515  1.1768 -1.1999 -0.6237
 6462SOL     OW31021   2.566   1.389  16.632 -0.1980  0.7913 -0.1344
 6462SOL    HW131022   2.493   1.432  16.587 -1.0965  0.9508  1.4496
 6462SOL    HW231023   2.516   1.335  16.694  0.1611 -0.3439 -0.8330
 6463SOL     OW31024   0.300   0.435   2.023 -0.2110 -0.4353 -0.2163
 6463SOL    HW131025   0.282   0.363   2.083 -1.7287 -1.3600 -1.7774
 6463SOL    HW231026   0.234   0.494   2.059  0.1151  0.3423 -0.8788
 6464SOL     OW31027   2.039   1.183  12.355  0.1475  0.2112 -0.7787
 6464SOL    HW131028   1.966   1.129  12.386 -0.7627  1.3837 -0.8587
 6464SOL    HW231029   1.983   1.245  12.308 -1.4819 -1.6735 -1.3194
 6465SOL     OW31030   0.338   1.007   5.030 -0.7878 -0.0228  0.0803
 6465SOL    HW131031   0.312   0.915   5.036 -1.6989  0.1985 -0.4479
 6465SOL    HW231032   0.429   1.007   5.062 -0.6440 -1.9887 -0.3714
 6466SOL     OW31033   1.491   1.357   4.501  0.1061 -0.0765  0.4272
 6466SOL    HW131034   1.546   1.371   4.424  1.1484  0.8121  1.3328
 6466SOL    HW231035   1.475   1.450   4.517 -0.9758 -0.2360  0.2946
 6467SOL     OW31036   4.341   2.007   7.234  0.0584 -0.5493 -1.0609
 6467SOL    HW131037   4.370   2.095   7.210 -2.0049  0.0751 -1.2166
 6467SOL    HW231038   4.407   1.967   7.177 -0.4024 -0.9351 -1.3203
 6468SOL     OW31039   4.047   0.286  14.071  0.7334  0.2559  0.2474
 6468SOL    HW131040   4.056   0.369  14.024  1.6176  0.2500  0.4063
 6468SOL    HW231041   4.022   0.321  14.157 -0.7361  0.0427 -0.0938
 6469SOL     OW31042   2.600   1.178   2.369  0.0347 -0.7856  0.1916
 6469SOL    HW131043   2.628   1.243   2.434 -1.9783  1.2924 -1.0367
 6469SOL    HW231044   2.639   1.095   2.399 -0.6388 -1.5838 -1.1732
 6470SOL     OW31045   0.500   3.808  15.237  0.0604 -0.1928  0.0573
 6470SOL    HW131046   0.421   3.774  15.278 -0.5761 -0.8342 -1.7053
 6470SOL    HW231047   0.469   3.871  15.172 -1.3190 -2.6384 -1.6522
 6471SOL     OW31048   0.970   0.197   7.005  0.0417  0.2223  0.1763
 6471SOL    HW131049   0.972   0.220   6.912 -1.0508 -0.1672  0.0475
 6471SOL    HW231050   0.876   0.186   7.019  0.0240 -0.4719 -0.4526
 6472SOL     OW31051   1.465   2.725   8.854 -0.2619  0.2973  0.2112
 6472SOL    HW131052   1.450   2.756   8.943 -1.6777 -0.8454  0.3726
 6472SOL    HW231053   1.373   2.706   8.835  0.4245 -0.1377 -2.6349
 6473SOL     OW31054   1.231   2.154  10.039 -0.1529 -0.0167  0.2145
 6473SOL    HW131055   1.311   2.172  10.088 -0.1085 -0.5834  0.3426
 6473SOL    HW231056   1.278   2.162   9.956 -0.3779  0.8887  0.1724
 6474SOL     OW31057   3.203   1.683   8.284 -0.3841 -0.5611  0.4293
 6474SOL    HW131058   3.275   1.728   8.239 -1.6880  1.5464  0.4544
 6474SOL    HW231059   3.167   1.631   8.212  0.5224 -2.0098  1.0378
 6475SOL     OW31060   2.340   2.448   7.083  0.1510  0.4237 -0.4807
 6475SOL    HW131061   2.283   2.445   7.160  0.6675  0.2288 -0.1035
 6475SOL    HW231062   2.409   2.387   7.109 -0.1465  1.5652  3.0085
 6476SOL     OW31063   0.080   0.296   9.452 -0.1921  0.4052 -0.4925
 6476SOL    HW131064   0.133   0.260   9.380  1.4841 -0.7992  1.3371
 6476SOL    HW231065   4.728   0.264   9.431  0.3598 -1.2645 -0.2439
 6477SOL     OW31066   2.902   2.626  10.488 -0.4206  0.2662 -0.4960
 6477SOL    HW131067   2.954   2.607  10.410  0.6871 -0.2018  0.3533
 6477SOL    HW231068   2.952   2.694  10.532 -0.0245  0.2277 -0.8926
 6478SOL     OW31069   4.042   1.258   6.376  0.6484  0.8090 -0.1890
 6478SOL    HW131070   4.072   1.177   6.334  1.9542  1.5905 -0.7643
 6478SOL    HW231071   4.050   1.326   6.309  2.8701  1.6941  0.9662
 6479SOL     OW31072   0.548   0.132   7.700  0.5510 -0.5143  0.1367
 6479SOL    HW131073   0.615   0.173   7.754 -0.4151 -1.3314  1.9750
 6479SOL    HW231074   0.604   0.082   7.641  0.0238 -1.9976  0.8832
 6480SOL     OW31075   4.193   3.306   1.607  0.8127 -0.0803  0.2072
 6480SOL    HW131076   4.224   3.340   1.523  0.9502  1.1233  0.7387
 6480SOL    HW231077   4.240   3.224   1.593 -1.6186 -1.7395  1.8156
 6481SOL     OW31078   2.693   0.346   2.308 -0.2016  0.0790  0.5760
 6481SOL    HW131079   2.785   0.351   2.282 -0.2547 -1.6563  0.0057
 6481SOL    HW231080   2.696   0.351   2.403  0.4167 -0.2191  0.5718
 6482SOL     OW31081   3.535   3.923   8.582  0.1475 -0.0333  0.2715
 6482SOL    HW131082   3.553   3.913   8.489 -1.1328  0.8859 -0.0764
 6482SOL    HW231083   3.561   3.840   8.623  0.7708  0.8478  1.6608
 6483SOL     OW31084   0.230   2.504   1.593  0.0831 -0.1929 -0.0762
 6483SOL    HW131085   0.229   2.592   1.556  2.1334  1.4157  3.7071
 6483SOL    HW231086   0.323   2.497   1.617  0.1764  0.6206 -0.2021
 6484SOL     OW31087   1.336   0.582  10.499  0.1355 -0.2216 -0.3810
 6484SOL    HW131088   1.322   0.621  10.412  1.6355 -1.4358 -1.1612
 6484SOL    HW231089   1.391   0.647  10.543  0.0415 -1.0130  0.8786
 6485SOL     OW31090   0.227   4.353  12.607 -0.6271  0.0563  0.1364
 6485SOL    HW131091   0.303   4.377  12.659 -1.7646  0.5519  1.5819
 6485SOL    HW231092   0.256   4.291  12.541  0.0340  0.3559  0.1534
 6486SOL     OW31093   0.854   3.366   6.790 -0.5996  0.6265  0.5760
 6486SOL    HW131094   0.786   3.329   6.847 -1.2294  3.0167  1.3597
 6486SOL    HW231095   0.808   3.439   6.748 -1.0242  1.2201  2.0792
 6487SOL     OW31096   1.569   3.645   5.551  0.4353  0.4152 -0.1228
 6487SOL    HW131097   1.577   3.555   5.518 -1.0571 -0.2469  1.3262
 6487SOL    HW231098   1.624   3.634   5.629  0.6773  0.1014 -0.3326
 6488SOL     OW31099   2.116   0.567   2.257 -0.3392  0.1319 -0.5495
 6488SOL    HW131100   2.181   0.637   2.260  0.2781 -0.3391 -2.7720
 6488SOL    HW231101   2.166   0.493   2.290  1.3751  1.5866  0.0836
 6489SOL     OW31102   1.057   2.324   4.614 -0.0965  0.7768 -0.4599
 6489SOL    HW131103   0.982   2.271   4.643 -0.4055  1.5106  0.0753
 6489SOL    HW231104   1.075   2.377   4.691  0.2346 -1.8977  1.3163
 6490SOL     OW31105   3.883   4.064  14.351 -0.2287  0.0199 -0.5967
 6490SOL    HW131106   3.938   4.139  14.330  1.7156 -1.9804 -2.6395
 6490SOL    HW231107   3.928   3.988  14.313  1.4813  0.1558  1.1165
 6491SOL     OW31108   3.424   4.735   5.162 -0.0173 -0.3877 -0.3604
 6491SOL    HW131109   3.402   0.038   5.078 -2.4291 -0.3717  0.2764
 6491SOL    HW231110   3.403   0.077   5.214  1.6558 -1.2003  1.5127
 6492SOL     OW31111   4.382   0.512  10.878 -0.2213 -0.2336 -0.3442
 6492SOL    HW131112   4.335   0.429  10.871 -0.7118  0.1330 -1.3971
 6492SOL    HW231113   4.474   0.493  10.892 -0.5758 -0.0587  2.2264
 6493SOL     OW31114   2.956   2.908  11.259  0.4333 -0.1099  0.5529
 6493SOL    HW131115   2.887   2.878  11.200 -0.4899 -1.2577  2.2101
 6493SOL    HW231116   2.934   3.001  11.256 -0.7146 -0.3365  1.8078
 6494SOL     OW31117   2.376   2.552   2.908 -0.3191 -0.2305  0.1321
 6494SOL    HW131118   2.393   2.556   2.814 -1.8675  0.0280 -0.1218
 6494SOL    HW231119   2.285   2.526   2.916 -0.1663  0.4254  3.9073
 6495SOL     OW31120   4.701   3.883   5.917 -0.4002 -0.0312  0.3186
 6495SOL    HW131121   4.688   3.843   5.831 -0.9947 -0.4030  0.5859
 6495SOL    HW231122   4.685   3.808   5.974 -0.8316 -0.1443  0.0488
 6496SOL     OW31123   1.169   1.444   4.260  0.0348  0.3884 -0.4523
 6496SOL    HW131124   1.221   1.420   4.183  1.0964  0.9328  0.0838
 6496SOL    HW231125   1.144   1.535   4.242 -0.7770  0.5867  1.7196
 6497SOL     OW31126   4.428   1.903   3.915  0.4525  0.2135  0.0895
 6497SOL    HW131127   4.430   1.923   3.821 -0.2892  2.1004  0.4698
 6497SOL    HW231128   4.523   1.903   3.928  0.5810  0.7732 -0.8251
 6498SOL     OW31129   2.682   2.418   8.006 -0.2239  0.1626 -0.2317
 6498SOL    HW131130   2.600   2.467   8.002  0.1236  0.9140  1.9624
 6498SOL    HW231131   2.661   2.359   7.933 -0.1993  1.3711 -1.2046
 6499SOL     OW31132   4.182   2.460  12.970 -0.4210 -0.3243  0.3138
 6499SOL    HW131133   4.206   2.394  12.905 -0.2640 -2.1206  2.2305
 6499SOL    HW231134   4.136   2.531  12.925  1.0427  0.5261  0.1457
 6500SOL     OW31135   4.636   3.119   1.865 -0.0336  0.0199  0.4310
 6500SOL    HW131136   4.618   3.204   1.825  1.1353 -0.2321 -0.6337
 6500SOL    HW231137   4.556   3.093   1.910  0.6371 -0.1057  1.5609
 6501SOL     OW31138   0.403   2.037   3.097  0.1600 -0.1592 -0.0137
 6501SOL    HW131139   0.432   2.128   3.083 -2.4457  0.9074  1.4765
 6501SOL    HW231140   0.319   2.036   3.051  0.1270 -1.0779  0.0770
 6502SOL     OW31141   4.300   2.811  12.410 -0.0579  0.0862 -0.6907
 6502SOL    HW131142   4.210   2.788  12.431 -0.2516 -0.0256 -1.6626
 6502SOL    HW231143   4.346   2.784  12.490  0.9813  2.0205 -0.6380
 6503SOL     OW31144   1.408   1.398   2.679 -0.2036  0.3774 -0.3384
 6503SOL    HW131145   1.375   1.338   2.613 -1.6060  0.4181  0.3294
 6503SOL    HW231146   1.468   1.440   2.617  1.3771 -0.9211  0.3122
 6504SOL     OW31147   1.239   3.868  11.536  0.0182  0.7389  0.1042
 6504SOL    HW131148   1.240   3.923  11.614 -0.8811  0.2190  0.4876
 6504SOL    HW231149   1.242   3.781  11.576  1.3324  0.6843 -0.1067
 6505SOL     OW31150   4.297   1.972   6.029 -0.1080 -0.2082  0.3089
 6505SOL    HW131151   4.257   1.887   6.049 -1.1334  0.1943 -0.0376
 6505SOL    HW231152   4.277   1.979   5.936  0.2513  0.8507  0.3045
 6506SOL     OW31153   0.935   3.109  17.137 -0.8692  0.6577 -0.3603
 6506SOL    HW131154   0.933   3.035  17.198  2.0984  1.0480  0.2137
 6506SOL    HW231155   1.023   3.145  17.143 -0.8362  0.2273  2.0686
 6507SOL     OW31156   3.366   4.145   9.256 -0.0517 -0.0038 -0.1045
 6507SOL    HW131157   3.460   4.157   9.260 -0.3378  2.4598 -0.6612
 6507SOL    HW231158   3.334   4.229   9.289 -0.9612 -1.3542  2.4731
 6508SOL     OW31159   2.308   4.625   7.713  0.1513 -0.4635 -0.2949
 6508SOL    HW131160   2.344   4.711   7.692  2.4199 -1.2039  0.5465
 6508SOL    HW231161   2.320   4.617   7.807 -0.6167 -1.3647 -0.2650
 6509SOL     OW31162   3.996   4.240   2.111 -0.6802 -0.1617 -0.0862
 6509SOL    HW131163   4.050   4.161   2.113  0.6568  0.7086 -1.2586
 6509SOL    HW231164   3.927   4.205   2.054 -3.4193  2.1861  1.7712
 6510SOL     OW31165   0.873   3.456   7.622 -0.0447 -0.0033  0.0155
 6510SOL    HW131166   0.933   3.381   7.613  0.7692  0.6058  0.3682
 6510SOL    HW231167   0.828   3.458   7.538 -0.7891  1.5888  0.4544
 6511SOL     OW31168   3.144   3.227   7.509 -0.0959  0.0261 -0.9031
 6511SOL    HW131169   3.114   3.281   7.435 -1.6284 -0.8112 -0.8966
 6511SOL    HW231170   3.068   3.170   7.521  0.1436  0.0239  0.5182
 6512SOL     OW31171   2.288   1.350   4.989  0.2821  0.6520  0.1962
 6512SOL    HW131172   2.245   1.281   5.040  1.3881 -0.7135 -0.6954
 6512SOL    HW231173   2.363   1.368   5.045 -0.8663  1.3107  1.5170
 6513SOL     OW31174   2.021   0.542  10.743  0.6305 -0.5187 -0.6075
 6513SOL    HW131175   1.933   0.561  10.774  0.8954 -1.7484  0.9076
 6513SOL    HW231176   2.080   0.583  10.806 -1.1778  2.5607 -0.9624
 6514SOL     OW31177   2.362   4.288   6.797  0.6112  0.1335  0.0614
 6514SOL    HW131178   2.428   4.321   6.858  0.5129 -0.7131  0.6287
 6514SOL    HW231179   2.420   4.242   6.737  2.2709  0.5993  1.3322
 6515SOL     OW31180   0.591   3.048   4.015  0.1678 -0.4651 -0.0385
 6515SOL    HW131181   0.572   3.136   3.983  1.8632 -0.1159 -0.0959
 6515SOL    HW231182   0.505   3.013   3.993 -0.3429  0.4151  0.5514
 6516SOL     OW31183   3.476   2.114   9.102  0.1919  0.0751  0.2292
 6516SOL    HW131184   3.386   2.081   9.105  0.1239  0.4861  2.4052
 6516SOL    HW231185   3.480   2.159   9.018 -0.9254 -1.3940 -0.6222
 6517SOL     OW31186   1.860   0.788   1.635 -1.3569 -0.4250 -0.0428
 6517SOL    HW131187   1.854   0.708   1.583 -1.3944 -0.2248 -0.3431
 6517SOL    HW231188   1.894   0.852   1.573  0.4867 -0.8372  0.5525
 6518SOL     OW31189   4.698   4.100   6.603 -0.7766 -0.1967 -0.2739
 6518SOL    HW131190   4.704   4.195   6.598 -0.5673 -0.2780 -1.5928
 6518SOL    HW231191   4.690   4.085   6.697  0.0846  0.0092 -0.1610
 6519SOL     OW31192   4.403   0.124  13.205  0.5919 -0.2089  0.7778
 6519SOL    HW131193   4.498   0.109  13.207  0.4328 -1.2389  0.4878
 6519SOL    HW231194   4.417   0.198  13.146 -1.1366 -0.0192  0.6129
 6520SOL     OW31195   1.311   3.279  15.811  0.9821 -0.0586 -0.5811
 6520SOL    HW131196   1.244   3.219  15.843 -1.4563  1.2294 -3.3152
 6520SOL    HW231197   1.280   3.363  15.842  0.3471 -0.2856 -0.6012
 6521SOL     OW31198   1.944   2.750   3.434  0.7187  0.3006 -0.2547
 6521SOL    HW131199   1.986   2.717   3.513 -0.5189  0.3811  0.4265
 6521SOL    HW231200   1.999   2.712   3.365  2.7134  1.9802  0.3998
 6522SOL     OW31201   4.726   0.089   8.021  0.1667 -0.6400 -0.3426
 6522SOL    HW131202   0.004   0.149   8.093 -2.5888  1.9694 -1.9869
 6522SOL    HW231203   0.029   0.123   7.940 -1.9153  0.3843 -0.9106
 6523SOL     OW31204   2.500   4.502  11.801  0.2888 -0.0605  0.4729
 6523SOL    HW131205   2.435   4.450  11.850  1.9957 -2.2304  0.4324
 6523SOL    HW231206   2.555   4.434  11.763 -0.0426 -0.3357  0.4858
 6524SOL     OW31207   1.824   0.797   8.119  0.5435  0.0662  0.0710
 6524SOL    HW131208   1.763   0.741   8.070  0.1513  1.5131 -1.1166
 6524SOL    HW231209   1.840   0.752   8.202  0.2432  2.4654  1.4278
 6525SOL     OW31210   2.502   4.371  13.376  0.0247  0.1275 -0.1191
 6525SOL    HW131211   2.485   4.338  13.288 -1.2873  1.2628 -0.2925
 6525SOL    HW231212   2.422   4.346  13.422 -0.0744 -0.6661 -0.7207
 6526SOL     OW31213   0.382   3.787   8.856  0.1452 -0.0401 -0.4799
 6526SOL    HW131214   0.470   3.782   8.819 -0.0662 -3.1319 -0.5058
 6526SOL    HW231215   0.339   3.732   8.791 -0.3814  1.3040 -1.2851
 6527SOL     OW31216   4.161   3.806   6.161  0.1301  0.0442  0.1714
 6527SOL    HW131217   4.178   3.724   6.207  1.6008  0.2584  0.0133
 6527SOL    HW231218   4.167   3.790   6.067 -2.1934  0.5532 -0.0720
 6528SOL     OW31219   1.508   4.558   4.365 -0.3490 -0.2992 -0.2523
 6528SOL    HW131220   1.582   4.498   4.355 -0.8679 -1.1777  1.1507
 6528SOL    HW231221   1.554   4.643   4.363 -1.4788  0.2724 -1.6990
 6529SOL     OW31222   3.528   4.487   6.457  0.4935  0.0575 -1.2009
 6529SOL    HW131223   3.454   4.540   6.429 -0.3668 -0.1129  0.7855
 6529SOL    HW231224   3.494   4.457   6.541 -1.0940  0.7722 -1.6005
 6530SOL     OW31225   2.357   3.735  10.822  0.5377  0.3292  0.0190
 6530SOL    HW131226   2.420   3.709  10.890  2.7594  3.5209 -0.8216
 6530SOL    HW231227   2.368   3.661  10.763 -1.5685  1.0883 -1.3096
 6531SOL     OW31228   4.023   2.547  10.933  0.0523 -0.6341  0.3372
 6531SOL    HW131229   3.931   2.540  10.907  0.5013 -1.4638 -1.0724
 6531SOL    HW231230   4.048   2.597  10.855 -2.5594 -2.0979 -1.4215
 6532SOL     OW31231   1.328   0.683   4.042  0.3276 -0.2027  0.1321
 6532SOL    HW131232   1.294   0.688   4.131 -0.4857  1.8434 -0.2956
 6532SOL    HW231233   1.422   0.681   4.060 -0.0596 -0.6208  2.0557
 6533SOL     OW31234   1.890   3.212   1.152 -0.1810 -0.3200 -0.1049
 6533SOL    HW131235   1.902   3.117   1.141  2.4505  0.1945 -1.8531
 6533SOL    HW231236   1.890   3.207   1.247 -0.3135  2.5295  0.0289
 6534SOL     OW31237   3.318   4.660   6.473 -0.0234 -0.3007 -0.1576
 6534SOL    HW131238   3.342   0.016   6.460 -0.8319 -0.0531  0.1113
 6534SOL    HW231239   3.280   4.661   6.561 -0.6275  0.5862 -0.4268
 6535SOL     OW31240   2.661   2.987   4.040 -0.1551  0.0857 -0.0895
 6535SOL    HW131241   2.642   2.966   4.132  1.0388  2.2763  0.6508
 6535SOL    HW231242   2.627   3.076   4.045  0.5487  0.2096  2.4364
 6536SOL     OW31243   1.805   3.875   1.724 -0.0109 -0.2083  0.1056
 6536SOL    HW131244   1.792   3.811   1.794 -1.1141 -0.4480 -0.3207
 6536SOL    HW231245   1.780   3.822   1.649  0.0595  2.5208 -1.8815
 6537SOL     OW31246   2.913   1.561  16.643  0.2905 -0.3327 -0.1956
 6537SOL    HW131247   2.914   1.573  16.738 -3.1918 -2.5153  0.1169
 6537SOL    HW231248   3.003   1.583  16.615  0.6555 -1.3986  0.1571
 6538SOL     OW31249   2.049   4.487  15.630 -0.4671 -0.4964  0.1933
 6538SOL    HW131250   1.993   4.564  15.642  1.2705  0.6854  0.6111
 6538SOL    HW231251   2.009   4.419  15.684 -1.1854  1.2130  1.8044
 6539SOL     OW31252   1.054   2.807   3.197 -0.5022 -0.0935 -0.0086
 6539SOL    HW131253   0.972   2.768   3.166  0.2229 -0.4735 -1.4212
 6539SOL    HW231254   1.098   2.740   3.249 -1.5140 -2.5901 -2.3541
 6540SOL     OW31255   3.488   0.052  16.037  0.0319 -0.3549 -0.0621
 6540SOL    HW131256   3.489   0.069  16.131  0.6968  2.9513 -0.6419
 6540SOL    HW231257   3.582   0.052  16.016 -0.0073  2.8679 -0.3335
 6541SOL     OW31258   2.638   2.928  17.724 -0.4488 -0.4172 -0.0964
 6541SOL    HW131259   2.557   2.881   0.004 -2.2340  2.4687 -0.5013
 6541SOL    HW231260   2.627   2.929  17.629  0.4855 -1.7610 -0.2198
 6542SOL     OW31261   0.748   0.814   9.182  0.4623  0.0780 -0.3075
 6542SOL    HW131262   0.711   0.891   9.225 -0.5076 -0.9532  0.6871
 6542SOL    HW231263   0.834   0.834   9.219 -0.0257  0.6036  0.5498
 6543SOL     OW31264   4.315   2.083   4.785 -0.3122  0.2506  0.0631
 6543SOL    HW131265   4.337   2.001   4.829 -1.6464 -1.1238 -1.8141
 6543SOL    HW231266   4.395   2.135   4.794 -1.3634  1.7219  1.0712
 6544SOL     OW31267   4.302   1.996   2.113 -0.8943 -0.3018  0.0446
 6544SOL    HW131268   4.278   1.953   2.196  0.2734 -0.3033  0.3872
 6544SOL    HW231269   4.309   1.922   2.052  1.9996 -1.0436  1.2643
 6545SOL     OW31270   0.184   2.830   1.237 -0.3131  0.1313 -0.7163
 6545SOL    HW131271   0.089   2.827   1.254 -0.1562  0.9235  0.2981
 6545SOL    HW231272   0.189   2.905   1.178 -0.2879  0.8523  0.1954
 6546SOL     OW31273   1.769   4.364  16.780  0.0525 -0.8449 -0.2249
 6546SOL    HW131274   1.751   4.455  16.758  0.0965 -0.8891 -0.4383
 6546SOL    HW231275   1.824   4.336  16.707 -1.3098  0.2441 -1.6717
 6547SOL     OW31276   0.733   1.937   7.163  0.0736  0.5047 -0.3280
 6547SOL    HW131277   0.645   1.974   7.160  0.1935  0.7215 -1.3130
 6547SOL    HW231278   0.765   1.963   7.249 -1.1065 -0.0004  0.2594
 6548SOL     OW31279   4.255   2.743   4.329  0.1374  0.0163 -0.2306
 6548SOL    HW131280   4.228   2.665   4.378  3.5251 -1.6407 -1.0236
 6548SOL    HW231281   4.224   2.815   4.384 -0.9213 -0.4997 -0.1426
 6549SOL     OW31282   1.414   1.898  10.290 -0.0751  0.2021 -0.4798
 6549SOL    HW131283   1.353   1.839  10.244  0.0718 -1.8306  1.9343
 6549SOL    HW231284   1.487   1.837  10.297  0.4899  1.1159  1.5692
 6550SOL     OW31285   3.056   1.772   5.772 -0.2186  0.6206  0.2267
 6550SOL    HW131286   2.979   1.721   5.750  1.9594 -1.3103 -2.9638
 6550SOL    HW231287   3.038   1.799   5.862  0.5680 -0.6311  0.7550
 6551SOL     OW31288   3.841   3.852   6.767 -0.0426  0.2354  0.2834
 6551SOL    HW131289   3.754   3.815   6.784 -0.3621  0.9162  0.1621
 6551SOL    HW231290   3.875   3.786   6.706 -0.2521  1.3349 -1.0467
 6552SOL     OW31291   4.213   3.500   4.544 -0.1022  0.7167 -0.3773
 6552SOL    HW131292   4.232   3.562   4.615 -0.0763 -0.3086  0.4995
 6552SOL    HW231293   4.265   3.540   4.474  0.6992 -1.0767 -0.8031
 6553SOL     OW31294   2.231   4.684   4.430 -0.5463  0.0911 -0.2499
 6553SOL    HW131295   2.153   4.682   4.375 -0.7303 -2.3880  0.1453
 6553SOL    HW231296   2.194   4.679   4.518 -1.7125 -0.0071 -0.7412
 6554SOL     OW31297   1.066   2.861   4.565 -0.5153  0.2474 -0.3349
 6554SOL    HW131298   1.096   2.841   4.476 -1.2177 -1.4626 -0.1922
 6554SOL    HW231299   1.147   2.898   4.600  0.9206 -3.2139 -0.0029
 6555SOL     OW31300   0.587   2.259   7.853 -0.0371  0.5791 -0.6195
 6555SOL    HW131301   0.663   2.311   7.880  1.1159 -2.4981  2.0307
 6555SOL    HW231302   0.517   2.294   7.907  0.6476 -0.5151  0.9699
 6556SOL     OW31303   0.983   0.235   8.981  0.0183 -0.5571 -0.0109
 6556SOL    HW131304   1.057   0.176   8.965 -0.5800 -1.7256  1.5313
 6556SOL    HW231305   0.992   0.306   8.918  2.4720 -1.5630 -0.7951
 6557SOL     OW31306   1.610   0.757  12.145 -0.2832 -0.0969 -0.5996
 6557SOL    HW131307   1.531   0.780  12.096 -0.1329 -0.6704 -1.1182
 6557SOL    HW231308   1.686   0.781  12.091 -0.1130 -1.1958 -0.8454
 6558SOL     OW31309   2.773   2.275  16.200 -0.0845 -1.0105 -0.3004
 6558SOL    HW131310   2.838   2.213  16.169 -0.8314 -2.9031  1.9029
 6558SOL    HW231311   2.748   2.331  16.126  2.4525 -1.0697 -1.1937
 6559SOL     OW31312   2.099   3.548  10.793  0.4194 -0.1911  0.5118
 6559SOL    HW131313   2.104   3.643  10.798  1.2847 -0.1584 -0.9983
 6559SOL    HW231314   2.098   3.524  10.700  0.0129  0.0687  0.4503
 6560SOL     OW31315   0.886   3.444   6.316  0.4049  0.3078 -0.5878
 6560SOL    HW131316   0.921   3.363   6.351  0.4690  1.0040  0.9345
 6560SOL    HW231317   0.967   3.493   6.305  1.2997 -0.6028  2.2168
 6561SOL     OW31318   2.737   1.424   3.615  0.4517  0.1010 -0.7395
 6561SOL    HW131319   2.810   1.448   3.557 -1.1130  3.3091 -1.3363
 6561SOL    HW231320   2.689   1.506   3.608  0.5515  0.1270 -1.1563
 6562SOL     OW31321   2.864   3.253  12.798  0.3107  0.0812 -0.0104
 6562SOL    HW131322   2.816   3.335  12.783  0.8990  1.1019  3.7314
 6562SOL    HW231323   2.829   3.210  12.876  0.3954  0.3374  0.1679
 6563SOL     OW31324   2.318   3.921  11.538  0.0066  0.1529 -0.1874
 6563SOL    HW131325   2.337   4.001  11.587  2.2179  0.6686 -1.8781
 6563SOL    HW231326   2.302   3.861  11.611 -1.0655 -0.7310 -1.1531
 6564SOL     OW31327   3.906   2.960   9.491 -0.4866 -0.1983  0.0302
 6564SOL    HW131328   3.933   3.051   9.477 -1.5776  0.2645  0.8981
 6564SOL    HW231329   3.848   2.960   9.568 -0.4168  0.6187  0.0833
 6565SOL     OW31330   0.956   1.112  17.052  0.3910 -0.2648  0.1381
 6565SOL    HW131331   0.890   1.045  17.073  1.8533 -2.4795 -2.3444
 6565SOL    HW231332   0.909   1.192  17.075  2.1729  0.8664 -0.2492
 6566SOL     OW31333   1.416   0.616  11.419  0.1923  0.1197 -0.0309
 6566SOL    HW131334   1.449   0.565  11.493 -2.0663 -1.3459 -0.0458
 6566SOL    HW231335   1.352   0.677  11.455  0.5325  1.2556 -1.3622
 6567SOL     OW31336   0.479   1.144  13.878  0.1121 -0.8359  0.0743
 6567SOL    HW131337   0.533   1.166  13.955  0.0849  0.6102 -0.3209
 6567SOL    HW231338   0.402   1.093  13.903 -0.0302 -1.1554 -1.0525
 6568SOL     OW31339   0.247   1.946   7.728 -0.2845 -0.0615 -0.0568
 6568SOL    HW131340   0.214   1.883   7.664 -1.1311  0.6862 -0.3566
 6568SOL    HW231341   0.206   1.918   7.810 -1.5983 -0.0583 -0.7116
 6569SOL     OW31342   4.499   1.411   2.542  0.1440 -0.1663  0.2147
 6569SOL    HW131343   4.470   1.329   2.502 -1.2288 -0.0423  0.9523
 6569SOL    HW231344   4.420   1.433   2.591  0.5978  0.2848  0.7505
 6570SOL     OW31345   2.702   2.059   5.950 -0.2076 -0.4418  0.5002
 6570SOL    HW131346   2.716   2.151   5.969 -0.7778 -1.1195  4.1603
 6570SOL    HW231347   2.619   2.058   5.903 -0.3542 -1.1632  0.7663
 6571SOL     OW31348   0.010   4.552  12.842 -0.4634 -0.1365  0.6089
 6571SOL    HW131349   4.657   4.585  12.858 -0.0249  0.8519  1.0033
 6571SOL    HW231350   0.020   4.534  12.749 -1.3876 -3.0167  1.0692
 6572SOL     OW31351   2.511   3.680   0.841 -0.1829 -0.1684  0.1755
 6572SOL    HW131352   2.420   3.649   0.845 -0.8630  1.9359  1.0039
 6572SOL    HW231353   2.527   3.746   0.908  0.6269  1.8740 -2.0203
 6573SOL     OW31354   2.248   4.379   2.396  0.8601  0.1336 -0.3013
 6573SOL    HW131355   2.295   4.388   2.313 -0.7811 -2.7221 -1.5256
 6573SOL    HW231356   2.318   4.424   2.443  0.7124 -0.2178  0.2458
 6574SOL     OW31357   1.401   1.290   1.717 -0.1955  0.1825 -0.1172
 6574SOL    HW131358   1.484   1.282   1.763 -0.5601  1.2699  0.7146
 6574SOL    HW231359   1.340   1.245   1.776 -1.2160  1.0599 -0.4932
 6575SOL     OW31360   3.925   3.187   2.493  0.0962  0.0554  0.3548
 6575SOL    HW131361   3.966   3.250   2.552 -0.7185 -0.6280  1.6723
 6575SOL    HW231362   3.997   3.128   2.472 -1.2537 -1.3940 -0.2148
 6576SOL     OW31363   2.812   1.064  15.459 -0.3530 -0.4757  0.0502
 6576SOL    HW131364   2.846   1.150  15.435  0.3007 -0.5735  0.6199
 6576SOL    HW231365   2.889   1.010  15.441  1.3130  1.0660  2.5566
 6577SOL     OW31366   4.145   0.761   8.158 -0.3339 -0.2682  0.0364
 6577SOL    HW131367   4.171   0.674   8.131 -0.8900  0.0147 -1.4552
 6577SOL    HW231368   4.104   0.743   8.243 -1.1626  0.1631 -0.2641
 6578SOL     OW31369   2.711   1.668  14.228 -0.3273  0.1715 -0.1898
 6578SOL    HW131370   2.798   1.657  14.190  0.4036  2.3030  0.9072
 6578SOL    HW231371   2.656   1.686  14.152 -0.2193  0.7875 -0.1149
 6579SOL     OW31372   0.682   3.495   7.040  0.2617  0.2628  0.1518
 6579SOL    HW131373   0.599   3.523   7.078 -0.9948 -1.6977 -1.1562
 6579SOL    HW231374   0.675   3.401   7.024 -0.0637  0.2472  0.3818
 6580SOL     OW31375   1.953   0.970   3.657 -0.3116  0.0967 -0.2754
 6580SOL    HW131376   1.877   1.027   3.661  0.2521  0.8179  0.0751
 6580SOL    HW231377   1.984   1.000   3.742 -2.0265  1.5157 -0.1602
 6581SOL     OW31378   3.022   0.798   7.333 -0.2859  0.1036  0.7463
 6581SOL    HW131379   3.101   0.766   7.377  0.4226  0.2949 -0.3963
 6581SOL    HW231380   3.050   0.790   7.242 -1.9827 -1.7548  0.3834
 6582SOL     OW31381   3.365   1.269  17.706 -0.1227 -0.0724  0.5330
 6582SOL    HW131382   3.285   1.314  17.680  0.9150  0.4700 -1.7919
 6582SOL    HW231383   3.420   1.345  17.723 -0.0446  0.7091 -3.1375
 6583SOL     OW31384   0.064   0.703   9.113  0.1673  0.2261  0.2400
 6583SOL    HW131385   4.711   0.698   9.147 -0.4783  0.0127 -1.4842
 6583SOL    HW231386   0.102   0.772   9.167 -0.1894  0.1293  0.6130
 6584SOL     OW31387   4.665   1.842   5.941  0.0736  0.5192 -0.0405
 6584SOL    HW131388   4.624   1.763   5.907  0.4027  0.3462 -0.0308
 6584SOL    HW231389   4.732   1.864   5.877  2.3578  0.8084  2.4426
 6585SOL     OW31390   0.913   2.200   3.855 -0.7317  0.6187  0.1820
 6585SOL    HW131391   0.901   2.188   3.949  0.4806 -2.5552 -0.0827
 6585SOL    HW231392   0.823   2.207   3.822 -0.8774  2.8947  1.0497
 6586SOL     OW31393   3.293   1.730   4.794 -0.1502  0.2695 -0.4638
 6586SOL    HW131394   3.229   1.663   4.818  0.0649 -0.2419 -1.3203
 6586SOL    HW231395   3.277   1.801   4.857  0.4961 -0.2925  0.3381
 6587SOL     OW31396   0.225   0.930   9.209 -0.2277  0.3920  0.5261
 6587SOL    HW131397   0.260   0.946   9.297  0.9715 -0.4939  0.2105
 6587SOL    HW231398   0.161   1.000   9.205  0.3071  0.8353 -0.1957
 6588SOL     OW31399   2.239   1.834  16.653  0.4416  0.7109  0.6025
 6588SOL    HW131400   2.290   1.810  16.576  0.2103  0.9706  0.3696
 6588SOL    HW231401   2.309   1.857  16.714  1.1755  0.0908 -0.0204
 6589SOL     OW31402   4.534   2.034  15.862 -0.0483 -0.1587 -0.9939
 6589SOL    HW131403   4.619   2.077  15.856  0.6571 -1.5277 -0.9004
 6589SOL    HW231404   4.471   2.085  15.812  2.1009 -0.1057 -3.6006
 6590SOL     OW31405   2.038   3.169   8.976  0.1956  0.0102  0.5284
 6590SOL    HW131406   2.089   3.166   9.057  0.1735 -1.7860  0.4810
 6590SOL    HW231407   2.047   3.262   8.957  1.1264 -0.7266 -2.6276
 6591SOL     OW31408   2.055   3.386   1.849  0.4066 -0.3412 -0.0896
 6591SOL    HW131409   2.040   3.303   1.893  0.0215  0.8066  1.9325
 6591SOL    HW231410   2.087   3.440   1.921 -2.4092 -0.1713  0.9974
 6592SOL     OW31411   0.632   2.929  15.888 -0.0097 -0.4663  0.3411
 6592SOL    HW131412   0.578   2.966  15.957  1.4419 -0.0016  1.2216
 6592SOL    HW231413   0.580   2.855  15.858  1.8478 -1.0197 -1.5555
 6593SOL     OW31414   2.232   1.369  15.400 -0.1911 -0.0467 -0.3216
 6593SOL    HW131415   2.271   1.455  15.388  1.2829 -0.5657  0.8063
 6593SOL    HW231416   2.286   1.330  15.468 -0.7420 -0.9585 -0.4078
 6594SOL     OW31417   3.148   1.882   1.100 -0.3085  0.0618 -0.9365
 6594SOL    HW131418   3.083   1.926   1.044 -0.0872  2.1384  0.4350
 6594SOL    HW231419   3.204   1.853   1.028 -2.2527 -2.3098 -1.4909
 6595SOL     OW31420   4.526   4.273  11.483  0.3879  0.0684  0.1778
 6595SOL    HW131421   4.544   4.219  11.560 -0.7419  0.3890  0.6686
 6595SOL    HW231422   4.611   4.317  11.485  1.2348 -1.4530 -2.5652
 6596SOL     OW31423   1.076   2.233  12.996  0.0173  0.5847 -0.3100
 6596SOL    HW131424   0.992   2.250  13.038  1.4270  1.0364  2.2908
 6596SOL    HW231425   1.074   2.146  12.957  0.7725  0.6378 -0.4699
 6597SOL     OW31426   0.461   1.763   8.298  0.1681 -0.1370  0.4593
 6597SOL    HW131427   0.520   1.835   8.317 -0.1267 -0.0758  1.1420
 6597SOL    HW231428   0.400   1.801   8.235  0.0796  0.2289  0.7660
 6598SOL     OW31429   2.600   3.714  10.014 -0.2527 -0.4901 -0.3227
 6598SOL    HW131430   2.663   3.783  10.038  0.0022 -1.5835  2.2340
 6598SOL    HW231431   2.667   3.649   9.995  1.4295  0.9474  0.6060
 6599SOL     OW31432   3.415   3.081   9.342 -0.1300  0.1961 -0.4179
 6599SOL    HW131433   3.472   3.050   9.272 -0.3158 -0.5611 -0.2429
 6599SOL    HW231434   3.332   3.077   9.294 -0.0237  0.2231 -0.6051
 6600SOL     OW31435   4.100   3.030   4.760  0.5560 -0.7087 -0.2835
 6600SOL    HW131436   4.076   3.073   4.678  2.5245 -1.1438 -1.0943
 6600SOL    HW231437   4.181   2.985   4.734  0.3106 -1.5502  0.3907
 6601SOL     OW31438   0.716   2.522   5.340 -0.2870  0.4109 -0.2903
 6601SOL    HW131439   0.757   2.455   5.285  1.3509  0.8949  0.3410
 6601SOL    HW231440   0.775   2.526   5.415  1.8661 -0.2165 -1.9679
 6602SOL     OW31441   2.281   4.696   5.748 -0.0786 -0.4602  0.2979
 6602SOL    HW131442   2.314   0.000   5.668  0.4526  0.2740  0.8815
 6602SOL    HW231443   2.188   4.687   5.727  0.3802  4.0038 -3.5369
 6603SOL     OW31444   1.243   0.233   1.462 -0.0105  0.9475  0.4506
 6603SOL    HW131445   1.174   0.167   1.462 -0.1373  1.0806  0.0824
 6603SOL    HW231446   1.194   0.299   1.413  0.0785  0.1812 -0.6602
 6604SOL     OW31447   0.347   2.397  15.841 -0.4907  0.3525  0.0384
 6604SOL    HW131448   0.417   2.449  15.802  0.5588 -3.0928 -2.6298
 6604SOL    HW231449   0.361   2.307  15.813  2.6434  1.1742 -1.0554
 6605SOL     OW31450   2.963   4.492   5.759  0.0873 -0.3039  0.2392
 6605SOL    HW131451   3.022   4.468   5.687 -0.0891 -0.2259  0.0706
 6605SOL    HW231452   3.027   4.519   5.826  0.9434 -0.8163 -0.3761
 6606SOL     OW31453   0.458   3.219   5.180 -0.6272 -0.0061  0.4265
 6606SOL    HW131454   0.402   3.172   5.242 -1.2124 -1.7876 -1.4867
 6606SOL    HW231455   0.505   3.144   5.143 -1.6472 -1.2468  1.6487
 6607SOL     OW31456   3.583   3.399   3.249 -0.1422 -0.2816 -0.2126
 6607SOL    HW131457   3.537   3.330   3.203  2.1626 -1.6092 -0.5436
 6607SOL    HW231458   3.673   3.391   3.217  0.4235 -0.5793  1.4044
 6608SOL     OW31459   0.204   4.302   0.916 -0.0832 -0.1323  0.1766
 6608SOL    HW131460   0.205   4.260   1.003 -0.8558  0.2114  0.3503
 6608SOL    HW231461   0.268   4.372   0.928 -1.1520  0.6751  1.2080
 6609SOL     OW31462   1.045   2.129   1.307  0.7747  0.3750  0.2410
 6609SOL    HW131463   1.072   2.189   1.237 -1.4454  1.2243  0.1034
 6609SOL    HW231464   1.107   2.146   1.378  0.9367 -0.7708  0.3667
 6610SOL     OW31465   2.102   1.344   6.761 -0.4415 -0.0916  0.0370
 6610SOL    HW131466   2.014   1.307   6.756  0.6128 -2.4484 -1.1675
 6610SOL    HW231467   2.143   1.290   6.693 -1.7194 -2.2110  0.9600
 6611SOL     OW31468   4.717   1.547   3.444  0.0478 -0.3509 -0.7768
 6611SOL    HW131469   0.054   1.580   3.391  0.7202 -0.0906  0.3248
 6611SOL    HW231470   0.018   1.510   3.525 -0.1637  1.5646  0.1696
 6612SOL     OW31471   1.141   0.786   3.277  0.0099 -0.8613  0.2954
 6612SOL    HW131472   1.123   0.695   3.301  0.6530 -0.1375  3.5927
 6612SOL    HW231473   1.214   0.773   3.216  0.9848 -1.2155  1.5165
 6613SOL     OW31474   0.709   4.636   0.638 -0.0002 -0.2267 -0.5982
 6613SOL    HW131475   0.751   4.717   0.609 -0.8800 -0.0424 -1.3429
 6613SOL    HW231476   0.660   4.665   0.715  1.0750 -0.5860  0.2288
 6614SOL     OW31477   1.073   1.578   3.778 -0.4916 -0.3035 -0.0298
 6614SOL    HW131478   1.113   1.553   3.695 -1.5940 -0.5235 -0.5027
 6614SOL    HW231479   1.026   1.655   3.748  0.5612 -0.5923 -2.4078
 6615SOL     OW31480   3.142   2.672  17.406 -0.3021 -0.8451 -0.1601
 6615SOL    HW131481   3.184   2.742  17.456 -1.4502 -0.1542 -0.1387
 6615SOL    HW231482   3.076   2.722  17.357  0.2883  0.2821  0.1954
 6616SOL     OW31483   1.499   1.668   4.302  0.3879  1.2143 -0.2417
 6616SOL    HW131484   1.512   1.659   4.396  1.5158 -0.4155 -0.5470
 6616SOL    HW231485   1.588   1.674   4.267  0.7525 -1.6106  0.1705
 6617SOL     OW31486   4.530   3.250   1.153 -0.6093  0.3003 -0.4591
 6617SOL    HW131487   4.563   3.226   1.067  4.2426  0.4849  1.3617
 6617SOL    HW231488   4.607   3.248   1.210 -0.9037  2.1992  0.0145
 6618SOL     OW31489   1.239   4.428  15.533  0.1435 -0.7559 -0.0835
 6618SOL    HW131490   1.144   4.440  15.540  0.4785  1.3958  0.8378
 6618SOL    HW231491   1.238   4.381  15.450  2.5977  0.6564 -0.9288
 6619SOL     OW31492   0.136   3.220   5.949 -0.1189 -0.3289 -0.4156
 6619SOL    HW131493   0.068   3.182   5.893 -0.9363  1.3292 -0.5374
 6619SOL    HW231494   0.175   3.141   5.987  0.6248  0.8662  1.2976
 6620SOL     OW31495   4.337   4.312   4.618  0.9902  0.4991 -0.6107
 6620SOL    HW131496   4.346   4.299   4.712 -2.1229  2.5646 -0.0545
 6620SOL    HW231497   4.249   4.280   4.602  0.3430  1.3908  1.2066
 6621SOL     OW31498   4.301   0.398  17.391 -0.1179  0.0331  0.9259
 6621SOL    HW131499   4.241   0.379  17.319  2.4178 -2.7968 -0.4278
 6621SOL    HW231500   4.250   0.456  17.447 -0.8338 -1.1598  1.5058
 6622SOL     OW31501   0.613   2.636   4.795 -0.9093 -0.0119  0.5200
 6622SOL    HW131502   0.532   2.616   4.748 -0.4558 -0.4331 -0.0723
 6622SOL    HW231503   0.623   2.729   4.778 -0.9066 -0.1989 -0.4499
 6623SOL     OW31504   0.917   1.849   4.025 -0.4066  0.5005  0.1277
 6623SOL    HW131505   0.870   1.902   4.090 -0.0576  0.5919  0.3035
 6623SOL    HW231506   0.843   1.810   3.978  1.2711 -0.0462 -2.0830
 6624SOL     OW31507   0.579   1.325   6.689 -0.2654 -0.2103 -0.2167
 6624SOL    HW131508   0.660   1.358   6.726 -0.8211  0.4329  0.4089
 6624SOL    HW231509   0.516   1.364   6.749  2.4085  1.5692  1.4079
 6625SOL     OW31510   4.321   0.537   8.371  0.1287  0.9061  0.3652
 6625SOL    HW131511   4.236   0.561   8.333 -1.1556 -0.8610  2.1031
 6625SOL    HW231512   4.324   0.592   8.449 -2.7219 -0.0596  1.1835
 6626SOL     OW31513   1.110   3.475   2.889 -0.4338  0.0027 -0.0401
 6626SOL    HW131514   1.061   3.433   2.819  0.4556  1.8483 -1.7511
 6626SOL    HW231515   1.053   3.481   2.966  0.1433  1.0718  0.3022
 6627SOL     OW31516   2.755   2.096  11.987 -0.2710 -0.4114  0.9690
 6627SOL    HW131517   2.795   2.180  11.966 -0.7182 -0.3856  0.2341
 6627SOL    HW231518   2.662   2.112  12.006 -0.6044 -0.7928 -0.3943
 6628SOL     OW31519   0.419   4.664  14.565 -0.5365  0.4084  0.2770
 6628SOL    HW131520   0.407   4.577  14.526  0.0061  1.6699 -2.7007
 6628SOL    HW231521   0.344   4.667  14.624 -2.5070  1.2596 -2.2541
 6629SOL     OW31522   0.854   0.956  16.478  0.2337 -0.3803  0.0980
 6629SOL    HW131523   0.924   1.007  16.521  0.3360 -1.7961  1.6104
 6629SOL    HW231524   0.787   0.982  16.541  0.7367 -0.5565  0.7130
 6630SOL     OW31525   2.228   3.393   2.726  0.2146  0.1164 -0.1346
 6630SOL    HW131526   2.305   3.422   2.677 -0.4529 -0.0214 -1.2562
 6630SOL    HW231527   2.276   3.374   2.807 -1.3088  1.8361  1.1790
 6631SOL     OW31528   4.468   4.055   3.256  0.1390  0.1435 -0.3599
 6631SOL    HW131529   4.478   4.000   3.179 -0.4644 -1.0998  0.4468
 6631SOL    HW231530   4.410   4.114   3.207 -0.7025 -0.8607 -0.5854
 6632SOL     OW31531   4.579   3.263  15.671 -0.0344 -0.2164  0.2116
 6632SOL    HW131532   4.559   3.184  15.620 -0.1049  0.2070 -0.4150
 6632SOL    HW231533   4.579   3.233  15.762 -0.3971 -1.7479 -0.2821
 6633SOL     OW31534   4.190   3.082   3.837 -0.5546 -0.2561 -1.2544
 6633SOL    HW131535   4.201   3.094   3.742  0.4290 -0.8153 -1.2211
 6633SOL    HW231536   4.111   3.134   3.851  0.7666  1.2602  0.5965
 6634SOL     OW31537   4.542   2.399   3.376 -0.2772 -0.0253  0.2828
 6634SOL    HW131538   4.467   2.457   3.391 -0.3112  0.4113 -1.6498
 6634SOL    HW231539   4.594   2.457   3.321 -1.1975 -0.5131 -1.0832
 6635SOL     OW31540   1.500   2.425   8.748  0.6169  0.0687  0.5914
 6635SOL    HW131541   1.465   2.375   8.822  1.1782  1.3701  1.7317
 6635SOL    HW231542   1.474   2.510   8.781  0.5656  0.3044 -0.0572
 6636SOL     OW31543   2.019   3.507   4.485  0.0377  0.3108 -0.2463
 6636SOL    HW131544   2.082   3.566   4.446  1.2126  0.1889  1.4460
 6636SOL    HW231545   2.062   3.465   4.559  0.3952 -1.2291 -1.3353
 6637SOL     OW31546   4.681   2.890  11.455 -0.3050  0.5128  0.6572
 6637SOL    HW131547   4.624   2.962  11.482 -0.7135  0.1904  0.6469
 6637SOL    HW231548   4.732   2.874  11.535  1.3230 -1.1153 -0.7221
 6638SOL     OW31549   4.461   0.033   0.556 -0.3497 -0.8748  0.0416
 6638SOL    HW131550   4.436   0.024   0.465  0.9170 -0.3251 -0.3569
 6638SOL    HW231551   4.548   0.072   0.548  0.4998 -2.5028  1.2043
 6639SOL     OW31552   2.657   2.801  14.790  0.2907  0.3832  0.3763
 6639SOL    HW131553   2.713   2.804  14.867  0.4976  0.7833  0.2125
 6639SOL    HW231554   2.725   2.756  14.740  0.3527  0.1571  0.6701
 6640SOL     OW31555   3.327   1.864   5.288 -0.3779  0.0866  0.6768
 6640SOL    HW131556   3.279   1.866   5.205  1.2860  1.5225 -0.2699
 6640SOL    HW231557   3.357   1.954   5.305 -0.1593  0.2857 -0.7624
 6641SOL     OW31558   4.099   4.326   8.521 -0.2148  0.2703 -0.0969
 6641SOL    HW131559   4.158   4.367   8.458  0.6818 -0.3779  0.3292
 6641SOL    HW231560   4.098   4.242   8.475  1.4588 -1.1168  2.3974
 6642SOL     OW31561   2.002   3.514   5.325 -0.6681  0.0205 -1.0379
 6642SOL    HW131562   1.916   3.517   5.367 -0.0948 -0.2616  0.1656
 6642SOL    HW231563   1.976   3.513   5.233 -0.1341  1.7480 -1.2148
 6643SOL     OW31564   1.764   2.462   2.368  0.1022 -0.0205 -1.0033
 6643SOL    HW131565   1.688   2.520   2.359  0.5833  0.9306  1.1659
 6643SOL    HW231566   1.758   2.443   2.461  0.5029  0.5766 -0.8562
 6644SOL     OW31567   0.505   0.826   5.360  0.0001 -0.5439 -0.7529
 6644SOL    HW131568   0.590   0.866   5.381 -0.0910 -1.1386  0.8008
 6644SOL    HW231569   0.446   0.900   5.372  0.3147 -0.1920 -1.3950
 6645SOL     OW31570   4.513   1.061   2.665 -0.3312 -0.2672  0.7317
 6645SOL    HW131571   4.485   1.099   2.582  0.5528  1.0798  1.0617
 6645SOL    HW231572   4.429   1.065   2.712 -0.0657 -1.1452  1.2949
 6646SOL     OW31573   2.717   3.822  11.646 -0.5337 -0.5634 -0.5124
 6646SOL    HW131574   2.748   3.896  11.697  0.8451 -0.2463 -1.8071
 6646SOL    HW231575   2.704   3.862  11.561 -0.9455  1.5086  0.5427
 6647SOL     OW31576   0.080   0.876  11.177 -0.2766  0.1984  0.4224
 6647SOL    HW131577   0.026   0.913  11.247 -1.1753 -0.0441 -0.1505
 6647SOL    HW231578   0.156   0.933  11.188  0.1452 -0.5364  1.3162
 6648SOL     OW31579   2.837   2.458  10.705  0.5201 -0.1211  0.3171
 6648SOL    HW131580   2.765   2.501  10.751 -2.5242 -0.0608 -4.5409
 6648SOL    HW231581   2.860   2.521  10.636 -1.3242 -2.9362 -2.8633
 6649SOL     OW31582   4.300   1.436   2.268 -0.3085  0.1791  0.1408
 6649SOL    HW131583   4.383   1.476   2.294  0.5761 -1.0865 -0.7464
 6649SOL    HW231584   4.237   1.454   2.338 -0.3288 -1.3914  0.5417
 6650SOL     OW31585   0.750   2.098  15.364 -0.6909  0.7435  0.0730
 6650SOL    HW131586   0.768   2.061  15.451 -1.5627  1.3615  0.5241
 6650SOL    HW231587   0.725   2.188  15.387  0.7458  1.0858  0.2882
 6651SOL     OW31588   3.619   1.988   4.693 -0.4185 -0.1896 -0.0362
 6651SOL    HW131589   3.546   2.050   4.686  0.7904  1.6263  3.4183
 6651SOL    HW231590   3.605   1.931   4.617  2.9365 -0.0043 -0.7584
 6652SOL     OW31591   2.429   0.972   5.794  0.7548  0.5802  0.1792
 6652SOL    HW131592   2.518   0.938   5.794  0.1136 -1.1003  1.3846
 6652SOL    HW231593   2.407   0.926   5.713 -0.4588 -0.8686  1.3280
 6653SOL     OW31594   3.305   1.917   6.808 -0.2459  0.3419 -0.1378
 6653SOL    HW131595   3.253   1.957   6.877 -1.8445  0.8152 -1.6176
 6653SOL    HW231596   3.393   1.927   6.845 -0.1308 -0.3233 -0.2316
 6654SOL     OW31597   2.487   1.535   7.011 -0.0649  0.3095  0.5216
 6654SOL    HW131598   2.441   1.584   7.079  0.3256  2.1787 -0.5502
 6654SOL    HW231599   2.409   1.498   6.970  0.9424 -2.5195  1.1909
 6655SOL     OW31600   2.286   3.312   3.559 -0.2038  0.1839 -0.1207
 6655SOL    HW131601   2.217   3.373   3.587 -0.5934 -0.4917  0.3696
 6655SOL    HW231602   2.276   3.307   3.464  2.0244 -1.1123 -0.2944
 6656SOL     OW31603   0.929   3.762   7.955 -0.1879 -0.2659 -0.6062
 6656SOL    HW131604   0.872   3.789   7.884  1.5346  1.9885 -1.1250
 6656SOL    HW231605   0.965   3.677   7.931 -0.1190 -1.2311  2.7904
 6657SOL     OW31606   1.162   1.936  12.209 -0.1692 -0.1026 -1.0769
 6657SOL    HW131607   1.193   1.846  12.205  0.3016 -0.0256  1.3430
 6657SOL    HW231608   1.130   1.943  12.299  1.8112  0.2666 -0.4013
 6658SOL     OW31609   4.482   2.436   7.996  0.0993  0.0204 -0.4363
 6658SOL    HW131610   4.416   2.434   7.927 -0.0108  0.9383 -0.3572
 6658SOL    HW231611   4.554   2.484   7.957 -0.1751 -1.8789 -3.2201
 6659SOL     OW31612   3.922   4.100   6.907 -0.3211 -0.0725 -0.4120
 6659SOL    HW131613   4.009   4.084   6.944 -1.6477 -1.7267  2.0149
 6659SOL    HW231614   3.896   4.009   6.890  1.7987 -0.4076 -1.9517
 6660SOL     OW31615   2.582   4.671   3.848 -0.2027 -0.9176 -0.2425
 6660SOL    HW131616   2.612   4.580   3.854  1.6026 -0.4470 -1.8065
 6660SOL    HW231617   2.669   4.710   3.843 -0.3627 -0.1936  2.5494
 6661SOL     OW31618   4.337   2.122   6.703  0.0242  0.0331  0.2641
 6661SOL    HW131619   4.426   2.087   6.703  0.6659  1.6664  2.8435
 6661SOL    HW231620   4.293   2.038   6.717 -1.6007  0.6262 -1.2613
 6662SOL     OW31621   3.784   3.323   6.502  0.0559  0.3680  0.4273
 6662SOL    HW131622   3.708   3.303   6.557  1.0590 -0.6237  1.4658
 6662SOL    HW231623   3.749   3.356   6.420 -1.7040 -0.8278  0.7013
 6663SOL     OW31624   1.590   0.799   4.066  0.1616  0.1911  0.4447
 6663SOL    HW131625   1.676   0.798   4.107  1.0936  0.0203 -1.5102
 6663SOL    HW231626   1.540   0.838   4.138  1.6576 -0.6902  1.9640
 6664SOL     OW31627   0.395   1.571   4.451 -0.1528  0.1562  0.3695
 6664SOL    HW131628   0.405   1.659   4.488  0.7740 -0.3136  1.2294
 6664SOL    HW231629   0.461   1.561   4.383 -1.4435  0.3156 -0.9151
 6665SOL     OW31630   0.895   0.407  12.609 -0.8159 -0.4386 -0.2253
 6665SOL    HW131631   0.950   0.434  12.682 -1.1079  3.0936 -1.3332
 6665SOL    HW231632   0.942   0.334  12.569 -0.5714  1.4685 -3.3932
 6666SOL     OW31633   4.015   0.441   3.505 -0.3394  0.2686 -0.6809
 6666SOL    HW131634   4.051   0.529   3.511 -1.4312  0.6237  0.4394
 6666SOL    HW231635   3.974   0.428   3.590 -1.4097  0.0117 -1.2298
 6667SOL     OW31636   3.707   3.497   6.129 -0.0637 -0.0999  0.3706
 6667SOL    HW131637   3.789   3.503   6.078 -0.5022 -0.1202 -0.3370
 6667SOL    HW231638   3.642   3.515   6.061 -0.0347  2.0597  0.8998
 6668SOL     OW31639   2.355   3.739  14.822  0.4754  0.8317 -0.0251
 6668SOL    HW131640   2.411   3.686  14.765  1.0268 -0.6561  1.8942
 6668SOL    HW231641   2.423   3.755  14.889  1.0213  0.4815 -0.4946
 6669SOL     OW31642   1.025   0.795   7.723 -0.4099 -0.0187  0.7828
 6669SOL    HW131643   1.086   0.731   7.687  0.4155  2.2016 -1.7453
 6669SOL    HW231644   0.952   0.775   7.665 -0.4910  1.3625  0.4080
 6670SOL     OW31645   3.952   1.302   2.609 -0.1359  0.2415  0.4707
 6670SOL    HW131646   3.985   1.317   2.698 -1.1425  1.1745  0.6907
 6670SOL    HW231647   3.881   1.238   2.616  0.7655 -0.8897 -0.8797
 6671SOL     OW31648   2.815   1.218   2.923  0.2610  0.5622 -0.3070
 6671SOL    HW131649   2.865   1.184   2.849  1.7218  0.2476  0.8358
 6671SOL    HW231650   2.743   1.155   2.920 -0.4744  1.4250 -0.7725
 6672SOL     OW31651   3.134   0.753   6.277 -0.0271 -0.1785 -0.5518
 6672SOL    HW131652   3.079   0.807   6.332  1.8440 -0.4255  1.5763
 6672SOL    HW231653   3.097   0.756   6.189 -1.3435  0.8980  0.0546
 6673SOL     OW31654   2.846   0.227  11.512 -0.3810 -0.0025  0.3425
 6673SOL    HW131655   2.820   0.309  11.555  0.2354 -0.5991  1.8686
 6673SOL    HW231656   2.763   0.211  11.468 -0.7729 -2.3573  1.9692
 6674SOL     OW31657   2.442   2.984   9.966  0.4830  0.0675 -0.6904
 6674SOL    HW131658   2.483   3.069   9.948 -0.0552  0.3760 -0.4430
 6674SOL    HW231659   2.503   2.947  10.029 -0.7598  1.6777  1.4468
 6675SOL     OW31660   2.345   3.841   3.004 -0.3745  0.7431  0.5415
 6675SOL    HW131661   2.322   3.893   3.081 -0.4863 -0.4326  1.3016
 6675SOL    HW231662   2.293   3.763   3.024  1.4938 -0.5620  0.2506
 6676SOL     OW31663   4.297   2.832   4.684 -0.4801  0.1368 -0.0624
 6676SOL    HW131664   4.342   2.894   4.627  0.4977 -0.6648 -0.1682
 6676SOL    HW231665   4.368   2.796   4.737  0.1427  0.9200 -0.3770
 6677SOL     OW31666   0.861   3.673   0.524 -0.4795  0.5967 -0.4557
 6677SOL    HW131667   0.787   3.720   0.562 -0.0714 -0.5239  1.7390
 6677SOL    HW231668   0.941   3.717   0.555  1.0746 -1.4748 -1.5323
 6678SOL     OW31669   1.898   4.532   6.229 -0.4693  0.3019  0.5083
 6678SOL    HW131670   1.917   4.472   6.301  0.9973 -1.2194 -1.1310
 6678SOL    HW231671   1.809   4.503   6.212 -0.7077 -0.7152  3.4720
 6679SOL     OW31672   1.161   4.527   5.993  0.2664  0.5293 -0.2069
 6679SOL    HW131673   1.083   4.535   6.047 -0.6611  0.4426 -1.5389
 6679SOL    HW231674   1.117   4.540   5.909 -1.2158 -3.0660  0.0516
 6680SOL     OW31675   2.591   2.108  12.997  0.5179 -0.0973  0.3335
 6680SOL    HW131676   2.608   2.035  12.937  0.6766  0.4126 -0.2417
 6680SOL    HW231677   2.576   2.056  13.076  0.7810 -0.2027  0.3156
 6681SOL     OW31678   2.170   2.706   2.696  0.2633  0.4477  0.0847
 6681SOL    HW131679   2.156   2.647   2.622  1.1780 -0.1652  0.3902
 6681SOL    HW231680   2.085   2.750   2.694  0.5809  1.1580  2.0384
 6682SOL     OW31681   3.651   3.648  11.625 -0.1730 -0.5657 -0.1598
 6682SOL    HW131682   3.651   3.712  11.696  0.0532 -1.0978  0.3194
 6682SOL    HW231683   3.556   3.635  11.625  0.1327 -2.6608  0.2234
 6683SOL     OW31684   0.475   0.564   6.700  0.0588 -0.0032  0.2741
 6683SOL    HW131685   0.521   0.610   6.771 -1.1630 -0.9886  1.7209
 6683SOL    HW231686   0.529   0.580   6.623 -2.5334 -0.7629 -1.7138
 6684SOL     OW31687   1.729   3.031   6.797 -0.0239  0.7500 -0.2292
 6684SOL    HW131688   1.702   2.961   6.739  0.9030  0.3731 -0.2150
 6684SOL    HW231689   1.775   3.087   6.733 -0.5354  2.1272  0.6066
 6685SOL     OW31690   1.335   1.945   9.797  0.3739 -0.4060 -0.3468
 6685SOL    HW131691   1.273   1.874   9.777 -0.0845 -0.5060  1.4317
 6685SOL    HW231692   1.348   1.977   9.708 -1.0444  1.8388  0.2513
 6686SOL     OW31693   4.630   3.628   3.646 -0.7725 -0.1685  0.6972
 6686SOL    HW131694   4.677   3.586   3.574  1.2721 -1.0764  2.5927
 6686SOL    HW231695   4.544   3.586   3.644 -1.2489  0.6819  3.4912
 6687SOL     OW31696   4.516   2.126   2.842 -0.2942  0.3103  0.3961
 6687SOL    HW131697   4.448   2.191   2.858 -1.6770 -0.8585 -0.6400
 6687SOL    HW231698   4.602   2.167   2.848  1.7467 -3.8946 -0.1089
 6688SOL     OW31699   1.850   2.472   7.735 -0.4968  0.1613  0.1230
 6688SOL    HW131700   1.895   2.482   7.651 -2.1901  2.6430 -0.4953
 6688SOL    HW231701   1.793   2.549   7.735 -0.5796  0.0997  1.9809
 6689SOL     OW31702   0.726   3.884   5.315 -0.2518 -0.0630  0.6384
 6689SOL    HW131703   0.654   3.853   5.369 -1.0356 -0.6682 -0.7507
 6689SOL    HW231704   0.689   3.954   5.261  2.4169  1.3090  0.5970
 6690SOL     OW31705   2.003   1.808   5.201  0.3696 -0.1678 -0.3023
 6690SOL    HW131706   2.033   1.807   5.291 -0.3442 -1.3558 -0.0809
 6690SOL    HW231707   2.075   1.760   5.159  1.4935  1.1036  0.1691
 6691SOL     OW31708   2.713   0.618   3.777 -0.8032  0.1395 -0.0818
 6691SOL    HW131709   2.650   0.548   3.792 -1.8647  1.0189 -0.4067
 6691SOL    HW231710   2.722   0.665   3.861 -0.3543 -0.3802  0.1619
 6692SOL     OW31711   2.800   2.695   5.980 -0.1407 -0.4772  0.3176
 6692SOL    HW131712   2.807   2.665   6.070  0.5220 -0.9398  0.1128
 6692SOL    HW231713   2.715   2.738   5.987  0.0160 -0.0046 -0.6146
 6693SOL     OW31714   3.862   1.166   4.484  0.5077  0.5143  0.3823
 6693SOL    HW131715   3.833   1.211   4.404 -0.2670  0.7121  0.7801
 6693SOL    HW231716   3.922   1.104   4.441  0.6353  0.0979  1.1651
 6694SOL     OW31717   2.802   3.608  16.015  0.1701 -0.2965  0.0280
 6694SOL    HW131718   2.805   3.604  15.919 -2.1776  1.9722 -0.1482
 6694SOL    HW231719   2.808   3.702  16.032 -2.6476 -0.1687  0.4062
 6695SOL     OW31720   3.845   0.098   6.652  0.2689 -0.1834 -0.4470
 6695SOL    HW131721   3.878   0.184   6.679  2.5559 -1.5225  1.0436
 6695SOL    HW231722   3.751   0.116   6.641  0.3602 -0.4334 -1.6006
 6696SOL     OW31723   0.490   1.034   1.873 -0.0100 -0.5017 -0.2889
 6696SOL    HW131724   0.495   1.092   1.949 -0.0214 -0.2261 -0.4970
 6696SOL    HW231725   0.429   0.972   1.912 -2.4124  0.9500 -1.7363
 6697SOL     OW31726   4.269   2.115  16.771 -0.1504 -0.4633  0.4334
 6697SOL    HW131727   4.356   2.150  16.787 -0.3587 -0.3331  1.2530
 6697SOL    HW231728   4.283   2.055  16.697 -0.2293  0.5096 -0.3732
 6698SOL     OW31729   1.029   1.980  12.881  0.3694 -0.4262 -0.0566
 6698SOL    HW131730   1.045   1.909  12.819 -0.1445 -0.4845 -0.1184
 6698SOL    HW231731   0.934   1.984  12.874  0.4537 -0.7130 -1.3748
 6699SOL     OW31732   3.169   0.053   2.799  0.0586  0.6864  0.1479
 6699SOL    HW131733   3.257   0.057   2.762 -0.3283 -0.6042 -0.9451
 6699SOL    HW231734   3.179   4.731   2.875 -2.3172 -0.0060 -0.0552
 6700SOL     OW31735   0.156   2.538  10.083  0.7308  0.2673 -0.0048
 6700SOL    HW131736   0.220   2.545  10.013  0.9395 -0.6531  0.0894
 6700SOL    HW231737   0.078   2.505  10.037  0.2361  0.6716  0.5504
 6701SOL     OW31738   3.197   1.168   5.652 -0.1324 -0.6448  0.4454
 6701SOL    HW131739   3.211   1.093   5.595  1.7791  0.2947 -0.3252
 6701SOL    HW231740   3.218   1.239   5.591 -2.5204 -0.1793  0.1383
 6702SOL     OW31741   3.059   0.513   3.653 -0.0970 -0.4387  0.0797
 6702SOL    HW131742   3.039   0.605   3.671  1.6140  0.2853 -1.7313
 6702SOL    HW231743   3.121   0.524   3.581  0.3140  2.3781  0.8807
 6703SOL     OW31744   2.838   0.496   9.748  0.0478  0.1545  0.0308
 6703SOL    HW131745   2.772   0.479   9.680  1.3258 -0.6021 -1.0085
 6703SOL    HW231746   2.881   0.412   9.763  1.8233  0.9799 -0.4509
 6704SOL     OW31747   0.639   3.153   8.647  0.2837 -0.5539  0.2759
 6704SOL    HW131748   0.732   3.151   8.624  0.6499  2.1902  1.4248
 6704SOL    HW231749   0.608   3.063   8.650  0.4859 -0.6067  0.6696
 6705SOL     OW31750   0.544   0.812   3.638 -0.4557 -0.6857  0.5238
 6705SOL    HW131751   0.568   0.778   3.552  1.4190  2.0038 -0.0186
 6705SOL    HW231752   0.450   0.810   3.621 -0.2626  0.4804 -0.6752
 6706SOL     OW31753   3.904   3.433   1.836  0.2481  0.6584  0.0775
 6706SOL    HW131754   3.931   3.508   1.889  0.9104  0.3962  0.1070
 6706SOL    HW231755   3.812   3.458   1.828  0.2457 -0.1131 -2.2474
 6707SOL     OW31756   0.742   0.077   6.498 -0.0869 -0.0504 -0.6649
 6707SOL    HW131757   0.790   0.015   6.552 -2.6477 -1.2177  0.2269
 6707SOL    HW231758   0.708   0.032   6.420 -1.3340 -2.4777  1.3080
 6708SOL     OW31759   1.948   4.454   3.702  0.3081 -0.4551  0.3940
 6708SOL    HW131760   1.875   4.393   3.693  0.0891  0.1326 -1.7575
 6708SOL    HW231761   1.960   4.448   3.797 -0.3048  3.4172  0.7050
 6709SOL     OW31762   0.718   1.935  16.359  0.1375  0.5177  0.1932
 6709SOL    HW131763   0.705   1.888  16.442  1.1077 -0.4410 -0.2084
 6709SOL    HW231764   0.702   2.025  16.388 -0.7891  0.3476  0.2054
 6710SOL     OW31765   2.090   4.631   4.996 -0.6396 -0.2376  0.1978
 6710SOL    HW131766   2.016   4.570   4.999 -0.6749 -0.2107 -0.1393
 6710SOL    HW231767   2.135   4.609   4.914  2.2063 -0.4345  1.7994
 6711SOL     OW31768   2.450   4.546   5.883 -0.0545 -0.0250  0.0897
 6711SOL    HW131769   2.423   4.471   5.936 -0.2550 -0.7246 -1.0200
 6711SOL    HW231770   2.378   4.577   5.829 -1.1229 -0.7037  1.1154
 6712SOL     OW31771   4.545   0.752   9.221  0.0787  0.5023 -0.0194
 6712SOL    HW131772   4.452   0.774   9.219  0.3527  1.7685  0.7673
 6712SOL    HW231773   4.533   0.680   9.283  0.9116 -0.4318 -0.9622
 6713SOL     OW31774   4.717   0.606   2.202  0.4443 -0.0942 -0.0437
 6713SOL    HW131775   4.714   0.691   2.157 -1.0813 -0.5664 -0.8279
 6713SOL    HW231776   0.077   0.601   2.207  0.3955  1.7425  2.4602
 6714SOL     OW31777   1.755   4.525  10.121 -0.0080 -0.1734  0.4877
 6714SOL    HW131778   1.695   4.503  10.192  0.0486  0.3640  0.6998
 6714SOL    HW231779   1.828   4.467  10.144  0.6999  0.7184  0.5153
 6715SOL     OW31780   4.099   1.677   7.971 -0.2117 -0.1017 -0.2708
 6715SOL    HW131781   4.016   1.661   8.016 -0.3254  1.5832  0.0983
 6715SOL    HW231782   4.055   1.707   7.891  1.9463 -0.5073 -1.6176
 6716SOL     OW31783   0.646   0.290   9.576  0.2354  0.0848 -0.6843
 6716SOL    HW131784   0.574   0.350   9.594  1.7028  1.1228  1.6416
 6716SOL    HW231785   0.601   0.207   9.562 -1.0520  0.7643 -0.5418
 6717SOL     OW31786   2.035   0.549  17.576  0.6352 -0.8511 -0.1856
 6717SOL    HW131787   2.031   0.632  17.624 -0.4202  0.2142 -2.1404
 6717SOL    HW231788   2.082   0.575  17.496 -0.2430  1.0169 -0.0980
 6718SOL     OW31789   0.742   0.582  17.392  0.5020  0.0367 -0.2006
 6718SOL    HW131790   0.697   0.589  17.307 -0.0426  0.4739  0.1259
 6718SOL    HW231791   0.770   0.490  17.395  1.4241  0.3143 -0.2622
 6719SOL     OW31792   1.167   2.891   1.181 -1.0098 -0.3903  0.4064
 6719SOL    HW131793   1.152   2.909   1.274  0.2396  1.9177  0.1527
 6719SOL    HW231794   1.110   2.963   1.156  0.5674  0.7728  0.1238
 6720SOL     OW31795   2.289   3.233   3.247  0.0303 -0.0453 -0.9655
 6720SOL    HW131796   2.303   3.139   3.258  0.1181 -0.2324 -2.5626
 6720SOL    HW231797   2.379   3.247   3.218  0.8551 -2.0302  0.6826
 6721SOL     OW31798   1.947   0.633   4.147 -0.1680  0.0818 -0.3126
 6721SOL    HW131799   1.930   0.630   4.053  0.5789  2.4167 -0.5196
 6721SOL    HW231800   1.858   0.635   4.183 -0.7154  1.0266 -1.7199
 6722SOL     OW31801   4.714   1.181  13.114 -0.9428  0.0606  0.0996
 6722SOL    HW131802   4.694   1.153  13.203  0.6901  0.8007  0.7189
 6722SOL    HW231803   4.630   1.156  13.076 -1.6531  0.4368  1.4056
 6723SOL     OW31804   2.286   0.549  12.484 -0.0541 -0.8422 -0.0118
 6723SOL    HW131805   2.262   0.457  12.492  1.0317 -1.1064  0.2443
 6723SOL    HW231806   2.202   0.595  12.485  0.4306  0.0448  0.1592
 6724SOL     OW31807   3.579   4.408  14.027  0.1565 -0.2833  0.1779
 6724SOL    HW131808   3.519   4.477  14.000  0.4253  0.5134  1.6167
 6724SOL    HW231809   3.633   4.379  13.953  0.8115  0.7885  0.2340
 6725SOL     OW31810   3.288   3.150   8.902 -0.3684 -0.2069  0.0281
 6725SOL    HW131811   3.230   3.226   8.908 -0.1815 -0.1998  1.7135
 6725SOL    HW231812   3.281   3.127   8.809  1.0983 -1.5542  0.2543
 6726SOL     OW31813   2.169   4.112   7.010 -0.2260 -0.0874  0.5545
 6726SOL    HW131814   2.187   4.187   7.066 -1.0818 -1.1678  2.2633
 6726SOL    HW231815   2.258   4.092   6.980 -0.4932 -1.4645  0.6583
 6727SOL     OW31816   2.625   1.876   1.875  0.1607 -0.6164 -0.8028
 6727SOL    HW131817   2.696   1.911   1.929  0.4234  0.5444 -1.9169
 6727SOL    HW231818   2.669   1.797   1.843 -0.0710 -2.1996  2.7191
 6728SOL     OW31819   3.066   1.947  11.738 -0.1590  0.2015  0.0439
 6728SOL    HW131820   3.063   1.852  11.748  0.5294  0.1104 -0.6412
 6728SOL    HW231821   3.041   1.974  11.826 -1.4903 -1.5769  0.2036
 6729SOL     OW31822   3.965   2.032   6.490 -0.5486 -0.5097 -0.3860
 6729SOL    HW131823   3.982   1.938   6.502  0.2054 -0.2890  0.3271
 6729SOL    HW231824   4.008   2.044   6.406  1.3619  2.0025  0.9517
 6730SOL     OW31825   3.099   3.926   3.564 -0.2104 -0.1332 -0.6377
 6730SOL    HW131826   3.055   3.953   3.483 -2.2439 -0.6174  0.3149
 6730SOL    HW231827   3.050   3.848   3.588  1.7840 -1.2583 -0.2544
 6731SOL     OW31828   0.614   3.328   2.932  0.2849 -0.2662 -0.6306
 6731SOL    HW131829   0.624   3.346   3.026  0.0763  1.0790 -0.8661
 6731SOL    HW231830   0.672   3.393   2.892 -0.7094  0.7558 -0.3956
 6732SOL     OW31831   1.843   3.415   6.540  0.1799  0.7505 -0.6742
 6732SOL    HW131832   1.883   3.495   6.505  0.5001 -0.0355 -2.1192
 6732SOL    HW231833   1.757   3.435   6.575 -0.4558  1.3966 -2.5764
 6733SOL     OW31834   1.453   3.766   0.211 -0.0485  0.0511 -0.1279
 6733SOL    HW131835   1.416   3.708   0.144  0.4181 -1.6834  1.1302
 6733SOL    HW231836   1.539   3.729   0.231  1.1172  1.0288 -3.3528
 6734SOL     OW31837   0.157   4.234   3.108 -0.2334  0.5558  0.3380
 6734SOL    HW131838   0.083   4.192   3.064  2.2220 -0.8352 -2.4481
 6734SOL    HW231839   0.180   4.175   3.179  1.8303 -0.2316 -1.0038
 6735SOL     OW31840   2.213   0.680   3.999  0.1136 -0.3061  0.1932
 6735SOL    HW131841   2.135   0.678   4.054 -0.4309 -0.2518 -0.5836
 6735SOL    HW231842   2.241   0.589   4.000 -1.9126 -0.9660 -3.9474
 6736SOL     OW31843   1.740   1.491   0.139  0.1728 -0.1560  0.3115
 6736SOL    HW131844   1.778   1.440   0.067  0.3382  0.9269 -0.3685
 6736SOL    HW231845   1.711   1.432   0.208  2.2948 -0.8114  0.6391
 6737SOL     OW31846   1.752   3.709   6.656  0.1842  0.0113  0.0239
 6737SOL    HW131847   1.746   3.805   6.653  0.3772 -0.0352 -1.7456
 6737SOL    HW231848   1.828   3.689   6.602  1.8510  2.0094  1.5900
 6738SOL     OW31849   0.952   0.122   5.672  0.1527  0.2765 -0.7781
 6738SOL    HW131850   0.956   0.133   5.767  2.8695  2.2947 -1.1010
 6738SOL    HW231851   0.952   0.209   5.633 -0.1907 -0.1211 -1.6607
 6739SOL     OW31852   1.745   1.745   6.104 -0.0075 -0.8655 -0.2840
 6739SOL    HW131853   1.752   1.834   6.139  1.4437 -0.5884 -1.3015
 6739SOL    HW231854   1.730   1.691   6.182  1.4210 -0.7407  0.0687
 6740SOL     OW31855   1.127   1.497   9.550  0.4118  0.7612  0.0496
 6740SOL    HW131856   1.086   1.579   9.525 -1.4213  0.5143  2.2314
 6740SOL    HW231857   1.049   1.442   9.561  0.7439  0.1313 -0.7518
 6741SOL     OW31858   1.803   3.615   4.884 -0.1340 -0.2996  0.1412
 6741SOL    HW131859   1.813   3.706   4.911  1.6030 -0.0398 -1.4066
 6741SOL    HW231860   1.810   3.623   4.789  1.5760 -1.2946  0.1791
 6742SOL     OW31861   2.836   3.451   4.879 -0.4391  0.0699 -0.7822
 6742SOL    HW131862   2.891   3.426   4.804  1.7847  0.3612  0.7544
 6742SOL    HW231863   2.873   3.392   4.944 -0.7613 -0.0028 -0.6672
 6743SOL     OW31864   4.609   0.779  15.162 -0.4363 -0.4128 -0.2896
 6743SOL    HW131865   4.594   0.750  15.252  0.4040 -0.5970 -0.2108
 6743SOL    HW231866   4.653   0.863  15.178  0.3598 -0.7903 -0.5332
 6744SOL     OW31867   3.365   2.310  13.672 -0.7073  0.3587  0.0168
 6744SOL    HW131868   3.431   2.323  13.740 -0.9556 -0.0022  0.3337
 6744SOL    HW231869   3.297   2.274  13.730  0.2551  0.7627  1.3992
 6745SOL     OW31870   0.540   3.752   4.686 -0.0155  0.3292 -0.2681
 6745SOL    HW131871   0.560   3.770   4.594 -3.7019 -3.1827 -1.7466
 6745SOL    HW231872   0.599   3.682   4.713  0.3561  0.7634  0.0545
 6746SOL     OW31873   1.135   3.013   2.732  0.0837 -0.0373  0.1617
 6746SOL    HW131874   1.169   2.970   2.810  0.7169  0.4666  0.1612
 6746SOL    HW231875   1.157   2.955   2.659 -1.7178 -0.8897  0.2900
 6747SOL     OW31876   0.871   1.765  12.316  0.5726 -0.0686 -0.1766
 6747SOL    HW131877   0.863   1.735  12.407 -1.3972 -3.6593 -1.5287
 6747SOL    HW231878   0.850   1.857  12.330 -1.5908 -0.3422 -1.8011
 6748SOL     OW31879   2.638   0.387  16.257 -0.0609 -0.0188 -0.1494
 6748SOL    HW131880   2.570   0.368  16.192  0.2376 -3.7118  0.6693
 6748SOL    HW231881   2.712   0.432  16.216  0.0209 -0.8005 -0.8523
 6749SOL     OW31882   2.187   1.776  10.482  0.2079 -0.1960  0.3508
 6749SOL    HW131883   2.177   1.698  10.535 -0.3394 -0.0166  0.5141
 6749SOL    HW231884   2.182   1.842  10.551  1.5730  0.0828  0.1760
 6750SOL     OW31885   3.842   0.492   4.126  0.1298  0.7863 -0.0653
 6750SOL    HW131886   3.824   0.578   4.089 -0.3161  0.8069  0.2156
 6750SOL    HW231887   3.760   0.445   4.113 -0.1189  0.3772  3.1843
 6751SOL     OW31888   4.423   3.632   2.624  0.2379 -0.1392  0.1318
 6751SOL    HW131889   4.455   3.648   2.536 -0.3231  0.5903  0.0586
 6751SOL    HW231890   4.383   3.715   2.652 -2.6649 -1.1795 -0.8592
 6752SOL     OW31891   2.707   4.111   3.146 -0.4340  0.1598  0.1047
 6752SOL    HW131892   2.644   4.056   3.191 -1.1112 -1.3359 -2.6772
 6752SOL    HW231893   2.654   4.170   3.093  0.6637  0.7224 -0.3837
 6753SOL     OW31894   3.638   4.029   5.975 -0.6221 -0.4474 -0.3195
 6753SOL    HW131895   3.599   4.114   5.955 -0.6224 -0.7366 -1.5605
 6753SOL    HW231896   3.668   3.993   5.891 -0.8832 -0.8637 -0.2332
 6754SOL     OW31897   2.271   3.710  11.714 -0.7079  0.2318 -0.0415
 6754SOL    HW131898   2.194   3.744  11.760  1.6839  1.3280  3.1837
 6754SOL    HW231899   2.231   3.660  11.643 -1.3455  1.5659 -0.6092
 6755SOL     OW31900   1.888   2.496   4.697  0.6939  0.4982 -0.3499
 6755SOL    HW131901   1.901   2.500   4.792 -0.4945  0.8428 -0.1930
 6755SOL    HW231902   1.953   2.428   4.680  3.4989  3.1601 -0.1357
 6756SOL     OW31903   0.561   4.373   1.609 -0.2868  0.5234 -0.3740
 6756SOL    HW131904   0.627   4.328   1.556  0.5146  1.8778 -0.5496
 6756SOL    HW231905   0.482   4.382   1.556 -0.9990 -2.4685  0.2136
 6757SOL     OW31906   4.560   4.699   2.993 -0.0049  0.2505 -0.3889
 6757SOL    HW131907   4.587   4.670   2.906 -0.7000 -0.9998 -0.1846
 6757SOL    HW231908   4.569   4.612   3.032  0.3717  1.0291  1.2482
 6758SOL     OW31909   2.791   2.369   3.373 -0.3962 -0.1430  0.1385
 6758SOL    HW131910   2.821   2.459   3.363 -0.7114 -0.2012 -1.2306
 6758SOL    HW231911   2.719   2.367   3.311 -0.0288  1.6119 -0.3526
 6759SOL     OW31912   2.740   0.606   6.409 -0.0232 -0.0659  0.2612
 6759SOL    HW131913   2.729   0.524   6.361 -1.6068  0.6098 -0.5366
 6759SOL    HW231914   2.748   0.666   6.335  0.8434  0.0551  0.4539
 6760SOL     OW31915   2.971   4.045  12.485 -0.4654  0.4766  0.0227
 6760SOL    HW131916   2.981   3.963  12.437  1.8027 -0.3157  1.8291
 6760SOL    HW231917   3.059   4.080  12.500  0.2285 -1.3722  0.2044
 6761SOL     OW31918   4.522   4.710  11.609 -0.2259  0.5133 -0.4603
 6761SOL    HW131919   4.603   4.661  11.597  0.3629  0.1686  4.9882
 6761SOL    HW231920   4.452   4.657  11.571 -1.8807  1.0233  1.8404
 6762SOL     OW31921   2.017   3.666  12.665  0.6582 -0.3035 -0.5840
 6762SOL    HW131922   2.000   3.749  12.709  1.6007 -0.2753 -0.2880
 6762SOL    HW231923   2.111   3.655  12.673  0.3277 -3.9512 -1.6958
 6763SOL     OW31924   2.769   2.548   5.429  0.4784  0.4262  0.0034
 6763SOL    HW131925   2.723   2.632   5.430 -0.7331 -0.2304 -0.4776
 6763SOL    HW231926   2.713   2.477   5.398 -0.9918  0.6876  2.0717
 6764SOL     OW31927   3.465   3.398   7.910  0.0484  0.5012 -0.5264
 6764SOL    HW131928   3.473   3.359   7.823 -0.8473 -0.9370  0.0379
 6764SOL    HW231929   3.526   3.471   7.897 -0.1368  1.5618  4.3764
 6765SOL     OW31930   3.910   2.912   4.192 -0.3680  0.3916  0.0851
 6765SOL    HW131931   3.881   2.907   4.100  0.9028 -0.6427 -0.2604
 6765SOL    HW231932   3.992   2.961   4.199  0.6250 -1.2859  0.3272
 6766SOL     OW31933   3.347   2.850   2.508  0.0532 -0.1935  0.4502
 6766SOL    HW131934   3.381   2.925   2.460 -2.6150  0.9096  0.2946
 6766SOL    HW231935   3.419   2.845   2.571 -0.3192  0.8347  0.9574
 6767SOL     OW31936   4.023   3.550  13.192  0.3723 -0.6537  0.4247
 6767SOL    HW131937   3.942   3.502  13.173  0.6291 -0.8774 -0.1011
 6767SOL    HW231938   4.036   3.536  13.286 -0.7980 -0.6016  0.5976
 6768SOL     OW31939   2.863   3.751  15.080  0.1010  0.5094 -0.3114
 6768SOL    HW131940   2.888   3.677  15.134  1.8804  2.6530  1.8234
 6768SOL    HW231941   2.936   3.775  15.023  1.7317 -1.3780  0.9926
 6769SOL     OW31942   4.722   0.744   3.339 -0.7082  0.0590  0.0901
 6769SOL    HW131943   4.709   0.826   3.388 -2.5770 -0.3155  0.2255
 6769SOL    HW231944   0.077   0.756   3.310 -0.2682 -0.5269  1.2514
 6770SOL     OW31945   4.223   1.368   8.812 -0.0454  0.7337  0.3417
 6770SOL    HW131946   4.270   1.346   8.731 -0.8637 -2.7088  0.8200
 6770SOL    HW231947   4.152   1.419   8.774 -1.2801  0.1264  1.8527
 6771SOL     OW31948   0.165   2.236   7.116  0.0216  0.5138  0.1694
 6771SOL    HW131949   0.163   2.156   7.169  1.9008 -0.0688 -0.6635
 6771SOL    HW231950   0.139   2.202   7.030 -1.6231 -0.8153  1.1747
 6772SOL     OW31951   2.979   2.705   7.060  0.2137 -0.0867  0.3324
 6772SOL    HW131952   2.976   2.792   7.098 -0.7230 -0.2094  0.5398
 6772SOL    HW231953   3.070   2.711   7.029  0.1746 -0.4868  0.1425
 6773SOL     OW31954   0.363   0.861   6.495 -0.0022  0.0119 -0.2519
 6773SOL    HW131955   0.288   0.815   6.532 -0.2259  0.4490 -0.1551
 6773SOL    HW231956   0.391   0.914   6.570  1.9952 -0.7892 -0.4382
 6774SOL     OW31957   2.365   2.041  14.613 -0.4063  0.6184 -0.0538
 6774SOL    HW131958   2.360   1.965  14.554 -0.0964  0.4705  0.1116
 6774SOL    HW231959   2.440   2.022  14.669 -1.3813  0.3649  1.1997
 6775SOL     OW31960   0.847   0.558  11.115  0.7104  0.4580  0.3806
 6775SOL    HW131961   0.837   0.486  11.053  1.0824  3.0600 -2.7188
 6775SOL    HW231962   0.874   0.504  11.189 -0.0961 -0.5819 -0.0770
 6776SOL     OW31963   3.145   0.479   6.033 -0.2534  0.5863  0.5397
 6776SOL    HW131964   3.234   0.447   6.047 -0.8744 -1.0427  0.7251
 6776SOL    HW231965   3.168   0.566   6.001  1.5571 -0.1087 -0.0485
 6777SOL     OW31966   2.891   3.686  15.765  0.0702  0.0775 -0.0271
 6777SOL    HW131967   2.904   3.775  15.731 -1.5867  0.9542  1.6200
 6777SOL    HW231968   2.982   3.676  15.792  0.2684  0.4171 -0.5633
 6778SOL     OW31969   4.293   0.858  16.686 -0.9201 -0.1514 -0.2767
 6778SOL    HW131970   4.303   0.819  16.599  0.3215  3.7788 -1.9184
 6778SOL    HW231971   4.283   0.947  16.653  0.1253 -0.0230 -0.2761
 6779SOL     OW31972   3.939   4.092   5.517  0.3027  0.4875 -0.3788
 6779SOL    HW131973   3.976   4.121   5.600 -1.3464 -1.7301  1.1323
 6779SOL    HW231974   3.868   4.035   5.545 -0.1173  1.2585  0.1248
 6780SOL     OW31975   2.915   3.137   3.887 -0.0535 -0.0328 -0.6192
 6780SOL    HW131976   2.838   3.136   3.831  0.4418  4.1826 -1.3738
 6780SOL    HW231977   2.983   3.087   3.842  0.0388 -0.8966  0.4723
 6781SOL     OW31978   4.074   0.951   3.215 -0.0291  0.3224  0.3704
 6781SOL    HW131979   4.060   0.860   3.189 -1.1180  0.4301  0.5870
 6781SOL    HW231980   3.984   0.980   3.232 -0.2582 -0.5542  0.6504
 6782SOL     OW31981   0.917   1.907  10.772 -0.2259  0.3198  0.1099
 6782SOL    HW131982   0.877   1.957  10.842  1.2859  0.3701  0.9366
 6782SOL    HW231983   0.945   1.962  10.699 -0.7523 -0.3988 -0.6328
 6783SOL     OW31984   1.648   2.175   8.352  0.3649 -0.1569  0.5095
 6783SOL    HW131985   1.649   2.100   8.412  0.2474 -1.2012 -0.7973
 6783SOL    HW231986   1.567   2.219   8.380 -1.3022 -2.4490 -0.7256
 6784SOL     OW31987   1.969   2.644   2.224  0.0237  0.2505 -0.1746
 6784SOL    HW131988   1.885   2.638   2.271  0.2714 -1.7258  0.0112
 6784SOL    HW231989   1.937   2.681   2.142  0.3161 -0.1905 -0.4897
 6785SOL     OW31990   2.014   3.657   7.875 -0.2502 -0.0289 -0.0907
 6785SOL    HW131991   1.930   3.702   7.884 -0.8453 -0.8980 -1.3446
 6785SOL    HW231992   1.991   3.569   7.846 -0.3515 -0.6155  1.7243
 6786SOL     OW31993   3.881   4.209   4.290  0.2318  0.0066 -0.0524
 6786SOL    HW131994   3.839   4.295   4.279  1.0916  0.3149 -0.9554
 6786SOL    HW231995   3.850   4.187   4.378  1.3938 -2.2674 -0.2078
 6787SOL     OW31996   1.971   1.937  13.301 -0.1606 -0.1129  0.3795
 6787SOL    HW131997   1.926   1.944  13.385  0.4889 -0.6671  0.7712
 6787SOL    HW231998   1.976   1.842  13.290  0.5730  0.0869 -1.0221
 6788SOL     OW31999   1.501   1.010  14.956 -0.1484 -0.6052 -0.3215
 6788SOL    HW132000   1.574   1.017  14.895  0.8356 -0.3298  0.8768
 6788SOL    HW232001   1.435   0.951  14.921  0.3364  0.0882 -2.3715
 6789SOL     OW32002   3.400   1.779   1.216 -0.3082  0.0047  0.4846
 6789SOL    HW132003   3.316   1.822   1.231 -0.8580 -0.2858 -1.8465
 6789SOL    HW232004   3.437   1.796   1.303  0.2090  0.7192  0.1169
 6790SOL     OW32005   1.022   2.787   7.973  0.4650 -0.0316  0.3134
 6790SOL    HW132006   0.990   2.762   8.059  0.4410  2.3889  0.9947
 6790SOL    HW232007   1.098   2.729   7.973  0.2645 -0.2950 -0.9146
 6791SOL     OW32008   2.535   1.807   7.102  0.0594 -0.8233  0.0296
 6791SOL    HW132009   2.546   1.761   7.019 -0.3070 -1.3893  0.2936
 6791SOL    HW232010   2.492   1.888   7.076  1.3679 -0.8898 -2.2689
 6792SOL     OW32011   0.418   3.281  16.494 -0.1957 -0.4841  0.2741
 6792SOL    HW132012   0.484   3.259  16.428 -1.4789 -0.1500 -1.1213
 6792SOL    HW232013   0.467   3.284  16.576  0.2902  1.2948 -0.0911
 6793SOL     OW32014   3.045   4.339  13.824 -0.2832  0.0746 -0.3574
 6793SOL    HW132015   3.049   4.415  13.882  1.9440 -0.5399  0.3067
 6793SOL    HW232016   3.134   4.304  13.817  0.7389  1.9448  3.4161
 6794SOL     OW32017   3.734   2.614   8.612 -0.0926  0.1088  0.4576
 6794SOL    HW132018   3.742   2.694   8.663 -0.3889 -0.0333  0.7232
 6794SOL    HW232019   3.676   2.652   8.545 -0.8472  0.8592  1.5505
 6795SOL     OW32020   3.456   3.670   3.984 -0.3757 -0.1796 -0.2318
 6795SOL    HW132021   3.494   3.758   3.981 -1.0448  0.0672 -1.1554
 6795SOL    HW232022   3.366   3.676   3.952  0.6326  1.8622 -2.7067
 6796SOL     OW32023   2.392   1.207   0.024 -0.1540  0.4664  0.2207
 6796SOL    HW132024   2.337   1.158   0.085  0.1913 -0.7945 -0.4879
 6796SOL    HW232025   2.390   1.156  17.684 -1.3244 -1.7319  1.6422
 6797SOL     OW32026   0.059   1.414   5.043  0.4644 -0.9973  0.0955
 6797SOL    HW132027   4.723   1.465   5.005 -0.1800 -1.2038  1.0186
 6797SOL    HW232028   0.132   1.430   4.982  0.0431  1.4977  0.2166
 6798SOL     OW32029   4.110   2.599   2.727  0.2979 -1.0245  0.2713
 6798SOL    HW132030   4.135   2.603   2.635  0.1860  0.7370  0.3311
 6798SOL    HW232031   4.026   2.553   2.723 -0.3666  0.2191 -0.1049
 6799SOL     OW32032   2.471   3.634   7.639  0.0756  0.5167 -0.2362
 6799SOL    HW132033   2.380   3.662   7.650  0.0552 -0.0620  1.0041
 6799SOL    HW232034   2.467   3.591   7.554 -1.4705 -0.2693  0.2466
 6800SOL     OW32035   0.698   2.539   8.493  0.2911 -0.3795 -0.0621
 6800SOL    HW132036   0.775   2.596   8.491 -0.7478  1.1495  2.5945
 6800SOL    HW232037   0.684   2.535   8.588  1.4246  0.4345  0.1395
 6801SOL     OW32038   1.788   3.481   6.877  0.2571 -0.4652 -0.1595
 6801SOL    HW132039   1.752   3.517   6.797  1.8951 -0.1821 -0.7601
 6801SOL    HW232040   1.876   3.461   6.847  0.7464 -0.4081  1.2005
 6802SOL     OW32041   4.470   3.316   9.006  0.2432  0.5774 -0.3969
 6802SOL    HW132042   4.401   3.256   8.979  0.8169 -0.0646 -0.4492
 6802SOL    HW232043   4.543   3.261   9.036 -1.9685 -2.1083 -0.0055
 6803SOL     OW32044   1.194   3.456  13.402 -0.0590 -0.1978  0.1086
 6803SOL    HW132045   1.270   3.420  13.448  0.4312 -1.6781 -1.8616
 6803SOL    HW232046   1.126   3.388  13.399 -0.5824  0.2766  1.0914
 6804SOL     OW32047   2.265   3.839   4.662 -0.4264 -0.0672  0.5838
 6804SOL    HW132048   2.357   3.819   4.645 -0.2855  0.3869  0.8154
 6804SOL    HW232049   2.242   3.776   4.731 -1.0263 -0.3578  0.1156
 6805SOL     OW32050   4.035   0.443   4.561  0.3050  0.3460  0.3437
 6805SOL    HW132051   4.050   0.535   4.582  1.2541  0.4364 -0.7743
 6805SOL    HW232052   3.947   0.429   4.524  1.4055 -2.8444 -1.1113
 6806SOL     OW32053   4.062   1.355   2.857  0.1424  0.4984  0.3578
 6806SOL    HW132054   4.053   1.270   2.900  1.7921 -1.0331 -2.3176
 6806SOL    HW232055   4.044   1.419   2.926 -0.7233  0.6746 -0.0208
 6807SOL     OW32056   1.550   3.824   9.264 -0.0926 -0.3881 -0.1425
 6807SOL    HW132057   1.494   3.780   9.328  0.6608  1.1749  1.5842
 6807SOL    HW232058   1.590   3.897   9.311  1.3874 -2.7491  2.3305
 6808SOL     OW32059   3.339   4.671  10.685 -0.2465 -0.5687 -1.0150
 6808SOL    HW132060   3.379   4.702  10.766  0.0859 -0.4816 -1.2113
 6808SOL    HW232061   3.409   4.617  10.649 -1.3314 -2.6837  0.0963
 6809SOL     OW32062   2.604   4.089  14.609  0.1507 -0.0184 -0.6052
 6809SOL    HW132063   2.624   4.063  14.699  2.5032  2.1150 -0.5292
 6809SOL    HW232064   2.564   4.008  14.577 -0.2511  0.2207 -0.7089
 6810SOL     OW32065   2.146   2.356   8.318  0.2138 -0.5585 -0.6619
 6810SOL    HW132066   2.091   2.285   8.352  2.2322 -1.3057  1.0073
 6810SOL    HW232067   2.217   2.358   8.382 -0.2249  0.7138 -0.2155
 6811SOL     OW32068   2.442   1.662  17.129 -0.0080 -0.2170  0.2786
 6811SOL    HW132069   2.528   1.691  17.097 -0.2487 -1.4908 -1.5179
 6811SOL    HW232070   2.379   1.655  17.058  0.3029  0.3906 -0.0574
 6812SOL     OW32071   2.067   2.749  16.988 -0.2051  0.5361  0.8001
 6812SOL    HW132072   2.025   2.797  17.060  0.2709  0.8227  0.8858
 6812SOL    HW232073   2.024   2.795  16.916 -1.3798 -2.4188 -0.3624
 6813SOL     OW32074   1.276   0.196  10.504  0.3872  0.1524 -0.1065
 6813SOL    HW132075   1.199   0.233  10.548 -0.3267 -1.4766  0.0072
 6813SOL    HW232076   1.344   0.251  10.543  0.0218  0.7897 -0.3597
 6814SOL     OW32077   3.411   3.373   1.988  0.3506  0.1520  0.0918
 6814SOL    HW132078   3.396   3.413   1.902 -2.0326  2.0090  1.3626
 6814SOL    HW232079   3.491   3.413   2.021  0.0072 -0.2187  1.3491
 6815SOL     OW32080   1.449   4.099   2.529 -0.1813 -0.1485  0.1164
 6815SOL    HW132081   1.362   4.096   2.490  0.1218 -1.6948 -0.4250
 6815SOL    HW232082   1.487   4.016   2.502 -0.9067  0.4766 -2.7781
 6816SOL     OW32083   2.231   2.407   2.605  0.2898 -0.6863  0.4720
 6816SOL    HW132084   2.206   2.386   2.516  3.1814 -1.9064 -0.0598
 6816SOL    HW232085   2.150   2.440   2.645  0.2268  0.1913 -0.3958
 6817SOL     OW32086   0.937   2.205   4.323 -0.5408  0.9327 -0.0485
 6817SOL    HW132087   1.022   2.181   4.285 -0.4576 -0.6455  1.1518
 6817SOL    HW232088   0.957   2.270   4.390  1.0520 -1.1029  1.4464
 6818SOL     OW32089   4.043   0.241  12.248  0.3061 -0.2441  0.2660
 6818SOL    HW132090   4.032   0.181  12.322 -2.4318 -1.5121 -1.1757
 6818SOL    HW232091   4.053   0.322  12.298  0.7289  1.9942 -3.4842
 6819SOL     OW32092   1.761   3.573   8.169 -0.2540  0.2588  0.4302
 6819SOL    HW132093   1.740   3.651   8.221  0.9700 -1.1381  3.0369
 6819SOL    HW232094   1.816   3.539   8.240  0.0442 -1.0921 -0.4607
 6820SOL     OW32095   0.263   3.379  12.236  0.4477  0.2267 -0.0915
 6820SOL    HW132096   0.259   3.376  12.140  0.2708 -1.5866 -0.0350
 6820SOL    HW232097   0.354   3.400  12.254 -0.0739  1.4033  1.1782
 6821SOL     OW32098   3.076   2.384   8.163 -1.1249 -0.0425 -0.1322
 6821SOL    HW132099   3.072   2.302   8.211  2.5376 -0.8143 -1.1311
 6821SOL    HW232100   3.171   2.393   8.151 -0.9682 -1.7950 -0.1255
 6822SOL     OW32101   4.633   2.892  17.367  0.0893 -0.0444  0.1097
 6822SOL    HW132102   4.543   2.872  17.341  0.2921  1.7967 -2.0473
 6822SOL    HW232103   4.666   2.940  17.291  1.0833  0.0615  0.5996
 6823SOL     OW32104   3.902   2.052   2.008 -0.2711 -0.2359  0.8521
 6823SOL    HW132105   3.975   2.024   1.953 -1.0843 -1.6921  0.5177
 6823SOL    HW232106   3.835   2.067   1.941 -0.1272  1.4774  1.0858
 6824SOL     OW32107   1.503   1.202  17.702 -0.0822 -0.0861  0.4086
 6824SOL    HW132108   1.449   1.264   0.010 -1.9747 -2.3522  1.2037
 6824SOL    HW232109   1.504   1.253  17.621 -0.6774 -0.3894  0.2111
 6825SOL     OW32110   4.081   2.438   9.200  0.4784  0.3268  0.0836
 6825SOL    HW132111   4.065   2.526   9.166  0.7172  0.6662  0.8380
 6825SOL    HW232112   4.106   2.456   9.291 -3.7596 -3.7545  2.0694
 6826SOL     OW32113   2.266   4.192  12.721 -0.0112 -0.4647 -0.1209
 6826SOL    HW132114   2.303   4.156  12.640  1.5686  2.6829 -0.7998
 6826SOL    HW232115   2.270   4.120  12.785 -0.8068 -0.1439  0.2764
 6827SOL     OW32116   4.288   4.340   1.914 -0.2254  0.1413  0.3230
 6827SOL    HW132117   4.214   4.314   1.859  0.5614  0.4926 -0.8775
 6827SOL    HW232118   4.262   4.416   1.967  0.4649  1.4077 -1.1863
 6828SOL     OW32119   3.330   0.416   4.294 -0.1047 -0.4499  0.6617
 6828SOL    HW132120   3.387   0.493   4.292 -0.3368 -0.3315 -1.3189
 6828SOL    HW232121   3.270   0.447   4.362 -1.8111  1.2185 -1.5830
 6829SOL     OW32122   1.393   1.965   1.345  0.2911  0.2517  0.0481
 6829SOL    HW132123   1.344   1.909   1.405  1.1061 -0.5078 -0.0030
 6829SOL    HW232124   1.464   1.990   1.404 -0.1119 -1.6069  1.3184
 6830SOL     OW32125   1.865   3.608  12.346  1.0473 -0.1367  0.5225
 6830SOL    HW132126   1.838   3.533  12.293  1.2096 -1.3412  2.1431
 6830SOL    HW232127   1.811   3.578  12.419  1.2318  0.1545  0.7802
 6831SOL     OW32128   0.071   0.730   8.854  0.0723  0.1705  0.3841
 6831SOL    HW132129   0.082   0.715   8.948  4.3908 -0.9334 -0.2981
 6831SOL    HW232130   0.106   0.819   8.841  0.0719  0.0318 -0.5730
 6832SOL     OW32131   2.555   3.840   1.767  0.3439  0.1583 -0.6565
 6832SOL    HW132132   2.544   3.875   1.856  0.0497  2.0502 -1.4542
 6832SOL    HW232133   2.618   3.773   1.794  0.4878 -0.0102 -1.4114
 6833SOL     OW32134   0.810   4.708   3.073  0.0879  0.3953 -0.8213
 6833SOL    HW132135   0.815   4.645   3.001  1.9008 -0.5202  0.1078
 6833SOL    HW232136   0.723   0.008   3.060 -0.1249 -0.1392 -0.8812
 6834SOL     OW32137   2.399   2.070   5.462  0.1492  0.2721 -0.2138
 6834SOL    HW132138   2.407   2.158   5.497  1.6016  0.3291 -0.6733
 6834SOL    HW232139   2.414   2.073   5.367  1.9844 -2.7559 -0.0181
 6835SOL     OW32140   1.038   3.898  15.919  0.1597  0.3595 -0.4093
 6835SOL    HW132141   0.968   3.946  15.963  0.8029 -1.4019  2.5851
 6835SOL    HW232142   0.978   3.853  15.860 -1.6138  0.4144  1.3362
 6836SOL     OW32143   1.960   4.403   6.462  0.1210  0.3059 -0.4082
 6836SOL    HW132144   1.880   4.398   6.515 -0.9473  0.9202 -1.9745
 6836SOL    HW232145   2.014   4.390   6.540 -0.8425  0.0281  0.2114
 6837SOL     OW32146   1.549   3.725   3.907 -0.3799  0.2365 -0.4387
 6837SOL    HW132147   1.473   3.783   3.908  0.6138  1.5695 -1.1462
 6837SOL    HW232148   1.518   3.649   3.858 -3.7591  0.8413  0.7351
 6838SOL     OW32149   1.712   1.996   3.438  0.7290  0.1001  0.0582
 6838SOL    HW132150   1.666   2.031   3.363 -0.6573 -0.9202  0.4307
 6838SOL    HW232151   1.655   1.921   3.452 -1.3695  2.3224  3.4514
 6839SOL     OW32152   3.694   0.661  13.600 -0.5877 -0.5560 -0.0900
 6839SOL    HW132153   3.673   0.595  13.534 -2.7620 -1.2314  1.2959
 6839SOL    HW232154   3.716   0.601  13.671 -2.6169 -1.7968 -0.4963
 6840SOL     OW32155   4.095   4.345   3.451  0.5978 -0.5608  0.1523
 6840SOL    HW132156   4.177   4.375   3.489  0.1850  0.4749  0.2003
 6840SOL    HW232157   4.034   4.345   3.524  1.7093 -0.7096  1.0849
 6841SOL     OW32158   3.359   3.296  10.310  0.5088 -0.2193  0.3228
 6841SOL    HW132159   3.328   3.263  10.225  1.3329  0.5122 -0.2609
 6841SOL    HW232160   3.453   3.285  10.305  0.7284  1.5209  0.5634
 6842SOL     OW32161   2.667   3.278   6.472  0.0229  0.0970  0.0879
 6842SOL    HW132162   2.686   3.352   6.529 -1.4948  0.0468  0.6697
 6842SOL    HW232163   2.611   3.310   6.402  1.5289  1.9710 -0.2442
 6843SOL     OW32164   3.293   3.427  14.735 -0.3228 -0.1615 -0.0255
 6843SOL    HW132165   3.217   3.396  14.686 -1.3011 -1.0751  2.0918
 6843SOL    HW232166   3.361   3.428  14.667 -0.5653  2.2039 -0.2115
 6844SOL     OW32167   2.214   0.811   3.025 -0.0531 -0.3263 -0.4192
 6844SOL    HW132168   2.126   0.832   3.057 -1.1089 -0.8149 -2.9922
 6844SOL    HW232169   2.209   0.764   2.942  4.5044 -1.6135  0.0598
 6845SOL     OW32170   2.391   4.677   6.272  0.1734 -0.4151 -0.1034
 6845SOL    HW132171   2.435   4.644   6.351  1.0649  2.5244  0.6304
 6845SOL    HW232172   2.411   4.603   6.214 -1.3947 -0.1893 -0.9402
 6846SOL     OW32173   3.976   0.217   1.056  0.1306 -0.2925 -0.1650
 6846SOL    HW132174   3.968   0.145   1.118 -0.7535 -0.5374 -0.5616
 6846SOL    HW232175   3.882   0.229   1.040  0.6892  1.8075 -1.9895
 6847SOL     OW32176   2.787   1.055  12.283  0.3361 -0.4177 -0.4073
 6847SOL    HW132177   2.805   0.980  12.338  0.2935 -0.3682 -0.3261
 6847SOL    HW232178   2.840   1.127  12.319 -0.9642 -1.0812  2.8038
 6848SOL     OW32179   3.596   3.724   6.839 -0.3891  0.0261 -0.0529
 6848SOL    HW132180   3.508   3.717   6.801 -0.1364  0.9107 -0.7862
 6848SOL    HW232181   3.626   3.634   6.850  0.3176 -0.0906 -3.1389
 6849SOL     OW32182   1.197   3.157   2.375  0.2757  0.3919 -0.1950
 6849SOL    HW132183   1.147   3.205   2.310  0.0189 -0.2173 -0.4482
 6849SOL    HW232184   1.136   3.092   2.409 -1.0430  0.2671 -2.8133
 6850SOL     OW32185   0.480   1.056   6.660 -0.3454 -0.5695  0.5534
 6850SOL    HW132186   0.574   1.051   6.645 -0.5672  0.1757 -1.1124
 6850SOL    HW232187   0.470   1.149   6.680  1.5970 -0.8423  2.7314
 6851SOL     OW32188   0.223   0.265   5.101 -0.1382 -0.0033  0.0416
 6851SOL    HW132189   0.281   0.341   5.102  1.6405 -1.3840  2.3446
 6851SOL    HW232190   0.277   0.202   5.150  0.4091 -1.8270 -2.8547
 6852SOL     OW32191   4.358   2.625   3.362  0.3946 -0.4032  0.6447
 6852SOL    HW132192   4.349   2.694   3.296  0.0286 -0.9930  0.0788
 6852SOL    HW232193   4.380   2.680   3.437 -0.5511  1.4795 -0.4525
 6853SOL     OW32194   2.500   3.836   4.935 -0.1797  0.0678 -0.2192
 6853SOL    HW132195   2.568   3.787   4.981 -0.1907  0.4931  0.2453
 6853SOL    HW232196   2.429   3.830   5.000  1.3932  2.3330  1.6594
 6854SOL     OW32197   1.881   4.058   1.503 -0.3390  0.9173  0.1597
 6854SOL    HW132198   1.858   3.997   1.573  1.4236 -1.3974 -1.2840
 6854SOL    HW232199   1.916   4.002   1.434 -0.7806 -0.4586  1.0583
 6855SOL     OW32200   2.539   0.688   6.815 -0.2698  0.5824  0.0380
 6855SOL    HW132201   2.517   0.616   6.874 -0.6872  0.8906  0.2578
 6855SOL    HW232202   2.499   0.658   6.733  0.3843  0.0153 -0.0738
 6856SOL     OW32203   4.190   3.259   0.941 -0.7417 -0.0087  0.8369
 6856SOL    HW132204   4.193   3.286   0.849 -1.2536 -1.0039  0.5279
 6856SOL    HW232205   4.206   3.165   0.937  0.7608  0.3583 -1.4924
 6857SOL     OW32206   3.829   2.762   6.009  0.1836 -0.0514  0.2768
 6857SOL    HW132207   3.870   2.803   6.086  1.4322  1.0438 -0.9777
 6857SOL    HW232208   3.906   2.770   5.954  0.2886 -1.7414  0.1783
 6858SOL     OW32209   4.393   4.259   1.590  0.1498  0.4304  0.0150
 6858SOL    HW132210   4.454   4.222   1.653 -0.7133  2.6596  2.1664
 6858SOL    HW232211   4.405   4.353   1.603  0.6307  0.5343 -1.1422
 6859SOL     OW32212   0.385   0.160   4.830  0.0813 -0.1116 -0.3336
 6859SOL    HW132213   0.409   0.217   4.904  0.5883 -2.8370  1.6081
 6859SOL    HW232214   0.434   0.191   4.754  0.0488  2.0599  0.5147
 6860SOL     OW32215   1.694   3.853   3.731  0.0191  0.1113 -0.0797
 6860SOL    HW132216   1.642   3.796   3.788  0.1575 -0.5725 -0.6249
 6860SOL    HW232217   1.681   3.930   3.787  0.0820  0.1796 -0.1600
 6861SOL     OW32218   1.483   1.930  16.240  0.6449  0.2463  0.0410
 6861SOL    HW132219   1.472   1.870  16.167  1.5470  3.3802 -2.6757
 6861SOL    HW232220   1.573   1.959  16.221  1.2710 -0.6158  1.6209
 6862SOL     OW32221   2.314   2.716   9.999 -0.5381 -0.0205 -0.1364
 6862SOL    HW132222   2.358   2.800   9.989 -2.4669  0.6531 -3.1450
 6862SOL    HW232223   2.274   2.712  10.086 -0.2497  0.1543  0.0022
 6863SOL     OW32224   2.421   4.054   6.984  0.3393 -0.2097 -0.2742
 6863SOL    HW132225   2.489   4.122   6.986  1.2087 -1.0743  0.0430
 6863SOL    HW232226   2.460   4.000   6.916  0.7217  0.0573 -0.2685
 6864SOL     OW32227   1.748   4.320   6.080 -0.4365 -0.0832 -0.1552
 6864SOL    HW132228   1.668   4.337   6.030  0.0526 -0.1669 -0.9630
 6864SOL    HW232229   1.813   4.335   6.011  1.0432  1.7933  1.6264
 6865SOL     OW32230   0.900   0.030   8.737  0.2107  0.0871 -0.2388
 6865SOL    HW132231   0.876   4.693   8.680  2.7624 -0.0409 -1.1573
 6865SOL    HW232232   0.820   0.043   8.787  0.3577 -1.1315  0.3100
 6866SOL     OW32233   4.054   4.073   4.920 -0.1669  0.1098  0.1922
 6866SOL    HW132234   3.959   4.079   4.931  0.0598  0.8793  1.7529
 6866SOL    HW232235   4.062   3.983   4.951  1.8337  0.5215  0.8952
 6867SOL     OW32236   1.115   3.306  17.210 -0.5245 -0.0490 -0.1230
 6867SOL    HW132237   1.195   3.357  17.218  0.4471 -1.9095  2.2379
 6867SOL    HW232238   1.068   3.368  17.154 -1.5244  1.1822  2.0712
 6868SOL     OW32239   4.161   3.816   9.603 -0.6627  0.4312 -0.1063
 6868SOL    HW132240   4.162   3.738   9.659 -3.2585  0.7382  0.3402
 6868SOL    HW232241   4.256   3.827   9.596 -0.2855 -0.4416  3.6027
 6869SOL     OW32242   3.217   4.395   3.946  0.2621 -0.2893  0.2718
 6869SOL    HW132243   3.179   4.311   3.973 -1.8392  0.2173 -1.0692
 6869SOL    HW232244   3.278   4.401   4.019  1.1354  1.6741 -0.6206
 6870SOL     OW32245   2.108   1.729  10.221  0.3997 -0.1472 -0.2847
 6870SOL    HW132246   2.141   1.640  10.210 -0.6114 -0.6473  0.7346
 6870SOL    HW232247   2.130   1.752  10.311  1.9147  0.0853 -0.7206
 6871SOL     OW32248   4.061   2.076   8.569 -0.3254  0.3717 -0.1140
 6871SOL    HW132249   3.983   2.021   8.574  1.3966 -2.2520 -2.6066
 6871SOL    HW232250   4.073   2.096   8.662 -1.0775 -0.0154  0.0695
 6872SOL     OW32251   0.282   3.154   4.024  0.2501 -0.4431  0.5478
 6872SOL    HW132252   0.281   3.098   3.947 -2.0354  1.5722 -0.8748
 6872SOL    HW232253   0.238   3.094   4.085  0.4515 -2.1047 -0.9298
 6873SOL     OW32254   3.284   3.096   9.607 -1.0000 -0.0702 -0.7003
 6873SOL    HW132255   3.336   3.095   9.527 -0.5895 -0.6155 -0.4351
 6873SOL    HW232256   3.341   3.043   9.663 -0.8906  0.9575  0.1871
 6874SOL     OW32257   2.993   0.210  10.339 -0.0351  0.1997 -0.2412
 6874SOL    HW132258   2.954   0.210  10.426 -0.2060  0.4939 -0.3169
 6874SOL    HW232259   3.080   0.174  10.356 -0.4562  0.0686  1.6006
 6875SOL     OW32260   0.488   3.238   1.717  0.5604 -0.0219 -0.4100
 6875SOL    HW132261   0.470   3.154   1.757 -0.3624 -0.6593 -2.1444
 6875SOL    HW232262   0.412   3.257   1.661  0.0094  2.0684  1.0358
 6876SOL     OW32263   3.371   4.265  14.142 -0.3281 -0.3122 -0.0074
 6876SOL    HW132264   3.457   4.235  14.174 -0.7593 -2.0452 -0.4803
 6876SOL    HW232265   3.395   4.299  14.055 -0.5461 -2.8567 -1.0421
 6877SOL     OW32266   1.820   1.153   2.177 -0.6301  0.0362  0.5588
 6877SOL    HW132267   1.873   1.073   2.175 -2.3283 -1.0861  0.1193
 6877SOL    HW232268   1.857   1.188   2.258  1.6723 -1.3486  0.1061
 6878SOL     OW32269   0.132   4.495   2.236 -0.4406 -0.6421 -0.0136
 6878SOL    HW132270   0.186   4.574   2.232 -1.6073  0.0192 -3.0814
 6878SOL    HW232271   0.059   4.538   2.281  0.7856  1.8755 -0.4479
 6879SOL     OW32272   1.272   3.165   8.451  0.0604  0.0501  0.0596
 6879SOL    HW132273   1.280   3.251   8.410  0.4802 -0.4311 -0.8536
 6879SOL    HW232274   1.182   3.140   8.429  0.6466 -0.9360 -1.2036
 6880SOL     OW32275   0.310   2.905   2.538 -0.2383  0.3546 -0.2934
 6880SOL    HW132276   0.223   2.943   2.549  1.3092  4.1936 -1.2349
 6880SOL    HW232277   0.286   2.817   2.567  2.0697 -1.0037 -2.4309
 6881SOL     OW32278   4.297   1.850   4.314  0.1024  0.3680 -0.3919
 6881SOL    HW132279   4.240   1.834   4.239  0.8274 -2.1488 -0.3757
 6881SOL    HW232280   4.242   1.896   4.377  1.4212  0.6655  0.5620
 6882SOL     OW32281   3.387   0.081  17.277  0.1493  0.0677  0.1362
 6882SOL    HW132282   3.412   4.724  17.272  0.5904  0.1654  0.6377
 6882SOL    HW232283   3.294   0.087  17.253  0.5221  2.1214 -0.7940
 6883SOL     OW32284   2.135   3.747   4.904  0.6010  0.1426  0.1677
 6883SOL    HW132285   2.110   3.769   4.994 -0.4726  2.2470 -0.6724
 6883SOL    HW232286   2.080   3.809   4.856 -0.0338 -0.4541  0.1253
 6884SOL     OW32287   3.088   3.930   3.097 -0.6661  0.1363  0.1692
 6884SOL    HW132288   3.111   3.979   3.019 -0.8262 -0.6226 -0.3538
 6884SOL    HW232289   3.003   3.914   3.057 -0.5963  1.2062 -0.4035
 6885SOL     OW32290   0.389   1.842   4.020  0.1781 -0.4273  0.0604
 6885SOL    HW132291   0.307   1.842   4.069 -1.5920 -0.1476 -2.8920
 6885SOL    HW232292   0.363   1.873   3.933  0.6414 -0.8416 -0.2337
 6886SOL     OW32293   4.554   4.228   1.903 -0.0554 -0.0867 -0.6819
 6886SOL    HW132294   4.584   4.304   1.952  0.1731  0.6555 -1.9847
 6886SOL    HW232295   4.463   4.255   1.897 -0.2107 -1.1594 -3.2411
 6887SOL     OW32296   0.185   1.263  17.709  0.0570 -0.1938  0.4627
 6887SOL    HW132297   0.160   1.354  17.694  1.8978  0.0498 -1.2802
 6887SOL    HW232298   0.252   1.251  17.641 -1.9485 -0.2417 -1.4981
 6888SOL     OW32299   1.438   3.818  11.982  0.1204  0.5432  0.6241
 6888SOL    HW132300   1.490   3.853  11.910 -0.3573  1.7402  0.8629
 6888SOL    HW232301   1.444   3.894  12.041  0.3378  0.9711  0.0528
 6889SOL     OW32302   4.439   2.141   0.425  0.1826  0.1433  0.1728
 6889SOL    HW132303   4.362   2.190   0.396  1.4493  0.9661 -1.8306
 6889SOL    HW232304   4.475   2.207   0.483  0.8649  1.2845 -1.5611
 6890SOL     OW32305   1.752   3.677   6.009 -0.3536  0.5165  0.1233
 6890SOL    HW132306   1.846   3.696   6.003 -0.1735 -0.6398 -0.7439
 6890SOL    HW232307   1.746   3.648   6.101 -3.2049  0.8170  0.0227
 6891SOL     OW32308   0.989   0.711   5.757  0.1505  0.3121  0.9277
 6891SOL    HW132309   1.032   0.701   5.842  0.9854  1.3817  0.6217
 6891SOL    HW232310   1.014   0.798   5.725  1.5240 -0.5995 -0.4642
 6892SOL     OW32311   0.536   0.462   0.303 -0.3741 -0.1475 -0.0031
 6892SOL    HW132312   0.491   0.495   0.380 -0.6872  0.3310 -0.3917
 6892SOL    HW232313   0.612   0.520   0.297 -1.2895  0.8607 -1.9171
 6893SOL     OW32314   0.325   0.539   5.896  0.0597 -0.2579 -0.1683
 6893SOL    HW132315   0.351   0.448   5.910 -1.8889 -0.7433  0.3808
 6893SOL    HW232316   0.231   0.523   5.896 -0.1255  0.7527  4.7039
 6894SOL     OW32317   1.693   2.404  11.788 -0.1066 -0.1367  0.1632
 6894SOL    HW132318   1.728   2.330  11.839  0.0012 -0.0223  0.2579
 6894SOL    HW232319   1.604   2.424  11.817 -0.9770 -2.2569 -1.0776
 6895SOL     OW32320   1.041   0.049   7.779 -0.4056 -0.2534 -0.3467
 6895SOL    HW132321   1.002   0.123   7.828 -0.8399 -0.1141 -0.9008
 6895SOL    HW232322   1.011   4.704   7.820  1.2175 -0.2806  0.8174
 6896SOL     OW32323   3.046   1.585   4.812  0.5665 -0.5361  0.1156
 6896SOL    HW132324   3.042   1.518   4.880 -0.9319  0.3581  0.9026
 6896SOL    HW232325   2.959   1.623   4.827  1.6806  2.5109 -1.1721
 6897SOL     OW32326   4.419   2.679   9.629  0.1443 -0.2239  0.6144
 6897SOL    HW132327   4.492   2.618   9.622 -0.5976 -1.3197  2.3972
 6897SOL    HW232328   4.351   2.620   9.660  0.0805 -0.4868 -0.0449
 6898SOL     OW32329   0.375   1.479   6.838  0.4023 -0.3733 -0.1908
 6898SOL    HW132330   0.339   1.520   6.760 -1.1199  0.8745  1.1630
 6898SOL    HW232331   0.412   1.556   6.881 -0.3441  0.3896 -0.9227
 6899SOL     OW32332   2.913   2.749  17.228  0.2105 -0.4966 -0.3366
 6899SOL    HW132333   2.910   2.808  17.154  1.1370  0.5015  0.4227
 6899SOL    HW232334   2.911   2.663  17.186 -0.1621 -0.3358 -0.6409
 6900SOL     OW32335   4.629   3.782   1.520  0.2847 -0.0887 -0.2233
 6900SOL    HW132336   4.715   3.805   1.555  0.3726 -1.9788  0.8410
 6900SOL    HW232337   4.595   3.864   1.487 -2.2428 -0.7103  0.8590
 6901SOL     OW32338   3.849   1.289   3.963 -0.3536 -0.3779  0.4452
 6901SOL    HW132339   3.776   1.241   3.922 -0.2394  0.3428 -0.6193
 6901SOL    HW232340   3.854   1.359   3.898  0.9573  0.4329  1.4287
 6902SOL     OW32341   0.623   1.270  13.322  0.5571 -0.3503 -0.2684
 6902SOL    HW132342   0.611   1.235  13.411  0.5530 -1.1003 -0.5629
 6902SOL    HW232343   0.598   1.191  13.275  0.4503  0.8068 -2.1622
 6903SOL     OW32344   4.695   3.051  17.132 -0.7422 -0.1990 -0.0703
 6903SOL    HW132345   4.655   3.133  17.102 -3.0974 -0.8938  1.1254
 6903SOL    HW232346   4.683   3.001  17.051  0.1476 -2.3064  1.1044
 6904SOL     OW32347   1.994   4.418  17.246  0.1490 -0.4002 -0.2239
 6904SOL    HW132348   2.015   4.339  17.295  1.0345  0.6159  1.0253
 6904SOL    HW232349   2.081   4.437  17.212  1.1417 -0.8797  2.1098
 6905SOL     OW32350   0.405   3.948  15.025  0.9353  0.3954 -0.5373
 6905SOL    HW132351   0.416   3.931  14.931  0.2334 -0.0766 -0.5372
 6905SOL    HW232352   0.309   3.957  15.018  0.9286 -0.7265 -1.7736
 6906SOL     OW32353   2.033   0.429  11.686  0.4076 -0.3136 -0.3619
 6906SOL    HW132354   2.017   0.354  11.628  0.9267  1.3834 -2.7164
 6906SOL    HW232355   2.118   0.405  11.721  0.2122 -1.4926 -0.6958
 6907SOL     OW32356   1.855   4.351   4.734 -0.6363 -0.3990  1.0592
 6907SOL    HW132357   1.867   4.393   4.820  1.4413  2.9013 -0.8131
 6907SOL    HW232358   1.801   4.281   4.771 -1.8641 -0.5211 -0.9805
 6908SOL     OW32359   2.849   0.618   4.356 -0.2287  0.1007  0.7067
 6908SOL    HW132360   2.875   0.690   4.297 -0.0903 -0.1583  0.4524
 6908SOL    HW232361   2.788   0.557   4.315 -0.9997  0.6711  0.9957
 6909SOL     OW32362   3.367   1.620  12.496  0.5261 -0.1056  0.6048
 6909SOL    HW132363   3.455   1.586  12.478 -0.2824 -2.1649  0.4512
 6909SOL    HW232364   3.382   1.703  12.451  1.6706 -1.0096 -0.6759
 6910SOL     OW32365   1.168   2.870   2.950  0.3604 -0.3479  0.1566
 6910SOL    HW132366   1.123   2.837   3.028  1.1650 -2.2019 -0.1722
 6910SOL    HW232367   1.256   2.889   2.982  0.7696 -1.3362 -0.3897
 6911SOL     OW32368   4.452   0.465   4.370  0.1203 -0.1460 -0.7329
 6911SOL    HW132369   4.525   0.519   4.402  0.0848 -0.5905  0.0966
 6911SOL    HW232370   4.478   0.389   4.422  0.1406  1.0436  0.9999
 6912SOL     OW32371   0.145   3.291  16.540 -0.4856 -0.0084 -0.0339
 6912SOL    HW132372   0.130   3.225  16.608  0.6475 -0.2657 -0.0438
 6912SOL    HW232373   0.239   3.294  16.525 -0.4160  1.1201  0.6621
 6913SOL     OW32374   4.325   1.903   5.387 -0.0688 -0.4620 -0.3890
 6913SOL    HW132375   4.275   1.828   5.420 -0.1144  0.4591  1.6846
 6913SOL    HW232376   4.272   1.974   5.423  0.3235  0.6821 -2.0900
 6914SOL     OW32377   2.309   2.950   1.808 -0.3206  0.7362  0.2859
 6914SOL    HW132378   2.398   2.982   1.820  0.6480 -2.2443  1.0227
 6914SOL    HW232379   2.335   2.858   1.804 -0.7802  0.4374  3.9197
 6915SOL     OW32380   0.988   0.699  14.209  0.5180 -0.6806  0.0342
 6915SOL    HW132381   0.998   0.689  14.303 -3.0961 -1.1124  0.3565
 6915SOL    HW232382   0.917   0.635  14.198  0.9885 -0.9737 -1.3370
 6916SOL     OW32383   0.201   2.177  15.584 -0.0239 -0.2342  0.0811
 6916SOL    HW132384   0.138   2.125  15.534  0.6658 -0.0839 -0.9264
 6916SOL    HW232385   0.135   2.180  15.654 -0.0486 -2.2272  0.1431
 6917SOL     OW32386   1.888   4.069   7.257 -0.7050 -0.1366 -0.7094
 6917SOL    HW132387   1.862   4.007   7.325 -1.7812  1.1075  0.0128
 6917SOL    HW232388   1.875   4.028   7.171  0.1852  1.2312 -1.4992
 6918SOL     OW32389   4.706   2.360  13.793 -0.0337  0.0522 -0.4179
 6918SOL    HW132390   0.026   2.316  13.857  0.5619  0.2796 -0.7752
 6918SOL    HW232391   0.030   2.356  13.718  0.1093  1.3426 -0.3807
 6919SOL     OW32392   1.924   4.296   8.509  0.3291  0.2144 -0.4388
 6919SOL    HW132393   1.948   4.348   8.586  0.5925 -1.9913  0.9772
 6919SOL    HW232394   1.847   4.339   8.473  0.2704  1.2153  0.9070
 6920SOL     OW32395   1.785   1.409  17.641 -0.1863 -0.5776 -0.1553
 6920SOL    HW132396   1.763   1.342  17.576 -0.0303 -1.6606  0.9270
 6920SOL    HW232397   1.856   1.456  17.597 -1.6002  2.3282  0.6546
 6921SOL     OW32398   1.770   1.789   7.185  0.3894  0.3941 -0.0794
 6921SOL    HW132399   1.722   1.856   7.234  0.5030  0.2743  0.1978
 6921SOL    HW232400   1.825   1.848   7.134  1.3324 -1.9561 -1.7819
 6922SOL     OW32401   1.840   2.378  12.193 -0.0663 -0.2099  0.2202
 6922SOL    HW132402   1.837   2.351  12.284 -0.7832 -2.0936 -0.3622
 6922SOL    HW232403   1.862   2.471  12.201 -1.9375  0.2390  0.1738
 6923SOL     OW32404   1.208   4.433  13.529  0.1372 -0.0652 -0.4892
 6923SOL    HW132405   1.143   4.450  13.461  0.4440  1.6877 -0.3268
 6923SOL    HW232406   1.197   4.338  13.533  0.6542  0.0078  2.6024
 6924SOL     OW32407   0.969   3.558   6.016 -0.3753  0.1048  0.3760
 6924SOL    HW132408   1.005   3.595   6.097  0.0964 -1.7838  1.0212
 6924SOL    HW232409   0.965   3.634   5.957 -0.9465 -0.5104 -0.3639
 6925SOL     OW32410   2.990   3.135   2.551 -0.6654  0.0289  0.3574
 6925SOL    HW132411   3.078   3.117   2.585 -0.8242 -1.6786 -0.1419
 6925SOL    HW232412   2.958   3.048   2.528 -0.9796 -0.1755  1.5462
 6926SOL     OW32413   4.458   0.139   7.981  0.4010  0.2407  0.6117
 6926SOL    HW132414   4.466   0.200   8.054 -0.8101  1.4038 -0.2317
 6926SOL    HW232415   4.548   0.106   7.979  1.0850  2.2360 -2.1015
 6927SOL     OW32416   0.465   3.989   3.943  0.0791 -0.3231  0.1329
 6927SOL    HW132417   0.464   4.030   3.857 -1.4690 -1.6942 -0.5058
 6927SOL    HW232418   0.532   3.923   3.925 -0.8270 -1.8622  2.3930
 6928SOL     OW32419   1.812   4.280   3.178  0.1496 -0.2509  0.2333
 6928SOL    HW132420   1.864   4.279   3.098 -0.1853  2.0479 -0.0086
 6928SOL    HW232421   1.862   4.331   3.241 -0.9633  0.3873  0.5968
 6929SOL     OW32422   0.304   2.363   6.459 -0.8910 -0.1248  0.0097
 6929SOL    HW132423   0.230   2.340   6.403 -0.2726 -0.0512 -0.8398
 6929SOL    HW232424   0.298   2.309   6.538 -2.0071 -0.8259 -0.5398
 6930SOL     OW32425   2.652   1.982   2.875 -0.2026 -0.4686 -0.2173
 6930SOL    HW132426   2.648   2.078   2.884 -0.1697 -0.6162  1.3488
 6930SOL    HW232427   2.747   1.976   2.867 -0.3491 -1.9370 -0.7560
 6931SOL     OW32428   0.114   1.676   1.645 -0.8035  0.1037  0.2425
 6931SOL    HW132429   0.064   1.711   1.719 -1.9129 -0.5721 -0.1931
 6931SOL    HW232430   0.091   1.726   1.567  2.9277  0.6784 -0.5183
 6932SOL     OW32431   2.205   3.623   7.691  0.6456 -0.5741  0.0082
 6932SOL    HW132432   2.143   3.643   7.762  0.8816  1.7055 -0.4375
 6932SOL    HW232433   2.208   3.528   7.682 -0.6516 -0.5487 -0.7477
 6933SOL     OW32434   4.325   3.254   4.429 -0.2958  0.5048  0.4947
 6933SOL    HW132435   4.385   3.271   4.356  0.6826  1.9586  1.6269
 6933SOL    HW232436   4.271   3.333   4.433 -1.0880 -0.0075 -0.0167
 6934SOL     OW32437   2.268   0.803  16.083  0.1934  0.5482 -0.0766
 6934SOL    HW132438   2.208   0.785  16.156  0.6164  1.0973  0.4049
 6934SOL    HW232439   2.255   0.729  16.024  1.7692 -0.4662  0.8613
 6935SOL     OW32440   1.539   3.456   8.498 -0.1392 -0.4342 -0.0114
 6935SOL    HW132441   1.499   3.536   8.462  0.9636  0.9720  1.9111
 6935SOL    HW232442   1.475   3.389   8.474 -1.6064  0.4548  1.4893
 6936SOL     OW32443   4.041   3.532   8.214 -0.3448 -0.1136 -0.5978
 6936SOL    HW132444   4.051   3.443   8.246  3.4338  0.3106 -0.5969
 6936SOL    HW232445   4.091   3.525   8.132 -0.2629 -2.1447 -0.3720
 6937SOL     OW32446   1.494   0.214   7.535  0.0373  0.0945  0.1120
 6937SOL    HW132447   1.438   0.157   7.588  0.4078 -1.3933 -1.0687
 6937SOL    HW232448   1.430   0.244   7.470  1.3825  0.8506 -0.8582
 6938SOL     OW32449   0.620   2.782   8.145 -0.2558 -0.6356 -0.5199
 6938SOL    HW132450   0.600   2.863   8.191  3.8400  0.8176 -1.3564
 6938SOL    HW232451   0.563   2.790   8.069  0.1865  3.0867 -0.4475
 6939SOL     OW32452   2.386   4.406   6.163  0.2373 -0.1346  0.2543
 6939SOL    HW132453   2.299   4.417   6.124  0.2611 -1.3961 -0.1579
 6939SOL    HW232454   2.399   4.313   6.144 -1.5418 -0.6801  1.7177
 6940SOL     OW32455   2.336   2.866  15.240 -0.8228  0.3219  0.4531
 6940SOL    HW132456   2.250   2.868  15.196 -0.4354  1.4736 -0.2492
 6940SOL    HW232457   2.382   2.943  15.205  1.0026 -1.6496 -1.4376
 6941SOL     OW32458   3.458   2.305  16.611 -0.2317  0.0690  0.2946
 6941SOL    HW132459   3.413   2.296  16.527 -0.0732  0.3669  0.1782
 6941SOL    HW232460   3.541   2.340  16.579 -0.6145 -1.3447 -2.1816
 6942SOL     OW32461   3.566   2.251   1.040 -0.6624  0.0474  0.3517
 6942SOL    HW132462   3.548   2.237   0.948  3.3654 -1.2752 -0.2182
 6942SOL    HW232463   3.659   2.273   1.032 -0.1505 -0.6446  4.3721
 6943SOL     OW32464   4.717   0.137   5.188  0.1286  0.8821 -0.1911
 6943SOL    HW132465   4.718   0.042   5.177 -0.4328  0.6953  1.4262
 6943SOL    HW232466   0.065   0.168   5.152 -0.5950  1.6153 -1.2597
 6944SOL     OW32467   3.965   1.361   6.834 -0.5489  0.4294 -0.1622
 6944SOL    HW132468   3.978   1.297   6.764  0.2541  1.1586 -0.6779
 6944SOL    HW232469   3.927   1.302   6.899 -1.2980  3.5493  2.2345
 6945SOL     OW32470   3.383   4.632   3.783 -0.1488 -0.1861  0.0267
 6945SOL    HW132471   3.299   4.589   3.798  1.1864 -2.0361  2.2303
 6945SOL    HW232472   3.365   4.653   3.691  0.7349  3.0624  0.5711
 6946SOL     OW32473   4.111   3.875   5.444 -0.6435 -0.2405  0.0348
 6946SOL    HW132474   4.120   3.872   5.539  0.2851  3.0621  0.0693
 6946SOL    HW232475   4.062   3.956   5.431  0.6901  0.2695 -1.7960
 6947SOL     OW32476   4.213   1.167   1.803  0.8314 -0.1177 -0.1707
 6947SOL    HW132477   4.185   1.242   1.751  2.8054 -0.4559 -1.7215
 6947SOL    HW232478   4.184   1.189   1.891  0.9840  0.4749 -0.2695
 6948SOL     OW32479   2.675   2.835   8.179 -0.1505  0.4786 -0.0927
 6948SOL    HW132480   2.718   2.775   8.119  0.2044 -0.7055  1.3603
 6948SOL    HW232481   2.751   2.877   8.218 -1.1747  2.4529 -0.2156
 6949SOL     OW32482   0.652   2.070   0.522  0.0854 -0.1864  0.3667
 6949SOL    HW132483   0.731   2.102   0.565  1.0387  0.8145 -2.1187
 6949SOL    HW232484   0.687   2.002   0.465  0.3454  0.5036 -0.2977
 6950SOL     OW32485   2.503   4.616   8.205 -0.2303  0.5516 -0.0253
 6950SOL    HW132486   2.438   4.621   8.276 -3.6579 -0.4563 -3.1066
 6950SOL    HW232487   2.489   4.706   8.176  0.3933  0.8357  0.5629
 6951SOL     OW32488   1.295   3.062   5.998 -0.6794  0.1417 -0.0822
 6951SOL    HW132489   1.322   3.081   6.088  3.8391 -0.8720 -1.2324
 6951SOL    HW232490   1.211   3.107   6.000 -0.0381  1.3902 -0.8910
 6952SOL     OW32491   4.208   2.470  13.241  0.1811  0.1413 -0.0412
 6952SOL    HW132492   4.226   2.564  13.252 -0.3809  0.0077  1.9280
 6952SOL    HW232493   4.219   2.464  13.146  1.1424  1.0048  0.0084
 6953SOL     OW32494   2.276   0.908  17.474  0.0649  0.5349 -0.2291
 6953SOL    HW132495   2.336   0.867  17.411 -0.8487 -0.7135 -0.2783
 6953SOL    HW232496   2.337   0.965  17.521  2.5656 -0.9531 -1.6811
 6954SOL     OW32497   2.239   2.338   3.900  0.3769  0.4945 -0.3211
 6954SOL    HW132498   2.263   2.295   3.818  1.0137 -0.8738  0.5909
 6954SOL    HW232499   2.257   2.425   3.864  1.0927  0.7354  0.6233
 6955SOL     OW32500   1.344   3.238   2.616  0.1852  0.2048  0.0923
 6955SOL    HW132501   1.424   3.192   2.590  0.4716  1.6708 -1.6008
 6955SOL    HW232502   1.275   3.187   2.574 -0.4034  0.2025  1.0701
 6956SOL     OW32503   2.963   0.711   7.042  0.3275 -0.2319  0.4905
 6956SOL    HW132504   2.965   0.784   6.980  1.7718  1.0238  2.0074
 6956SOL    HW232505   2.881   0.736   7.086  0.4913 -1.6132  1.5613
 6957SOL     OW32506   4.683   0.003   4.172 -0.7576 -0.1417 -0.2422
 6957SOL    HW132507   4.600   4.710   4.133 -0.3476 -3.5475  1.4322
 6957SOL    HW232508   4.717   4.649   4.176 -0.4121 -0.1163 -2.1219
 6958SOL     OW32509   0.685   3.386   7.844 -0.1793 -0.9239 -0.0269
 6958SOL    HW132510   0.612   3.426   7.796  1.2406  1.4176 -0.2478
 6958SOL    HW232511   0.753   3.396   7.778 -0.5435 -0.1819 -0.2977
 6959SOL     OW32512   0.416   0.128   7.957  0.6124 -0.8496  0.1802
 6959SOL    HW132513   0.502   0.088   7.942  0.6446 -1.3483  1.7812
 6959SOL    HW232514   0.442   0.197   8.018 -0.6995 -1.1306  1.0472
 6960SOL     OW32515   4.378   0.909  15.680  0.5405  0.4985 -0.1139
 6960SOL    HW132516   4.325   0.889  15.604  1.1225 -0.5294 -0.2488
 6960SOL    HW232517   4.370   1.004  15.677  0.5320  0.4985 -0.0930
 6961SOL     OW32518   1.958   4.152  12.575  0.4450  0.2801  0.3204
 6961SOL    HW132519   2.003   4.218  12.629 -1.1926 -0.2557  2.3310
 6961SOL    HW232520   2.036   4.127  12.527 -0.8914 -0.1497 -1.6151
 6962SOL     OW32521   0.395   0.931  17.191 -0.1564 -0.5024 -0.5995
 6962SOL    HW132522   0.344   0.865  17.143 -0.2130  0.2199 -1.5209
 6962SOL    HW232523   0.416   0.868  17.260  0.2253  0.0829 -0.1846
 6963SOL     OW32524   2.158   1.463   9.613 -0.2116 -0.5431 -0.1234
 6963SOL    HW132525   2.156   1.419   9.528 -0.2891 -1.2442  0.2454
 6963SOL    HW232526   2.249   1.495   9.613 -0.4365  0.0912 -1.7680
 6964SOL     OW32527   0.241   0.055   9.334  0.2434  0.6593  0.1231
 6964SOL    HW132528   0.298   0.107   9.277  2.5784 -0.2377  1.6465
 6964SOL    HW232529   0.290   4.714   9.361  1.8021  1.4154 -0.5488
 6965SOL     OW32530   2.332   1.034   7.143 -0.6555  0.6117 -0.4688
 6965SOL    HW132531   2.331   0.939   7.135 -0.1043  0.5613  0.1096
 6965SOL    HW232532   2.322   1.068   7.054 -2.6552 -0.3226 -0.5897
 6966SOL     OW32533   4.717   4.170   7.667 -0.1822  0.1223 -0.0901
 6966SOL    HW132534   4.638   4.195   7.618 -0.3427  1.2947  0.7637
 6966SOL    HW232535   0.037   4.245   7.648 -0.4600 -0.8847 -4.7250
 6967SOL     OW32536   1.178   1.857   2.088  0.3543  0.2020 -0.3532
 6967SOL    HW132537   1.171   1.763   2.101  0.5962  0.1688 -0.4755
 6967SOL    HW232538   1.111   1.872   2.020  1.0782  1.5472 -0.7732
 6968SOL     OW32539   2.403   2.905   2.128  0.6941 -0.0153  0.2311
 6968SOL    HW132540   2.365   2.838   2.072  0.1550  0.8200 -0.3943
 6968SOL    HW232541   2.492   2.874   2.144 -0.0889 -1.1566  2.3732
 6969SOL     OW32542   3.167   3.395   8.980 -0.2593 -0.8978  0.0662
 6969SOL    HW132543   3.095   3.443   8.940 -0.2513 -0.8886  0.0630
 6969SOL    HW232544   3.151   3.410   9.074  0.0039  1.3503 -0.2412
 6970SOL     OW32545   4.472   0.519   9.375 -0.0648  0.5233  0.0930
 6970SOL    HW132546   4.378   0.502   9.370  0.2902 -1.5873  0.4211
 6970SOL    HW232547   4.496   0.432   9.408  0.8864  0.2763 -1.2536
 6971SOL     OW32548   4.314   4.103   8.885  0.6343  0.3370 -0.1201
 6971SOL    HW132549   4.378   4.118   8.956 -1.0144  1.1588  1.1976
 6971SOL    HW232550   4.290   4.194   8.866 -1.9236 -0.0853  1.0920
 6972SOL     OW32551   4.113   4.649   8.507 -0.2761  0.1859  0.6102
 6972SOL    HW132552   4.150   4.576   8.457  2.2360  1.1248  1.1306
 6972SOL    HW232553   4.027   4.614   8.529 -1.5503  1.4236 -2.3691
 6973SOL     OW32554   0.501   2.538   4.544 -0.3660  0.0996  0.6048
 6973SOL    HW132555   0.594   2.527   4.564 -0.5960 -2.5366  0.2272
 6973SOL    HW232556   0.484   2.448   4.569  2.1901 -0.3452  0.7827
 6974SOL     OW32557   4.701   0.165   6.122  0.5122 -0.0534 -0.3528
 6974SOL    HW132558   4.674   0.193   6.035  0.4378 -0.4658 -0.4616
 6974SOL    HW232559   4.716   0.248   6.167 -0.3779  0.5510 -1.1711
 6975SOL     OW32560   3.662   0.409  13.500  0.2299 -0.3791  0.4051
 6975SOL    HW132561   3.662   0.395  13.405  1.3402 -3.1390  0.8120
 6975SOL    HW232562   3.696   0.325  13.529 -0.7796 -1.2681 -0.9262
 6976SOL     OW32563   0.074   3.589  12.695 -0.0488 -0.5043  0.1466
 6976SOL    HW132564   0.019   3.643  12.751 -1.9274 -1.8906 -0.3758
 6976SOL    HW232565   0.051   3.502  12.727  0.4640 -0.9926 -0.8100
 6977SOL     OW32566   0.621   3.902  15.923  0.0803  0.3703  0.0678
 6977SOL    HW132567   0.552   3.961  15.893  1.0930  1.5262 -0.0252
 6977SOL    HW232568   0.686   3.968  15.948 -1.5202  0.8576  2.9222
 6978SOL     OW32569   1.302   0.282  11.680  0.0751 -0.1774 -0.0123
 6978SOL    HW132570   1.211   0.263  11.699 -0.7896  3.8722 -0.1473
 6978SOL    HW232571   1.337   0.195  11.661  1.3519  0.4654 -0.6725
 6979SOL     OW32572   1.931   4.423   2.134  0.0384 -0.3368  0.5456
 6979SOL    HW132573   1.875   4.477   2.078  0.3411 -0.3268  0.2532
 6979SOL    HW232574   2.005   4.399   2.077  0.7794  1.3531  0.7909
 6980SOL     OW32575   4.034   0.376   0.736 -0.3118 -0.3639  0.4976
 6980SOL    HW132576   3.945   0.373   0.771 -0.2869 -0.2236  0.5719
 6980SOL    HW232577   4.047   0.285   0.710  2.9264  0.0267  0.7647
 6981SOL     OW32578   3.476   3.536  16.751  0.2389  0.5322  0.0336
 6981SOL    HW132579   3.437   3.482  16.819  2.1595 -1.4318 -0.4394
 6981SOL    HW232580   3.413   3.592  16.705  0.0837 -0.1497 -0.5708
 6982SOL     OW32581   1.839   3.688   7.192 -0.2448  0.1720 -0.4843
 6982SOL    HW132582   1.925   3.669   7.154  0.5269  1.0966  0.7756
 6982SOL    HW232583   1.822   3.779   7.167 -0.8944  0.2745  0.3176
 6983SOL     OW32584   3.337   0.408   1.281 -0.0534 -0.1657 -0.8236
 6983SOL    HW132585   3.328   0.344   1.351 -2.0135  1.4535  0.4045
 6983SOL    HW232586   3.244   0.419   1.262 -0.5831 -1.0786  1.2201
 6984SOL     OW32587   0.331   3.456   2.193  0.5448  0.2417 -0.3530
 6984SOL    HW132588   0.265   3.389   2.203 -1.2890  1.8365 -1.6428
 6984SOL    HW232589   0.358   3.436   2.103 -0.8095 -1.4628 -0.3785
 6985SOL     OW32590   3.826   1.336   5.901 -0.1893  0.1981  0.1770
 6985SOL    HW132591   3.880   1.292   5.835  1.4170  1.5544  0.5928
 6985SOL    HW232592   3.814   1.275   5.974 -2.6624  2.3349  1.5687
 6986SOL     OW32593   3.125   4.531   2.954 -0.3845  0.3854 -0.0012
 6986SOL    HW132594   3.086   4.482   3.027  0.7426  0.2711  0.5313
 6986SOL    HW232595   3.218   4.536   2.977 -0.6392 -0.7470  1.3289
 6987SOL     OW32596   2.187   0.094   6.179  0.3870 -0.2563  0.4682
 6987SOL    HW132597   2.134   0.082   6.258  0.7262 -2.6727  0.3236
 6987SOL    HW232598   2.265   0.044   6.200 -1.1140 -2.6463  0.3306
 6988SOL     OW32599   0.597   4.602   4.533 -0.2574 -1.0593  0.1967
 6988SOL    HW132600   0.586   4.646   4.617  0.7921 -3.1861  1.4650
 6988SOL    HW232601   0.575   4.511   4.554  1.3956 -1.2070  1.3361
 6989SOL     OW32602   2.146   1.555   4.391  0.0919 -0.4268  0.3416
 6989SOL    HW132603   2.169   1.592   4.306 -1.9407  0.9498  0.4155
 6989SOL    HW232604   2.067   1.507   4.366  1.3422 -3.3693  1.8843
 6990SOL     OW32605   2.385   3.099  14.459 -0.6826  0.0064  0.0207
 6990SOL    HW132606   2.451   3.077  14.394  0.4134  3.5844 -0.0891
 6990SOL    HW232607   2.391   3.021  14.513  0.5446  0.4046  0.4515
 6991SOL     OW32608   0.504   3.335  16.962  0.6841 -0.1531  0.2186
 6991SOL    HW132609   0.571   3.280  17.002  0.8443  0.0215  0.1877
 6991SOL    HW232610   0.445   3.329  17.037 -1.0757  0.1892 -1.1338
 6992SOL     OW32611   4.359   4.475   2.269  0.0681  0.0076  0.1728
 6992SOL    HW132612   4.270   4.441   2.275  0.3350 -0.4350  1.5694
 6992SOL    HW232613   4.355   4.552   2.326 -1.0428 -0.6038  0.9327
 6993SOL     OW32614   2.281   3.412   9.078 -0.1487 -0.0132  0.0415
 6993SOL    HW132615   2.206   3.382   9.131  1.7995 -2.0820  1.6508
 6993SOL    HW232616   2.242   3.421   8.992  1.9538 -0.4356 -0.9498
 6994SOL     OW32617   2.954   2.947   5.362 -0.3969 -0.2190 -0.3920
 6994SOL    HW132618   2.952   2.897   5.443  0.6982  0.1337 -0.1429
 6994SOL    HW232619   3.044   2.949   5.329 -0.2337 -0.3655  0.0557
 6995SOL     OW32620   3.558   3.789   8.050  0.1226 -0.1618 -0.2338
 6995SOL    HW132621   3.631   3.794   7.989  0.5286  1.0360  0.3503
 6995SOL    HW232622   3.499   3.853   8.012  2.4145  1.2009 -1.4720
 6996SOL     OW32623   1.378   2.864   2.460  0.0102 -0.3340  0.2321
 6996SOL    HW132624   1.366   2.769   2.463  1.3398 -0.4807  0.8108
 6996SOL    HW232625   1.290   2.897   2.442  0.7279  0.5663 -1.6188
 6997SOL     OW32626   0.255   0.477  13.986  0.1755 -0.1800  0.4642
 6997SOL    HW132627   0.294   0.456  13.901 -2.7265  2.9767 -1.6199
 6997SOL    HW232628   0.179   0.529  13.962  1.9798  2.2944  0.0993
 6998SOL     OW32629   1.177   1.204  14.474 -0.6267  0.6534 -0.4590
 6998SOL    HW132630   1.253   1.259  14.456 -0.5058 -0.4450 -3.3494
 6998SOL    HW232631   1.179   1.188  14.569  0.1004  1.5943 -0.3175
 6999SOL     OW32632   3.046   0.293  11.728 -0.2093 -0.2500 -0.1185
 6999SOL    HW132633   3.058   0.230  11.657 -0.8214  1.3214 -1.6123
 6999SOL    HW232634   2.978   0.249  11.780  0.1084 -0.4939  0.0944
 7000SOL     OW32635   0.850   1.347  17.134  0.7335 -0.1651  0.0540
 7000SOL    HW132636   0.853   1.345  17.229  0.4498 -0.3742  0.0585
 7000SOL    HW232637   0.838   1.440  17.118  1.7552  0.4292  2.7753
 7001SOL     OW32638   3.442   2.086   6.287  0.5523 -0.1733  0.4018
 7001SOL    HW132639   3.492   2.038   6.354 -1.1596 -1.3419  0.8426
 7001SOL    HW232640   3.411   2.158   6.342  2.5670  0.0669  1.2185
 7002SOL     OW32641   0.349   4.355   6.341 -0.8763 -0.0152 -0.5488
 7002SOL    HW132642   0.301   4.339   6.422  1.5551 -0.3525  0.8379
 7002SOL    HW232643   0.294   4.425   6.304 -0.3082 -0.5351 -2.3365
 7003SOL     OW32644   2.815   2.853   3.274  0.1705  0.4273 -0.1641
 7003SOL    HW132645   2.760   2.903   3.333 -1.0039 -0.7179 -0.3062
 7003SOL    HW232646   2.841   2.777   3.327 -0.2610  0.9475  0.7859
 7004SOL     OW32647   3.790   1.292   8.041  0.1271  0.1010 -0.2311
 7004SOL    HW132648   3.723   1.359   8.049  0.6114  0.2827  2.2373
 7004SOL    HW232649   3.736   1.219   8.072  1.9813 -1.1854 -0.0118
 7005SOL     OW32650   0.193   1.844   8.592  0.1497 -0.5250  0.0494
 7005SOL    HW132651   0.255   1.916   8.600 -1.0152  0.3839  0.8624
 7005SOL    HW232652   0.157   1.844   8.680  1.8921 -2.1791  0.7648
 7006SOL     OW32653   4.615   2.722  11.985  0.2305 -0.6007  0.7015
 7006SOL    HW132654   4.561   2.739  12.062  0.3814 -0.9986  0.8950
 7006SOL    HW232655   4.587   2.636  11.953 -0.3118 -0.5425  1.0227
 7007SOL     OW32656   0.181   4.558   4.678 -0.7788  0.2760  0.2246
 7007SOL    HW132657   0.101   4.505   4.674 -0.5493 -0.1509  1.2788
 7007SOL    HW232658   0.233   4.487   4.714 -2.4479 -0.1781  1.7543
 7008SOL     OW32659   3.532   0.012   8.966 -0.0500  0.0209 -0.6852
 7008SOL    HW132660   3.477   0.031   9.042  0.2263  1.1334 -0.7698
 7008SOL    HW232661   3.514   4.654   8.972 -0.7533  0.2585  1.0238
 7009SOL     OW32662   2.938   1.437   3.449 -0.5933  0.1302 -0.0570
 7009SOL    HW132663   3.011   1.497   3.466  1.7527 -2.3631 -1.4553
 7009SOL    HW232664   2.936   1.428   3.354  0.5581 -1.8813  0.1259
 7010SOL     OW32665   3.450   0.423   7.369 -0.0458  0.0199  0.4823
 7010SOL    HW132666   3.506   0.383   7.436  0.6835 -0.1455 -0.2283
 7010SOL    HW232667   3.371   0.377   7.398 -0.7687  1.4489  0.7413
 7011SOL     OW32668   0.547   3.176   6.696  0.2131 -1.0312 -0.0166
 7011SOL    HW132669   0.527   3.083   6.679 -1.3116 -0.8719  0.9460
 7011SOL    HW232670   0.575   3.188   6.605 -1.6071 -2.4512 -0.7655
 7012SOL     OW32671   3.108   3.849   0.784  0.1441 -0.3558  0.0717
 7012SOL    HW132672   3.118   3.906   0.707  1.2854 -0.2743  0.2909
 7012SOL    HW232673   3.179   3.786   0.773  0.9125  0.8264 -1.7767
 7013SOL     OW32674   4.494   3.183   6.895  0.1295  0.0101 -0.2340
 7013SOL    HW132675   4.538   3.153   6.816 -1.8750 -2.4115 -0.4107
 7013SOL    HW232676   4.405   3.184   6.861 -0.2892 -0.6567  0.8337
 7014SOL     OW32677   2.885   2.312   8.502  0.0565 -0.0276 -0.2140
 7014SOL    HW132678   2.973   2.282   8.478 -0.2549 -0.1001 -1.2854
 7014SOL    HW232679   2.849   2.328   8.415 -1.2273 -2.3712 -0.0928
 7015SOL     OW32680   0.899   1.111   5.031 -0.2711  1.3593 -0.0176
 7015SOL    HW132681   0.964   1.168   4.990  0.1806 -0.0306 -1.2453
 7015SOL    HW232682   0.863   1.077   4.949 -1.4406  0.2716  0.9432
 7016SOL     OW32683   0.062   4.391   3.486 -0.3630  0.8563 -0.5365
 7016SOL    HW132684   4.726   4.453   3.474  0.3105  1.2403 -2.6716
 7016SOL    HW232685   0.017   4.324   3.537  1.6774 -0.5595 -0.6143
 7017SOL     OW32686   2.502   1.595   2.589 -0.7191  0.9317  0.5846
 7017SOL    HW132687   2.483   1.689   2.579 -1.1918  0.6582 -1.0337
 7017SOL    HW232688   2.589   1.615   2.623 -0.8915 -1.1694  2.2761
 7018SOL     OW32689   2.981   2.251   2.393 -0.4922 -0.0208 -0.2721
 7018SOL    HW132690   2.902   2.259   2.340 -0.4949 -1.0413 -0.4301
 7018SOL    HW232691   3.029   2.184   2.344 -0.8559 -1.5421  1.4387
 7019SOL     OW32692   0.406   3.411  12.547  0.1645  0.0778 -0.3903
 7019SOL    HW132693   0.454   3.410  12.465 -0.3146  0.5377 -0.6810
 7019SOL    HW232694   0.473   3.445  12.606  1.3195 -0.8038 -1.2059
 7020SOL     OW32695   4.008   0.579   1.999 -0.3317 -0.5950  0.3869
 7020SOL    HW132696   4.020   0.646   1.932 -0.4337 -1.6331 -0.6725
 7020SOL    HW232697   4.077   0.602   2.061 -1.2251 -0.4670  1.3463
 7021SOL     OW32698   2.942   1.368   3.163 -0.0811  0.4116 -0.8056
 7021SOL    HW132699   2.935   1.450   3.113  1.7525  1.8662  1.3440
 7021SOL    HW232700   2.905   1.309   3.097 -3.2516  0.2682  1.1138
 7022SOL     OW32701   1.521   0.023   1.346 -0.2096 -0.2124 -0.3428
 7022SOL    HW132702   1.471   4.719   1.417  2.2966 -2.4435  0.2044
 7022SOL    HW232703   1.477   4.724   1.269  0.5201 -0.0516 -0.8303
 7023SOL     OW32704   2.117   1.623   6.734  0.1560  0.0946  0.0963
 7023SOL    HW132705   2.070   1.540   6.747  0.1568 -0.3267 -2.5705
 7023SOL    HW232706   2.207   1.592   6.729 -0.4795 -1.6310 -1.0870
 7024SOL     OW32707   0.578   3.884   8.588 -0.4431 -0.2238 -0.2312
 7024SOL    HW132708   0.609   3.803   8.629 -3.5868 -1.5146 -0.4025
 7024SOL    HW232709   0.651   3.915   8.534  1.1302 -0.6203  1.6632
 7025SOL     OW32710   3.266   4.317  10.980  0.0162  0.8983  0.5151
 7025SOL    HW132711   3.305   4.274  11.056  0.1647 -1.9254 -1.1913
 7025SOL    HW232712   3.344   4.341  10.930  0.8815 -0.4837  1.2016
 7026SOL     OW32713   0.540   2.786   7.375  0.1204 -0.2687  0.3369
 7026SOL    HW132714   0.611   2.779   7.438 -0.4074  0.5914  1.0183
 7026SOL    HW232715   0.559   2.714   7.315 -0.7014 -0.8633  0.7883
 7027SOL     OW32716   0.710   1.292   2.832  0.2033 -0.2586 -0.2616
 7027SOL    HW132717   0.772   1.363   2.815  1.5104 -1.1929  0.6061
 7027SOL    HW232718   0.754   1.233   2.893 -1.4817 -0.2962  0.9124
 7028SOL     OW32719   2.658   4.587   6.214 -0.1372 -0.6443 -0.1841
 7028SOL    HW132720   2.649   4.632   6.298  0.1782  0.0434 -0.5124
 7028SOL    HW232721   2.674   4.662   6.156  0.4052 -0.5131  0.1389
 7029SOL     OW32722   2.286   0.722  17.072 -0.3501 -0.0754 -0.3376
 7029SOL    HW132723   2.260   0.813  17.088  2.1033  0.2179  2.0677
 7029SOL    HW232724   2.244   0.716  16.987 -0.2587 -0.5823 -0.3475
 7030SOL     OW32725   2.712   2.633  11.808 -0.3713  0.2040 -0.1039
 7030SOL    HW132726   2.782   2.569  11.822  0.1411  0.3310 -1.9545
 7030SOL    HW232727   2.637   2.586  11.771  0.6332  0.4573 -2.4790
 7031SOL     OW32728   0.910   4.528   6.911 -0.4590  0.2860  0.5495
 7031SOL    HW132729   0.874   4.456   6.860  1.3665 -0.4476  0.2934
 7031SOL    HW232730   1.000   4.500   6.927  0.0463  1.4375 -0.2859
 7032SOL     OW32731   1.428   0.463   0.716  0.1201  0.7132 -0.5416
 7032SOL    HW132732   1.479   0.541   0.694  0.3888  0.2799 -1.4581
 7032SOL    HW232733   1.388   0.446   0.631 -1.5882 -0.3516  0.4957
 7033SOL     OW32734   3.236   0.333   6.756 -0.0475  0.1013  0.2499
 7033SOL    HW132735   3.258   0.409   6.702  0.4936 -0.5322 -0.4213
 7033SOL    HW232736   3.153   0.306   6.715  0.4249 -0.5813 -0.2542
 7034SOL     OW32737   2.038   0.357   7.743  0.3218  0.2594  0.1175
 7034SOL    HW132738   1.948   0.327   7.757  0.7524 -1.5003 -0.9140
 7034SOL    HW232739   2.073   0.270   7.724  1.1535  0.5766  0.2009
 7035SOL     OW32740   4.377   2.730   0.528 -0.1445 -0.7656  0.2697
 7035SOL    HW132741   4.377   2.690   0.441  0.0316 -0.9858  0.3727
 7035SOL    HW232742   4.292   2.774   0.534 -0.0465 -0.7049  1.1572
 7036SOL     OW32743   3.502   3.200  12.672  0.4525  0.3569  0.5099
 7036SOL    HW132744   3.579   3.257  12.669  0.2882  0.4280 -1.9462
 7036SOL    HW232745   3.510   3.162  12.759  0.1720  1.5460  1.0623
 7037SOL     OW32746   2.530   2.703   1.823  0.0451 -0.3668  0.4451
 7037SOL    HW132747   2.617   2.740   1.807 -0.2456  1.3784  2.7892
 7037SOL    HW232748   2.540   2.644   1.898 -1.5981 -0.1415  0.8553
 7038SOL     OW32749   3.431   3.157   6.998  0.4363  0.2719 -0.0803
 7038SOL    HW132750   3.431   3.090   6.930 -0.9772 -2.2529  2.3875
 7038SOL    HW232751   3.337   3.145   7.012  0.9198 -3.2634  0.0494
 7039SOL     OW32752   1.140   0.840   6.864 -0.3459  0.1610  0.0758
 7039SOL    HW132753   1.082   0.775   6.904  1.2929 -1.4698 -0.1983
 7039SOL    HW232754   1.223   0.795   6.848 -1.7505 -2.0385 -0.9263
 7040SOL     OW32755   1.787   2.159   3.649  0.2086  0.3581  0.2983
 7040SOL    HW132756   1.740   2.094   3.598 -0.1980 -0.8631  2.2034
 7040SOL    HW232757   1.798   2.112   3.732  0.7116 -0.9641 -0.5227
 7041SOL     OW32758   1.163   2.969   9.007  0.4340  0.7178  0.6868
 7041SOL    HW132759   1.236   2.919   9.042 -0.4978  0.2297  1.9336
 7041SOL    HW232760   1.184   2.989   8.916 -2.5580  2.5555  0.3809
 7042SOL     OW32761   0.632   3.607  14.010 -0.6297  0.3575 -0.2529
 7042SOL    HW132762   0.618   3.515  14.030  3.7298 -0.1806  0.2501
 7042SOL    HW232763   0.558   3.622  13.950  0.6894  2.3089 -1.4099
 7043SOL     OW32764   1.958   3.064  14.662  0.7714  0.3709 -0.2450
 7043SOL    HW132765   2.021   3.034  14.728 -0.0670 -2.1411 -0.5684
 7043SOL    HW232766   2.011   3.085  14.586  1.2253 -1.0623 -0.3376
 7044SOL     OW32767   2.960   3.296   5.084  0.5452 -0.2752 -0.4123
 7044SOL    HW132768   2.887   3.298   5.146 -1.4182  0.2108 -2.7260
 7044SOL    HW232769   2.952   3.206   5.051 -1.7268 -0.3728  0.4354
 7045SOL     OW32770   1.021   2.701  13.030  0.4979 -0.3303 -0.2723
 7045SOL    HW132771   0.959   2.651  13.084  0.7713  1.5076  1.7223
 7045SOL    HW232772   1.018   2.773  13.093  1.3988 -1.5547  1.1712
 7046SOL     OW32773   2.156   2.214  14.304 -0.3889  0.5027 -0.3115
 7046SOL    HW132774   2.117   2.224  14.391  0.6586  1.7667  0.0031
 7046SOL    HW232775   2.250   2.223  14.314 -0.0695 -1.6452 -1.3090
 7047SOL     OW32776   2.797   3.744   2.300 -0.4099 -0.3665  1.0050
 7047SOL    HW132777   2.847   3.748   2.218 -3.2606 -0.4414 -0.7191
 7047SOL    HW232778   2.864   3.712   2.360 -1.7570 -0.9136  2.2143
 7048SOL     OW32779   3.152   2.933  11.447  0.1700  0.1732 -0.0869
 7048SOL    HW132780   3.088   2.925  11.376  1.2747 -1.2496 -0.9396
 7048SOL    HW232781   3.103   2.991  11.505 -1.5871 -2.0145  0.6069
 7049SOL     OW32782   0.498   3.755   6.849 -0.5224 -0.2103 -0.1550
 7049SOL    HW132783   0.523   3.782   6.760  1.9195 -2.0247 -0.0072
 7049SOL    HW232784   0.582   3.767   6.893 -0.5117 -0.9251  0.0165
 7050SOL     OW32785   0.097   0.357   4.679  0.0963  0.2142  0.4562
 7050SOL    HW132786   0.130   0.270   4.703  1.2679 -0.2676 -2.8970
 7050SOL    HW232787   0.066   0.394   4.761  0.4605  1.3092  0.0932
 7051SOL     OW32788   1.538   1.899   5.191  0.7632 -0.2504  0.4605
 7051SOL    HW132789   1.524   1.935   5.103 -2.0317 -1.0421  0.5931
 7051SOL    HW232790   1.529   1.805   5.178  0.7972 -0.4610  2.0066
 7052SOL     OW32791   3.273   3.310   3.553 -0.2465  0.3305 -0.6479
 7052SOL    HW132792   3.263   3.397   3.514 -0.2522  1.1228  1.1370
 7052SOL    HW232793   3.199   3.255   3.527  1.1543 -0.6839 -2.4777
 7053SOL     OW32794   4.035   1.106   3.525 -0.2711  0.2426 -0.2079
 7053SOL    HW132795   4.105   1.047   3.554  2.1240  2.3859 -1.5722
 7053SOL    HW232796   3.972   1.035   3.509 -3.1977  2.5929  0.9430
 7054SOL     OW32797   1.335   2.325   7.427 -0.0587 -0.3900 -0.5142
 7054SOL    HW132798   1.314   2.235   7.452  0.9564  0.0242  1.8116
 7054SOL    HW232799   1.430   2.336   7.421 -0.0101  0.4535  1.9230
 7055SOL     OW32800   0.974   4.735   3.978  0.0641 -0.2473 -0.5358
 7055SOL    HW132801   0.933   4.708   4.060  2.4598 -0.5690  0.5670
 7055SOL    HW232802   0.907   4.717   3.912  0.0872 -0.1045 -0.5991
 7056SOL     OW32803   0.060   1.222   1.559  0.2122 -0.2497 -0.0631
 7056SOL    HW132804   0.075   1.149   1.619  0.3885  0.9813  1.4012
 7056SOL    HW232805   0.018   1.174   1.488 -1.3548  0.9348  0.0575
 7057SOL     OW32806   0.102   2.319   9.306  0.4001 -0.6209 -0.2297
 7057SOL    HW132807   0.090   2.263   9.229 -0.8938 -0.3477 -0.2325
 7057SOL    HW232808   0.179   2.371   9.286  2.7466 -3.0927  2.3251
 7058SOL     OW32809   0.285   2.734   5.378 -0.1250 -0.0658  0.1949
 7058SOL    HW132810   0.355   2.676   5.408 -0.9788  0.2263  2.7204
 7058SOL    HW232811   0.268   2.783   5.459  1.3497 -3.1242  2.3575
 7059SOL     OW32812   4.639   3.890  11.119  0.4333  0.5698 -0.6699
 7059SOL    HW132813   4.661   3.947  11.193  1.3048 -0.0470 -0.4500
 7059SOL    HW232814   4.713   3.895  11.058  0.0493  1.1455 -1.0960
 7060SOL     OW32815   3.300   1.932   8.883  0.2179  0.2968  0.1510
 7060SOL    HW132816   3.371   1.869   8.894 -0.1568 -0.1477  0.0605
 7060SOL    HW232817   3.350   2.009   8.858  0.6356  1.1521  3.6359
 7061SOL     OW32818   0.782   2.479   4.887  0.2047 -0.3590  0.5301
 7061SOL    HW132819   0.708   2.538   4.873  1.4439  1.3177  1.0591
 7061SOL    HW232820   0.848   2.540   4.921  0.0714 -1.0497  2.0395
 7062SOL     OW32821   0.538   2.748  14.786  0.0103  1.3379  0.3670
 7062SOL    HW132822   0.609   2.784  14.839  0.0490 -2.6081  3.0070
 7062SOL    HW232823   0.464   2.798  14.823 -1.2331 -0.7781  0.7265
 7063SOL     OW32824   3.403   3.819   5.791  0.2571 -0.0319  0.6894
 7063SOL    HW132825   3.313   3.816   5.824 -0.1447  0.5228 -0.3608
 7063SOL    HW232826   3.429   3.727   5.794  1.7461  0.3556 -1.1208
 7064SOL     OW32827   2.918   1.868   4.621  0.2510 -0.6432 -0.3955
 7064SOL    HW132828   2.878   1.822   4.694 -2.8077 -0.7151 -2.1165
 7064SOL    HW232829   2.978   1.924   4.669  1.4965 -0.5616 -2.0252
 7065SOL     OW32830   1.810   1.083  12.458 -0.1896 -0.5728 -0.0443
 7065SOL    HW132831   1.775   1.000  12.426  0.2726 -1.3513  1.4497
 7065SOL    HW232832   1.750   1.105  12.530 -1.2896 -0.8758 -0.8694
 7066SOL     OW32833   1.139   2.227  15.246  0.5258 -0.4243 -0.5948
 7066SOL    HW132834   1.139   2.131  15.238  2.1943 -0.4791  0.1095
 7066SOL    HW232835   1.075   2.238  15.316 -0.2358  3.3383 -1.8756
 7067SOL     OW32836   3.312   0.617   3.102  0.2681  0.4626 -0.4489
 7067SOL    HW132837   3.252   0.674   3.151  0.6289 -0.6977  1.3535
 7067SOL    HW232838   3.290   0.633   3.010 -1.4155  1.6589  0.1454
 7068SOL     OW32839   3.169   2.766   2.311  0.5199 -0.4324  0.1276
 7068SOL    HW132840   3.232   2.714   2.261  0.4079 -0.4898  0.0471
 7068SOL    HW232841   3.226   2.806   2.376  1.2910  0.8974 -1.3860
 7069SOL     OW32842   2.647   2.387   1.884  0.3948 -0.2982  0.1942
 7069SOL    HW132843   2.601   2.305   1.902 -1.0057  0.2760 -0.8760
 7069SOL    HW232844   2.675   2.381   1.793  0.0440  0.0766  0.0611
 7070SOL     OW32845   3.003   3.724   7.059 -0.3680 -0.1932  0.2233
 7070SOL    HW132846   3.066   3.653   7.044  2.2112  2.4330 -1.4222
 7070SOL    HW232847   3.056   3.796   7.093 -1.3192 -0.6510  2.6442
 7071SOL     OW32848   3.274   3.863   7.310  0.3606 -0.2623 -0.4476
 7071SOL    HW132849   3.205   3.831   7.369 -0.4494  1.5377 -0.4117
 7071SOL    HW232850   3.358   3.865   7.354 -0.0649 -1.6173  0.4267
 7072SOL     OW32851   2.290   2.588  16.972  0.0095  0.0443 -0.5180
 7072SOL    HW132852   2.254   2.501  16.993  1.3371 -0.1426  0.9683
 7072SOL    HW232853   2.214   2.645  16.964  0.1677  0.1861 -1.0007
 7073SOL     OW32854   1.281   1.670   3.312 -0.1149  0.4053 -0.5129
 7073SOL    HW132855   1.294   1.635   3.224 -2.0872 -0.0370 -0.6199
 7073SOL    HW232856   1.368   1.706   3.335 -0.7075  0.8587  1.0506
 7074SOL     OW32857   1.369   0.369   9.285 -1.2218 -0.1174 -0.1015
 7074SOL    HW132858   1.444   0.319   9.317 -1.2857  0.6084  1.1514
 7074SOL    HW232859   1.305   0.349   9.353  0.4984  0.6155  1.7172
 7075SOL     OW32860   4.338   2.468   1.164  0.1753  0.4223 -0.3661
 7075SOL    HW132861   4.242   2.475   1.158 -0.1117 -3.7849 -0.4305
 7075SOL    HW232862   4.363   2.508   1.080 -1.3314 -2.1917 -2.0701
 7076SOL     OW32863   1.946   1.651   7.612 -0.3764  0.5957 -0.2517
 7076SOL    HW132864   1.961   1.601   7.532 -0.1856  0.3196 -0.0420
 7076SOL    HW232865   2.015   1.616   7.668 -0.2257  0.8347 -0.2880
 7077SOL     OW32866   3.857   3.830   3.076  0.2599 -0.0392 -0.1164
 7077SOL    HW132867   3.808   3.779   3.141  1.0974 -1.8340 -0.8864
 7077SOL    HW232868   3.788   3.877   3.030  0.0914 -0.7312 -0.5616
 7078SOL     OW32869   2.035   4.093  13.917 -0.5922  0.3930  0.4813
 7078SOL    HW132870   2.049   4.037  13.992  0.5176 -2.3815 -1.8064
 7078SOL    HW232871   2.116   4.079  13.867 -1.1237  0.1980 -0.3369
 7079SOL     OW32872   1.870   4.333   4.245  0.8699 -0.3930 -0.1924
 7079SOL    HW132873   1.791   4.279   4.234 -1.0196  2.2899  0.3948
 7079SOL    HW232874   1.940   4.296   4.191  0.9874 -0.2994 -0.1027
 7080SOL     OW32875   1.336   2.736  15.994  0.1574 -0.4052 -0.8999
 7080SOL    HW132876   1.362   2.775  16.077 -1.0223 -1.0524 -0.2326
 7080SOL    HW232877   1.381   2.799  15.938  0.8070  0.0587  0.1563
 7081SOL     OW32878   3.854   2.257  17.470 -0.5345  0.1302  0.0784
 7081SOL    HW132879   3.906   2.257  17.390 -0.5877  0.9265  0.0474
 7081SOL    HW232880   3.919   2.217  17.529 -2.3166  0.1896  2.0684
 7082SOL     OW32881   2.314   0.871   0.763  0.1746  0.1394  0.0101
 7082SOL    HW132882   2.235   0.843   0.717  0.6821  1.2532 -1.5485
 7082SOL    HW232883   2.297   0.841   0.852  0.6193 -0.2525 -0.0360
 7083SOL     OW32884   1.779   4.111  10.322 -0.5705  0.0500  0.2584
 7083SOL    HW132885   1.838   4.055  10.273  0.2266  1.9884 -1.0324
 7083SOL    HW232886   1.815   4.110  10.411  0.6291 -0.0665 -0.2412
 7084SOL     OW32887   1.932   4.307  10.196  0.1321  0.0180 -0.0923
 7084SOL    HW132888   1.869   4.237  10.217 -0.1334  0.3543  0.2274
 7084SOL    HW232889   1.989   4.302  10.272  0.5393  0.7198 -0.3550
 7085SOL     OW32890   1.428   0.530   5.266  0.0668 -0.2843  0.0517
 7085SOL    HW132891   1.398   0.456   5.318 -0.6857  0.6129  0.8894
 7085SOL    HW232892   1.452   0.595   5.332 -1.3139  0.5036 -0.2328
 7086SOL     OW32893   0.346   0.964   9.471  0.5758 -0.0162 -0.3355
 7086SOL    HW132894   0.412   0.910   9.514 -0.3377 -1.8388 -1.2222
 7086SOL    HW232895   0.271   0.908   9.492  1.7008 -1.0106  1.0687
 7087SOL     OW32896   0.421   4.289   8.018  0.6213 -0.0064  0.0959
 7087SOL    HW132897   0.362   4.265   7.946  0.3024 -0.3515  0.4665
 7087SOL    HW232898   0.436   4.381   7.997 -1.0339  0.3773  0.5899
 7088SOL     OW32899   0.661   0.709   8.621 -0.3634 -0.2263  0.1563
 7088SOL    HW132900   0.728   0.668   8.567 -0.6387  0.4654 -0.6907
 7088SOL    HW232901   0.638   0.779   8.561  2.0395  2.6629  2.6230
 7089SOL     OW32902   3.176   1.536   9.582  0.3007 -0.1709  0.0247
 7089SOL    HW132903   3.098   1.513   9.533 -0.2417  2.2211 -0.2651
 7089SOL    HW232904   3.201   1.626   9.560  3.1997 -1.0272 -0.1983
 7090SOL     OW32905   2.296   0.769   7.182 -0.4007 -0.4840 -0.7001
 7090SOL    HW132906   2.354   0.701   7.216 -1.1759 -0.0095  1.5779
 7090SOL    HW232907   2.266   0.731   7.100 -3.0966 -0.5572  0.3198
 7091SOL     OW32908   2.800   2.784  11.460 -0.1838  0.2468 -0.3536
 7091SOL    HW132909   2.805   2.692  11.432  2.8116  0.3761 -0.2721
 7091SOL    HW232910   2.861   2.824  11.397 -0.0822  1.4163  0.4974
 7092SOL     OW32911   4.055   3.526   5.704 -0.3759 -0.5184 -0.1407
 7092SOL    HW132912   3.984   3.484   5.656  0.8107 -0.3820 -2.0351
 7092SOL    HW232913   4.126   3.505   5.643 -0.7953  2.1311 -1.5563
 7093SOL     OW32914   2.960   4.140   5.709  0.5227 -0.2799 -0.1534
 7093SOL    HW132915   2.967   4.172   5.799  1.9826 -2.1279  0.3975
 7093SOL    HW232916   2.901   4.210   5.682  3.6426  1.3871 -2.6504
 7094SOL     OW32917   3.279   1.227  11.820  0.6294  0.1585 -0.0189
 7094SOL    HW132918   3.216   1.161  11.792  0.9628 -1.1931  2.4145
 7094SOL    HW232919   3.293   1.210  11.913 -1.0560  0.5673  0.3165
 7095SOL     OW32920   4.725   4.630   6.526  0.3322  0.5677 -0.0151
 7095SOL    HW132921   0.031   4.584   6.598  0.1264 -1.9810 -1.5297
 7095SOL    HW232922   4.636   4.596   6.538  0.0071  0.7622 -1.8636
 7096SOL     OW32923   0.295   1.582   8.611  0.2019 -0.0549 -0.1571
 7096SOL    HW132924   0.267   1.668   8.579 -2.5679 -0.5083  1.0240
 7096SOL    HW232925   0.351   1.602   8.686  0.4747 -1.3670 -0.0016
 7097SOL     OW32926   4.647   0.108  15.686  0.0397 -0.5601 -0.5558
 7097SOL    HW132927   4.615   0.017  15.685 -2.8772  0.4370  0.9496
 7097SOL    HW232928   4.675   0.112  15.778 -1.1970  0.8316 -0.2421
 7098SOL     OW32929   4.653   2.395   1.074 -0.1046 -0.0081  0.1900
 7098SOL    HW132930   4.712   2.420   1.144  0.4719  2.8117 -1.3036
 7098SOL    HW232931   4.712   2.361   1.007  0.1051  0.5763  0.0748
 7099SOL     OW32932   4.339   2.713   2.509 -0.7928  0.0471  0.5316
 7099SOL    HW132933   4.269   2.656   2.478 -2.3259  1.1509  1.9643
 7099SOL    HW232934   4.401   2.651   2.547  0.0942  1.7916  1.9357
 7100SOL     OW32935   0.127   0.374  14.198  0.1747 -0.8063  0.3215
 7100SOL    HW132936   0.067   0.443  14.173  1.2707 -0.2969 -0.9174
 7100SOL    HW232937   0.175   0.370  14.116 -1.4185 -2.4700 -0.5271
 7101SOL     OW32938   3.885   3.199   3.327 -0.0680 -0.0619  0.1983
 7101SOL    HW132939   3.891   3.277   3.272  1.7912 -0.2070  0.1887
 7101SOL    HW232940   3.966   3.153   3.304 -0.6680 -1.4543  0.8699
 7102SOL     OW32941   1.743   2.053   2.056  0.0156  0.3127 -0.4788
 7102SOL    HW132942   1.796   2.046   2.135  0.7831 -0.9344 -1.1045
 7102SOL    HW232943   1.694   2.133   2.075  0.1288 -0.0668  1.4096
 7103SOL     OW32944   0.013   0.672   4.871 -0.0535 -0.1614  0.3931
 7103SOL    HW132945   4.675   0.612   4.863 -2.4374  2.3528  3.7491
 7103SOL    HW232946   0.088   0.622   4.905  0.7984 -0.4619 -1.9190
 7104SOL     OW32947   3.939   2.590   6.426 -0.5222  0.0019  0.2072
 7104SOL    HW132948   3.859   2.631   6.393 -0.3083 -1.2319 -1.8681
 7104SOL    HW232949   3.998   2.664   6.409  0.6507 -1.1092 -0.6014
 7105SOL     OW32950   3.207   0.839   1.941  0.2191 -0.1391  0.0670
 7105SOL    HW132951   3.121   0.842   1.899 -0.3344  0.3418  1.2273
 7105SOL    HW232952   3.251   0.910   1.894 -0.6552 -0.4460 -1.2199
 7106SOL     OW32953   0.058   2.907   2.805  0.0843  0.0833  0.0897
 7106SOL    HW132954   0.134   2.954   2.839 -0.8029  0.6908  1.2000
 7106SOL    HW232955   0.071   2.818   2.839 -1.4835  0.1336  0.8074
 7107SOL     OW32956   3.661   3.056   6.119 -0.1718 -0.2438  0.2483
 7107SOL    HW132957   3.731   3.089   6.063  1.1255 -0.9000  1.4801
 7107SOL    HW232958   3.578   3.092   6.089  1.1082  0.2274 -2.6740
 7108SOL     OW32959   2.629   0.290   0.797  0.5311  0.3807  0.3007
 7108SOL    HW132960   2.550   0.272   0.848  0.4150 -2.2520 -0.8431
 7108SOL    HW232961   2.619   0.235   0.720  1.4871 -1.2703  1.3511
 7109SOL     OW32962   3.071   0.293   9.135  0.0778 -0.6350  0.0313
 7109SOL    HW132963   3.023   0.321   9.213 -1.5687  0.8218 -1.4951
 7109SOL    HW232964   3.000   0.289   9.070  0.0643  1.8304 -0.0824
 7110SOL     OW32965   3.932   0.133   7.463 -0.4471 -0.0353  0.2760
 7110SOL    HW132966   3.893   0.219   7.450  0.2959  0.2643 -0.0308
 7110SOL    HW232967   4.014   0.146   7.415  1.2094 -0.3843  2.9742
 7111SOL     OW32968   0.512   0.636   4.519  0.3609 -0.4662  0.4368
 7111SOL    HW132969   0.487   0.559   4.468  0.9220 -1.1253  1.1613
 7111SOL    HW232970   0.564   0.595   4.587 -1.0751 -1.2704  1.0491
 7112SOL     OW32971   3.284   2.040   8.157  0.1489  0.2235  0.1577
 7112SOL    HW132972   3.271   2.090   8.077 -3.0929 -1.2258 -0.2077
 7112SOL    HW232973   3.363   2.086   8.185 -0.5634  0.2961  2.0199
 7113SOL     OW32974   3.759   0.560  12.690  0.1054 -0.2838  0.1567
 7113SOL    HW132975   3.725   0.544  12.602  0.6233 -0.7114  0.0324
 7113SOL    HW232976   3.793   0.649  12.686  0.8885 -0.6153 -0.5802
 7114SOL     OW32977   3.768   1.899  12.537  0.4689 -0.6707 -0.4552
 7114SOL    HW132978   3.845   1.888  12.593  1.1454  2.2359 -0.8417
 7114SOL    HW232979   3.702   1.899  12.606 -0.4520 -0.2199 -1.3319
 7115SOL     OW32980   0.003   3.993   5.053 -0.4492 -0.1486  0.0876
 7115SOL    HW132981   0.086   4.035   5.078 -0.4893 -0.5386  0.8630
 7115SOL    HW232982   0.025   3.984   4.960 -2.2399 -0.4260 -0.3057
 7116SOL     OW32983   4.250   2.243  14.245 -0.5903  0.2083 -0.1218
 7116SOL    HW132984   4.294   2.178  14.191 -0.0712  0.6875 -0.2677
 7116SOL    HW232985   4.228   2.200  14.328 -0.6148  0.8611  0.2058
 7117SOL     OW32986   0.648   3.732  13.195  0.1903 -0.3441 -0.6093
 7117SOL    HW132987   0.652   3.637  13.180  1.4797 -0.5695  1.1340
 7117SOL    HW232988   0.572   3.748  13.250  0.3316  1.9183 -1.0757
 7118SOL     OW32989   3.061   0.438  10.181  0.6312 -0.3728 -0.0127
 7118SOL    HW132990   3.157   0.442  10.177  0.4113  1.9079 -2.6187
 7118SOL    HW232991   3.049   0.374  10.251 -0.2150 -0.7008 -0.4659
 7119SOL     OW32992   4.215   3.100   5.954 -0.5278 -0.0356 -0.1647
 7119SOL    HW132993   4.290   3.074   6.009  1.9525  2.9767 -2.1689
 7119SOL    HW232994   4.143   3.113   6.016  0.1441 -0.3753  0.6923
 7120SOL     OW32995   1.301   0.854  11.795 -0.3399  0.9021 -0.0982
 7120SOL    HW132996   1.324   0.940  11.759  1.0003  1.0015  0.9901
 7120SOL    HW232997   1.218   0.880  11.834  0.1476  0.7374  1.0436
 7121SOL     OW32998   1.630   2.931   3.552  0.0339  0.0282  0.1014
 7121SOL    HW132999   1.689   2.971   3.488  1.2564 -1.6587  0.1599
 7121SOL    HW233000   1.550   2.978   3.530  0.0664 -0.4865 -1.0844
 7122SOL     OW33001   0.847   3.017   6.539 -0.2361  0.0846  0.5558
 7122SOL    HW133002   0.897   3.058   6.610 -0.7438  2.3164 -0.3948
 7122SOL    HW233003   0.803   2.942   6.578 -0.9253  0.2186  0.0274
 7123SOL     OW33004   4.148   3.426   3.357 -0.0954 -0.4153  0.1193
 7123SOL    HW133005   4.185   3.502   3.402 -1.4756 -0.5031  1.4361
 7123SOL    HW233006   4.120   3.457   3.271  0.0165  0.2382  0.3153
 7124SOL     OW33007   1.893   1.267  14.748 -0.0348  0.1136 -0.0497
 7124SOL    HW133008   1.863   1.309  14.829  0.4627  0.5786 -0.1083
 7124SOL    HW233009   1.988   1.263  14.762  0.1626  0.4832 -1.3047
 7125SOL     OW33010   0.511   3.100   2.575  0.0546 -0.5048  0.3760
 7125SOL    HW133011   0.465   3.017   2.564 -0.7722 -0.4564  3.5466
 7125SOL    HW233012   0.502   3.125   2.483  1.4972 -1.3084  0.0152
 7126SOL     OW33013   2.445   1.217  16.835 -0.0302  0.3283 -0.3124
 7126SOL    HW133014   2.455   1.202  16.929  1.4970 -3.3142 -1.0340
 7126SOL    HW233015   2.416   1.132  16.801 -1.0105  1.0803 -1.3393
 7127SOL     OW33016   1.940   0.265   7.203  0.2728  0.2798 -0.3391
 7127SOL    HW133017   1.966   0.185   7.249  0.4784 -0.3602 -1.5703
 7127SOL    HW233018   1.868   0.289   7.262 -0.5624  1.3805 -1.8068
 7128SOL     OW33019   4.709   4.505   8.590  0.2934 -0.3944  0.3131
 7128SOL    HW133020   0.039   4.495   8.521  0.2395 -1.5050  0.4295
 7128SOL    HW233021   4.686   4.413   8.597 -0.1579 -0.4638 -1.9969
 7129SOL     OW33022   2.554   2.636   3.368  0.9405 -0.0127  0.1607
 7129SOL    HW133023   2.511   2.721   3.365 -1.0581 -1.0042  0.0677
 7129SOL    HW233024   2.518   2.602   3.450 -1.0181  2.2682  0.2311
 7130SOL     OW33025   1.246   0.565  15.529 -0.6516  0.3278  0.1159
 7130SOL    HW133026   1.312   0.547  15.595 -0.3275  1.7398  0.1744
 7130SOL    HW233027   1.262   0.494  15.466 -1.1378  0.1701  0.1662
 7131SOL     OW33028   2.478   4.404  16.760  0.1588  0.4143 -0.1945
 7131SOL    HW133029   2.561   4.411  16.712  0.5777 -0.0272  0.4737
 7131SOL    HW233030   2.507   4.478  16.813  0.6341  1.6876 -2.2304
 7132SOL     OW33031   0.268   1.006  14.002  0.0797 -0.0083  0.5379
 7132SOL    HW133032   0.175   0.990  13.990  0.2384 -2.1690  2.0577
 7132SOL    HW233033   0.295   0.940  14.067  0.9882  1.0295  1.2184
 7133SOL     OW33034   0.350   2.370   2.785 -0.1602 -0.0683 -0.3103
 7133SOL    HW133035   0.307   2.324   2.713 -0.3715 -0.7824  0.2780
 7133SOL    HW233036   0.276   2.418   2.823  0.1881 -1.3968  2.0694
 7134SOL     OW33037   3.352   1.379   4.781 -0.2046 -0.2413  0.5521
 7134SOL    HW133038   3.377   1.434   4.707 -0.2670 -0.9829 -0.0310
 7134SOL    HW233039   3.434   1.330   4.788  1.3646  2.4688  1.0403
 7135SOL     OW33040   3.658   4.251   8.878  0.5358 -0.1692 -0.0182
 7135SOL    HW133041   3.570   4.271   8.847  1.0293  0.0972 -1.2299
 7135SOL    HW233042   3.695   4.197   8.807 -0.4113 -0.0824 -0.5731
 7136SOL     OW33043   2.974   1.680   3.279 -0.0880 -1.0884 -0.0220
 7136SOL    HW133044   2.984   1.694   3.374  0.4502 -2.4640  0.1252
 7136SOL    HW233045   3.037   1.743   3.242 -0.3164 -1.2406 -0.6562
 7137SOL     OW33046   2.625   2.734   2.207  0.2260  0.7121 -0.1945
 7137SOL    HW133047   2.600   2.672   2.138 -1.6366  1.1974  0.0569
 7137SOL    HW233048   2.704   2.705   2.253 -1.7823 -3.6199  0.4596
 7138SOL     OW33049   4.288   0.884   6.910 -0.2900  0.4579 -0.0697
 7138SOL    HW133050   4.239   0.963   6.886  2.6339  1.6989 -2.0871
 7138SOL    HW233051   4.287   0.898   7.004  0.4105  0.6833 -0.0937
 7139SOL     OW33052   1.305   2.165   4.824  0.1046  0.5086 -0.2737
 7139SOL    HW133053   1.220   2.176   4.868 -1.1857  0.0434 -2.6793
 7139SOL    HW233054   1.283   2.200   4.738  1.9367  2.2649 -0.0333
 7140SOL     OW33055   1.835   1.386   5.232  0.3076 -0.0742  0.2966
 7140SOL    HW133056   1.910   1.382   5.172  0.7334  3.7151  0.5474
 7140SOL    HW233057   1.839   1.472   5.275  0.5269  0.2126 -0.3005
 7141SOL     OW33058   2.608   0.091   7.879  0.2311  0.3688  0.2087
 7141SOL    HW133059   2.653   0.018   7.921 -0.3705 -1.6178 -2.6696
 7141SOL    HW233060   2.581   0.149   7.950 -0.7203  0.4052 -0.1895
 7142SOL     OW33061   2.842   0.951   9.886 -0.0176  0.5216 -0.1473
 7142SOL    HW133062   2.798   0.969   9.803 -0.5169  0.0747  0.0204
 7142SOL    HW233063   2.912   0.894   9.854 -0.0439 -1.0643  2.6043
 7143SOL     OW33064   0.434   4.335   3.206 -0.0977  0.7581  0.5304
 7143SOL    HW133065   0.513   4.389   3.200  0.3790  0.2290  1.9091
 7143SOL    HW233066   0.455   4.263   3.146 -1.1585  0.9651 -0.0775
 7144SOL     OW33067   3.395   3.970   7.967 -0.0508 -0.4964 -0.2203
 7144SOL    HW133068   3.373   4.036   7.902 -0.4902  0.6144  1.0487
 7144SOL    HW233069   3.305   3.944   7.986  0.6013 -2.7245 -0.2450
 7145SOL     OW33070   2.543   3.960   8.571  0.8810 -0.6058 -0.6247
 7145SOL    HW133071   2.512   3.923   8.654  0.7768  1.4305  0.2467
 7145SOL    HW233072   2.573   3.880   8.527  1.3440 -1.2734  0.9204
 7146SOL     OW33073   2.563   0.278  17.384 -0.4194  0.3568  0.2810
 7146SOL    HW133074   2.502   0.352  17.381 -0.3058  0.4857  1.1557
 7146SOL    HW233075   2.641   0.327  17.410  0.3529 -1.9281  2.2458
 7147SOL     OW33076   3.145   3.030   3.748 -0.7926  0.1050  0.1167
 7147SOL    HW133077   3.102   3.053   3.666 -2.7977 -3.5367  0.1172
 7147SOL    HW233078   3.226   2.990   3.714  0.5928  0.9281  2.4428
 7148SOL     OW33079   2.668   2.387  15.986  0.2466  0.8853  0.4144
 7148SOL    HW133080   2.688   2.419  15.898 -1.3442  0.5014 -0.0857
 7148SOL    HW233081   2.597   2.447  16.011  0.7248  1.2392  0.9107
 7149SOL     OW33082   2.222   1.727   5.961  0.1378 -0.0036 -0.1463
 7149SOL    HW133083   2.251   1.758   5.875 -3.3635  1.8295 -0.6623
 7149SOL    HW233084   2.292   1.761   6.017  0.4536 -0.8188 -0.0444
 7150SOL     OW33085   1.610   0.330   2.677  0.0560 -0.3606 -0.0134
 7150SOL    HW133086   1.562   0.373   2.749 -0.3114 -1.6812  0.5250
 7150SOL    HW233087   1.546   0.265   2.651 -0.4860 -0.6148  1.9236
 7151SOL     OW33088   1.487   2.436  15.230 -0.2911  0.2189 -0.2728
 7151SOL    HW133089   1.459   2.527  15.242 -0.1343  0.0270  1.6713
 7151SOL    HW233090   1.535   2.414  15.311 -1.1605  2.2564  0.7884
 7152SOL     OW33091   1.841   4.001  17.057 -0.1311  0.1923 -0.2147
 7152SOL    HW133092   1.860   4.091  17.030  0.5072  0.1005 -0.0848
 7152SOL    HW233093   1.760   3.987  17.008  0.4252  1.4238 -1.4869
 7153SOL     OW33094   2.782   0.219   5.292 -0.1031 -0.1336  0.2533
 7153SOL    HW133095   2.839   0.275   5.344 -0.4644  0.0164  0.4923
 7153SOL    HW233096   2.837   0.185   5.222 -0.7654  2.3042 -1.4337
 7154SOL     OW33097   3.574   1.590  10.885 -0.0579  0.2821 -0.1425
 7154SOL    HW133098   3.561   1.496  10.899 -0.3996  0.3618  0.0776
 7154SOL    HW233099   3.582   1.591  10.790 -0.1468  1.5019 -0.1257
 7155SOL     OW33100   0.315   4.296   3.589  0.1250 -0.1794 -0.4561
 7155SOL    HW133101   0.342   4.220   3.538 -0.8222 -0.4905 -0.4961
 7155SOL    HW233102   0.232   4.316   3.546  0.1116  0.7827  0.0301
 7156SOL     OW33103   0.008   4.256   1.413  0.1062  0.4997 -0.0992
 7156SOL    HW133104   0.010   4.258   1.318  0.6096  2.8094 -0.0364
 7156SOL    HW233105   4.673   4.192   1.419  0.9007 -0.2688  0.9901
 7157SOL     OW33106   0.764   2.151  14.576 -0.0970  0.8081 -0.5105
 7157SOL    HW133107   0.840   2.207  14.591 -0.4209  1.9201 -3.1566
 7157SOL    HW233108   0.729   2.201  14.502 -0.1499 -0.9649 -1.6832
 7158SOL     OW33109   2.046   3.235   5.057 -0.4399 -0.0788  0.0733
 7158SOL    HW133110   2.139   3.216   5.068 -0.1525  1.7878  0.8841
 7158SOL    HW233111   2.042   3.292   4.980 -1.6698 -1.2799 -0.7633
 7159SOL     OW33112   0.645   2.462  13.466 -0.1887 -0.5004  0.2815
 7159SOL    HW133113   0.662   2.538  13.410 -0.2632 -0.8762 -0.2490
 7159SOL    HW233114   0.736   2.433  13.478 -0.4131 -0.6190  1.6741
 7160SOL     OW33115   1.029   1.319   6.712 -0.6702  0.2941  0.2325
 7160SOL    HW133116   1.085   1.272   6.774 -1.5395 -1.8130 -0.5985
 7160SOL    HW233117   0.959   1.353   6.768 -1.9091 -3.3153  0.8804
 7161SOL     OW33118   1.523   4.563   2.253 -0.5499  0.3005 -0.2780
 7161SOL    HW133119   1.581   4.524   2.319 -1.3676  0.9489  0.8183
 7161SOL    HW233120   1.544   4.653   2.277  1.1163  0.3154 -1.7640
 7162SOL     OW33121   1.552   2.446   6.702 -0.2108 -0.4633  0.5110
 7162SOL    HW133122   1.499   2.510   6.655  1.2276  2.4960  2.8183
 7162SOL    HW233123   1.638   2.484   6.684  0.0143 -0.0452  2.4272
 7163SOL     OW33124   3.590   3.287   4.816 -0.0380  0.4977 -0.3541
 7163SOL    HW133125   3.622   3.214   4.763  0.9105  1.5129 -1.1946
 7163SOL    HW233126   3.616   3.362   4.763  1.4480  0.5504  0.4494
 7164SOL     OW33127   4.302   3.886  11.372  0.4268 -0.0739 -0.3434
 7164SOL    HW133128   4.208   3.876  11.354  0.4386  0.6682 -0.8276
 7164SOL    HW233129   4.334   3.845  11.292  0.4553  0.4099 -0.5833
 7165SOL     OW33130   1.251   0.758  11.556 -0.3834 -0.0076 -0.0177
 7165SOL    HW133131   1.255   0.801  11.641 -0.1215 -2.5067  1.2401
 7165SOL    HW233132   1.156   0.744  11.556 -0.0754 -1.9676 -2.1152
 7166SOL     OW33133   0.273   2.049   6.353 -0.0691  0.1228 -0.2224
 7166SOL    HW133134   0.273   1.980   6.419 -0.6639  0.9373  0.6249
 7166SOL    HW233135   0.244   2.119   6.411 -0.0848  0.4842 -0.6672
 7167SOL     OW33136   0.430   1.587   2.315  0.4934  0.0982  0.4783
 7167SOL    HW133137   0.366   1.597   2.385  0.0514 -1.1494  0.2444
 7167SOL    HW233138   0.501   1.643   2.348  1.6695 -1.4287  0.5051
 7168SOL     OW33139   0.475   0.828   4.305 -0.5440  0.2704 -0.2513
 7168SOL    HW133140   0.413   0.756   4.299 -0.4541  0.2610 -1.0666
 7168SOL    HW233141   0.516   0.806   4.389  0.1340 -3.1021 -1.4907
 7169SOL     OW33142   0.081   2.530   7.434 -0.1675 -0.2177 -0.1675
 7169SOL    HW133143   0.077   2.625   7.445  1.9243 -0.1361  0.0188
 7169SOL    HW233144   0.096   2.533   7.339  4.1136  0.5822  0.5147
 7170SOL     OW33145   4.531   2.547   4.007  0.0869  0.1453 -0.0960
 7170SOL    HW133146   4.554   2.458   4.034  1.2980  1.1106  2.0270
 7170SOL    HW233147   4.507   2.574   4.095 -0.3282  1.6069 -0.6575
 7171SOL     OW33148   4.571   3.782   3.944  0.2919  0.3413 -0.0031
 7171SOL    HW133149   4.662   3.755   3.943  0.5448  1.2754 -1.2731
 7171SOL    HW233150   4.583   3.837   3.867 -1.6786  0.0858 -0.4899
 7172SOL     OW33151   3.444   3.558   0.382 -0.0468  0.7507  0.1901
 7172SOL    HW133152   3.513   3.506   0.340 -2.1405 -0.7158 -1.4011
 7172SOL    HW233153   3.439   3.637   0.327  1.3396 -0.5773 -1.8567
 7173SOL     OW33154   0.863   0.338  11.304 -0.4615  0.1947  0.3014
 7173SOL    HW133155   0.923   0.292  11.246 -0.2314  1.8701 -0.7773
 7173SOL    HW233156   0.916   0.345  11.384  0.5241 -2.5963 -0.1212
 7174SOL     OW33157   3.523   0.815   6.707 -0.0235 -0.8409  0.0266
 7174SOL    HW133158   3.474   0.844   6.784 -0.0595 -1.6122  0.3027
 7174SOL    HW233159   3.484   0.862   6.633 -0.8091 -0.3506  0.7505
 7175SOL     OW33160   3.663   0.662   5.018 -0.1705  0.8836  0.2999
 7175SOL    HW133161   3.692   0.677   4.928  0.4019 -0.4684  0.2690
 7175SOL    HW233162   3.702   0.576   5.033  0.6249  1.0379 -0.9060
 7176SOL     OW33163   1.515   0.616   7.675 -0.5236  0.0592  0.1690
 7176SOL    HW133164   1.453   0.687   7.660 -0.7743 -0.4610 -1.2442
 7176SOL    HW233165   1.599   0.659   7.658 -0.6705  0.4855  0.5605
 7177SOL     OW33166   3.931   0.011   6.904 -0.0126  0.1525  0.6541
 7177SOL    HW133167   3.837   0.021   6.890  0.1800  1.5568  0.4019
 7177SOL    HW233168   3.920   4.667   6.956 -1.3969 -0.2149 -0.2169
 7178SOL     OW33169   3.208   3.803   8.103 -0.5946  0.4352  0.2001
 7178SOL    HW133170   3.194   3.866   8.174 -0.8272  0.4824  0.1109
 7178SOL    HW233171   3.259   3.733   8.144 -0.1372 -0.0094 -1.1222
 7179SOL     OW33172   4.294   3.542  13.377 -0.4419  0.2289 -0.3620
 7179SOL    HW133173   4.267   3.589  13.455 -0.8956  0.5688 -0.7255
 7179SOL    HW233174   4.364   3.593  13.336 -0.0913  0.4258  0.5028
 7180SOL     OW33175   1.541   1.118   6.479 -0.4465  0.2382 -0.0569
 7180SOL    HW133176   1.621   1.104   6.530 -1.0618 -0.3589  0.7511
 7180SOL    HW233177   1.482   1.168   6.536 -0.5616 -0.0891  0.1107
 7181SOL     OW33178   1.827   0.317   4.056  0.0883  0.4980 -0.5778
 7181SOL    HW133179   1.825   0.223   4.039 -0.4886  0.1985  1.2026
 7181SOL    HW233180   1.903   0.344   4.005  1.0454  0.5893  0.9307
 7182SOL     OW33181   4.529   3.505   0.614  0.3455  0.1465  0.1460
 7182SOL    HW133182   4.519   3.592   0.574  2.0582 -0.8863 -2.5016
 7182SOL    HW233183   4.489   3.446   0.552  1.1802  0.8423 -1.0546
 7183SOL     OW33184   2.084   1.096   4.263  0.4468 -0.6885 -0.6331
 7183SOL    HW133185   2.021   1.168   4.255  0.2543 -0.8091 -0.1959
 7183SOL    HW233186   2.153   1.127   4.204  0.9249 -4.2155 -1.9536
 7184SOL     OW33187   0.008   0.088   8.407  0.1055  0.0769 -0.0952
 7184SOL    HW133188   0.085   0.034   8.395  0.6340  1.0311 -0.9834
 7184SOL    HW233189   4.727   0.067   8.499 -2.6909 -0.7018 -0.7866
 7185SOL     OW33190   1.517   2.720   7.518 -0.3411  0.3830  0.0976
 7185SOL    HW133191   1.546   2.683   7.434  0.1009 -1.3894  1.0394
 7185SOL    HW233192   1.519   2.815   7.505  0.2361  0.5024  1.0447
 7186SOL     OW33193   1.793   4.196  11.579  0.4239 -0.0532 -0.0106
 7186SOL    HW133194   1.723   4.224  11.520 -0.2567 -0.4468  0.6097
 7186SOL    HW233195   1.869   4.253  11.562  0.4325  0.2643  1.0791
 7187SOL     OW33196   3.561   3.586   5.927 -0.2406  0.1483 -0.2704
 7187SOL    HW133197   3.477   3.540   5.926  0.1934 -0.6096 -1.4734
 7187SOL    HW233198   3.592   3.542   5.848 -3.2151  0.0469 -1.3860
 7188SOL     OW33199   3.459   1.384   3.989 -0.2366 -0.4228  0.1649
 7188SOL    HW133200   3.498   1.466   4.022 -0.8307 -0.1444  0.1758
 7188SOL    HW233201   3.404   1.427   3.924  1.0014  1.7627  0.5372
 7189SOL     OW33202   4.653   3.855   4.732  0.1972  0.1931  0.2595
 7189SOL    HW133203   4.648   3.800   4.653 -1.0734  1.1430 -0.3169
 7189SOL    HW233204   4.622   3.782   4.786  0.4954 -0.3415 -0.2911
 7190SOL     OW33205   2.508   0.331   4.839  0.5516 -0.1898 -0.1622
 7190SOL    HW133206   2.549   0.330   4.926 -1.4261 -1.9157  0.7697
 7190SOL    HW233207   2.573   0.375   4.784 -0.2422 -1.1174 -1.8211
 7191SOL     OW33208   3.204   2.209   3.739 -0.0503 -0.0567 -0.2589
 7191SOL    HW133209   3.183   2.117   3.724  2.4667 -0.4990 -1.2297
 7191SOL    HW233210   3.121   2.249   3.764 -0.5914 -0.3781 -1.5261
 7192SOL     OW33211   0.589   0.064   4.357  0.0652 -0.0199  0.1171
 7192SOL    HW133212   0.496   0.079   4.343  0.1452 -0.2636 -0.6820
 7192SOL    HW233213   0.598   4.708   4.384 -3.1186 -1.1842 -2.7812
 7193SOL     OW33214   0.973   2.294   9.050 -1.1003  0.0472 -0.8417
 7193SOL    HW133215   1.007   2.277   9.138  0.6994 -0.8726 -1.7185
 7193SOL    HW233216   0.882   2.266   9.059  0.4771 -5.3274 -1.6045
 7194SOL     OW33217   4.231   3.130   6.821 -0.4572  0.0114  0.4339
 7194SOL    HW133218   4.248   3.063   6.886  0.1929 -0.5006 -0.2726
 7194SOL    HW233219   4.139   3.151   6.837 -0.0719  1.7090  0.4785
 7195SOL     OW33220   2.669   3.159   5.973  0.6841 -0.2350  0.2449
 7195SOL    HW133221   2.724   3.231   6.004  1.6275 -1.3217  1.0731
 7195SOL    HW233222   2.593   3.212   5.948  0.0632 -2.1088 -1.8190
 7196SOL     OW33223   1.564   0.635  17.278  0.0897  0.2278 -0.2692
 7196SOL    HW133224   1.483   0.611  17.233 -1.2970  0.4994  2.0698
 7196SOL    HW233225   1.618   0.640  17.199  0.9589 -1.2331  0.2339
 7197SOL     OW33226   3.377   4.448   7.582  0.1420 -0.3090 -0.3708
 7197SOL    HW133227   3.297   4.419   7.539  0.5455 -0.3752 -1.0965
 7197SOL    HW233228   3.395   4.526   7.528 -0.3204 -0.6758 -1.0506
 7198SOL     OW33229   3.131   4.343   6.592 -0.4298 -0.2713  0.0681
 7198SOL    HW133230   3.098   4.424   6.553  2.4148 -0.3147 -2.3995
 7198SOL    HW233231   3.166   4.375   6.674  0.3342 -0.7877 -0.0575
 7199SOL     OW33232   3.305   0.620   3.531 -0.4879  0.5993  0.1289
 7199SOL    HW133233   3.261   0.701   3.505 -0.9873 -0.0163 -0.9070
 7199SOL    HW233234   3.396   0.629   3.502  0.1441  1.2962  2.3199
 7200SOL     OW33235   1.256   1.687   7.698 -0.0237 -0.2725 -0.4170
 7200SOL    HW133236   1.233   1.733   7.617 -0.7714  0.4099  0.1883
 7200SOL    HW233237   1.207   1.741   7.759  1.3792 -0.0022  0.4585
 7201SOL     OW33238   2.699   0.848  17.268 -0.0002 -0.4172 -0.1370
 7201SOL    HW133239   2.763   0.870  17.200 -0.8023 -0.3877 -0.8914
 7201SOL    HW233240   2.745   0.852  17.351 -0.5942 -0.0235  0.1756
 7202SOL     OW33241   2.985   1.808   2.246  0.0205 -0.7355 -0.2800
 7202SOL    HW133242   2.994   1.862   2.325 -2.9854 -1.5375  0.6294
 7202SOL    HW233243   2.944   1.731   2.285  0.3238 -1.1093 -0.7122
 7203SOL     OW33244   2.555   4.562   4.800  0.3115  0.4020  0.0370
 7203SOL    HW133245   2.521   4.642   4.758  0.3291  0.2095 -0.3404
 7203SOL    HW233246   2.630   4.539   4.745  2.8277  1.4301  3.0461
 7204SOL     OW33247   2.276   4.658   9.329  1.1272  0.2350  0.1588
 7204SOL    HW133248   2.353   4.612   9.296  0.8441  0.4261 -0.7525
 7204SOL    HW233249   2.319   0.008   9.334 -0.3609  1.0112 -0.2825
 7205SOL     OW33250   0.099   0.178   2.073 -0.3685  0.0189 -0.0453
 7205SOL    HW133251   0.172   0.117   2.076  1.4547  2.3162  2.4615
 7205SOL    HW233252   0.110   0.238   2.147 -0.9391 -2.1950  1.8314
 7206SOL     OW33253   3.572   1.655  15.462  0.1617 -0.1120  0.7910
 7206SOL    HW133254   3.568   1.651  15.558 -1.9983  0.5200  0.7260
 7206SOL    HW233255   3.502   1.717  15.445  1.8776  1.8718  0.9052
 7207SOL     OW33256   0.560   0.376   3.481  0.6953  0.3673 -0.0290
 7207SOL    HW133257   0.482   0.332   3.448  0.4527  0.3440  0.5780
 7207SOL    HW233258   0.519   0.417   3.558  0.0111 -1.3737  0.5564
 7208SOL     OW33259   2.173   3.440   8.845 -0.0615  0.0842  0.3499
 7208SOL    HW133260   2.174   3.382   8.770  0.8212 -0.4569  0.7732
 7208SOL    HW233261   2.184   3.520   8.794 -0.7663 -1.7095 -2.5604
 7209SOL     OW33262   3.729   2.787   1.596 -0.2884 -0.3850  0.4214
 7209SOL    HW133263   3.802   2.845   1.620 -0.3100 -0.0520 -0.3131
 7209SOL    HW233264   3.723   2.796   1.501  0.3055  1.4058  0.5459
 7210SOL     OW33265   0.699   2.476   3.392  0.2563  0.1472  0.0554
 7210SOL    HW133266   0.763   2.526   3.441  0.4254 -1.5526  1.5768
 7210SOL    HW233267   0.759   2.428   3.335  1.4224  1.7340 -0.0229
 7211SOL     OW33268   1.167   0.306   3.192  0.7999  1.4772  0.6633
 7211SOL    HW133269   1.101   0.280   3.128  0.2808  2.0980  0.9523
 7211SOL    HW233270   1.229   0.234   3.182  0.0087  0.3424  4.0348
 7212SOL     OW33271   1.853   3.503   3.917  0.6885 -0.4632 -0.2486
 7212SOL    HW133272   1.948   3.501   3.933  1.2240 -1.2949 -3.4052
 7212SOL    HW233273   1.825   3.433   3.976  0.7373  0.4112  0.8047
 7213SOL     OW33274   1.173   1.799  12.677 -0.2821  0.4950  0.3883
 7213SOL    HW133275   1.228   1.784  12.754 -1.1256  1.4624  1.1686
 7213SOL    HW233276   1.154   1.706  12.666  1.5412  0.1354  0.1673
 7214SOL     OW33277   3.263   3.433   2.402  0.3186  0.7200 -0.4637
 7214SOL    HW133278   3.210   3.406   2.477  3.2457 -0.7219  1.1050
 7214SOL    HW233279   3.338   3.468   2.452 -0.3409  0.3906  0.7647
 7215SOL     OW33280   0.760   4.644  14.198 -0.2017 -0.0910 -0.1938
 7215SOL    HW133281   0.848   4.609  14.214 -0.0790  0.3675  0.1237
 7215SOL    HW233282   0.737   4.626  14.107 -1.3804 -1.1969  0.3236
 7216SOL     OW33283   3.910   4.643   2.918 -0.7226  0.4367  0.0396
 7216SOL    HW133284   3.958   4.717   2.955  0.3036 -0.9112  1.3966
 7216SOL    HW233285   3.830   4.683   2.884 -1.1158  1.0677  1.6968
 7217SOL     OW33286   1.803   2.010   4.180  0.0956 -0.5536  0.1138
 7217SOL    HW133287   1.893   1.977   4.169  0.8898  0.9463  2.2930
 7217SOL    HW233288   1.791   2.033   4.272 -0.0426 -0.6642  0.1228
 7218SOL     OW33289   1.851   4.617  17.739  0.1740  0.3349 -0.4250
 7218SOL    HW133290   1.782   4.674  17.703 -0.1958  0.6774  0.8303
 7218SOL    HW233291   1.891   4.664   0.070 -0.8379  1.9544 -0.9096
 7219SOL     OW33292   4.374   1.145   7.831 -0.4432 -0.3441  0.8593
 7219SOL    HW133293   4.450   1.194   7.862 -0.5781  1.1652 -1.2165
 7219SOL    HW233294   4.345   1.100   7.910  3.2512  0.4331  2.6344
 7220SOL     OW33295   2.192   3.841   5.626  0.1091 -0.1109  0.4067
 7220SOL    HW133296   2.151   3.907   5.682 -0.3679 -0.4036  0.4079
 7220SOL    HW233297   2.120   3.777   5.618 -1.0956  0.8754  3.0963
 7221SOL     OW33298   1.095   3.497   6.840 -0.4104  0.0949  0.2956
 7221SOL    HW133299   1.000   3.503   6.824 -0.1796 -4.4479 -2.6973
 7221SOL    HW233300   1.134   3.547   6.768 -1.9809  0.6740 -0.1648
 7222SOL     OW33301   1.431   1.117   1.474 -0.1990  0.5532 -0.4312
 7222SOL    HW133302   1.390   1.071   1.547  0.1315 -0.7407 -1.0590
 7222SOL    HW233303   1.420   1.206   1.509  0.2964  0.2122  0.5932
 7223SOL     OW33304   1.524   0.739   0.580  0.3792  0.5632  0.2098
 7223SOL    HW133305   1.456   0.735   0.513  0.8991 -1.1727 -0.2073
 7223SOL    HW233306   1.476   0.772   0.656  0.3351  0.1736  0.3500
 7224SOL     OW33307   4.047   0.632  11.442  0.2218 -0.0183 -0.3661
 7224SOL    HW133308   3.952   0.622  11.440 -0.1143  3.0329 -0.1341
 7224SOL    HW233309   4.052   0.642  11.347 -1.0383 -1.0863 -0.5516
 7225SOL     OW33310   3.591   1.964   2.684  0.0913 -0.0981  0.6302
 7225SOL    HW133311   3.579   1.957   2.778  0.6723  3.0663  0.9231
 7225SOL    HW233312   3.669   1.909   2.676 -1.3971 -2.3875  1.7683
 7226SOL     OW33313   0.642   1.640   0.265 -0.3432 -0.4464  0.2346
 7226SOL    HW133314   0.591   1.574   0.312 -1.6052  0.7544  0.5379
 7226SOL    HW233315   0.718   1.590   0.233 -1.2262 -1.8098  0.2817
 7227SOL     OW33316   4.009   1.767   1.749 -0.2734 -0.2774 -0.0420
 7227SOL    HW133317   4.087   1.753   1.695  0.6628  0.4679  1.1245
 7227SOL    HW233318   4.021   1.862   1.756  1.0565 -0.4412 -0.0942
 7228SOL     OW33319   4.225   1.713   6.080  0.0630 -0.2152  0.7347
 7228SOL    HW133320   4.172   1.696   6.157 -0.9713  0.6673  0.2174
 7228SOL    HW233321   4.261   1.626   6.063 -1.4628 -1.1284  2.2149
 7229SOL     OW33322   2.541   4.437   2.905  0.2631  0.0414 -0.5839
 7229SOL    HW133323   2.593   4.357   2.918  0.5245  0.1840 -0.7578
 7229SOL    HW233324   2.537   4.436   2.810  0.4214 -2.1228 -0.5688
 7230SOL     OW33325   4.637   3.204   7.479  0.8610  0.0851  0.1171
 7230SOL    HW133326   4.561   3.175   7.427  1.3525 -1.1917  0.1030
 7230SOL    HW233327   4.628   3.137   7.547 -0.9494  2.0275  1.7875
 7231SOL     OW33328   0.998   1.843   4.425  0.3907 -0.1033  0.3969
 7231SOL    HW133329   0.919   1.898   4.428  0.3616 -0.0814 -0.6270
 7231SOL    HW233330   0.968   1.771   4.370  0.4983  0.1658 -0.0111
 7232SOL     OW33331   2.355   4.573   7.967  0.2593  0.6175 -0.0752
 7232SOL    HW133332   2.428   4.563   8.029 -0.4944 -0.4284  0.6301
 7232SOL    HW233333   2.279   4.590   8.022  0.8106  1.9120  0.2918
 7233SOL     OW33334   3.082   0.151   7.648  0.0763 -0.6287  0.4564
 7233SOL    HW133335   2.992   0.136   7.677 -0.2776 -0.6631 -0.6643
 7233SOL    HW233336   3.128   0.109   7.721  0.0498 -1.0311  0.2397
 7234SOL     OW33337   1.269   0.655  13.018 -0.2131  0.4936 -0.7141
 7234SOL    HW133338   1.342   0.710  12.987  1.2999 -1.1957 -0.1264
 7234SOL    HW233339   1.316   0.580  13.053 -0.0318  1.3040  0.7973
 7235SOL     OW33340   1.994   3.912  17.246 -0.2671 -0.1714 -0.1840
 7235SOL    HW133341   2.006   3.972  17.320 -0.5833 -1.6738  1.0806
 7235SOL    HW233342   1.943   3.960  17.181  0.3079  0.4692 -0.1689
 7236SOL     OW33343   0.724   0.355  16.671  0.4130 -0.4193 -0.8737
 7236SOL    HW133344   0.680   0.384  16.591 -1.4892  0.4476  0.4673
 7236SOL    HW233345   0.803   0.311  16.641 -0.9894 -3.3573 -0.1931
 7237SOL     OW33346   3.894   3.084  13.892 -0.7096 -0.4464 -0.4093
 7237SOL    HW133347   3.871   3.173  13.865  1.8728  0.5414  0.6517
 7237SOL    HW233348   3.807   3.044  13.884  0.0271 -2.3676  1.0741
 7238SOL     OW33349   0.780   3.948  12.329 -0.3075  0.7532 -0.1973
 7238SOL    HW133350   0.790   3.853  12.327 -0.3414  0.7255  1.1985
 7238SOL    HW233351   0.706   3.953  12.389  0.2690 -0.0992  0.5881
 7239SOL     OW33352   0.993   2.520   4.196  0.8080  0.1847  0.4955
 7239SOL    HW133353   0.996   2.603   4.147 -0.9963  0.4783  0.8602
 7239SOL    HW233354   1.083   2.492   4.181  1.2000  1.2888  0.7606
 7240SOL     OW33355   0.539   4.409   8.683  0.1524 -0.3233 -0.0943
 7240SOL    HW133356   0.633   4.408   8.665  0.0665  2.9342 -0.5850
 7240SOL    HW233357   0.508   4.329   8.639 -0.6151  0.5630 -1.1484
 7241SOL     OW33358   3.430   2.229   3.959 -0.4161 -0.3522 -0.1462
 7241SOL    HW133359   3.471   2.192   4.037 -1.8262 -1.5242  0.0382
 7241SOL    HW233360   3.409   2.149   3.911  0.6842  1.5493 -3.7693
 7242SOL     OW33361   3.508   3.923   4.741  0.2294  0.2420  0.1007
 7242SOL    HW133362   3.509   4.012   4.777  0.1560  0.7115 -1.0598
 7242SOL    HW233363   3.601   3.915   4.722  0.1937  0.9569 -0.4023
 7243SOL     OW33364   0.861   1.677   5.281 -0.2298 -0.5820  0.2357
 7243SOL    HW133365   0.840   1.604   5.339  1.2187 -1.3853 -0.2444
 7243SOL    HW233366   0.854   1.751   5.342 -1.9917 -1.3707  1.0007
 7244SOL     OW33367   4.019   2.868  16.947 -0.2593 -0.3157  0.1219
 7244SOL    HW133368   3.942   2.850  17.001  0.0080 -0.3997  0.4793
 7244SOL    HW233369   3.984   2.850  16.860 -1.0756  2.2942 -0.1032
 7245SOL     OW33370   1.482   1.694   0.633  0.2026  0.2391  0.2054
 7245SOL    HW133371   1.470   1.635   0.558 -0.9004 -0.5698  1.0229
 7245SOL    HW233372   1.438   1.648   0.704 -1.1132 -2.3227 -2.2756
 7246SOL     OW33373   3.676   4.276   5.280  0.1928 -0.0207 -0.0814
 7246SOL    HW133374   3.688   4.369   5.299  0.5058 -0.1922  0.5495
 7246SOL    HW233375   3.580   4.270   5.278  0.1910  0.6355 -2.2723
 7247SOL     OW33376   2.133   0.877  10.738  0.1348  0.5131 -0.0150
 7247SOL    HW133377   2.182   0.840  10.811  0.5396  0.4285 -0.3357
 7247SOL    HW233378   2.068   0.932  10.784  0.5435  0.8306  0.1861
 7248SOL     OW33379   0.811   1.693   6.707 -0.2209  0.4506  0.0098
 7248SOL    HW133380   0.841   1.735   6.787 -1.7354 -0.6336  1.1483
 7248SOL    HW233381   0.870   1.617   6.709 -1.3503 -0.4944 -1.7816
 7249SOL     OW33382   0.892   1.856   6.921  0.2283  0.1199 -0.2839
 7249SOL    HW133383   0.907   1.950   6.932 -0.3474  0.1744  0.0685
 7249SOL    HW233384   0.816   1.828   6.972  1.0869 -0.7223  0.5108
 7250SOL     OW33385   1.371   0.788   2.627  0.4004  0.7499  0.1099
 7250SOL    HW133386   1.287   0.759   2.663 -0.9590  1.8428 -2.1843
 7250SOL    HW233387   1.395   0.715   2.569 -0.9195 -0.1098  0.6566
 7251SOL     OW33388   0.976   2.590   9.283  0.3171  0.2907 -0.0186
 7251SOL    HW133389   0.948   2.506   9.318 -1.5553  0.3789 -1.3477
 7251SOL    HW233390   0.923   2.605   9.205  0.9624  3.1176  0.0785
 7252SOL     OW33391   1.973   3.742   8.693 -0.2693  0.7174 -0.1976
 7252SOL    HW133392   1.912   3.669   8.710  1.7329 -1.0745 -0.6825
 7252SOL    HW233393   1.925   3.810   8.741 -1.9528 -0.1684 -0.6273
 7253SOL     OW33394   2.132   3.697   1.066 -0.4852  0.1988 -0.3930
 7253SOL    HW133395   2.083   3.615   1.071 -1.9429  0.9385 -2.3540
 7253SOL    HW233396   2.192   3.689   1.141 -0.5642  1.7061 -0.1708
 7254SOL     OW33397   1.774   0.459  11.818 -0.5453  0.1304 -0.0484
 7254SOL    HW133398   1.794   0.373  11.856  2.9102  1.4704  1.2125
 7254SOL    HW233399   1.856   0.463  11.768 -0.6723  3.6165  0.0009
 7255SOL     OW33400   0.710   2.537   0.883 -0.0821 -0.3955  0.3663
 7255SOL    HW133401   0.739   2.448   0.904  1.4413  0.7972  3.2805
 7255SOL    HW233402   0.766   2.560   0.809 -1.4699  1.0152 -0.2325
 7256SOL     OW33403   3.015   1.158   6.222  0.2509  0.1912  0.0217
 7256SOL    HW133404   3.004   1.239   6.271  1.6505  0.5386 -0.2323
 7256SOL    HW233405   2.963   1.183   6.145  0.0089 -0.4481 -0.0206
 7257SOL     OW33406   1.858   3.296   2.642 -0.5520  0.0923  0.0078
 7257SOL    HW133407   1.860   3.385   2.607 -0.8778 -0.0556 -0.3804
 7257SOL    HW233408   1.945   3.264   2.666 -0.7254  1.5928  2.6161
 7258SOL     OW33409   3.467   0.056   5.484 -0.0643  0.7246  0.0843
 7258SOL    HW133410   3.406   0.101   5.425 -1.0799 -0.0821  0.5120
 7258SOL    HW233411   3.478   0.124   5.549 -0.2621 -0.4305  1.3226
 7259SOL     OW33412   3.672   4.290   3.212 -0.2129  0.0598 -0.8819
 7259SOL    HW133413   3.725   4.356   3.168 -0.2865 -0.5277 -1.8529
 7259SOL    HW233414   3.698   4.219   3.154 -1.0202  0.0477 -1.2223
 7260SOL     OW33415   3.106   0.714   0.331  0.6412 -0.0987 -0.2443
 7260SOL    HW133416   3.125   0.743   0.242  1.4877  0.8246  0.2368
 7260SOL    HW233417   3.013   0.692   0.322  0.4719 -0.0984  1.4698
 7261SOL     OW33418   2.070   2.567   7.549 -0.2564 -0.6174 -0.3701
 7261SOL    HW133419   2.014   2.634   7.589  0.3417 -0.7786  0.7573
 7261SOL    HW233420   2.151   2.601   7.587  0.0343 -0.0550 -1.5104
 7262SOL     OW33421   0.526   4.030   5.510  0.0230 -0.0672  0.1168
 7262SOL    HW133422   0.565   3.953   5.551 -1.8193 -2.0256 -1.8037
 7262SOL    HW233423   0.453   3.987   5.464 -1.2233  1.1683  0.9508
 7263SOL     OW33424   1.838   2.773  14.246  0.6789 -0.0263  0.5779
 7263SOL    HW133425   1.859   2.690  14.205  3.7625 -0.4081  2.8864
 7263SOL    HW233426   1.746   2.759  14.270  0.0993 -0.0413 -1.7151
 7264SOL     OW33427   0.432   3.739  11.311  0.1169  0.3520  0.0315
 7264SOL    HW133428   0.430   3.663  11.253  1.0397 -0.6379  1.2770
 7264SOL    HW233429   0.494   3.797  11.267  2.4179 -1.3053  1.1044
 7265SOL     OW33430   1.841   2.234   7.363  0.2583  0.5153 -0.4795
 7265SOL    HW133431   1.923   2.184   7.366  0.0873  0.2791  0.2102
 7265SOL    HW233432   1.793   2.181   7.427  0.5001 -0.2372 -0.9154
 7266SOL     OW33433   1.709   3.565   7.585  0.0894 -0.2619 -0.3472
 7266SOL    HW133434   1.620   3.574   7.549 -0.3431 -0.8472  0.5733
 7266SOL    HW233435   1.693   3.550   7.678 -1.6651  1.1380 -0.4189
 7267SOL     OW33436   3.177   4.013   9.436 -0.2445 -0.1540 -0.0788
 7267SOL    HW133437   3.252   3.966   9.399  1.4253  1.3343  1.4105
 7267SOL    HW233438   3.174   4.087   9.375  0.3963  1.6038  2.0212
 7268SOL     OW33439   3.629   3.414   7.527 -0.4845  0.6855  0.2144
 7268SOL    HW133440   3.588   3.499   7.511  1.3317  1.6199  0.4799
 7268SOL    HW233441   3.711   3.461   7.547 -0.5592  1.4060 -1.1409
 7269SOL     OW33442   3.405   4.626   8.428 -0.3735 -0.0795 -0.0751
 7269SOL    HW133443   3.367   4.545   8.461  0.2918 -0.7292 -0.9299
 7269SOL    HW233444   3.416   4.684   8.504  1.1874  0.3193 -0.6090
 7270SOL     OW33445   0.619   4.073   9.182  0.2132  0.1859 -0.2445
 7270SOL    HW133446   0.601   4.057   9.089  0.1232  2.9030 -0.6730
 7270SOL    HW233447   0.697   4.127   9.170  0.9854 -1.0674 -0.9649
 7271SOL     OW33448   1.594   1.420   3.402  0.0800 -0.1465  0.1766
 7271SOL    HW133449   1.609   1.326   3.392  0.6219 -0.1213  0.7433
 7271SOL    HW233450   1.681   1.451   3.424 -0.6712  0.7138  1.9467
 7272SOL     OW33451   0.938   3.137   1.459 -0.7188 -0.7928  0.3991
 7272SOL    HW133452   0.946   3.096   1.545 -0.7900  0.9959  1.2490
 7272SOL    HW233453   0.932   3.230   1.479  0.5816 -0.6160  0.0091
 7273SOL     OW33454   0.947   1.806   3.688 -0.0574 -0.0305 -0.3175
 7273SOL    HW133455   0.864   1.801   3.737  0.6077 -2.0440  0.5854
 7273SOL    HW233456   0.927   1.868   3.617  1.5295  3.6728  2.4408
 7274SOL     OW33457   4.275   1.805   1.949  0.5342 -0.1459  0.0375
 7274SOL    HW133458   4.327   1.807   1.869  0.3899  1.7730 -0.0048
 7274SOL    HW233459   4.246   1.714   1.960  0.8100 -0.2174  0.2012
 7275SOL     OW33460   2.357   4.699   5.474  0.4021  0.2331  0.0940
 7275SOL    HW133461   2.416   0.036   5.456  1.2760 -0.8907 -1.6497
 7275SOL    HW233462   2.326   4.684   5.384 -0.1967 -0.4250  0.4119
 7276SOL     OW33463   3.965   3.014   7.554 -0.1238  0.0946 -0.1557
 7276SOL    HW133464   3.886   3.068   7.556 -0.6916 -0.8782  2.8912
 7276SOL    HW233465   3.956   2.978   7.465 -2.8529 -1.0571  0.5883
 7277SOL     OW33466   2.328   2.996   3.583  0.1621  0.3945 -0.1650
 7277SOL    HW133467   2.350   3.088   3.571  1.4083  0.4653  2.5553
 7277SOL    HW233468   2.317   2.963   3.494 -3.8587  2.5734 -0.4483
 7278SOL     OW33469   3.275   2.396   4.611  0.2713 -0.1641  0.2105
 7278SOL    HW133470   3.316   2.394   4.524  0.7246 -3.5702  0.4813
 7278SOL    HW233471   3.191   2.351   4.599 -0.7608  1.9050 -0.3308
 7279SOL     OW33472   3.875   3.948  11.088 -0.8295  0.6853  0.1013
 7279SOL    HW133473   3.953   3.946  11.032 -1.2204  1.2155 -0.4598
 7279SOL    HW233474   3.900   3.892  11.161  1.0777  0.9176 -0.3568
 7280SOL     OW33475   2.838   2.210  11.438  0.6522  0.6825  0.0777
 7280SOL    HW133476   2.900   2.184  11.506  0.0921  0.4460  0.4948
 7280SOL    HW233477   2.754   2.192  11.480  0.4790  2.2186  0.4151
 7281SOL     OW33478   3.767   2.747   2.318 -0.0391  0.5322 -0.0095
 7281SOL    HW133479   3.740   2.765   2.228 -0.0075  1.9520  0.2776
 7281SOL    HW233480   3.780   2.835   2.352 -3.1616  0.5468  1.1649
 7282SOL     OW33481   0.851   1.516   7.974  0.2722  0.0067 -0.4540
 7282SOL    HW133482   0.884   1.583   7.914 -1.7162 -0.4301 -1.9956
 7282SOL    HW233483   0.809   1.455   7.914  1.2744 -0.3530 -0.7833
 7283SOL     OW33484   3.031   0.349   3.005  0.0571  0.6107  0.5129
 7283SOL    HW133485   3.090   0.417   2.972  1.3481 -0.0509  1.4548
 7283SOL    HW233486   2.990   0.313   2.926  2.2377  0.0199 -0.3558
 7284SOL     OW33487   2.578   1.686   4.550  0.5703  0.1493 -0.1525
 7284SOL    HW133488   2.573   1.627   4.626  0.1757 -3.0050 -2.5981
 7284SOL    HW233489   2.560   1.770   4.591  2.4883  0.0286  0.9421
 7285SOL     OW33490   2.552   2.925   8.546  0.0834 -0.0108 -0.0248
 7285SOL    HW133491   2.545   2.844   8.495  0.8958 -0.0728 -0.0402
 7285SOL    HW233492   2.473   2.922   8.601 -0.1699  0.1107 -0.3877
 7286SOL     OW33493   3.804   3.094   0.840 -0.2944  0.4246 -0.0348
 7286SOL    HW133494   3.723   3.104   0.890  1.5014  2.6232  2.4345
 7286SOL    HW233495   3.771   3.126   0.757 -0.5767  0.9990  0.2956
 7287SOL     OW33496   2.760   1.399  16.957  0.7830 -0.5023 -0.6994
 7287SOL    HW133497   2.735   1.491  16.950  0.1806 -0.6769 -0.7945
 7287SOL    HW233498   2.774   1.382  16.864 -0.3308 -1.6320 -0.6601
 7288SOL     OW33499   3.184   1.498   5.628  0.6988 -0.3204  0.5089
 7288SOL    HW133500   3.164   1.568   5.566  2.9917 -0.7412 -0.7198
 7288SOL    HW233501   3.251   1.453   5.576  0.0172 -1.7407  0.8556
 7289SOL     OW33502   4.072   4.032   3.303 -0.4650  0.5867 -0.6337
 7289SOL    HW133503   3.992   3.984   3.325  1.8528 -2.4938  1.0635
 7289SOL    HW233504   4.080   4.103   3.367  4.0529 -1.6487  1.2645
 7290SOL     OW33505   2.017   0.644   5.483 -0.1266  0.9999 -0.0998
 7290SOL    HW133506   2.012   0.739   5.491  0.6969  1.2917 -3.0508
 7290SOL    HW233507   1.936   0.627   5.434 -1.2914  0.8189  1.9032
 7291SOL     OW33508   2.954   3.309   8.458  0.3303 -0.1712  0.7936
 7291SOL    HW133509   2.950   3.243   8.527 -1.9628  0.9016  1.7025
 7291SOL    HW233510   3.048   3.324   8.461  0.0094  1.7281  1.4130
 7292SOL     OW33511   3.241   3.020   5.225 -0.1371  0.3313 -0.2375
 7292SOL    HW133512   3.221   2.962   5.152 -1.2251  0.3998  0.0144
 7292SOL    HW233513   3.234   3.104   5.178 -4.1354  0.1796  0.0730
 7293SOL     OW33514   2.970   2.327   3.807 -0.4303  0.1435 -0.5250
 7293SOL    HW133515   2.917   2.406   3.818  0.2116  0.4701  0.1997
 7293SOL    HW233516   2.912   2.259   3.840 -1.0549  0.2848 -1.3406
 7294SOL     OW33517   0.251   4.408   6.614 -0.8735 -0.5189 -0.0244
 7294SOL    HW133518   0.295   4.362   6.686 -3.9593 -0.1801  2.0593
 7294SOL    HW233519   0.178   4.436   6.668  0.4183  2.0654  0.3789
 7295SOL     OW33520   2.724   2.577   6.951  0.0738  0.5018 -0.1068
 7295SOL    HW133521   2.780   2.638   7.000 -0.4160 -0.2857  1.4282
 7295SOL    HW233522   2.801   2.536   6.910 -0.7770 -0.2998 -0.9129
 7296SOL     OW33523   0.566   2.747   6.929  0.0228  0.3035  0.5746
 7296SOL    HW133524   0.624   2.674   6.911 -1.5427 -0.7165 -0.3616
 7296SOL    HW233525   0.562   2.782   6.840 -1.9992 -2.3509 -0.3626
 7297SOL     OW33526   0.779   2.724  14.936 -0.1150  0.1143  0.3782
 7297SOL    HW133527   0.861   2.697  14.977  0.8166  1.5144 -0.5463
 7297SOL    HW233528   0.772   2.810  14.977  1.0841  0.5225 -0.2667
 7298SOL     OW33529   4.500   3.854   9.471  0.4058  0.2699  0.4879
 7298SOL    HW133530   4.586   3.831   9.436 -0.8907 -0.8661 -1.9792
 7298SOL    HW233531   4.525   3.889   9.556 -1.1561  0.7722  0.7428
 7299SOL     OW33532   4.666   3.554   1.266 -0.4812  0.1911 -0.6390
 7299SOL    HW133533   4.724   3.596   1.329 -1.4421  0.7337 -0.1131
 7299SOL    HW233534   4.622   3.484   1.314  0.7703 -0.0294  0.2058
 7300SOL     OW33535   4.221   0.874  15.932  0.5874  0.1393  0.6435
 7300SOL    HW133536   4.276   0.830  15.868  2.3097  2.8135  0.3146
 7300SOL    HW233537   4.289   0.911  15.988  1.2026  0.7630 -0.5115
 7301SOL     OW33538   1.563   4.651  15.955  0.3592  0.4717 -0.4641
 7301SOL    HW133539   1.599   4.564  15.938  0.9000  0.1928  2.1952
 7301SOL    HW233540   1.594   4.707  15.884 -0.6168 -1.5460 -2.4920
 7302SOL     OW33541   4.706   2.386   6.787 -0.5277  0.1444  0.4987
 7302SOL    HW133542   4.687   2.382   6.694  0.1197  2.1850  0.2682
 7302SOL    HW233543   0.064   2.404   6.790 -0.6546  0.6696  1.4279
 7303SOL     OW33544   2.846   4.289  13.151  0.4440  0.0978 -0.1542
 7303SOL    HW133545   2.906   4.354  13.188  0.8668  0.0736 -0.8114
 7303SOL    HW233546   2.777   4.283  13.217 -0.4824  2.1759 -0.9631
 7304SOL     OW33547   0.132   1.592   3.833 -0.0559 -0.1538  0.5287
 7304SOL    HW133548   0.188   1.670   3.837 -0.0448 -0.1577  0.4433
 7304SOL    HW233549   0.044   1.621   3.858 -0.7553  0.1506 -2.2265
 7305SOL     OW33550   3.614   2.082   5.915  0.2272 -0.3573  0.4204
 7305SOL    HW133551   3.527   2.093   5.877 -0.1887  1.8663  2.0454
 7305SOL    HW233552   3.601   2.009   5.976 -1.4650 -1.3517 -1.1113
 7306SOL     OW33553   3.137   4.304   2.301 -0.7404 -0.0585 -0.1783
 7306SOL    HW133554   3.123   4.392   2.267  1.9266  1.0027  1.4287
 7306SOL    HW233555   3.233   4.300   2.303 -0.7460 -0.8484 -1.0855
 7307SOL     OW33556   3.135   0.012   9.167  0.3288 -1.0907 -0.3454
 7307SOL    HW133557   3.127   0.105   9.146 -1.3766 -1.1852 -0.0623
 7307SOL    HW233558   3.192   0.024   9.243 -2.7701  1.8464  1.5435
 7308SOL     OW33559   0.851   4.447   7.509 -0.5971  0.4218 -0.1705
 7308SOL    HW133560   0.824   4.361   7.477  1.2108 -0.6822  1.3034
 7308SOL    HW233561   0.899   4.481   7.433 -1.5391 -0.5723 -1.2250
 7309SOL     OW33562   1.234   4.098   5.505 -0.0495 -0.2232 -0.3273
 7309SOL    HW133563   1.195   4.051   5.431  1.8816  0.7712 -1.9834
 7309SOL    HW233564   1.165   4.148   5.549  1.9878  1.5949  0.8580
 7310SOL     OW33565   0.156   3.951   4.808 -0.3408  0.1790  0.5322
 7310SOL    HW133566   0.209   3.927   4.732 -3.4066 -0.7706 -1.3169
 7310SOL    HW233567   0.068   3.925   4.780  0.4836 -2.2752  0.2726
 7311SOL     OW33568   4.573   4.244  13.728  0.0313  0.2975 -0.0421
 7311SOL    HW133569   4.601   4.331  13.700  1.0871  0.9081  2.8913
 7311SOL    HW233570   4.602   4.183  13.660  0.6088 -0.5414  0.9448
 7312SOL     OW33571   2.403   3.916   8.803  0.9665  0.2673 -0.3028
 7312SOL    HW133572   2.451   3.862   8.866 -1.3393  0.2699  1.4668
 7312SOL    HW233573   2.342   3.848   8.776  1.7121 -0.7097  0.4539
 7313SOL     OW33574   2.122   2.130   3.265 -0.1403 -0.4418  0.3166
 7313SOL    HW133575   2.071   2.113   3.344 -0.8003  2.8490  0.5630
 7313SOL    HW233576   2.054   2.119   3.199  0.4550  0.9443 -0.5315
 7314SOL     OW33577   2.193   0.975  17.089 -0.0785 -0.0114 -0.0435
 7314SOL    HW133578   2.198   1.049  17.150  0.7563 -0.2854  0.2163
 7314SOL    HW233579   2.269   1.004  17.039  0.9991  1.1059  2.2468
 7315SOL     OW33580   1.012   4.184   5.627  0.4425  0.8385  0.1956
 7315SOL    HW133581   0.979   4.249   5.565  1.0561 -0.3841 -1.3976
 7315SOL    HW233582   0.942   4.120   5.611 -0.1358  1.6180 -0.3762
 7316SOL     OW33583   2.140   1.031   5.811 -0.1621  0.2760  0.8496
 7316SOL    HW133584   2.224   0.989   5.825 -0.4848 -0.2827  1.1178
 7316SOL    HW233585   2.077   0.959   5.811  0.1868 -0.0285  0.1390
 7317SOL     OW33586   3.940   3.614   8.645 -0.3593 -0.4370 -0.1501
 7317SOL    HW133587   3.937   3.528   8.601  0.6231  0.3507 -1.7469
 7317SOL    HW233588   3.958   3.666   8.567 -1.0799 -0.6811 -0.4781
 7318SOL     OW33589   3.376   1.380   3.556  0.2423 -0.2880 -0.3829
 7318SOL    HW133590   3.417   1.305   3.599 -0.7409 -0.5489  0.0980
 7318SOL    HW233591   3.380   1.344   3.467  0.3426  0.6462 -0.7553
 7319SOL     OW33592   3.664   1.290   8.977 -0.3555  0.8339 -0.0192
 7319SOL    HW133593   3.636   1.239   9.053 -2.0307  0.3662 -0.9401
 7319SOL    HW233594   3.730   1.241   8.928 -1.7973  1.0476 -2.1712
 7320SOL     OW33595   2.292   2.220   5.868  0.2589  0.3020  0.4491
 7320SOL    HW133596   2.361   2.286   5.871  0.3966  0.2034 -0.4649
 7320SOL    HW233597   2.342   2.153   5.914 -0.2545  0.4950  1.2921
 7321SOL     OW33598   1.491   1.156  12.832 -0.4603  0.4641  0.0273
 7321SOL    HW133599   1.487   1.190  12.921 -0.3424 -1.4096  0.7399
 7321SOL    HW233600   1.452   1.231  12.787 -1.2288 -0.6720 -1.2087
 7322SOL     OW33601   0.422   2.456  16.147  0.2781  0.5510 -0.0790
 7322SOL    HW133602   0.391   2.446  16.057  1.5022 -1.3070 -0.2959
 7322SOL    HW233603   0.469   2.539  16.136 -0.3763  1.0046  0.5959
 7323SOL     OW33604   0.035   3.087  11.745 -0.3426  0.8595 -0.5820
 7323SOL    HW133605   0.054   3.170  11.790  3.9070 -0.2289 -0.3323
 7323SOL    HW233606   0.122   3.048  11.747 -0.7528 -0.0276 -0.3033
 7324SOL     OW33607   2.433   2.049   6.172  0.0655  0.8286 -0.0790
 7324SOL    HW133608   2.355   2.008   6.209  1.1789 -1.0825  0.1521
 7324SOL    HW233609   2.438   2.018   6.082  1.0898 -2.2063  1.0111
 7325SOL     OW33610   4.593   2.053   4.595  0.1550  0.0705  0.0249
 7325SOL    HW133611   4.611   1.961   4.616 -2.5091 -0.5034 -0.2499
 7325SOL    HW233612   4.548   2.086   4.672  1.6374 -0.2109  1.0226
 7326SOL     OW33613   4.483   0.387  11.818  0.0625  0.1563 -0.3330
 7326SOL    HW133614   4.524   0.464  11.778  0.6095  0.9842  1.8420
 7326SOL    HW233615   4.443   0.338  11.746  0.6026 -2.7236  1.3568
 7327SOL     OW33616   2.083   1.662  10.950  0.4018  0.1288  0.2381
 7327SOL    HW133617   1.996   1.641  10.984 -0.8774  5.1895  0.1380
 7327SOL    HW233618   2.129   1.638  11.031 -1.4312 -0.2839  1.1414
 7328SOL     OW33619   1.337   1.369  12.721 -0.2874  0.3999  0.1473
 7328SOL    HW133620   1.255   1.405  12.687 -0.3148 -0.0777 -0.2904
 7328SOL    HW233621   1.385   1.362  12.639  0.4900 -1.1000  0.7434
 7329SOL     OW33622   3.653   3.520   5.464 -0.1858  0.0535  0.2624
 7329SOL    HW133623   3.587   3.580   5.429  0.8304  1.0617  0.0751
 7329SOL    HW233624   3.738   3.563   5.455  0.4778 -1.7626 -2.2041
 7330SOL     OW33625   2.756   3.120  10.597  0.2318  0.2292  0.3972
 7330SOL    HW133626   2.802   3.070  10.529  1.3997 -1.6409  2.5231
 7330SOL    HW233627   2.704   3.056  10.647  1.5139 -0.7596  0.4655
 7331SOL     OW33628   4.001   1.948   9.629  0.6034  0.1904  0.6854
 7331SOL    HW133629   3.908   1.955   9.651  0.8468  1.1844  1.4442
 7331SOL    HW233630   4.029   2.033   9.595 -0.3410  0.3067  0.2197
 7332SOL     OW33631   3.709   2.769   7.633  0.0578 -0.2672 -0.0610
 7332SOL    HW133632   3.692   2.712   7.558 -0.0598 -0.6300  0.2406
 7332SOL    HW233633   3.793   2.746   7.674  0.3302  1.0008  0.0998
 7333SOL     OW33634   1.611   0.203  13.844 -0.0160 -0.1353  0.5887
 7333SOL    HW133635   1.700   0.183  13.870 -0.0625 -2.0699 -0.7030
 7333SOL    HW233636   1.626   0.272  13.779  3.2820 -0.0671  1.4660
 7334SOL     OW33637   3.407   3.284   7.660 -0.0010  0.0603  0.3254
 7334SOL    HW133638   3.325   3.268   7.614 -0.2097  2.4887 -0.1449
 7334SOL    HW233639   3.465   3.328   7.598  1.1154  1.0013  2.0163
 7335SOL     OW33640   2.937   3.548   7.428  0.8843 -0.4443 -0.0827
 7335SOL    HW133641   2.994   3.475   7.405 -0.4799 -1.6154  0.2156
 7335SOL    HW233642   2.912   3.514   7.514  0.1775  0.6635  0.1579
 7336SOL     OW33643   0.763   0.550  14.181  0.6587 -0.1149  0.6615
 7336SOL    HW133644   0.739   0.515  14.267  0.6908 -1.8427 -0.0369
 7336SOL    HW233645   0.682   0.528  14.135  1.0040  0.3618 -0.1750
 7337SOL     OW33646   4.346   1.539   4.898  0.0160  0.0082 -0.1384
 7337SOL    HW133647   4.350   1.456   4.946  3.1314 -0.4072 -1.1334
 7337SOL    HW233648   4.364   1.507   4.810 -1.5094 -1.2583  0.0117
 7338SOL     OW33649   2.051   2.599   4.324  0.1522 -0.0929  0.2077
 7338SOL    HW133650   2.128   2.556   4.287  0.1107  0.7967 -0.9198
 7338SOL    HW233651   1.991   2.585   4.250 -1.8028 -1.3199  2.0253
 7339SOL     OW33652   4.236   3.803  13.231 -0.7985 -0.1230 -0.2190
 7339SOL    HW133653   4.242   3.756  13.148  0.3088 -0.5658  0.1139
 7339SOL    HW233654   4.280   3.883  13.202  0.6550 -0.4694  1.0427
 7340SOL     OW33655   0.496   4.539  15.440 -0.2280 -0.3716  0.7309
 7340SOL    HW133656   0.421   4.599  15.433 -1.0768 -1.5813 -0.5595
 7340SOL    HW233657   0.559   4.598  15.399 -2.1817  1.6116  0.5337
 7341SOL     OW33658   3.696   1.209  12.211  0.0265 -0.1093 -0.0600
 7341SOL    HW133659   3.712   1.168  12.296  1.2486 -2.0900 -1.2487
 7341SOL    HW233660   3.658   1.131  12.171 -0.3138 -0.9448  1.9226
 7342SOL     OW33661   2.464   1.099  17.105  0.1104  0.1178  0.2435
 7342SOL    HW133662   2.553   1.124  17.127 -0.4894  0.3928  2.4090
 7342SOL    HW233663   2.416   1.116  17.187 -0.7583  1.8131 -0.6083
 7343SOL     OW33664   0.194   0.797   7.287  0.6697  0.5115  0.1544
 7343SOL    HW133665   0.138   0.754   7.351  1.8546 -0.5260  0.4803
 7343SOL    HW233666   0.121   0.838   7.240 -1.2075 -0.7941  1.9504
 7344SOL     OW33667   3.451   0.448   5.994 -0.5499  0.3998 -0.0103
 7344SOL    HW133668   3.476   0.540   5.980  0.4798  0.0866 -0.2165
 7344SOL    HW233669   3.530   0.406   5.962 -0.3427  1.9864 -1.5873
 7345SOL     OW33670   1.650   4.080   3.908  0.3537 -0.1688  0.0626
 7345SOL    HW133671   1.619   4.119   3.990  1.2007 -0.2139  0.4092
 7345SOL    HW233672   1.699   4.152   3.868 -1.8038  1.6068  0.6119
 7346SOL     OW33673   0.901   2.677   5.750  0.0021  0.7192  0.3566
 7346SOL    HW133674   0.845   2.752   5.728 -1.4014 -0.7022 -0.8456
 7346SOL    HW233675   0.841   2.644   5.817 -1.0582 -2.6261 -2.2682
 7347SOL     OW33676   1.264   1.219   1.278  0.5205  0.1929  0.3821
 7347SOL    HW133677   1.170   1.223   1.291  0.5888 -0.7339  1.1069
 7347SOL    HW233678   1.298   1.164   1.348  0.8335 -0.3493 -0.1953
 7348SOL     OW33679   3.041   0.197  12.256  0.5652  0.0968  0.0884
 7348SOL    HW133680   2.961   0.250  12.247 -0.3565 -1.0853  1.3183
 7348SOL    HW233681   3.095   0.259  12.207 -0.9141  1.2922 -0.0365
 7349SOL     OW33682   3.833   1.308   1.620  0.0594 -0.3506 -0.2065
 7349SOL    HW133683   3.868   1.286   1.533 -0.9451 -2.2549 -0.1307
 7349SOL    HW233684   3.761   1.367   1.597 -0.5849 -1.3000 -0.6634
 7350SOL     OW33685   1.120   3.093  15.904  0.0979  0.3133  0.2813
 7350SOL    HW133686   1.125   3.084  16.000 -0.4445  2.5794  0.5301
 7350SOL    HW233687   1.076   3.178  15.905  0.8639  0.7138  0.9258
 7351SOL     OW33688   1.915   1.633  14.854  0.2752  0.2031  0.3117
 7351SOL    HW133689   1.855   1.613  14.926 -1.5199  4.1391 -0.1037
 7351SOL    HW233690   1.992   1.593  14.894 -0.2656 -0.3626  0.8001
 7352SOL     OW33691   2.778   1.849   6.122 -0.4470  0.4903 -0.0221
 7352SOL    HW133692   2.715   1.864   6.051 -0.6791 -2.0960 -0.3573
 7352SOL    HW233693   2.763   1.932   6.167  0.8349 -0.1354  1.5704
 7353SOL     OW33694   1.302   0.412  11.969  0.0680  0.3451 -0.0763
 7353SOL    HW133695   1.209   0.410  11.947  0.0561  2.0670 -0.1947
 7353SOL    HW233696   1.345   0.380  11.891  1.7036  2.2386  0.0418
 7354SOL     OW33697   1.948   3.667   6.463 -0.2825 -0.1754 -0.0410
 7354SOL    HW133698   2.040   3.659   6.487  0.2723  1.0723 -1.7531
 7354SOL    HW233699   1.954   3.709   6.378  1.2046  3.6247  1.9552
 7355SOL     OW33700   0.228   3.365   3.166  0.0988 -0.8476  0.0643
 7355SOL    HW133701   0.208   3.448   3.122  1.5020  0.9646  2.8445
 7355SOL    HW233702   0.229   3.400   3.255  0.4512  0.1305 -0.3274
 7356SOL     OW33703   0.820   0.557  11.992 -0.0044  0.1531  0.1292
 7356SOL    HW133704   0.758   0.557  11.919 -0.8675 -2.6659  0.8786
 7356SOL    HW233705   0.871   0.478  11.973 -0.0278  0.2846 -0.4921
 7357SOL     OW33706   3.021   1.218  12.299 -0.0647  0.2543  0.2448
 7357SOL    HW133707   3.021   1.288  12.365  1.4305 -0.3899  0.9168
 7357SOL    HW233708   3.065   1.145  12.342 -2.5289 -0.9720  0.6278
 7358SOL     OW33709   4.229   0.897   3.547  0.6541 -0.3016 -0.2218
 7358SOL    HW133710   4.316   0.926   3.517 -0.0687  0.6593 -1.3600
 7358SOL    HW233711   4.240   0.917   3.640  0.2318  0.2531 -0.2989
 7359SOL     OW33712   3.144   3.709   8.470 -0.1511  0.4243  0.1402
 7359SOL    HW133713   3.201   3.680   8.399 -0.8355  0.2928 -0.3464
 7359SOL    HW233714   3.198   3.784   8.496 -2.5816  2.1188  0.3411
 7360SOL     OW33715   4.442   2.912   4.165  0.0527 -0.0004  0.2546
 7360SOL    HW133716   4.350   2.915   4.191  0.4562  2.7304  1.3396
 7360SOL    HW233717   4.449   2.996   4.118 -1.0132  0.3744  0.7617
 7361SOL     OW33718   4.572   4.532   2.760 -0.4662  0.3978  0.0542
 7361SOL    HW133719   4.610   4.447   2.784 -1.0157 -0.1840 -1.1183
 7361SOL    HW233720   4.513   4.517   2.686 -0.0923 -0.0615 -0.1500
 7362SOL     OW33721   0.727   0.943   9.816  0.4737 -0.1065  0.8711
 7362SOL    HW133722   0.670   0.996   9.760  1.4664 -0.7379 -0.7264
 7362SOL    HW233723   0.706   0.852   9.799 -1.9148  0.2475  2.0082
 7363SOL     OW33724   2.198   4.657  12.825 -0.1470  0.4223 -0.3481
 7363SOL    HW133725   2.174   4.568  12.798  0.6760  0.6227 -1.7198
 7363SOL    HW233726   2.111   4.697  12.834 -0.5738 -0.9228  1.4264
 7364SOL     OW33727   3.160   4.272  10.124  0.3858 -0.3577 -0.0913
 7364SOL    HW133728   3.191   4.187  10.154 -0.1646 -0.7366 -0.5893
 7364SOL    HW233729   3.096   4.246  10.057  0.4763  0.3900 -0.4740
 7365SOL     OW33730   2.695   0.996  16.777  0.5822  0.1759 -0.0065
 7365SOL    HW133731   2.745   1.052  16.836 -0.0981 -0.5244  1.2324
 7365SOL    HW233732   2.608   0.977  16.811  0.9451 -0.2503  0.6762
 7366SOL     OW33733   1.819   1.148   1.724 -0.2522  0.1090 -0.0057
 7366SOL    HW133734   1.802   1.210   1.653  0.2872  1.6267  1.1704
 7366SOL    HW233735   1.801   1.205   1.800 -1.3254 -1.3482  0.8344
 7367SOL     OW33736   4.028   4.394   6.295  0.1787 -0.1394 -0.3067
 7367SOL    HW133737   4.099   4.457   6.308  0.3677 -0.2101 -0.9978
 7367SOL    HW233738   4.068   4.340   6.227 -1.1412 -0.8848 -0.4848
 7368SOL     OW33739   2.124   4.396   6.108 -0.1082  0.4661 -0.0033
 7368SOL    HW133740   2.056   4.453   6.144 -0.5551 -1.0366  1.5030
 7368SOL    HW233741   2.086   4.356   6.029 -1.3082  1.1685  0.2176
 7369SOL     OW33742   1.100   4.221   4.996 -0.2023 -0.5931 -0.3239
 7369SOL    HW133743   1.017   4.178   4.975 -0.3178 -1.3812  1.7311
 7369SOL    HW233744   1.151   4.227   4.915 -2.4628 -2.3132 -1.8873
 7370SOL     OW33745   2.810   4.712   7.109  0.3907  0.3673  0.3909
 7370SOL    HW133746   2.746   0.035   7.151 -0.6206 -0.4242 -0.0285
 7370SOL    HW233747   2.761   4.674   7.036 -0.1359  1.1608  0.3273
 7371SOL     OW33748   0.153   0.355  10.040  0.0747  0.3194  0.0906
 7371SOL    HW133749   0.245   0.374  10.021  0.1868 -0.1021  0.2035
 7371SOL    HW233750   0.127   0.316   9.956  2.0903 -0.6359 -0.0919
 7372SOL     OW33751   3.456   1.339  13.022 -0.9985 -0.1698  0.0674
 7372SOL    HW133752   3.527   1.374  13.076 -0.6959  0.4240 -0.7157
 7372SOL    HW233753   3.412   1.414  12.983 -0.8385 -0.6811 -1.0836
 7373SOL     OW33754   4.185   3.149   7.505  0.1741 -0.3800 -0.5516
 7373SOL    HW133755   4.200   3.183   7.594 -0.2680  0.3536 -0.7524
 7373SOL    HW233756   4.120   3.085   7.532  1.2414 -1.0443  0.4465
 7374SOL     OW33757   1.664   2.854   8.726  0.4023 -0.2834 -0.7746
 7374SOL    HW133758   1.593   2.810   8.772 -0.4592  1.3952 -0.4886
 7374SOL    HW233759   1.702   2.911   8.793  0.2100  0.9567 -1.7198
 7375SOL     OW33760   3.827   2.646   9.603 -0.4985 -0.2319  0.0670
 7375SOL    HW133761   3.811   2.559   9.640  1.0280 -0.7674 -0.5623
 7375SOL    HW233762   3.778   2.643   9.521 -0.4561 -1.2683  0.0744
 7376SOL     OW33763   2.196   1.886   5.375 -0.3496  0.3319 -0.2952
 7376SOL    HW133764   2.125   1.946   5.355  0.0509  0.2851 -1.8338
 7376SOL    HW233765   2.258   1.945   5.418  0.3131  0.0417 -0.8548
 7377SOL     OW33766   3.020   1.776   2.738  0.2848  0.4273 -0.4010
 7377SOL    HW133767   3.068   1.717   2.796  0.6516 -0.1263 -1.2530
 7377SOL    HW233768   2.994   1.846   2.797  2.3586 -0.0498  1.0897
 7378SOL     OW33769   0.006   1.959  14.869 -0.8557  0.4361  0.3835
 7378SOL    HW133770   0.052   1.928  14.792 -0.3908 -0.0301  0.8500
 7378SOL    HW233771   4.654   1.919  14.866 -0.2866 -0.7476 -0.2627
 7379SOL     OW33772   0.220   2.203  12.892  0.1471 -0.2077  0.0491
 7379SOL    HW133773   0.133   2.190  12.930 -0.0082  0.2381 -0.1559
 7379SOL    HW233774   0.263   2.246  12.966 -2.0141 -0.1032  1.2624
 7380SOL     OW33775   3.740   1.818   7.953  0.3158  0.9502  0.3166
 7380SOL    HW133776   3.808   1.806   7.887  0.0468  0.8804  0.0547
 7380SOL    HW233777   3.662   1.796   7.903  1.0849 -1.3068  0.1306
 7381SOL     OW33778   2.930   4.571   6.603  0.5644 -0.4482  0.4392
 7381SOL    HW133779   2.925   4.560   6.508  0.2336 -2.9832  0.7506
 7381SOL    HW233780   2.872   4.502   6.636  0.2848 -0.5149 -0.1777
 7382SOL     OW33781   3.092   3.937   2.467 -0.0475 -0.5997  0.0759
 7382SOL    HW133782   3.112   3.849   2.435  2.4950 -0.0694  0.2638
 7382SOL    HW233783   3.092   3.992   2.388  0.2705  0.0102  0.5014
 7383SOL     OW33784   1.753   4.285   7.132 -0.2445  0.0726 -0.0311
 7383SOL    HW133785   1.666   4.259   7.101 -0.9718  0.4404  1.7122
 7383SOL    HW233786   1.771   4.227   7.206  0.5514 -0.7654 -0.8850
 7384SOL     OW33787   1.183   0.472  12.786  0.2348 -0.0191 -0.5530
 7384SOL    HW133788   1.246   0.534  12.823  1.4553 -1.3676 -0.3910
 7384SOL    HW233789   1.189   0.400  12.848  2.2293  0.8869  0.2987
 7385SOL     OW33790   2.968   1.357   6.879 -0.5506 -0.3649 -0.0976
 7385SOL    HW133791   2.922   1.429   6.835  3.8341  2.8858  0.5737
 7385SOL    HW233792   2.900   1.317   6.932 -0.2522  0.0415  0.5859
 7386SOL     OW33793   3.420   4.225   0.486  0.7533 -0.6707 -0.6037
 7386SOL    HW133794   3.488   4.286   0.514  0.3973 -1.1400  1.2683
 7386SOL    HW233795   3.421   4.160   0.556  0.3875  0.6688  0.6341
 7387SOL     OW33796   1.340   4.602  16.681 -0.6213  0.5310 -0.6317
 7387SOL    HW133797   1.264   4.586  16.626  0.0370 -2.2862 -0.7402
 7387SOL    HW233798   1.400   4.537  16.644  0.0253 -0.0932  1.5391
 7388SOL     OW33799   0.124   0.903   9.890  0.1830 -0.3241  0.2781
 7388SOL    HW133800   0.045   0.896   9.944  0.2239  1.2568  0.5186
 7388SOL    HW233801   0.143   0.810   9.875  1.9597 -0.0548  0.8123
 7389SOL     OW33802   0.301   0.761   6.032 -0.6125 -0.1405  0.6999
 7389SOL    HW133803   0.327   0.676   5.997  1.9115  1.2627 -0.8827
 7389SOL    HW233804   0.376   0.776   6.090  0.6877 -1.1750 -0.7295
 7390SOL     OW33805   0.458   4.268   5.601 -0.3476  0.3746 -0.0971
 7390SOL    HW133806   0.391   4.239   5.664  2.2251 -2.2283  1.4064
 7390SOL    HW233807   0.506   4.190   5.575  0.4382  0.7928  0.1202
 7391SOL     OW33808   4.465   2.139   3.293 -0.1295  0.1863 -0.1228
 7391SOL    HW133809   4.376   2.146   3.327 -0.2436 -0.9161 -0.1842
 7391SOL    HW233810   4.504   2.210   3.344 -0.8204  0.2414  0.3149
 7392SOL     OW33811   2.452   0.982   2.563  0.4519 -0.4535  0.2644
 7392SOL    HW133812   2.542   0.959   2.542 -0.3083 -1.8964 -1.4370
 7392SOL    HW233813   2.412   0.898   2.538  0.3652 -0.7974  1.5189
 7393SOL     OW33814   4.384   3.880   3.498 -0.3570 -0.4737  0.3445
 7393SOL    HW133815   4.415   3.958   3.452  0.2619 -0.5194  0.6928
 7393SOL    HW233816   4.298   3.862   3.459 -0.7458  0.7304  0.6543
 7394SOL     OW33817   1.347   2.275  15.058  0.1831  0.6679  0.3475
 7394SOL    HW133818   1.385   2.340  15.117 -0.8639  0.9149  0.7606
 7394SOL    HW233819   1.276   2.241  15.112  0.9233 -1.0255  0.2391
 7395SOL     OW33820   3.286   2.651   7.065  0.1174  0.1559 -0.1878
 7395SOL    HW133821   3.347   2.579   7.077 -1.7343 -1.0985  1.7384
 7395SOL    HW233822   3.236   2.648   7.147 -0.4942  1.5194 -0.5015
 7396SOL     OW33823   2.703   0.791   5.364  0.1190  0.2696 -0.3176
 7396SOL    HW133824   2.613   0.815   5.342  0.7999  2.0801 -1.1514
 7396SOL    HW233825   2.730   0.860   5.425  0.2234 -0.7044  0.7546
 7397SOL     OW33826   0.137   4.032   3.738 -0.6524  0.3009  0.2461
 7397SOL    HW133827   0.042   4.029   3.743 -0.8087  1.0497 -2.7149
 7397SOL    HW233828   0.141   4.044   3.643  2.5419 -1.5581  0.1468
 7398SOL     OW33829   3.795   3.470  13.075  0.2592  0.0123  0.2408
 7398SOL    HW133830   3.706   3.437  13.089  0.1083  1.0485  1.6958
 7398SOL    HW233831   3.782   3.563  13.090  1.0201 -0.5869  4.5689
 7399SOL     OW33832   2.690   4.068   9.802  0.2804  0.1196  0.1153
 7399SOL    HW133833   2.714   3.995   9.859  1.6778  1.0300  0.6960
 7399SOL    HW233834   2.663   4.126   9.873 -1.6694 -0.7539  0.1100
 7400SOL     OW33835   2.903   0.087   0.805  0.4996  0.2113 -0.0550
 7400SOL    HW133836   2.828   0.055   0.755  2.8747 -2.7981 -1.6566
 7400SOL    HW233837   2.867   0.103   0.892  1.3424 -0.4462  0.4202
 7401SOL     OW33838   3.603   4.453   2.297  0.1772 -0.6909  0.6722
 7401SOL    HW133839   3.614   4.488   2.386 -2.0531 -2.9216  1.8049
 7401SOL    HW233840   3.580   4.539   2.262  3.3502 -0.5517 -1.0948
 7402SOL     OW33841   3.666   0.071  17.335 -0.2154  0.1217 -0.0091
 7402SOL    HW133842   3.748   0.118  17.328 -0.4365  0.1980 -1.9916
 7402SOL    HW233843   3.617   0.111  17.263 -0.6821  1.2167  0.9179
 7403SOL     OW33844   4.216   0.007   2.094  0.1734 -0.3261 -0.1074
 7403SOL    HW133845   4.291   0.044   2.141 -0.5886  1.2191 -0.1057
 7403SOL    HW233846   4.158   0.004   2.170  0.2944 -0.7082 -0.0351
 7404SOL     OW33847   4.315   2.545   6.559  0.0634  0.3116 -0.2423
 7404SOL    HW133848   4.402   2.540   6.519 -0.0508 -1.7444 -0.2107
 7404SOL    HW233849   4.320   2.636   6.589 -2.0570 -0.5537  2.8111
 7405SOL     OW33850   0.865   0.136   0.271  0.8952 -0.0713 -0.1907
 7405SOL    HW133851   0.948   0.130   0.224  0.9676 -1.5494  0.1276
 7405SOL    HW233852   0.802   0.168   0.206 -1.7886 -0.5528  2.1783
 7406SOL     OW33853   1.550   3.412   6.285  0.7082 -0.3475  0.1124
 7406SOL    HW133854   1.553   3.414   6.381  0.0867 -0.5944  0.1365
 7406SOL    HW233855   1.602   3.491   6.269 -0.8020  0.4523 -0.9179
 7407SOL     OW33856   1.884   2.962   3.076  0.2894  1.0419  0.7244
 7407SOL    HW133857   1.851   3.023   3.010  0.5247 -1.2788 -1.5254
 7407SOL    HW233858   1.797   2.943   3.111 -0.3666 -0.9688 -1.9963
 7408SOL     OW33859   0.654   0.768   0.120 -0.0242  0.1368 -0.5969
 7408SOL    HW133860   0.678   0.860   0.131  1.9779 -0.6964  1.9356
 7408SOL    HW233861   0.716   0.721   0.175  0.1857 -0.6331 -1.5091
 7409SOL     OW33862   3.202   3.072   6.874 -0.2253  0.0212 -0.6004
 7409SOL    HW133863   3.129   3.011   6.866 -0.2209  0.0553 -0.9112
 7409SOL    HW233864   3.260   3.000   6.899  0.8061  0.7750 -0.8391
 7410SOL     OW33865   4.155   0.092   8.284 -0.1672  0.0188  0.3360
 7410SOL    HW133866   4.196   0.164   8.331  0.3677 -0.7278  0.9983
 7410SOL    HW233867   4.123   0.052   8.365 -0.9788  3.0153  1.5006
 7411SOL     OW33868   1.215   0.107   8.652  0.7165  0.2978  0.6679
 7411SOL    HW133869   1.248   0.113   8.741 -1.2827  1.3809  1.3409
 7411SOL    HW233870   1.123   0.090   8.675  1.1083 -0.5264  1.6161
 7412SOL     OW33871   1.442   2.709   1.505  0.2779  0.1449 -0.4806
 7412SOL    HW133872   1.450   2.614   1.504 -1.8373 -0.0227 -1.3543
 7412SOL    HW233873   1.415   2.727   1.415 -0.0395  0.8931 -0.2397
 7413SOL     OW33874   0.955   0.599  12.231  0.1528 -0.3366  0.2910
 7413SOL    HW133875   0.905   0.617  12.152 -0.0178 -4.0564 -0.4116
 7413SOL    HW233876   0.997   0.518  12.204  0.4066  0.6551 -2.2451
 7414SOL     OW33877   1.541   3.821  11.419  0.0744  0.1499  0.0933
 7414SOL    HW133878   1.505   3.740  11.457 -2.4629  1.3144  0.1505
 7414SOL    HW233879   1.631   3.817  11.450 -0.2477 -1.1921  0.8804
 7415SOL     OW33880   0.534   1.409   5.399 -0.4173  0.4137  0.2070
 7415SOL    HW133881   0.602   1.470   5.370 -1.2015  0.8608 -0.6519
 7415SOL    HW233882   0.572   1.324   5.378 -1.1128  0.0563  0.4062
 7416SOL     OW33883   1.565   0.716  11.738  0.8583  0.7365  0.4421
 7416SOL    HW133884   1.484   0.765  11.755 -1.2792 -2.2650 -1.1823
 7416SOL    HW233885   1.531   0.628  11.719 -0.2564  0.8494  1.8686
 7417SOL     OW33886   2.849   2.537   7.372  0.3725 -0.3174  0.3752
 7417SOL    HW133887   2.902   2.490   7.436 -0.9791 -0.3646  1.4635
 7417SOL    HW233888   2.886   2.505   7.290  2.1665 -1.3452  1.6030
 7418SOL     OW33889   2.999   3.346   6.583  0.0823  0.1523  0.5144
 7418SOL    HW133890   2.994   3.382   6.495 -1.3700 -1.5733 -0.1146
 7418SOL    HW233891   3.049   3.266   6.570  0.0695  0.1728  0.3419
 7419SOL     OW33892   0.595   1.802   6.295 -0.4274  0.1825  0.8983
 7419SOL    HW133893   0.637   1.745   6.360  2.2870  2.1343  0.8403
 7419SOL    HW233894   0.657   1.832   6.229  1.0832 -2.8196  0.9246
 7420SOL     OW33895   3.116   1.570   4.124  0.1617 -0.0454  0.3837
 7420SOL    HW133896   3.033   1.613   4.146  0.1223 -0.3520  0.8338
 7420SOL    HW233897   3.126   1.597   4.033  2.0266 -1.3459  0.2007
 7421SOL     OW33898   3.092   2.138   8.323  0.1896  0.0388  0.0643
 7421SOL    HW133899   3.031   2.065   8.314 -0.8902  0.5305  3.1345
 7421SOL    HW233900   3.168   2.097   8.284  0.8281  1.3472 -0.0752
 7422SOL     OW33901   0.903   0.210   8.057  0.2689 -0.3645  0.6110
 7422SOL    HW133902   0.976   0.269   8.039  0.1143  0.9945  4.5612
 7422SOL    HW233903   0.855   0.263   8.120  0.0112 -1.0281  0.9701
 7423SOL     OW33904   2.089   0.676  11.577  0.1654 -0.4436  0.0427
 7423SOL    HW133905   2.005   0.709  11.545  1.3843  1.6514 -1.0708
 7423SOL    HW233906   2.059   0.614  11.644  1.0520 -0.5993  0.2954
 7424SOL     OW33907   2.167   3.559   4.023  0.5128  0.7261  0.0756
 7424SOL    HW133908   2.117   3.526   4.098  0.6493  2.3882  0.8875
 7424SOL    HW233909   2.238   3.606   4.066  1.2547  0.2888 -0.6770
 7425SOL     OW33910   1.158   0.350   3.818  0.3781  0.6329 -0.4581
 7425SOL    HW133911   1.181   0.438   3.789  2.3067  0.6157  1.0292
 7425SOL    HW233912   1.244   0.319   3.846  0.7419  0.4704 -1.7860
 7426SOL     OW33913   3.067   4.034  16.815  0.7527  0.5327  0.0817
 7426SOL    HW133914   3.098   3.946  16.835  0.7656  0.0307 -2.1305
 7426SOL    HW233915   3.143   4.069  16.769  2.2089  0.3485  2.3464
 7427SOL     OW33916   4.110   3.996   7.238 -0.1967  0.3955  0.1946
 7427SOL    HW133917   4.027   3.969   7.198 -1.0906  2.4420  0.6760
 7427SOL    HW233918   4.171   3.942   7.188 -1.0413  0.0498 -0.4647
 7428SOL     OW33919   0.011   4.608  16.829 -0.4891  0.9101 -0.1834
 7428SOL    HW133920   0.065   4.640  16.757  2.6276 -0.7391  1.4385
 7428SOL    HW233921   4.674   4.653  16.786 -0.8218  0.4324 -0.1258
 7429SOL     OW33922   1.104   1.975   3.277 -0.1788  0.3209  0.3020
 7429SOL    HW133923   1.088   2.066   3.302 -2.2091  0.1781 -0.4956
 7429SOL    HW233924   1.119   1.928   3.359 -0.6918  1.0320  0.8129
 7430SOL     OW33925   0.825   1.405   3.092  0.2588 -0.4441 -0.1481
 7430SOL    HW133926   0.821   1.362   3.177  0.9059 -0.5647 -0.1785
 7430SOL    HW233927   0.772   1.482   3.110  0.3560 -0.5019  0.3892
 7431SOL     OW33928   1.808   3.990  16.197  0.3573 -0.0469 -0.1954
 7431SOL    HW133929   1.728   4.006  16.147 -0.1272 -2.4440 -0.2089
 7431SOL    HW233930   1.813   3.894  16.194 -0.2377 -0.1478  1.9489
 7432SOL     OW33931   0.887   2.650   0.710 -0.3850  0.0377  0.4544
 7432SOL    HW133932   0.884   2.656   0.614  2.5686  1.9932  0.4842
 7432SOL    HW233933   0.948   2.724   0.717 -3.4717  2.6051  0.2001
 7433SOL     OW33934   4.254   2.875   9.503  0.0819 -0.2967  0.3592
 7433SOL    HW133935   4.224   2.931   9.575  0.4242  2.4560 -1.6127
 7433SOL    HW233936   4.307   2.806   9.543  2.6435  0.3540 -1.8619
 7434SOL     OW33937   4.323   2.227  13.907  0.1333 -0.2422 -0.1608
 7434SOL    HW133938   4.327   2.164  13.978  2.6279 -2.1795 -2.0247
 7434SOL    HW233939   4.351   2.315  13.935  1.5852 -1.7599  3.0597
 7435SOL     OW33940   4.132   3.352   2.397 -0.1333 -0.1700 -0.1086
 7435SOL    HW133941   4.132   3.395   2.311 -0.7101  2.0751  1.0084
 7435SOL    HW233942   4.171   3.268   2.372 -2.1199 -0.4781 -2.1263
 7436SOL     OW33943   0.157   3.017  13.325  0.3919 -0.1936 -0.8136
 7436SOL    HW133944   0.123   3.096  13.368 -1.4025 -0.4478 -1.7441
 7436SOL    HW233945   0.101   2.998  13.250 -0.7441  1.3619 -0.3653
 7437SOL     OW33946   4.361   2.159  11.492  0.0373  0.8410 -0.3474
 7437SOL    HW133947   4.306   2.196  11.561 -0.8203  0.6853 -0.9396
 7437SOL    HW233948   4.337   2.204  11.411 -1.9925  0.7480  0.2003
 7438SOL     OW33949   3.533   1.031   5.669 -0.4962  0.0912  0.4249
 7438SOL    HW133950   3.526   1.001   5.579 -0.4296  3.8845 -0.8320
 7438SOL    HW233951   3.551   1.124   5.659 -2.9109  0.3991 -0.9711
 7439SOL     OW33952   1.776   3.775   7.945 -0.2648  0.0734 -0.2340
 7439SOL    HW133953   1.734   3.845   7.994 -0.2133 -2.2717  3.1712
 7439SOL    HW233954   1.763   3.708   8.012 -0.5889  0.7041  0.3332
 7440SOL     OW33955   2.660   2.690   3.981  0.4129 -0.0651 -0.4035
 7440SOL    HW133956   2.706   2.671   4.063  1.4347 -0.6437 -1.1176
 7440SOL    HW233957   2.645   2.784   3.986 -1.3440 -0.3172 -0.9280
 7441SOL     OW33958   1.042   2.507   3.052  0.2852  0.3482  0.0715
 7441SOL    HW133959   1.060   2.569   2.982 -1.3854  1.1880  0.3821
 7441SOL    HW233960   1.070   2.425   3.011 -0.6287 -1.0263  2.2100
 7442SOL     OW33961   3.418   0.520   4.772  1.3001 -0.3787  0.2853
 7442SOL    HW133962   3.388   0.430   4.764 -0.1007 -0.2768  3.9922
 7442SOL    HW233963   3.369   0.565   4.703 -0.1672  0.3500  1.8059
 7443SOL     OW33964   1.090   4.134   8.060 -0.0013 -0.2062 -0.7986
 7443SOL    HW133965   1.040   4.176   7.991 -1.4045 -0.5482 -0.0051
 7443SOL    HW233966   1.021   4.110   8.122  0.1778  1.2078 -0.0342
 7444SOL     OW33967   2.933   1.405   6.321 -0.6334  0.1361  0.6862
 7444SOL    HW133968   2.909   1.373   6.408  1.6439  2.8328  2.2910
 7444SOL    HW233969   2.873   1.480   6.316 -1.4644 -0.6211 -0.8802
 7445SOL     OW33970   2.841   0.396  14.234 -0.4393  0.1616 -0.1006
 7445SOL    HW133971   2.821   0.319  14.287  0.0811  0.6615  0.8179
 7445SOL    HW233972   2.755   0.438  14.221  0.2177  1.5426 -0.0205
 7446SOL     OW33973   0.278   2.905  10.797 -1.3571  0.1079  0.3515
 7446SOL    HW133974   0.271   3.000  10.795 -1.7184  0.1060  1.5308
 7446SOL    HW233975   0.220   2.882  10.870 -0.3554 -0.8358  0.8573
 7447SOL     OW33976   1.493   4.175   5.403 -0.2226  0.6872 -0.0907
 7447SOL    HW133977   1.487   4.099   5.346 -1.8307  0.4779  0.3509
 7447SOL    HW233978   1.403   4.175   5.436  0.1513  1.8723  0.9829
 7448SOL     OW33979   3.851   0.846  17.445 -0.5154 -0.2625  0.2833
 7448SOL    HW133980   3.874   0.782  17.512 -1.0035  0.9611  1.6343
 7448SOL    HW233981   3.790   0.796  17.392  0.8074 -0.6116 -0.9364
 7449SOL     OW33982   1.079   0.160  11.787 -0.4218  0.2764 -0.3764
 7449SOL    HW133983   0.995   0.147  11.831  0.7635  3.4476  2.7777
 7449SOL    HW233984   1.146   0.127  11.847 -3.0074 -2.6612  0.9026
 7450SOL     OW33985   3.332   0.261   3.043  0.4575  0.5692  0.6060
 7450SOL    HW133986   3.242   0.249   3.012  0.2044 -0.4238  1.7225
 7450SOL    HW233987   3.303   0.279   3.133 -0.7850 -2.6563  0.8512
 7451SOL     OW33988   1.628   4.063   9.049 -0.1376 -0.3172 -0.0247
 7451SOL    HW133989   1.716   4.047   9.082 -0.4310 -0.3307  0.7434
 7451SOL    HW233990   1.602   4.156   9.052 -1.0291 -0.5357 -0.7902
 7452SOL     OW33991   1.183   4.098   2.442 -0.1926  0.1803  0.2242
 7452SOL    HW133992   1.184   4.087   2.346 -0.1618  1.5391  0.0732
 7452SOL    HW233993   1.136   4.019   2.470  2.1521 -1.0936  0.5902
 7453SOL     OW33994   4.484   2.964   9.347 -0.4987  0.4329  0.1886
 7453SOL    HW133995   4.393   2.940   9.364 -0.4376  0.5040  0.5998
 7453SOL    HW233996   4.531   2.881   9.334 -2.5711 -0.2930 -2.6199
 7454SOL     OW33997   0.323   2.815  12.089  0.3901  0.5490  0.1939
 7454SOL    HW133998   0.377   2.847  12.017  1.0757 -1.9209 -0.3614
 7454SOL    HW233999   0.256   2.771  12.037  0.7619  0.6853 -0.4005
 7455SOL     OW34000   0.546   3.756   1.837 -0.4186  0.0958 -0.0066
 7455SOL    HW134001   0.531   3.700   1.762 -1.1289  1.0250 -0.5540
 7455SOL    HW234002   0.453   3.765   1.861 -0.1914 -0.8168  1.2554
 7456SOL     OW34003   2.820   1.236   4.815 -0.0772 -0.0677 -0.6725
 7456SOL    HW134004   2.914   1.244   4.801  0.1781 -0.9235  0.4932
 7456SOL    HW234005   2.828   1.204   4.905  1.3264 -2.9500 -1.8197
 7457SOL     OW34006   4.102   0.344  17.228  0.3151  0.9164 -0.6855
 7457SOL    HW134007   4.077   0.273  17.169 -0.5395 -1.2510  2.2806
 7457SOL    HW234008   4.151   0.406  17.175  0.8785  0.8216 -0.2690
 7458SOL     OW34009   0.792   2.251  12.883 -0.1896 -0.2492  0.7983
 7458SOL    HW134010   0.722   2.193  12.912 -0.5686 -0.5241 -0.6814
 7458SOL    HW234011   0.809   2.206  12.800 -0.4108 -0.0698  0.6551
 7459SOL     OW34012   4.537   4.062  11.703  0.4115  0.6890 -0.3760
 7459SOL    HW134013   4.572   3.975  11.683  0.4669  0.2447  1.7036
 7459SOL    HW234014   4.442   4.058  11.692  0.4056 -2.6752  0.8077
 7460SOL     OW34015   2.185   1.659   9.834  0.2058  0.5022  0.1913
 7460SOL    HW134016   2.177   1.566   9.816  2.2921  0.2503  0.4975
 7460SOL    HW234017   2.256   1.655   9.899 -0.8619 -0.8442  1.2888
 7461SOL     OW34018   3.332   1.311   4.458 -0.3175  0.3104  0.3908
 7461SOL    HW134019   3.318   1.316   4.364  1.1258 -1.8209  0.0766
 7461SOL    HW234020   3.408   1.365   4.478  0.2563 -0.5572  0.5178
 7462SOL     OW34021   0.669   3.448   4.368 -0.1662 -0.4521  0.1526
 7462SOL    HW134022   0.757   3.452   4.330  0.1322  2.9108  1.2545
 7462SOL    HW234023   0.658   3.356   4.394  2.8138 -1.6035 -2.6805
 7463SOL     OW34024   0.732   0.953   6.633  0.4273  0.1134  0.1945
 7463SOL    HW134025   0.780   0.882   6.589  1.3041  1.2153 -0.6216
 7463SOL    HW234026   0.759   0.937   6.723  1.1652 -1.7261 -0.3612
 7464SOL     OW34027   2.006   2.656   9.423  1.0207 -0.1072  0.8025
 7464SOL    HW134028   2.060   2.583   9.393  1.9670 -0.0236  2.3140
 7464SOL    HW234029   2.044   2.665   9.510 -0.9349  1.4165  1.5031
 7465SOL     OW34030   1.899   3.206   3.443 -0.2770 -0.2993  0.2186
 7465SOL    HW134031   1.857   3.162   3.369  1.5190 -1.1398 -0.3045
 7465SOL    HW234032   1.928   3.130   3.494  1.7875  1.1185  1.1383
 7466SOL     OW34033   1.594   4.530  11.584  0.5472  0.2971  0.4810
 7466SOL    HW134034   1.563   4.447  11.547  0.4880  0.8857 -0.7879
 7466SOL    HW234035   1.686   4.512  11.564  0.3062  1.7575 -1.8885
 7467SOL     OW34036   0.808   1.496   5.487  0.3658  0.6572  0.4077
 7467SOL    HW134037   0.861   1.534   5.558 -3.3081  0.3484  3.3470
 7467SOL    HW234038   0.775   1.423   5.539 -2.2571 -0.9099 -3.5050
 7468SOL     OW34039   2.502   4.075   7.257 -0.4494 -0.1605  0.5964
 7468SOL    HW134040   2.438   4.030   7.313 -1.6405 -0.3892 -0.9462
 7468SOL    HW234041   2.458   4.050   7.176  1.2512 -0.0956 -0.3448
 7469SOL     OW34042   3.436   2.131   5.346  0.5569  0.6598  0.3396
 7469SOL    HW134043   3.441   2.212   5.295 -1.2041 -0.5393 -1.7783
 7469SOL    HW234044   3.379   2.157   5.418  0.4724  0.6829  0.2643
 7470SOL     OW34045   0.916   3.269   1.755 -0.3822  0.7795 -0.0060
 7470SOL    HW134046   0.882   3.287   1.843 -0.2207  0.7415  0.0642
 7470SOL    HW234047   0.947   3.184   1.786  0.9487  1.2448 -0.0530
 7471SOL     OW34048   2.930   2.444   9.668  0.1118  0.9929 -0.6611
 7471SOL    HW134049   2.941   2.503   9.593 -0.3100  3.2829  1.1018
 7471SOL    HW234050   2.843   2.475   9.690  0.7368  1.0093  1.7350
 7472SOL     OW34051   0.167   1.164  16.714 -0.1088 -0.4030  0.2411
 7472SOL    HW134052   0.097   1.154  16.649  2.0489  0.3321 -2.1685
 7472SOL    HW234053   0.112   1.149  16.792  0.3790 -0.3737  0.5904
 7473SOL     OW34054   4.525   2.207   4.340 -0.4307 -0.3049  0.0518
 7473SOL    HW134055   4.481   2.164   4.267  1.8102 -1.3827 -0.6714
 7473SOL    HW234056   4.520   2.143   4.410  1.2730 -0.5411 -0.0287
 7474SOL     OW34057   0.446   1.740   2.983 -0.5776  0.0801 -0.1075
 7474SOL    HW134058   0.519   1.717   2.925 -1.6722 -1.3252 -0.9082
 7474SOL    HW234059   0.465   1.824   3.025 -0.4623  0.4643 -0.9099
 7475SOL     OW34060   0.118   1.202  12.248 -0.4640  0.3064 -0.1117
 7475SOL    HW134061   0.040   1.220  12.196 -1.9569 -0.2382  1.9467
 7475SOL    HW234062   0.083   1.217  12.336 -0.9008 -2.2742  0.1460
 7476SOL     OW34063   3.983   0.136  11.980  0.3242 -0.3435  0.2744
 7476SOL    HW134064   4.017   0.222  11.953 -0.0611 -0.5689 -0.9210
 7476SOL    HW234065   3.961   0.161  12.070  3.2747 -2.0458  1.4511
 7477SOL     OW34066   2.346   0.246  11.312 -0.3724 -0.0607  0.1057
 7477SOL    HW134067   2.310   0.334  11.322  0.1366  0.2312 -0.6152
 7477SOL    HW234068   2.267   0.193  11.305  0.7935 -1.9047  0.9790
 7478SOL     OW34069   0.269   2.481  15.086  0.4390 -0.0491  0.2637
 7478SOL    HW134070   0.337   2.490  15.019  1.4742  1.6866  1.5300
 7478SOL    HW234071   0.277   2.386  15.088  2.5131  0.0954 -1.2470
 7479SOL     OW34072   0.003   1.688   2.023 -0.1107 -0.0374 -0.2553
 7479SOL    HW134073   0.019   1.768   1.973 -0.0308 -1.5370 -2.5916
 7479SOL    HW234074   4.671   1.653   1.965 -1.6897  1.0208  0.9115
 7480SOL     OW34075   2.842   4.710   2.179 -0.2122 -0.3142 -0.0502
 7480SOL    HW134076   2.846   4.666   2.094  1.1639  2.9363 -1.7190
 7480SOL    HW234077   2.845   0.066   2.149 -0.3891  0.2698  1.7359
 7481SOL     OW34078   2.588   0.017   8.473 -0.2857 -0.0281 -0.0025
 7481SOL    HW134079   2.533   4.675   8.468 -1.0131  0.6703 -2.7801
 7481SOL    HW234080   2.574   0.038   8.565 -2.7743  1.5444 -0.7272
 7482SOL     OW34081   2.076   0.677   6.561 -0.0950 -0.1056 -0.0909
 7482SOL    HW134082   2.054   0.585   6.568 -2.2687  0.2711 -1.9390
 7482SOL    HW234083   2.050   0.699   6.472  2.1460  1.1053 -0.4468
 7483SOL     OW34084   0.752   4.460   1.767 -0.0670  0.2367 -0.1674
 7483SOL    HW134085   0.714   4.439   1.852  1.1685  0.9508  0.5606
 7483SOL    HW234086   0.683   4.448   1.702 -0.2949  0.3059  0.0647
 7484SOL     OW34087   2.835   3.091  13.033 -0.1418 -0.1673  0.5573
 7484SOL    HW134088   2.815   3.001  13.010  0.5928 -0.3629  0.7021
 7484SOL    HW234089   2.763   3.090  13.096 -2.0819  1.1687 -1.6110
 7485SOL     OW34090   3.407   2.128   3.457  0.1812 -0.4811 -0.1513
 7485SOL    HW134091   3.367   2.210   3.489  3.4586 -0.0937  2.9077
 7485SOL    HW234092   3.481   2.127   3.518 -0.0493 -2.0700  0.1089
 7486SOL     OW34093   1.527   1.835   5.599 -0.1462  0.5397 -0.1395
 7486SOL    HW134094   1.543   1.822   5.693 -0.7512  1.2033  0.0595
 7486SOL    HW234095   1.468   1.765   5.571  1.4994  0.1366 -2.5787
 7487SOL     OW34096   2.199   3.936   6.370 -0.3536 -0.2277  0.7723
 7487SOL    HW134097   2.128   3.901   6.316  1.7618  1.2739 -3.0088
 7487SOL    HW234098   2.180   4.030   6.377 -2.1527 -0.3982 -1.9399
 7488SOL     OW34099   3.274   1.752   4.241 -0.6043  0.1600 -0.0543
 7488SOL    HW134100   3.258   1.740   4.335 -1.7823  1.3533 -0.0942
 7488SOL    HW234101   3.231   1.670   4.219 -0.6155  0.2859 -0.4918
 7489SOL     OW34102   3.694   0.137  10.247  0.0611  0.4770 -0.1285
 7489SOL    HW134103   3.768   0.194  10.272  0.4572  0.4051 -1.1334
 7489SOL    HW234104   3.731   0.049  10.254 -0.1787  0.4889  1.2657
 7490SOL     OW34105   1.664   2.967   2.010 -0.2806  0.2241 -0.0730
 7490SOL    HW134106   1.607   2.984   2.085  0.5453 -0.6544  0.7562
 7490SOL    HW234107   1.620   3.016   1.940  1.1528  0.2478 -0.9676
 7491SOL     OW34108   2.996   0.562  11.505  0.3579 -0.4966 -0.1668
 7491SOL    HW134109   3.044   0.484  11.533  0.3720 -0.6890 -0.7268
 7491SOL    HW234110   2.919   0.546  11.559 -0.3698 -0.7666 -1.2729
 7492SOL     OW34111   2.904   0.451  17.078 -0.8112 -0.0779  0.3677
 7492SOL    HW134112   2.929   0.544  17.082  2.0730 -0.9896  3.7052
 7492SOL    HW234113   2.944   0.429  16.994 -3.0557 -0.5745 -0.5388
 7493SOL     OW34114   0.527   2.002  14.611  0.8405  0.0907 -0.5915
 7493SOL    HW134115   0.510   2.002  14.517  1.0236  2.8942 -0.6206
 7493SOL    HW234116   0.621   2.017  14.607  0.7356  1.3925  1.6113
 7494SOL     OW34117   2.175   1.539   2.556 -0.4934  0.1584  0.0272
 7494SOL    HW134118   2.141   1.598   2.623  3.7158  1.7284  0.8332
 7494SOL    HW234119   2.234   1.477   2.598 -1.8358  0.3403  2.1179
 7495SOL     OW34120   1.169   0.161   0.224  0.3177  0.3615  0.5746
 7495SOL    HW134121   1.213   0.176   0.140  0.4205 -2.1078  0.1683
 7495SOL    HW234122   1.192   0.072   0.251  1.2764 -0.3398 -2.5655
 7496SOL     OW34123   0.368   0.931  16.753 -0.0958  0.7444 -0.1006
 7496SOL    HW134124   0.419   0.986  16.812  1.9622  0.4166 -1.5516
 7496SOL    HW234125   0.278   0.964  16.754 -0.1238  0.6353  1.1680
 7497SOL     OW34126   2.421   4.470   3.478 -0.7991 -0.3747 -0.3972
 7497SOL    HW134127   2.389   4.531   3.545  2.2822  1.6885 -0.8256
 7497SOL    HW234128   2.496   4.433   3.524  1.0380  1.6575 -1.7227
 7498SOL     OW34129   0.123   0.941   3.717  0.3845  0.2061  0.1924
 7498SOL    HW134130   0.189   0.872   3.707  0.3610 -0.0557  1.9145
 7498SOL    HW234131   0.062   0.894   3.774  0.1849 -0.0170 -0.1991
 7499SOL     OW34132   3.659   3.297   2.613 -0.1660 -0.1731 -0.0453
 7499SOL    HW134133   3.615   3.243   2.679 -0.2518  0.1175  0.1343
 7499SOL    HW234134   3.702   3.238   2.551  0.0660  2.3878 -2.3301
 7500SOL     OW34135   3.276   0.800   1.423  0.3492  0.0067  0.9865
 7500SOL    HW134136   3.241   0.849   1.349  0.6381 -1.4540 -0.1089
 7500SOL    HW234137   3.189   0.785   1.460 -0.2505 -2.5582 -1.4808
 7501SOL     OW34138   3.142   0.509   7.126  0.0560 -0.0679 -0.5663
 7501SOL    HW134139   3.074   0.571   7.098  1.2068  2.1806  1.6745
 7501SOL    HW234140   3.104   0.466   7.203  1.0626  1.1386  0.5928
 7502SOL     OW34141   2.452   4.731   2.998  0.8174  0.2539 -0.7194
 7502SOL    HW134142   2.383   4.693   3.054  0.6996 -0.4642 -1.3444
 7502SOL    HW234143   2.519   4.668   3.025  0.9196  1.3556  1.5615
 7503SOL     OW34144   2.144   2.701   1.586 -0.0056 -0.1654 -0.2881
 7503SOL    HW134145   2.082   2.628   1.591  1.4853 -1.3547  1.0059
 7503SOL    HW234146   2.220   2.655   1.622 -0.0986 -0.7280 -0.8115
 7504SOL     OW34147   3.100   0.819   6.007  0.6281  0.3485  0.4141
 7504SOL    HW134148   3.170   0.849   5.949  1.0658  1.6201  1.5948
 7504SOL    HW234149   3.026   0.859   5.961  1.5760  2.0551  0.3592
 7505SOL     OW34150   2.645   4.715   0.678 -0.5169  0.5115 -0.2258
 7505SOL    HW134151   2.634   0.024   0.593 -2.2101  0.1904 -0.1845
 7505SOL    HW234152   2.610   4.628   0.658 -1.1075  0.4711  0.9787
 7506SOL     OW34153   2.981   0.781   1.423 -1.1461  0.7248  0.1073
 7506SOL    HW134154   2.935   0.786   1.339  0.6100 -2.7150 -1.0588
 7506SOL    HW234155   2.908   0.790   1.484 -2.5479  0.8999 -1.5730
 7507SOL     OW34156   3.575   0.577  11.877  0.1104 -0.7014 -0.1985
 7507SOL    HW134157   3.584   0.667  11.846 -0.8411  0.0402  1.7555
 7507SOL    HW234158   3.624   0.568  11.959 -0.3014 -0.8437  0.0301
 7508SOL     OW34159   3.135   0.955   2.999 -0.4618  0.0696  0.1452
 7508SOL    HW134160   3.066   0.934   3.062 -1.0971 -0.3875 -0.7154
 7508SOL    HW234161   3.098   0.905   2.926  0.5792 -3.3762  1.9627
 7509SOL     OW34162   0.681   0.358  13.959 -0.0482 -0.2990 -0.5218
 7509SOL    HW134163   0.688   0.421  13.888  1.8788  0.3271  0.2214
 7509SOL    HW234164   0.767   0.363  13.999 -0.2365  2.1460 -0.4108
 7510SOL     OW34165   4.545   3.218   0.861 -0.2020  0.0262  0.5914
 7510SOL    HW134166   4.492   3.159   0.807 -1.4705  1.9816 -0.2953
 7510SOL    HW234167   4.625   3.219   0.810 -0.7404  1.0031 -0.2390
 7511SOL     OW34168   0.539   4.262   7.552  0.1365 -0.1051  0.0338
 7511SOL    HW134169   0.497   4.328   7.496 -1.2708 -1.6830 -0.7812
 7511SOL    HW234170   0.578   4.322   7.615 -0.2541  1.1832 -0.9342
 7512SOL     OW34171   2.913   4.212   5.971 -0.3865 -0.1231 -0.3280
 7512SOL    HW134172   2.840   4.274   5.970  0.1988  0.5682 -0.3125
 7512SOL    HW234173   2.981   4.246   6.029  0.6557 -3.2107  0.2922
 7513SOL     OW34174   2.525   4.340   5.214 -0.1939  0.0028  0.3141
 7513SOL    HW134175   2.594   4.359   5.278  1.1190  0.3944 -1.2239
 7513SOL    HW234176   2.522   4.244   5.215  0.0937 -0.0385 -3.6509
 7514SOL     OW34177   0.081   2.872  11.000 -0.5458 -0.1958  0.4240
 7514SOL    HW134178   0.045   2.841  11.083 -0.5680  1.7178  1.1375
 7514SOL    HW234179   0.004   2.859  10.945  1.0671 -1.6369 -1.4908
 7515SOL     OW34180   3.296   0.516   5.282  0.1256 -0.3291 -0.2546
 7515SOL    HW134181   3.209   0.513   5.243 -0.1939 -0.7040  0.4917
 7515SOL    HW234182   3.331   0.549   5.199  1.2533 -1.2217 -0.1385
 7516SOL     OW34183   4.106   1.582   6.639  0.5393  0.5333  0.1935
 7516SOL    HW134184   4.173   1.563   6.705  0.7924 -0.7983 -0.4538
 7516SOL    HW234185   4.031   1.556   6.693  1.6176 -1.8374  0.5604
 7517SOL     OW34186   2.203   0.898   5.240 -0.3849  0.1206  1.0556
 7517SOL    HW134187   2.147   0.909   5.163 -0.1218 -1.5289  0.6176
 7517SOL    HW234188   2.145   0.863   5.308  1.3460 -0.0705  2.4439
 7518SOL     OW34189   0.674   4.568   4.956  0.6751 -0.0696  0.3759
 7518SOL    HW134190   0.722   4.650   4.942  0.9927 -0.2401  0.4553
 7518SOL    HW234191   0.592   4.592   4.914  2.8229  2.6994 -2.2153
 7519SOL     OW34192   0.815   0.682   3.752  0.7231 -0.8113  0.3961
 7519SOL    HW134193   0.857   0.702   3.669 -0.2587  3.5218  0.9561
 7519SOL    HW234194   0.725   0.713   3.745  0.1212 -2.4486  0.8248
 7520SOL     OW34195   1.902   4.644  11.045  0.8389  0.2758 -0.7171
 7520SOL    HW134196   1.861   4.661  10.960 -6.0010 -0.2648  2.5186
 7520SOL    HW234197   1.988   4.614  11.017  1.6218  1.6964  0.1627
 7521SOL     OW34198   4.371   3.042  17.086  0.8411 -0.0934  0.8160
 7521SOL    HW134199   4.326   3.018  17.004 -0.6670  2.1742  0.9900
 7521SOL    HW234200   4.409   3.125  17.059  0.2344 -0.6179 -1.6686
 7522SOL     OW34201   0.521   2.160   2.860  0.1763  0.7863  0.1522
 7522SOL    HW134202   0.449   2.217   2.833  0.6065  1.7384  1.0002
 7522SOL    HW234203   0.509   2.082   2.806 -0.0995  1.3389 -0.5944
 7523SOL     OW34204   1.882   3.420  10.899 -0.3650  0.1736 -0.6578
 7523SOL    HW134205   1.908   3.358  10.967 -1.0823  0.1758 -0.3780
 7523SOL    HW234206   1.962   3.472  10.888 -0.1806 -0.2934 -1.4595
 7524SOL     OW34207   0.652   3.639   1.062  0.4518  0.8310  0.4528
 7524SOL    HW134208   0.669   3.733   1.068  1.2457  0.6652  0.8491
 7524SOL    HW234209   0.557   3.644   1.048  0.4028  1.2756  0.9552
 7525SOL     OW34210   4.649   0.406  10.605  0.0462 -0.2731 -0.1190
 7525SOL    HW134211   4.667   0.314  10.585 -1.8751 -0.2438 -1.8880
 7525SOL    HW234212   4.670   0.411  10.699 -0.9733  0.7834  0.0415
 7526SOL     OW34213   3.089   2.481   0.140 -0.6634  0.1307  0.3557
 7526SOL    HW134214   3.082   2.395   0.099 -0.1225 -0.0744  0.6904
 7526SOL    HW234215   3.054   2.534   0.069 -1.6996 -1.1598 -0.1141
 7527SOL     OW34216   0.428   1.044   2.844  0.2603 -0.0430  0.1732
 7527SOL    HW134217   0.369   1.003   2.781 -1.6812  1.1566  1.2026
 7527SOL    HW234218   0.401   1.007   2.928  1.6961 -1.7880 -0.1495
 7528SOL     OW34219   2.808   0.761   0.569  0.4274 -0.7153 -0.0560
 7528SOL    HW134220   2.818   0.713   0.487 -0.1431  0.5330 -0.8605
 7528SOL    HW234221   2.714   0.773   0.579  0.6616  0.7596  0.4645
 7529SOL     OW34222   3.364   4.433  15.010  0.4382  0.2543  0.3480
 7529SOL    HW134223   3.301   4.361  15.015  1.5398 -0.7467 -0.2161
 7529SOL    HW234224   3.380   4.423  14.916 -0.3644  1.6601  0.0620
 7530SOL     OW34225   0.588   4.106   9.604  0.1791 -0.5591 -0.5091
 7530SOL    HW134226   0.648   4.057   9.660  0.7732 -1.7260 -2.1905
 7530SOL    HW234227   0.567   4.032   9.547 -1.0716 -3.2100  3.3887
 7531SOL     OW34228   3.103   1.534   2.881  0.0994  0.5370 -0.1437
 7531SOL    HW134229   3.009   1.542   2.900 -0.3114 -2.7210 -0.8347
 7531SOL    HW234230   3.106   1.456   2.826 -0.5275 -0.2393  0.9396
 7532SOL     OW34231   4.369   2.379   2.805  0.3531 -0.4549 -0.4099
 7532SOL    HW134232   4.274   2.379   2.793 -0.0448  0.6339  2.7449
 7532SOL    HW234233   4.382   2.428   2.886 -2.1921 -1.9764  0.9264
 7533SOL     OW34234   3.126   2.676   7.291 -0.3115  0.1671 -0.0479
 7533SOL    HW134235   3.057   2.742   7.300 -0.4787  0.1093 -0.9103
 7533SOL    HW234236   3.150   2.648   7.379 -1.0877 -0.2932  0.0246
 7534SOL     OW34237   1.164   0.389   0.857  0.6087  0.4337  0.0354
 7534SOL    HW134238   1.204   0.322   0.911  0.6440 -0.0620 -0.6058
 7534SOL    HW234239   1.105   0.336   0.803  0.2829 -0.5803  1.3998
 7535SOL     OW34240   3.947   4.415  15.719  0.1261 -0.2088  0.4189
 7535SOL    HW134241   3.973   4.506  15.706 -2.5824  0.4329 -0.3319
 7535SOL    HW234242   3.865   4.408  15.671 -0.0935  0.8446  0.6349
 7536SOL     OW34243   4.079   1.394   1.743 -0.6381  0.1920 -0.3721
 7536SOL    HW134244   4.110   1.469   1.692 -0.4453 -0.5732 -1.3773
 7536SOL    HW234245   3.997   1.371   1.698 -1.1757  1.1791  0.1067
 7537SOL     OW34246   3.778   4.099   5.049 -0.2876  0.1859 -0.4926
 7537SOL    HW134247   3.800   4.008   5.070 -1.3850  0.0914  0.2298
 7537SOL    HW234248   3.769   4.137   5.136  0.6744 -1.6481  0.4158
 7538SOL     OW34249   1.018   3.327  10.641  1.0004 -0.9284 -0.2450
 7538SOL    HW134250   1.069   3.403  10.612  1.3545 -1.2494 -0.4436
 7538SOL    HW234251   1.038   3.275  10.564  1.4614  1.0986 -1.5039
 7539SOL     OW34252   3.015   2.354  17.626 -0.8414  0.4464  0.7449
 7539SOL    HW134253   2.940   2.398  17.586 -0.3885 -0.7072 -1.3523
 7539SOL    HW234254   3.068   2.365  17.547 -0.3903 -0.4436  0.9204
 7540SOL     OW34255   0.233   3.732   6.385 -0.4619  0.1903 -0.0888
 7540SOL    HW134256   0.282   3.792   6.442 -0.4518  0.4370 -0.3573
 7540SOL    HW234257   0.156   3.716   6.439 -0.3218 -0.9097 -0.2106
 7541SOL     OW34258   2.831   4.152   5.444  0.6799 -0.4266 -0.0203
 7541SOL    HW134259   2.755   4.207   5.425 -0.0723 -1.2871  0.4998
 7541SOL    HW234260   2.799   4.062   5.438  1.0225 -0.4952 -0.8350
 7542SOL     OW34261   2.167   3.745   5.333 -0.4843 -0.4631 -0.1300
 7542SOL    HW134262   2.118   3.663   5.322 -1.2270 -0.2037  1.3028
 7542SOL    HW234263   2.105   3.789   5.391 -0.3875 -0.5334  0.0250
 7543SOL     OW34264   1.778   0.744   2.053  0.0483  0.3695 -0.0858
 7543SOL    HW134265   1.760   0.825   2.006  0.9461  0.7527  0.2375
 7543SOL    HW234266   1.832   0.791   2.116  0.9452 -1.5723  0.6016
 7544SOL     OW34267   3.365   2.020   1.972 -0.2436  0.2560 -0.4662
 7544SOL    HW134268   3.372   1.992   2.064  0.5989  1.1970 -0.2378
 7544SOL    HW234269   3.406   1.942   1.935  0.4371  0.2026  0.3913
 7545SOL     OW34270   3.407   3.935   4.378  0.4955  0.2148 -0.2003
 7545SOL    HW134271   3.502   3.939   4.370  0.6176 -0.3443  0.9244
 7545SOL    HW234272   3.391   3.864   4.440 -0.6122 -0.5572 -1.3777
 7546SOL     OW34273   4.392   1.391   8.531 -0.8837 -0.4619 -0.6588
 7546SOL    HW134274   4.472   1.442   8.525 -1.1558 -0.1330 -1.4132
 7546SOL    HW234275   4.325   1.454   8.505 -1.2445 -0.0912  1.1661
 7547SOL     OW34276   4.269   0.993   3.808  0.4283  1.0815  0.8261
 7547SOL    HW134277   4.350   1.024   3.849  1.4665 -1.2635  0.5591
 7547SOL    HW234278   4.210   1.052   3.854  0.2893  2.2053 -0.7886
 7548SOL     OW34279   3.235   3.152   8.636  0.5241 -0.3414 -0.2462
 7548SOL    HW134280   3.179   3.090   8.590  0.8199 -1.2807  0.6520
 7548SOL    HW234281   3.241   3.230   8.581 -0.2730  2.0269  3.0390
 7549SOL     OW34282   0.528   2.875   6.199  0.7889 -0.0606 -0.4680
 7549SOL    HW134283   0.455   2.814   6.196  0.5343  0.1485  1.2227
 7549SOL    HW234284   0.493   2.964   6.197 -3.7437 -1.7070  4.5963
 7550SOL     OW34285   1.740   4.427   4.477 -0.2063  0.9119  0.0205
 7550SOL    HW134286   1.770   4.375   4.551  1.0902 -0.3595 -1.3979
 7550SOL    HW234287   1.797   4.392   4.408  1.1744 -0.0956  1.6796
 7551SOL     OW34288   3.902   3.330   4.107  0.5155  0.6704  0.3430
 7551SOL    HW134289   3.868   3.414   4.077 -0.6661  0.2174  0.4257
 7551SOL    HW234290   3.824   3.279   4.086  0.3388 -0.1039  2.9115
 7552SOL     OW34291   3.297   4.049  11.422  0.2892 -0.6033  0.4255
 7552SOL    HW134292   3.214   4.039  11.467  0.4741  0.1810  0.9504
 7552SOL    HW234293   3.353   3.988  11.470  1.2333  1.1295  1.5396
 7553SOL     OW34294   2.200   2.444   3.527  0.2996 -0.4486  0.5298
 7553SOL    HW134295   2.120   2.391   3.532 -0.6047  0.8272 -0.7162
 7553SOL    HW234296   2.264   2.389   3.572  0.2508 -0.1401  0.9764
 7554SOL     OW34297   3.136   2.783   2.687  0.4066 -0.6864  0.3872
 7554SOL    HW134298   3.147   2.822   2.774  3.2718 -2.2123  0.6788
 7554SOL    HW234299   3.209   2.819   2.637  0.2563 -1.4912 -0.4058
 7555SOL     OW34300   3.731   3.745   9.091  0.5637  0.1936 -0.5260
 7555SOL    HW134301   3.731   3.827   9.041 -2.5618  0.2377 -0.4319
 7555SOL    HW234302   3.782   3.685   9.038 -0.9035 -3.2218  1.9285
 7556SOL     OW34303   2.674   4.000   1.560 -0.1454  0.4518 -0.2655
 7556SOL    HW134304   2.685   4.060   1.634  0.6179 -0.6804  0.5537
 7556SOL    HW234305   2.646   3.921   1.606 -0.5758  0.3389 -0.7279
 7557SOL     OW34306   1.821   3.491  12.711 -0.4737  0.0117 -0.1097
 7557SOL    HW134307   1.899   3.542  12.688 -0.9586  1.7750  2.1425
 7557SOL    HW234308   1.783   3.473  12.626 -2.6685 -1.2775  1.1568
 7558SOL     OW34309   0.593   1.801   5.982  0.7982 -0.1766  0.8448
 7558SOL    HW134310   0.641   1.719   5.993 -0.8045 -0.9158  2.2604
 7558SOL    HW234311   0.518   1.799   6.041 -0.9870  1.1532 -1.3633
 7559SOL     OW34312   3.800   0.463   6.000 -0.2514 -0.0790 -0.3040
 7559SOL    HW134313   3.762   0.408   6.068  0.5490 -0.4479 -0.1565
 7559SOL    HW234314   3.881   0.416   5.981 -1.2166 -0.4547 -3.3912
 7560SOL     OW34315   0.989   1.704   5.040  0.2725  0.1978 -0.5065
 7560SOL    HW134316   0.933   1.725   4.965  1.6608  0.3422 -1.4876
 7560SOL    HW234317   0.934   1.710   5.119  0.4394  1.0664 -0.4645
 7561SOL     OW34318   4.151   4.084   6.476  0.2185 -0.2865 -0.0566
 7561SOL    HW134319   4.061   4.079   6.507  0.4487  0.7337  0.7713
 7561SOL    HW234320   4.141   4.099   6.382  1.9742 -0.0889 -0.2104
 7562SOL     OW34321   3.444   2.523   7.752  0.4186 -0.1488 -0.6561
 7562SOL    HW134322   3.482   2.608   7.774  0.6899  0.2737 -2.7015
 7562SOL    HW234323   3.364   2.519   7.805  0.1507 -1.6403 -1.1631
 7563SOL     OW34324   3.763   2.797  16.022  0.0543  0.0565  0.6794
 7563SOL    HW134325   3.782   2.890  16.008  0.3095 -0.1728 -0.4830
 7563SOL    HW234326   3.811   2.787  16.104  0.0388  0.2413  0.7103
 7564SOL     OW34327   0.380   4.439  14.428  0.1669  0.6684  0.0080
 7564SOL    HW134328   0.325   4.424  14.351  1.9545 -0.4717 -1.0560
 7564SOL    HW234329   0.381   4.347  14.454 -0.7276  0.4907 -0.6013
 7565SOL     OW34330   3.218   4.094   6.099  0.0599  0.0290 -0.2528
 7565SOL    HW134331   3.150   4.156   6.126 -0.2741 -2.1494  3.9209
 7565SOL    HW234332   3.295   4.148   6.112  0.1325 -0.2250  0.3509
 7566SOL     OW34333   2.706   1.295   7.381 -0.3664  0.1887  0.0964
 7566SOL    HW134334   2.619   1.300   7.341  0.1368 -1.8915 -1.2521
 7566SOL    HW234335   2.682   1.216   7.429 -1.4267  0.6148  0.2764
 7567SOL     OW34336   4.238   4.297  11.385  0.1636 -0.2161 -0.4912
 7567SOL    HW134337   4.182   4.330  11.314  0.2214  0.5064 -0.1994
 7567SOL    HW234338   4.200   4.213  11.407  1.4943 -0.8459 -0.5858
 7568SOL     OW34339   0.092   1.888   3.520  0.5193  0.8817 -0.4587
 7568SOL    HW134340   4.733   1.893   3.514  0.3082 -1.7925  0.3677
 7568SOL    HW234341   0.113   1.904   3.429 -0.5703  0.1945 -0.8329
 7569SOL     OW34342   1.106   4.217   7.534  0.6241 -0.7049  0.0891
 7569SOL    HW134343   1.140   4.292   7.486  1.2677 -0.3643  1.0815
 7569SOL    HW234344   1.132   4.143   7.478 -2.8647 -1.7171 -0.2221
 7570SOL     OW34345   2.919   4.261  15.406 -0.0483  0.4124 -0.7537
 7570SOL    HW134346   2.951   4.286  15.319 -0.8043 -0.5559 -1.3198
 7570SOL    HW234347   2.993   4.289  15.459 -1.6536  0.7397  1.3156
 7571SOL     OW34348   3.976   3.448   0.409 -0.4992  0.6552  0.3716
 7571SOL    HW134349   4.064   3.464   0.373 -1.0831 -1.1683 -1.8974
 7571SOL    HW234350   3.917   3.440   0.334  0.1539 -1.8372  0.1133
 7572SOL     OW34351   3.983   2.889   7.811 -0.3349 -0.3385 -0.8160
 7572SOL    HW134352   3.993   2.920   7.721 -0.2634  1.6485 -0.1223
 7572SOL    HW234353   4.055   2.933   7.855 -1.9396  1.0722  0.3804
 7573SOL     OW34354   4.430   3.010   0.709 -0.0316  0.0137 -1.4649
 7573SOL    HW134355   4.440   2.926   0.665 -0.4352 -0.1928 -1.1603
 7573SOL    HW234356   4.354   3.040   0.658 -0.1720 -1.0452 -1.8719
 7574SOL     OW34357   4.630   4.684   8.903 -0.4104 -0.2015  0.6363
 7574SOL    HW134358   4.664   4.613   8.958 -0.4787 -0.8770 -0.1874
 7574SOL    HW234359   4.588   4.642   8.828  0.0189 -1.0498  0.8676
 7575SOL     OW34360   1.701   1.838   6.714  0.0687 -0.9519  0.2778
 7575SOL    HW134361   1.755   1.913   6.691 -0.9050  0.7708  3.5137
 7575SOL    HW234362   1.751   1.759   6.691  1.3958  0.4952 -1.7483
 7576SOL     OW34363   4.100   2.532   3.418 -0.1225 -0.1339  0.0149
 7576SOL    HW134364   4.149   2.498   3.493 -1.7191 -2.2386  0.1172
 7576SOL    HW234365   4.176   2.553   3.363  0.4570 -0.5936  0.6435
 7577SOL     OW34366   1.137   0.643   2.714 -0.1949  0.8656  0.3580
 7577SOL    HW134367   1.062   0.703   2.720 -2.0734 -1.3534 -1.1077
 7577SOL    HW234368   1.160   0.620   2.804  2.6853  2.1954 -0.0234
 7578SOL     OW34369   3.535   0.663   5.449  0.4799 -0.2766  0.7436
 7578SOL    HW134370   3.616   0.674   5.401 -0.6010  1.6779 -0.6325
 7578SOL    HW234371   3.500   0.575   5.432 -0.8229  0.9190 -2.7360
 7579SOL     OW34372   1.303   0.886   9.174  0.1832 -0.1719  0.3817
 7579SOL    HW134373   1.283   0.807   9.224 -2.7363 -0.9312 -2.0338
 7579SOL    HW234374   1.382   0.889   9.228  1.5442  0.5278 -1.6696
 7580SOL     OW34375   2.531   0.645   3.129 -0.1296  0.0548 -0.2222
 7580SOL    HW134376   2.474   0.568   3.126  1.4585 -1.1095 -0.1640
 7580SOL    HW234377   2.469   0.717   3.118 -0.2299 -0.5007 -3.1985
 7581SOL     OW34378   3.510   4.376  10.875  0.0485 -0.0204 -0.5624
 7581SOL    HW134379   3.563   4.405  10.801  1.8472 -0.4964  0.5526
 7581SOL    HW234380   3.528   4.282  10.871 -2.4261 -0.5680  1.1015
 7582SOL     OW34381   3.315   0.541   0.441 -0.1244 -0.0402  0.0276
 7582SOL    HW134382   3.312   0.556   0.535 -0.0276  3.1147 -0.4984
 7582SOL    HW234383   3.234   0.588   0.423 -0.0711  0.3262  0.7746
 7583SOL     OW34384   3.454   2.283   3.683  0.4403 -0.0429 -0.1690
 7583SOL    HW134385   3.371   2.237   3.697  0.5722 -0.8287 -1.8551
 7583SOL    HW234386   3.481   2.314   3.769  2.5075  0.4375 -1.0055
 7584SOL     OW34387   1.824   2.077   3.919 -0.4213 -0.5386  0.0886
 7584SOL    HW134388   1.811   2.066   4.013 -0.0524 -1.6828  0.0093
 7584SOL    HW234389   1.873   2.159   3.922 -0.2345 -0.6350 -0.2586
 7585SOL     OW34390   0.564   1.388  11.959  0.1356  0.3668 -0.2421
 7585SOL    HW134391   0.535   1.453  12.023 -0.1438  0.2032 -0.2053
 7585SOL    HW234392   0.489   1.368  11.903  0.3961 -2.3971  0.3944
 7586SOL     OW34393   0.614   2.069   6.363 -0.7081  0.2208 -0.0896
 7586SOL    HW134394   0.527   2.109   6.358 -1.5556 -1.5555  0.6769
 7586SOL    HW234395   0.597   1.980   6.333 -1.3735 -0.4209  2.2616
 7587SOL     OW34396   4.255   2.309   6.348  0.2028 -0.1272  0.7025
 7587SOL    HW134397   4.246   2.334   6.440  0.1824  0.9584  0.4025
 7587SOL    HW234398   4.202   2.231   6.328  1.2014 -1.0737  1.7695
 7588SOL     OW34399   1.392   3.182   7.749  0.1086  0.5311 -0.2713
 7588SOL    HW134400   1.334   3.206   7.822 -1.1819 -1.3162 -0.6534
 7588SOL    HW234401   1.467   3.231   7.783  0.3036 -0.1948  0.3526
 7589SOL     OW34402   1.350   2.860   4.083  0.6206 -0.1304 -0.2266
 7589SOL    HW134403   1.439   2.829   4.096  0.2814 -0.8450  0.3801
 7589SOL    HW234404   1.342   2.909   4.166  3.3027  1.9685 -1.1978
 7590SOL     OW34405   0.389   2.407   2.447  0.0657 -0.2114  0.5034
 7590SOL    HW134406   0.466   2.359   2.477  0.8688 -0.1025 -1.3574
 7590SOL    HW234407   0.327   2.336   2.430  0.2717 -0.3418  0.2921
 7591SOL     OW34408   4.567   4.328   1.045 -0.2450 -0.2390  0.0308
 7591SOL    HW134409   4.622   4.375   1.108  1.1193 -0.4635 -0.9930
 7591SOL    HW234410   4.486   4.377   1.059  0.7706  1.9354 -1.7455
 7592SOL     OW34411   0.610   2.750   1.031 -0.6241 -0.0553  0.2906
 7592SOL    HW134412   0.620   2.670   0.979 -1.8685 -0.5330  0.7858
 7592SOL    HW234413   0.699   2.786   1.024 -1.6006  1.7938 -2.8567
 7593SOL     OW34414   1.007   2.677  16.382 -0.2928  0.0766  0.2659
 7593SOL    HW134415   0.999   2.588  16.349 -0.6959  0.7252 -1.3891
 7593SOL    HW234416   1.046   2.715  16.303 -2.3324 -1.4121 -1.4379
 7594SOL     OW34417   4.434   3.693  16.905 -0.5570  0.0053  0.2730
 7594SOL    HW134418   4.526   3.668  16.918 -1.2841 -2.4259  0.7840
 7594SOL    HW234419   4.387   3.673  16.986  0.5555  1.3190  1.2503
 7595SOL     OW34420   4.340   4.407   3.589  0.5643  0.0927 -0.3622
 7595SOL    HW134421   4.432   4.389   3.570 -0.1428 -0.3292 -3.5381
 7595SOL    HW234422   4.307   4.325   3.626  1.1864  0.0687  0.1371
 7596SOL     OW34423   2.963   2.880   7.480  0.3491  0.1975  0.3730
 7596SOL    HW134424   2.885   2.832   7.454  0.1914 -0.3315  1.8323
 7596SOL    HW234425   2.929   2.950   7.535 -1.7749 -0.1752 -0.4897
 7597SOL     OW34426   4.460   2.171   2.004 -0.7224  0.7260 -0.1328
 7597SOL    HW134427   4.517   2.202   2.075 -0.0849  0.2929 -0.4605
 7597SOL    HW234428   4.393   2.122   2.051 -0.9092  0.6384 -0.4961
 7598SOL     OW34429   0.602   1.964   1.341  0.1358 -0.5408  0.3116
 7598SOL    HW134430   0.692   1.953   1.308 -0.7702 -2.5825 -1.5220
 7598SOL    HW234431   0.600   1.876   1.378 -1.4890 -1.0543 -0.9985
 7599SOL     OW34432   0.570   2.000   1.684  0.0482  0.4520 -0.5797
 7599SOL    HW134433   0.608   1.917   1.655 -0.4997 -0.6616  1.8286
 7599SOL    HW234434   0.481   1.966   1.692  1.0942 -2.2066  0.0209
 7600SOL     OW34435   3.470   1.826   1.835  0.4544  0.1215  0.0227
 7600SOL    HW134436   3.460   1.837   1.740  2.2659 -0.8214 -0.2726
 7600SOL    HW234437   3.501   1.736   1.840 -0.3099 -0.2969 -2.3724
 7601SOL     OW34438   1.090   0.684   5.440  0.0296 -0.1692 -0.0342
 7601SOL    HW134439   1.089   0.714   5.531  1.3500 -0.7344  0.1683
 7601SOL    HW234440   1.090   0.768   5.394 -2.1063  0.9956  2.0877
 7602SOL     OW34441   2.057   0.300   9.472 -0.1671 -0.4857  0.4252
 7602SOL    HW134442   2.019   0.357   9.404 -0.0015 -2.0039 -0.9422
 7602SOL    HW234443   2.032   0.339   9.556  0.3133  1.9297 -0.5429
 7603SOL     OW34444   1.295   2.242   4.515  0.1310  0.5869 -0.3190
 7603SOL    HW134445   1.275   2.153   4.486 -2.3386  0.8447  0.5707
 7603SOL    HW234446   1.207   2.276   4.531  0.2573  0.7428  0.0400
 7604SOL     OW34447   1.792   0.095   1.348 -0.3339 -0.1213  0.4137
 7604SOL    HW134448   1.800   0.046   1.430  3.4260 -0.2542 -0.0089
 7604SOL    HW234449   1.709   0.052   1.327 -0.2627  0.6453 -1.4314
 7605SOL     OW34450   2.912   3.440   7.679  0.1306 -0.4721 -0.3187
 7605SOL    HW134451   2.969   3.382   7.729 -1.9904 -2.0625  0.2691
 7605SOL    HW234452   2.873   3.491   7.750  0.0174 -0.9334 -0.0493
 7606SOL     OW34453   4.484   3.945   2.299  0.0858  0.3322 -0.2284
 7606SOL    HW134454   4.461   3.963   2.208 -0.0667  0.5025 -0.1558
 7606SOL    HW234455   4.466   4.031   2.337 -1.7517 -0.2102  0.1350
 7607SOL     OW34456   0.380   1.039   3.282 -1.0100  0.3250  0.1060
 7607SOL    HW134457   0.472   1.015   3.273 -0.1863  3.9079 -0.6144
 7607SOL    HW234458   0.371   1.101   3.355 -3.5223 -0.3225  0.3685
 7608SOL     OW34459   0.421   0.518   8.530  0.1932 -0.2119 -0.4838
 7608SOL    HW134460   0.369   0.586   8.487 -1.0092 -0.1448  1.0746
 7608SOL    HW234461   0.502   0.529   8.480  0.1563  2.4681  0.0470
 7609SOL     OW34462   2.048   4.404  11.449 -0.3389  0.1442  0.1578
 7609SOL    HW134463   2.116   4.349  11.487 -0.1964  0.8219  0.8895
 7609SOL    HW234464   2.101   4.469  11.403  1.6824 -2.2409 -0.9085
 7610SOL     OW34465   3.477   3.503   2.559  0.3556  0.3137 -0.3719
 7610SOL    HW134466   3.556   3.453   2.540 -0.3261 -0.4541 -1.1645
 7610SOL    HW234467   3.499   3.547   2.641 -0.6667 -1.1443  0.6926
 7611SOL     OW34468   3.718   3.808   0.372 -0.3454 -0.2416  0.3169
 7611SOL    HW134469   3.629   3.798   0.339  0.3085 -0.8253 -1.2320
 7611SOL    HW234470   3.765   3.814   0.289 -0.0880 -2.3270  0.3206
 7612SOL     OW34471   0.824   3.739   8.998 -0.4505 -0.0105 -0.1733
 7612SOL    HW134472   0.882   3.739   9.075 -2.4006  0.0955  1.2906
 7612SOL    HW234473   0.887   3.739   8.926 -0.4994 -3.2922 -0.1810
 7613SOL     OW34474   1.505   3.891   4.861  0.4926 -0.0920 -0.3611
 7613SOL    HW134475   1.555   3.839   4.798 -1.0431 -0.8109 -0.9726
 7613SOL    HW234476   1.446   3.923   4.794 -1.5489 -1.5882  0.7038
 7614SOL     OW34477   2.733   4.133   9.137  0.0166  0.4853  0.0548
 7614SOL    HW134478   2.652   4.150   9.089  0.9685  1.0871 -1.3436
 7614SOL    HW234479   2.781   4.212   9.113 -1.8755  1.6695  0.1839
 7615SOL     OW34480   4.482   1.669   2.807 -0.0615 -0.3111  0.1724
 7615SOL    HW134481   4.522   1.597   2.855  1.0012 -2.0719 -3.3544
 7615SOL    HW234482   4.529   1.743   2.844  0.0200 -0.6582  0.7608
 7616SOL     OW34483   0.247   1.613   7.733  0.2456 -0.0854 -0.5256
 7616SOL    HW134484   0.309   1.626   7.805 -4.1128 -0.9932  3.3501
 7616SOL    HW234485   0.165   1.585   7.772  0.5001  0.8784  0.6848
 7617SOL     OW34486   2.925   2.852   5.793  0.4842  0.0214 -0.1652
 7617SOL    HW134487   2.891   2.809   5.872 -1.9677 -1.0354 -1.7943
 7617SOL    HW234488   2.848   2.908   5.780  0.3661 -0.3653 -1.1440
 7618SOL     OW34489   3.049   0.199   6.577  0.4976 -0.1932 -0.2166
 7618SOL    HW134490   2.993   0.246   6.639 -0.9144 -1.6901 -0.3644
 7618SOL    HW234491   3.004   0.207   6.493 -0.6272 -1.7747  0.2394
 7619SOL     OW34492   0.785   2.528   3.786 -0.4750 -0.5811  0.8270
 7619SOL    HW134493   0.788   2.529   3.881 -0.2833  0.7752  0.8040
 7619SOL    HW234494   0.746   2.609   3.752  1.4236 -0.9976 -2.4190
 7620SOL     OW34495   1.688   1.027   8.587 -0.0118  0.2770  0.2655
 7620SOL    HW134496   1.608   1.077   8.604 -0.9074 -1.4336  1.1006
 7620SOL    HW234497   1.757   1.087   8.560  0.3071  0.4046  1.3487
 7621SOL     OW34498   1.728   4.474  17.378 -0.3168 -0.2592  0.1121
 7621SOL    HW134499   1.687   4.524  17.307 -2.7793  0.5930  2.1555
 7621SOL    HW234500   1.815   4.459  17.342  0.5479  2.3201  1.1782
 7622SOL     OW34501   3.852   0.837  15.229  0.1618 -0.0865  0.4383
 7622SOL    HW134502   3.790   0.796  15.168 -0.8799  0.5364  1.0627
 7622SOL    HW234503   3.839   0.931  15.215 -2.9073 -0.4681  0.5776
 7623SOL     OW34504   0.896   1.150  17.633  0.1442 -0.0948  0.4251
 7623SOL    HW134505   0.965   1.132  17.697 -0.4016 -1.4730  0.6167
 7623SOL    HW234506   0.842   1.206  17.690  0.1050 -0.3813  0.6658
 7624SOL     OW34507   1.602   0.555   1.987  0.1796 -0.1259 -0.2450
 7624SOL    HW134508   1.673   0.610   2.020  1.7904 -0.6624 -2.8195
 7624SOL    HW234509   1.603   0.564   1.892  0.2599  2.6312  0.0164
 7625SOL     OW34510   3.045   4.193  10.876 -0.3928 -0.2364 -0.2569
 7625SOL    HW134511   3.131   4.226  10.903 -0.9773  0.7646  0.3323
 7625SOL    HW234512   3.068   4.169  10.786  3.1711 -4.7587  1.8601
 7626SOL     OW34513   1.378   1.148   6.703  0.5509  0.6095 -0.0471
 7626SOL    HW134514   1.374   1.149   6.799 -1.0409  1.7563 -0.1330
 7626SOL    HW234515   1.341   1.061   6.690 -0.9326  1.5162 -1.8982
 7627SOL     OW34516   1.441   3.685   8.404  0.4312 -0.0285 -0.5329
 7627SOL    HW134517   1.364   3.741   8.394  1.4586  1.3146 -0.8583
 7627SOL    HW234518   1.501   3.729   8.344 -0.4709  1.2657 -0.4801
 7628SOL     OW34519   0.812   3.575   2.429 -0.5458 -0.0702 -0.1177
 7628SOL    HW134520   0.901   3.558   2.458 -0.3653  0.5807 -0.2951
 7628SOL    HW234521   0.762   3.622   2.495 -2.8720 -0.9008 -1.2863
 7629SOL     OW34522   3.599   2.520   3.443  0.3934 -0.1402  0.2641
 7629SOL    HW134523   3.676   2.555   3.398  0.1179 -1.2466 -1.0587
 7629SOL    HW234524   3.617   2.545   3.534 -3.2811 -0.2710  1.0271
 7630SOL     OW34525   1.473   4.536   3.459  0.2052 -0.4728  0.2594
 7630SOL    HW134526   1.523   4.470   3.412  0.0859  0.2651 -0.8848
 7630SOL    HW234527   1.442   4.484   3.534  1.0260 -0.5614  0.5408
 7631SOL     OW34528   1.609   4.553   3.735 -0.1619  0.1220  0.2205
 7631SOL    HW134529   1.575   4.466   3.713 -2.8314  1.6131 -1.4571
 7631SOL    HW234530   1.535   4.596   3.777 -0.8459 -1.0737  0.2599
 7632SOL     OW34531   1.713   0.784   5.475 -0.3191 -0.0162 -0.3500
 7632SOL    HW134532   1.785   0.846   5.465  0.8334 -1.1163  1.0589
 7632SOL    HW234533   1.719   0.752   5.565  0.5494 -2.4186 -1.2603
 7633SOL     OW34534   3.397   0.955   6.509  0.0558  0.1786  0.3925
 7633SOL    HW134535   3.338   1.004   6.452 -1.5707 -1.5461  0.6045
 7633SOL    HW234536   3.431   0.894   6.444  0.7706 -0.6193  1.5126
 7634SOL     OW34537   2.556   1.548   6.453  0.6046  0.4705  0.1053
 7634SOL    HW134538   2.486   1.591   6.502  0.8906 -1.1930  2.0112
 7634SOL    HW234539   2.611   1.530   6.529 -1.2464 -1.0772  1.0857
 7635SOL     OW34540   4.140   0.831   7.680  0.0228 -0.2143 -0.1398
 7635SOL    HW134541   4.136   0.858   7.772  0.6977  4.4859 -1.5074
 7635SOL    HW234542   4.118   0.738   7.680  1.1645 -0.4839 -0.7226
 7636SOL     OW34543   1.251   3.959  16.339  0.1665  0.1222  0.5429
 7636SOL    HW134544   1.319   3.910  16.384  0.0185  0.7456  1.4330
 7636SOL    HW234545   1.251   3.909  16.257  3.7767 -0.1893  0.7568
 7637SOL     OW34546   1.808   1.747   5.846  0.2294 -0.0067 -0.1616
 7637SOL    HW134547   1.805   1.733   5.940  0.0656 -0.3878 -0.2214
 7637SOL    HW234548   1.725   1.707   5.819 -0.1899  0.5203  0.3639
 7638SOL     OW34549   0.307   4.719   8.177 -0.2751 -0.2923 -0.6717
 7638SOL    HW134550   0.347   0.026   8.253 -0.5657 -1.4451  0.1270
 7638SOL    HW234551   0.333   0.056   8.120  0.4132 -1.1936 -1.4997
 7639SOL     OW34552   0.117   3.654   8.531 -0.8306 -0.2266  0.0395
 7639SOL    HW134553   0.180   3.725   8.519  0.9164 -1.4387  1.9368
 7639SOL    HW234554   0.053   3.707   8.578  1.4170  2.2026  0.3860
 7640SOL     OW34555   2.637   1.777   8.654  0.1939  0.2937  0.7491
 7640SOL    HW134556   2.730   1.753   8.655  0.2800  0.4636 -2.2439
 7640SOL    HW234557   2.634   1.822   8.739 -0.6889  2.8425 -0.6335
 7641SOL     OW34558   4.439   4.141  11.268  0.0338 -0.5893  0.2851
 7641SOL    HW134559   4.369   4.089  11.307 -2.3982  1.4910 -1.3374
 7641SOL    HW234560   4.456   4.214  11.328  0.2191 -1.5494  1.3994
 7642SOL     OW34561   4.542   0.024  16.700  0.3863  0.3324  0.2057
 7642SOL    HW134562   4.497   4.683  16.664  0.0654 -0.0729  1.4570
 7642SOL    HW234563   4.542   0.088  16.630  0.3036  0.3971  0.2649
 7643SOL     OW34564   2.084   2.061  10.229 -0.2595 -0.8723  0.2071
 7643SOL    HW134565   2.053   2.001  10.161  0.3020 -3.7833  2.5406
 7643SOL    HW234566   2.026   2.034  10.301 -0.7035 -2.3750 -0.7280
 7644SOL     OW34567   0.993   0.293   6.717 -0.0093 -0.2791 -0.4498
 7644SOL    HW134568   0.939   0.352   6.769 -0.2732 -1.2564  0.3868
 7644SOL    HW234569   0.933   0.238   6.667  0.4997 -1.3564  0.1230
 7645SOL     OW34570   2.483   1.427   3.999 -0.1220  0.0558 -0.1017
 7645SOL    HW134571   2.534   1.502   4.031  0.9552 -0.8389  0.2495
 7645SOL    HW234572   2.552   1.381   3.952  1.6072  1.4337  1.0954
 7646SOL     OW34573   2.647   4.359   4.973  0.4585 -0.4247 -0.4646
 7646SOL    HW134574   2.600   4.352   5.056 -0.9529  0.7478 -1.1826
 7646SOL    HW234575   2.589   4.414   4.921 -0.1787 -2.4120 -1.8598
 7647SOL     OW34576   2.140   4.303   2.008  0.1965  0.4597  0.7433
 7647SOL    HW134577   2.207   4.339   2.066  1.2391 -0.6488  0.2197
 7647SOL    HW234578   2.152   4.342   1.921 -1.2923  2.8115  1.5918
 7648SOL     OW34579   3.334   0.250   9.082 -0.0532 -0.6454 -0.3315
 7648SOL    HW134580   3.240   0.264   9.093 -0.0455  0.4263 -1.6866
 7648SOL    HW234581   3.370   0.338   9.082 -1.3561 -0.1049 -3.5049
 7649SOL     OW34582   2.663   2.907  10.777  0.5915 -0.1307  0.6294
 7649SOL    HW134583   2.701   2.823  10.754 -1.2097 -1.2558  1.7662
 7649SOL    HW234584   2.607   2.864  10.841 -1.2542  1.3571  0.0222
 7650SOL     OW34585   0.434   0.647   0.786 -0.3934  0.7241 -0.2829
 7650SOL    HW134586   0.410   0.646   0.878 -0.6715  0.5456 -0.3582
 7650SOL    HW234587   0.363   0.699   0.747 -1.2646 -0.2040  0.0769
 7651SOL     OW34588   0.831   0.179   9.208  0.4948  0.2527  0.2634
 7651SOL    HW134589   0.876   0.193   9.125 -2.0617 -0.3600 -1.2484
 7651SOL    HW234590   0.738   0.183   9.184  0.2904 -0.5752  0.9304
 7652SOL     OW34591   1.521   2.772   4.822  0.4236 -0.6375  0.3907
 7652SOL    HW134592   1.588   2.782   4.890  2.4479  1.2299 -1.8975
 7652SOL    HW234593   1.463   2.710   4.866 -0.9621  0.9998  0.8363
 7653SOL     OW34594   1.991   1.152   5.321 -0.1514 -0.1622  0.6927
 7653SOL    HW134595   2.075   1.194   5.306 -0.5226  0.3831  0.1565
 7653SOL    HW234596   1.957   1.162   5.232 -2.3800 -0.5882  1.4961
 7654SOL     OW34597   2.930   2.822  12.183 -0.1658 -0.2510  0.6014
 7654SOL    HW134598   2.851   2.849  12.136 -0.5203 -2.8785 -0.3371
 7654SOL    HW234599   2.920   2.880  12.259 -1.7632 -1.0725  1.0350
 7655SOL     OW34600   3.048   0.835  16.953 -0.2185 -0.4773 -0.5671
 7655SOL    HW134601   3.070   0.772  17.021  1.1091  1.0295  0.3878
 7655SOL    HW234602   3.024   0.765  16.892  0.9052 -0.9823 -0.4103
 7656SOL     OW34603   4.468   1.003   4.104 -0.0840 -0.6682  0.0700
 7656SOL    HW134604   4.444   1.094   4.119  0.0038 -0.9635  2.0271
 7656SOL    HW234605   4.506   1.007   4.017  0.5726 -0.8994  0.3430
 7657SOL     OW34606   1.642   2.064   1.121 -0.1143 -0.4623  0.4274
 7657SOL    HW134607   1.722   2.081   1.071  0.8857  0.6273  2.3903
 7657SOL    HW234608   1.594   2.018   1.052  0.1510 -0.7448  0.4301
 7658SOL     OW34609   0.555   4.507   9.676  0.5040 -0.0942  0.0954
 7658SOL    HW134610   0.494   4.440   9.705  0.0744 -0.4042 -1.5511
 7658SOL    HW234611   0.598   4.464   9.603  0.5202  0.5951 -0.3067
 7659SOL     OW34612   3.767   2.326  10.677  0.4095  0.4775  0.3752
 7659SOL    HW134613   3.702   2.256  10.667  1.6498 -0.2378 -2.6457
 7659SOL    HW234614   3.851   2.279  10.680 -0.7743 -1.6759 -0.0007
 7660SOL     OW34615   0.903   1.882   8.506 -0.2013  0.0559 -0.7421
 7660SOL    HW134616   0.873   1.796   8.477 -0.3531 -0.3437  0.6207
 7660SOL    HW234617   0.964   1.857   8.576 -0.6877 -1.0693 -0.7288
 7661SOL     OW34618   4.368   2.467   9.179  0.1351 -0.4922 -0.5643
 7661SOL    HW134619   4.274   2.458   9.164 -0.1316  2.4129 -0.6287
 7661SOL    HW234620   4.396   2.378   9.199 -2.6690 -1.1600  0.4548
 7662SOL     OW34621   2.381   4.067   9.084 -0.2563 -0.4372 -0.4270
 7662SOL    HW134622   2.339   4.132   9.141  0.1501  0.8269 -1.5885
 7662SOL    HW234623   2.409   3.995   9.141  1.4954  0.0911 -0.6376
 7663SOL     OW34624   1.360   3.422   3.029  0.2615  0.2415  0.2770
 7663SOL    HW134625   1.282   3.471   3.003 -0.9425 -2.1260 -0.5836
 7663SOL    HW234626   1.414   3.457   2.958  0.2007  2.1983  1.2015
 7664SOL     OW34627   0.699   3.909   9.408 -0.1506  0.2582 -0.0263
 7664SOL    HW134628   0.688   3.950   9.323 -0.7323  0.6861  0.2554
 7664SOL    HW234629   0.609   3.897   9.437 -0.5368  0.3298 -1.2272
 7665SOL     OW34630   1.244   3.388   8.302 -0.2454 -0.4883 -0.2455
 7665SOL    HW134631   1.285   3.417   8.221  0.4981 -1.3049 -0.1532
 7665SOL    HW234632   1.161   3.367   8.258 -0.5755 -4.2173  2.1452
 7666SOL     OW34633   0.260   2.018   2.448  0.1354 -0.0055  0.3784
 7666SOL    HW134634   0.324   1.949   2.428 -0.1927 -0.3595  0.5536
 7666SOL    HW234635   0.184   1.983   2.400  1.5918 -1.9910 -0.5113
 7667SOL     OW34636   0.740   4.002   8.423 -0.2992 -0.0180 -0.8399
 7667SOL    HW134637   0.772   4.044   8.344 -0.4868 -0.9054 -1.3918
 7667SOL    HW234638   0.825   3.987   8.465 -0.0767  0.2045 -1.2140
 7668SOL     OW34639   2.706   0.838  12.455  0.2352 -0.4554  0.1018
 7668SOL    HW134640   2.611   0.827  12.450  0.2606 -0.7410  0.2248
 7668SOL    HW234641   2.714   0.896  12.531 -2.0019 -0.4817  0.3670
 7669SOL     OW34642   1.517   0.009   7.221  0.0404  0.4294 -0.0623
 7669SOL    HW134643   1.608   4.723   7.241 -0.4261 -1.4390 -0.0306
 7669SOL    HW234644   1.518   0.105   7.229 -1.1562  0.5219 -1.0717
 7670SOL     OW34645   1.652   2.173   0.680  0.3735 -0.4145  0.0157
 7670SOL    HW134646   1.738   2.153   0.642  0.9191 -2.5934  2.3693
 7670SOL    HW234647   1.684   2.240   0.740  1.3640 -2.1447  1.4259
 7671SOL     OW34648   2.052   0.929   6.681  0.9617 -0.3431  0.0498
 7671SOL    HW134649   2.038   0.836   6.661 -0.4208 -0.3751  1.2043
 7671SOL    HW234650   2.114   0.957   6.614  1.1199 -1.7018 -0.3690
 7672SOL     OW34651   3.664   3.032   3.096  0.1804 -0.0298 -0.3052
 7672SOL    HW134652   3.636   2.944   3.122  1.1886 -0.5419 -0.9886
 7672SOL    HW234653   3.689   3.059   3.185  0.7780 -1.0674 -0.1524
 7673SOL     OW34654   3.604   0.287   7.183 -0.3920  0.2454 -0.3316
 7673SOL    HW134655   3.540   0.297   7.113 -0.0076  0.8025 -0.6021
 7673SOL    HW234656   3.566   0.351   7.244  0.0167  0.7138 -0.5655
 7674SOL     OW34657   1.447   4.176   4.091 -0.1962 -0.5351 -0.0182
 7674SOL    HW134658   1.354   4.182   4.112 -0.4378 -0.3274 -1.1507
 7674SOL    HW234659   1.450   4.260   4.046  0.3952  0.0861  1.2050
 7675SOL     OW34660   2.159   1.272   8.468 -0.4656 -0.4353 -0.0140
 7675SOL    HW134661   2.225   1.230   8.413  0.4708  0.7690  0.1827
 7675SOL    HW234662   2.204   1.329   8.531 -3.8361 -0.3581  2.3306
 7676SOL     OW34663   1.359   1.943   3.164 -0.1748  0.9805  0.0849
 7676SOL    HW134664   1.305   1.934   3.243  0.5444 -1.3744  0.3363
 7676SOL    HW234665   1.289   1.984   3.115 -0.4174  2.0729  1.3565
 7677SOL     OW34666   2.541   2.431   6.804 -0.0005 -0.2185 -0.0583
 7677SOL    HW134667   2.616   2.482   6.835 -1.4746  1.6705  0.3913
 7677SOL    HW234668   2.481   2.482   6.858 -0.1837  0.7658 -1.2140
 7678SOL     OW34669   1.397   4.005   1.251 -0.2035 -0.0881  0.5386
 7678SOL    HW134670   1.445   4.081   1.284 -1.5456  0.3319  1.5036
 7678SOL    HW234671   1.378   4.044   1.166 -3.1106  1.8636  2.0725
 7679SOL     OW34672   1.971   3.745  16.992  0.1517 -0.2878  1.0501
 7679SOL    HW134673   2.033   3.781  16.928  1.9318  0.4419  3.1920
 7679SOL    HW234674   1.978   3.810  17.062  1.4926 -0.4951  1.1247
 7680SOL     OW34675   3.146   4.072  14.097  0.0839 -0.1288  0.3159
 7680SOL    HW134676   3.185   4.071  14.010  1.7964  0.8474  1.0691
 7680SOL    HW234677   3.200   4.140  14.137 -0.6110  0.6171 -0.0067
 7681SOL     OW34678   1.833   1.386   8.695 -0.1795 -0.1862 -0.1801
 7681SOL    HW134679   1.815   1.345   8.611 -0.5682  1.0521 -0.7013
 7681SOL    HW234680   1.768   1.341   8.749  0.6465 -0.1060  0.8890
 7682SOL     OW34681   2.827   1.465   7.892 -0.2118 -0.2145 -0.2906
 7682SOL    HW134682   2.825   1.370   7.877 -0.7789 -0.2449  0.0000
 7682SOL    HW234683   2.863   1.511   7.816  1.6100 -0.9857  0.1102
 7683SOL     OW34684   4.148   0.874   0.499 -0.5107 -0.1572 -0.0961
 7683SOL    HW134685   4.099   0.864   0.580  0.6855  1.5156  0.8135
 7683SOL    HW234686   4.204   0.947   0.525 -2.9351  1.2693  1.1474
 7684SOL     OW34687   4.632   4.060   4.097 -0.1656 -0.2332  0.0497
 7684SOL    HW134688   4.593   4.028   4.178 -2.2761  0.6228 -0.6183
 7684SOL    HW234689   4.672   3.978   4.067 -0.2493 -0.9672  1.9571
 7685SOL     OW34690   2.037   1.828   4.162  0.7419 -0.3187  0.0251
 7685SOL    HW134691   2.096   1.752   4.168  0.5201 -0.5858 -1.1596
 7685SOL    HW234692   2.038   1.835   4.067  0.3699 -0.5299  0.0078
 7686SOL     OW34693   2.394   0.141  14.343 -0.3423  0.1906  0.5542
 7686SOL    HW134694   2.347   0.123  14.262 -1.4464 -0.4153  1.3203
 7686SOL    HW234695   2.336   0.207  14.380  0.3384  1.1345 -0.0757
 7687SOL     OW34696   4.513   1.514   3.242 -0.0115  0.2968 -0.0114
 7687SOL    HW134697   4.569   1.517   3.319 -0.0765 -2.6460  0.1248
 7687SOL    HW234698   4.577   1.516   3.171 -0.5913 -0.1860 -0.5457
 7688SOL     OW34699   4.622   2.559   7.645  0.4832 -0.2743 -0.6190
 7688SOL    HW134700   4.658   2.564   7.733 -0.1818  2.8602 -0.5227
 7688SOL    HW234701   4.691   2.517   7.594  0.2649 -0.2190 -0.9680
 7689SOL     OW34702   3.385   3.236   2.241 -0.4068 -0.6358 -0.1862
 7689SOL    HW134703   3.338   3.307   2.284  0.4005 -0.1820 -0.0599
 7689SOL    HW234704   3.372   3.253   2.148 -0.2667 -0.9396 -0.2627
 7690SOL     OW34705   2.771   0.627   3.482  0.4943  0.8026 -0.3176
 7690SOL    HW134706   2.751   0.558   3.545 -0.0540 -0.1773 -1.5814
 7690SOL    HW234707   2.696   0.684   3.501 -1.0121 -1.3514  0.2323
 7691SOL     OW34708   3.054   3.615  16.127  0.2846  0.0900  0.2730
 7691SOL    HW134709   3.100   3.664  16.059 -1.3679  0.3394 -0.6737
 7691SOL    HW234710   2.966   3.598  16.093  0.5368  0.2357 -0.4659
 7692SOL     OW34711   3.049   3.783   7.510 -0.2022 -0.2371  0.6595
 7692SOL    HW134712   3.017   3.702   7.471 -0.6644 -0.1887  0.9503
 7692SOL    HW234713   2.988   3.800   7.581 -0.7530 -1.9516  0.6049
 7693SOL     OW34714   0.863   0.915   2.532 -0.1698 -0.2574 -0.1248
 7693SOL    HW134715   0.941   0.865   2.511 -0.4691 -0.3013 -1.1044
 7693SOL    HW234716   0.857   0.908   2.628 -2.6514 -1.1114 -0.3388
 7694SOL     OW34717   3.063   4.170  11.763  0.0420 -0.4726  0.2480
 7694SOL    HW134718   3.034   4.110  11.831  2.4279 -1.0774  0.7387
 7694SOL    HW234719   3.142   4.206  11.805 -0.8608  1.6214  0.1271
 7695SOL     OW34720   0.450   1.611   0.769  0.1593  0.8918 -0.4034
 7695SOL    HW134721   0.515   1.631   0.836  0.6217  1.5521 -1.0493
 7695SOL    HW234722   0.376   1.664   0.797 -0.0516  0.5361 -0.2848
 7696SOL     OW34723   2.117   3.193   2.061  0.1346  0.5838 -0.4405
 7696SOL    HW134724   2.120   3.227   2.150  1.6703  0.3033 -0.3776
 7696SOL    HW234725   2.204   3.217   2.028 -0.2711 -0.7926 -2.5086
 7697SOL     OW34726   1.973   3.499   6.194  0.4341 -0.3038  0.1138
 7697SOL    HW134727   1.936   3.433   6.136 -0.5972 -1.0510  1.6175
 7697SOL    HW234728   2.019   3.445   6.258  0.5582 -1.4725 -0.9614
 7698SOL     OW34729   2.307   2.475   4.253 -0.0062  0.3825  0.2585
 7698SOL    HW134730   2.382   2.479   4.312  1.0457  1.6131 -1.1951
 7698SOL    HW234731   2.321   2.554   4.201 -1.5072  0.8406  0.5585
 7699SOL     OW34732   0.972   1.276   5.347  0.2806  0.7561 -0.4032
 7699SOL    HW134733   1.036   1.287   5.418  2.1977 -2.4959 -1.6588
 7699SOL    HW234734   0.934   1.364   5.356 -0.8728  0.3153 -0.9682
 7700SOL     OW34735   0.153   2.135   2.201  0.3426 -0.0370  0.2153
 7700SOL    HW134736   0.104   2.157   2.281 -2.1083  1.6386 -1.7644
 7700SOL    HW234737   0.128   2.214   2.153 -3.9987 -1.6170 -0.1206
 7701SOL     OW34738   4.036   3.999   3.847  0.5940 -0.2812  0.3999
 7701SOL    HW134739   4.004   3.994   3.757  0.0889 -1.6258  0.6617
 7701SOL    HW234740   3.976   4.065   3.882  1.2653 -0.1580  1.3310
 7702SOL     OW34741   1.194   2.623   7.206 -0.1335  0.3070 -0.6037
 7702SOL    HW134742   1.213   2.532   7.185  0.8493 -0.1294  2.1987
 7702SOL    HW234743   1.264   2.663   7.155 -0.8752  0.4496 -1.5248
 7703SOL     OW34744   0.102   1.589  13.026  0.6734 -0.0416 -0.4961
 7703SOL    HW134745   0.181   1.643  13.024 -0.4235  1.6599  1.2751
 7703SOL    HW234746   0.059   1.616  13.107  0.3193 -1.2203 -0.2911
 7704SOL     OW34747   2.810   2.965   9.903  0.4693 -0.1942 -0.3235
 7704SOL    HW134748   2.872   2.989   9.834 -0.3865 -0.7204 -1.2857
 7704SOL    HW234749   2.752   3.041   9.893  0.3069 -0.4317 -1.2142
 7705SOL     OW34750   1.400   4.082   7.977  0.3505  0.0737 -0.4168
 7705SOL    HW134751   1.309   4.100   7.953 -0.4801 -3.7219 -0.1050
 7705SOL    HW234752   1.450   4.099   7.897  1.0117  0.3796  0.0617
 7706SOL     OW34753   4.033   4.450  10.664  0.1485  0.2348 -0.1820
 7706SOL    HW134754   4.124   4.433  10.691 -0.0297  0.3479  0.4950
 7706SOL    HW234755   3.983   4.407  10.734 -1.8981  2.9985  0.0063
 7707SOL     OW34756   2.586   4.669   6.503 -0.3360 -0.8753 -0.0552
 7707SOL    HW134757   2.646   4.724   6.553  2.0987 -2.0672 -1.7095
 7707SOL    HW234758   2.530   4.620   6.563 -0.5791 -0.0133  0.4209
 7708SOL     OW34759   3.450   2.213   7.754  0.1320 -0.5530 -0.0131
 7708SOL    HW134760   3.396   2.216   7.674  0.8572  0.7852 -0.4512
 7708SOL    HW234761   3.457   2.306   7.776  0.2002 -0.4496 -0.4681
 7709SOL     OW34762   0.534   3.662   7.848  0.0425 -0.5513  0.4527
 7709SOL    HW134763   0.546   3.611   7.768 -0.3139 -1.2973  0.8774
 7709SOL    HW234764   0.445   3.639   7.874 -0.7191  1.2049 -0.6399
 7710SOL     OW34765   2.065   4.065  15.982  0.0339  0.0782 -0.3074
 7710SOL    HW134766   2.082   3.998  16.048  3.5403  2.0564  0.7879
 7710SOL    HW234767   2.105   4.145  16.016  0.9446  0.0023 -1.1975
 7711SOL     OW34768   2.847   2.089   3.942  0.5714  0.5287  0.3425
 7711SOL    HW134769   2.752   2.104   3.936  0.3937 -0.5061  0.5858
 7711SOL    HW234770   2.859   2.068   4.034  0.8148  1.5989  0.5515
 7712SOL     OW34771   3.105   4.317   7.500 -0.0856 -0.5713 -0.0482
 7712SOL    HW134772   3.086   4.225   7.485  0.6680 -0.8556  0.7572
 7712SOL    HW234773   3.039   4.334   7.568  1.9413 -2.7277  2.4449
 7713SOL     OW34774   0.853   3.482  13.318 -0.0024  0.2577  0.0907
 7713SOL    HW134775   0.759   3.465  13.317  0.1776 -0.7488  0.1856
 7713SOL    HW234776   0.873   3.499  13.226 -1.5648 -0.3877 -0.3618
 7714SOL     OW34777   0.953   3.274  15.631 -0.9090  0.4143 -0.2896
 7714SOL    HW134778   0.986   3.267  15.721 -0.5450  2.3353 -0.2799
 7714SOL    HW234779   0.923   3.363  15.649  0.3918  0.6718  0.6477
 7715SOL     OW34780   4.145   2.209   7.546 -0.3279  0.7127  0.0539
 7715SOL    HW134781   4.116   2.258   7.623 -2.1530  2.1165 -1.5184
 7715SOL    HW234782   4.152   2.278   7.481  2.9685 -0.7398 -1.1387
 7716SOL     OW34783   4.251   4.390  13.689 -0.2870 -0.8527 -0.3248
 7716SOL    HW134784   4.272   4.483  13.695 -0.3554 -0.7935 -1.0097
 7716SOL    HW234785   4.332   4.357  13.727 -1.0941 -1.2472  1.0621
 7717SOL     OW34786   0.008   1.907   3.880 -0.4698  0.3438  0.1940
 7717SOL    HW134787   0.085   1.875   3.833 -0.4851  0.6755 -0.0500
 7717SOL    HW234788   4.690   1.934   3.806 -0.2555 -0.7896 -0.3749
 7718SOL     OW34789   0.942   1.645   7.430  0.0005 -0.2533  0.8409
 7718SOL    HW134790   1.012   1.585   7.402 -1.3635 -0.4041 -2.2583
 7718SOL    HW234791   0.961   1.720   7.372 -1.0236 -0.5001  0.1900
 7719SOL     OW34792   0.717   0.537   5.534  0.0569  0.1808  0.5227
 7719SOL    HW134793   0.678   0.621   5.559 -1.0360 -0.1105 -0.2306
 7719SOL    HW234794   0.646   0.473   5.536 -0.6176  0.8744 -1.1286
 7720SOL     OW34795   2.164   3.014  16.073 -0.0456 -0.5669  0.4172
 7720SOL    HW134796   2.177   3.018  15.979  1.3318  1.3886  0.6963
 7720SOL    HW234797   2.112   3.093  16.089  2.1372  1.3246 -1.6867
 7721SOL     OW34798   2.489   3.865  14.510 -0.4834 -0.5706  0.2581
 7721SOL    HW134799   2.541   3.880  14.431  0.0885  0.3586  0.8057
 7721SOL    HW234800   2.513   3.774  14.522 -0.6897 -0.6977 -0.3283
 7722SOL     OW34801   0.856   3.018  16.738  0.8356  0.2186  0.1661
 7722SOL    HW134802   0.846   2.965  16.659  1.4676  0.8522 -0.3371
 7722SOL    HW234803   0.767   3.011  16.771  0.3238 -0.5540 -1.4038
 7723SOL     OW34804   2.753   0.407   7.786 -0.4201 -0.1876  0.0950
 7723SOL    HW134805   2.678   0.394   7.844  1.0082 -0.6876  1.8382
 7723SOL    HW234806   2.824   0.416   7.849 -1.6107 -0.5731  1.5025
 7724SOL     OW34807   3.107   1.081   7.948  0.0046 -0.3142  0.9469
 7724SOL    HW134808   3.053   1.120   8.017 -0.9897 -2.0878  1.1694
 7724SOL    HW234809   3.174   1.036   7.998  1.4358 -2.0675 -2.5156
 7725SOL     OW34810   3.385   4.035   3.836  0.0195  0.1764  0.1310
 7725SOL    HW134811   3.353   4.082   3.759 -2.4098  1.2222  1.7773
 7725SOL    HW234812   3.396   3.946   3.804 -2.1025 -0.3468  0.8704
 7726SOL     OW34813   4.505   3.333  13.654  0.5876  0.2596  0.5895
 7726SOL    HW134814   4.552   3.303  13.732  1.8882  0.4629 -0.1087
 7726SOL    HW234815   4.433   3.270  13.653 -0.0216  0.9710 -1.0018
 7727SOL     OW34816   4.502   2.634   4.267  0.4439  0.0293 -0.0557
 7727SOL    HW134817   4.432   2.699   4.278  0.6601  0.3047 -0.3157
 7727SOL    HW234818   4.572   2.665   4.324 -0.2058 -0.1719  0.8552
 7728SOL     OW34819   4.480   4.096   9.131  0.0846  0.7797 -0.1432
 7728SOL    HW134820   4.416   4.052   9.188 -0.6377  2.0392  0.0042
 7728SOL    HW234821   4.438   4.180   9.118 -2.2043  0.0687  2.7276
 7729SOL     OW34822   0.301   0.205   2.615  0.4362 -0.2013 -0.2080
 7729SOL    HW134823   0.375   0.244   2.568  0.0220 -0.7098 -1.2951
 7729SOL    HW234824   0.264   0.136   2.560  2.5750 -0.5536 -1.2170
 7730SOL     OW34825   1.295   2.302  10.328 -0.6188  0.3068 -0.0862
 7730SOL    HW134826   1.299   2.343  10.415 -0.0238 -0.2236  0.1293
 7730SOL    HW234827   1.224   2.353  10.289 -1.6353 -0.2811  0.9790
 7731SOL     OW34828   3.487   2.591  15.664 -0.1528 -0.4671  0.7480
 7731SOL    HW134829   3.405   2.627  15.700  0.0237  2.0566 -1.3071
 7731SOL    HW234830   3.530   2.674  15.645  1.1234 -1.4392 -0.5319
 7732SOL     OW34831   4.311   2.069   3.056 -0.1813  0.8749 -0.1401
 7732SOL    HW134832   4.383   2.050   2.996 -1.7880 -1.3647 -1.3535
 7732SOL    HW234833   4.359   2.123   3.118 -0.0025  0.9154 -0.3129
 7733SOL     OW34834   2.976   1.942   0.884 -0.0075  0.1626  0.0759
 7733SOL    HW134835   2.988   2.037   0.881  1.7889 -0.0054  2.4466
 7733SOL    HW234836   2.996   1.928   0.791  0.1284  2.0416 -0.1835
 7734SOL     OW34837   4.238   2.888   7.267 -0.3153 -0.4847 -0.4202
 7734SOL    HW134838   4.267   2.797   7.271  2.1057  0.2591 -0.7007
 7734SOL    HW234839   4.142   2.885   7.269 -0.3099 -0.6347 -0.3876
 7735SOL     OW34840   4.692   0.382   7.252 -0.0823 -0.5407  0.3132
 7735SOL    HW134841   0.044   0.413   7.273 -0.8160  2.1252 -0.6131
 7735SOL    HW234842   4.707   0.288   7.267 -0.9067 -0.5493  1.0964
 7736SOL     OW34843   3.612   0.108  14.047  0.0034  0.0956  0.1032
 7736SOL    HW134844   3.639   0.090  14.138  0.8145 -0.1935 -0.1933
 7736SOL    HW234845   3.625   0.202  14.039 -1.1472  0.0792 -2.0401
 7737SOL     OW34846   3.644   2.323   8.015  0.0915 -0.0753 -0.0771
 7737SOL    HW134847   3.700   2.266   7.961  1.0671 -0.0394  0.8876
 7737SOL    HW234848   3.684   2.406   7.990  0.4780 -0.3964 -0.5443
 7738SOL     OW34849   0.685   1.991  16.079 -0.6438 -0.4388  0.1700
 7738SOL    HW134850   0.731   2.008  16.161  0.8145  0.4127 -0.8351
 7738SOL    HW234851   0.635   1.915  16.109  0.5417 -0.7482  1.3610
 7739SOL     OW34852   1.513   4.367   4.717 -0.0545 -0.0094  0.5363
 7739SOL    HW134853   1.557   4.444   4.682 -1.0562  0.0258 -0.6544
 7739SOL    HW234854   1.563   4.353   4.798  1.5042 -1.2568 -0.6577
 7740SOL     OW34855   4.216   1.910  14.993  0.2808 -0.0061  0.1185
 7740SOL    HW134856   4.192   1.937  15.081 -1.1565 -0.3418 -0.1854
 7740SOL    HW234857   4.197   1.991  14.946  1.1514 -0.2803 -0.7108
 7741SOL     OW34858   3.041   4.028  15.847 -0.1457  0.2709  0.6827
 7741SOL    HW134859   3.033   3.965  15.918 -0.1836  1.1421  1.4464
 7741SOL    HW234860   2.966   4.012  15.789 -0.4727  0.5941  1.0161
 7742SOL     OW34861   0.725   1.023  14.347 -0.2532  0.3647 -0.5780
 7742SOL    HW134862   0.649   0.996  14.296 -0.0884 -1.4612  0.1546
 7742SOL    HW234863   0.694   1.094  14.403 -0.5416 -0.0242 -0.2430
 7743SOL     OW34864   0.316   1.119   0.822 -0.1332 -0.5975  1.3480
 7743SOL    HW134865   0.320   1.085   0.733  0.7996  0.2502  1.0644
 7743SOL    HW234866   0.410   1.129   0.835 -0.5681  2.7674  1.9935
 7744SOL     OW34867   1.842   3.203   1.959 -0.2354 -0.0416 -0.0214
 7744SOL    HW134868   1.812   3.115   1.982 -2.4091  0.1423 -2.1116
 7744SOL    HW234869   1.923   3.211   2.008  0.6416 -0.2982 -1.4186
 7745SOL     OW34870   3.998   1.226   0.552  1.2162 -0.6600 -0.5695
 7745SOL    HW134871   4.090   1.243   0.574  1.1010  1.3284 -1.6569
 7745SOL    HW234872   3.962   1.235   0.640  3.8502  0.6068  0.3668
 7746SOL     OW34873   2.896   1.305   5.960 -0.1146 -0.7701  0.1135
 7746SOL    HW134874   2.836   1.375   5.986  1.4261  0.1185  1.2333
 7746SOL    HW234875   2.913   1.331   5.869 -1.5141  3.3177  1.0532
 7747SOL     OW34876   3.290   1.779   0.885 -0.2675  0.1775 -0.1568
 7747SOL    HW134877   3.314   1.694   0.848  0.0489  0.2985 -0.2257
 7747SOL    HW234878   3.305   1.848   0.820  0.6582  1.2979  1.2570
 7748SOL     OW34879   0.096   0.815   6.552 -0.1702 -0.0668  0.2070
 7748SOL    HW134880   0.037   0.764   6.607 -0.4810 -1.5016 -1.4594
 7748SOL    HW234881   0.056   0.902   6.560 -2.5610 -1.0396 -1.3446
 7749SOL     OW34882   4.528   1.560   3.977 -0.2322  0.3224  0.0561
 7749SOL    HW134883   4.487   1.582   4.061 -0.1568  0.6475  0.0107
 7749SOL    HW234884   4.493   1.628   3.920  1.7707  1.4874  0.1990
 7750SOL     OW34885   2.271   0.586  10.652  0.2890 -0.1411  0.4648
 7750SOL    HW134886   2.345   0.541  10.693 -0.4757 -2.1397 -0.3422
 7750SOL    HW234887   2.192   0.570  10.704 -0.2478 -2.0537 -0.9528
 7751SOL     OW34888   1.404   4.336  11.251  0.0399 -0.1978  0.0081
 7751SOL    HW134889   1.384   4.300  11.337 -4.0554 -0.6329 -1.1532
 7751SOL    HW234890   1.420   4.265  11.188 -0.1855  1.2847 -1.7325
 7752SOL     OW34891   0.644   2.472   6.939  0.0343 -0.4947 -0.0106
 7752SOL    HW134892   0.677   2.406   7.000 -0.7862 -0.2152  0.7397
 7752SOL    HW234893   0.575   2.424   6.894 -0.7629  1.2391 -0.6503
 7753SOL     OW34894   4.033   1.715   4.513  0.5813  0.0632 -0.1113
 7753SOL    HW134895   3.947   1.736   4.552  0.7445 -2.3385  1.5479
 7753SOL    HW234896   4.055   1.639   4.566  2.7230  0.0299 -1.0514
 7754SOL     OW34897   0.129   4.338   1.828  0.2692 -0.4465  0.0843
 7754SOL    HW134898   0.043   4.351   1.869 -0.0461  0.3157 -0.8242
 7754SOL    HW234899   0.188   4.335   1.903 -0.2252  0.2810  0.5116
 7755SOL     OW34900   0.398   2.060   8.617 -0.4342  0.1346 -0.7620
 7755SOL    HW134901   0.408   2.150   8.649  1.0084 -0.1648 -0.4037
 7755SOL    HW234902   0.484   2.029   8.645 -0.4371  0.3809 -0.4799
 7756SOL     OW34903   3.608   3.095   5.796 -0.3904  0.3337  0.3324
 7756SOL    HW134904   3.617   3.144   5.714  1.5635 -0.5407  0.0345
 7756SOL    HW234905   3.696   3.119   5.827 -0.2541  1.4693 -0.9520
 7757SOL     OW34906   0.574   2.661  16.278 -0.3233  0.8150 -0.2444
 7757SOL    HW134907   0.508   2.702  16.222  0.1682  1.5268 -0.3054
 7757SOL    HW234908   0.542   2.691  16.363  1.7933  3.1212 -0.2645
 7758SOL     OW34909   3.651   3.349   4.529  0.1845 -0.3587 -0.0716
 7758SOL    HW134910   3.702   3.277   4.567 -2.5230 -0.9442  2.4185
 7758SOL    HW234911   3.661   3.315   4.440  2.7173 -0.9172  0.4048
 7759SOL     OW34912   4.691   0.762   8.413 -0.2487  0.1608  0.1495
 7759SOL    HW134913   4.660   0.851   8.396 -1.0245  0.0299  0.9271
 7759SOL    HW234914   4.673   0.757   8.507  0.7260 -0.1703  0.3112
 7760SOL     OW34915   1.681   1.686  11.897 -0.1548  0.0397  0.1524
 7760SOL    HW134916   1.677   1.640  11.813  2.5335  1.2026 -0.6098
 7760SOL    HW234917   1.775   1.705  11.895 -0.2455  0.4707 -0.0782
 7761SOL     OW34918   4.714   0.323   3.826 -0.1786 -0.0244 -0.1676
 7761SOL    HW134919   4.660   0.280   3.892 -2.5878  0.7905 -1.6165
 7761SOL    HW234920   4.705   0.414   3.852 -0.7977  0.2661 -1.3792
 7762SOL     OW34921   4.538   2.238   6.292  0.1411 -0.4018 -0.0180
 7762SOL    HW134922   4.451   2.279   6.297  0.6214  0.6761 -0.5006
 7762SOL    HW234923   4.544   2.203   6.203 -0.2180  3.4431 -1.5780
 7763SOL     OW34924   2.870   2.488  17.241  0.6290  0.0900  0.4033
 7763SOL    HW134925   2.824   2.450  17.315  1.3101  0.9522  1.2639
 7763SOL    HW234926   2.955   2.445  17.249  0.5430  0.1551  1.6684
 7764SOL     OW34927   0.792   2.434   7.968  0.2989  0.0718  0.0820
 7764SOL    HW134928   0.851   2.360   7.983 -0.7098 -1.0101 -1.2644
 7764SOL    HW234929   0.761   2.440   8.058  0.8980  1.7544  0.1736
 7765SOL     OW34930   3.284   0.585  13.558 -0.3680 -0.1310 -0.3613
 7765SOL    HW134931   3.317   0.566  13.646 -1.2659 -0.0813 -0.0101
 7765SOL    HW234932   3.224   0.516  13.531 -0.7218 -0.2552  0.7639
 7766SOL     OW34933   0.106   4.656   2.842 -0.4959 -0.5416  0.2116
 7766SOL    HW134934   0.023   4.638   2.798 -0.0192 -1.8205 -0.1387
 7766SOL    HW234935   0.113   4.573   2.889 -1.8146 -0.0790  1.2393
 7767SOL     OW34936   2.334   3.144   0.229 -0.4804  0.0704 -0.1352
 7767SOL    HW134937   2.425   3.113   0.235 -0.5510 -0.0531  0.2547
 7767SOL    HW234938   2.314   3.120   0.319  2.1574 -1.9075 -0.0592
 7768SOL     OW34939   0.119   0.794   9.502 -0.4044 -0.1358 -0.0957
 7768SOL    HW134940   0.119   0.758   9.590  1.0849  2.1907  0.8514
 7768SOL    HW234941   0.101   0.718   9.446 -2.5759  1.4720 -1.5984
 7769SOL     OW34942   1.087   2.682   6.157 -0.2844  0.4122  0.2665
 7769SOL    HW134943   1.164   2.640   6.195 -0.2022  0.7140  0.4367
 7769SOL    HW234944   1.046   2.615   6.102 -0.0895 -0.7475  1.5202
 7770SOL     OW34945   3.114   1.855   8.482  0.0096  0.3335  0.2228
 7770SOL    HW134946   3.030   1.815   8.504 -1.2164  1.9277 -1.6197
 7770SOL    HW234947   3.131   1.810   8.400  2.1402  0.9923  0.3182
 7771SOL     OW34948   2.955   3.032  17.522  0.0515  0.8400  0.3704
 7771SOL    HW134949   2.911   2.948  17.534  0.1361  0.5014 -1.8237
 7771SOL    HW234950   3.048   3.010  17.529  0.2442  1.4826 -0.1757
 7772SOL     OW34951   3.466   3.597   7.151  0.6133 -0.3100 -0.4865
 7772SOL    HW134952   3.466   3.587   7.246 -1.6012  2.2360 -0.2221
 7772SOL    HW234953   3.505   3.514   7.123  1.5365  0.4694 -1.5121
 7773SOL     OW34954   4.699   3.046   4.962  0.1503 -0.3558  0.7967
 7773SOL    HW134955   4.700   3.141   4.975 -1.5163 -0.1965 -0.2158
 7773SOL    HW234956   4.679   3.058   4.870 -1.2470  0.7501  1.2321
 7774SOL     OW34957   4.673   2.504   9.172  0.3245  0.4619  0.1604
 7774SOL    HW134958   4.652   2.414   9.145  0.9973  0.8297 -1.5850
 7774SOL    HW234959   0.002   2.490   9.241 -0.3921  2.0928  1.1505
 7775SOL     OW34960   1.194   1.580   2.796 -0.5771 -0.7742  0.2948
 7775SOL    HW134961   1.263   1.529   2.753 -0.1129 -0.3355  0.5330
 7775SOL    HW234962   1.119   1.526   2.771 -1.5594  0.3478  0.8016
 7776SOL     OW34963   3.442   1.332   3.311 -0.1165 -0.0589 -0.2168
 7776SOL    HW134964   3.379   1.396   3.276  1.1102  0.2960 -1.7932
 7776SOL    HW234965   3.439   1.264   3.243  0.0091  1.5366 -1.8324
 7777SOL     OW34966   0.180   1.637   2.467  0.0051 -0.5936  0.0046
 7777SOL    HW134967   0.160   1.675   2.552 -1.2233  0.2085 -0.6480
 7777SOL    HW234968   0.163   1.709   2.406 -1.8955 -0.2864  0.9139
 7778SOL     OW34969   0.742   2.982  14.999  0.1117  0.8989 -0.4570
 7778SOL    HW134970   0.658   3.010  15.035 -0.7031 -2.9294  0.5439
 7778SOL    HW234971   0.798   3.060  15.004  0.0618  0.9089 -0.0690
 7779SOL     OW34972   4.406   2.016  14.727  0.6641  0.0639 -0.2046
 7779SOL    HW134973   4.456   1.942  14.763  0.7995 -0.7384 -2.0576
 7779SOL    HW234974   4.437   2.089  14.780  1.0508 -0.9759  1.0058
 7780SOL     OW34975   2.712   0.131  15.467 -0.2756 -0.2219  0.3761
 7780SOL    HW134976   2.792   0.179  15.443 -1.9750  1.7727 -1.3107
 7780SOL    HW234977   2.670   0.096  15.388  0.9877  3.2359 -1.8446
 7781SOL     OW34978   1.652   2.520   3.312 -0.1941 -0.6543 -0.1482
 7781SOL    HW134979   1.643   2.455   3.382 -0.5333  2.2948  2.5773
 7781SOL    HW234980   1.715   2.475   3.256 -1.3222 -2.2922 -0.0900
 7782SOL     OW34981   0.766   2.197  10.564 -0.0898  0.1859 -0.0546
 7782SOL    HW134982   0.856   2.171  10.586 -0.5085 -1.1577  0.0709
 7782SOL    HW234983   0.717   2.185  10.646  0.3404 -0.5628  0.0951
 7783SOL     OW34984   0.878   0.504   5.317 -0.0887 -0.0530 -0.6511
 7783SOL    HW134985   0.819   0.509   5.392  2.0793 -1.2162  1.1180
 7783SOL    HW234986   0.946   0.562   5.351 -1.1458  1.0510 -0.4206
 7784SOL     OW34987   2.997   2.104   7.605 -0.3357  0.0878  0.0465
 7784SOL    HW134988   2.954   2.039   7.660  2.1829  1.0091  3.1321
 7784SOL    HW234989   2.927   2.129   7.545 -1.8022  1.6774  2.4427
 7785SOL     OW34990   0.403   1.985   5.605  0.1298 -0.3071  0.2582
 7785SOL    HW134991   0.307   1.991   5.600  0.1942  0.4663 -0.0624
 7785SOL    HW234992   0.415   1.930   5.682 -2.7256 -1.3526 -0.0305
 7786SOL     OW34993   4.196   4.477   5.597  0.5632  0.1536  0.1599
 7786SOL    HW134994   4.274   4.471   5.652  1.3021 -1.1941 -1.0375
 7786SOL    HW234995   4.128   4.516   5.650  0.1300 -0.1861 -0.1425
 7787SOL     OW34996   1.629   2.065   8.860  0.4873  0.6981 -0.2023
 7787SOL    HW134997   1.606   2.026   8.776 -0.2862  0.4814  0.1066
 7787SOL    HW234998   1.567   2.017   8.916  0.5416 -0.3479 -1.0540
 7788SOL     OW34999   2.131   1.782   3.864  0.3254  0.3814  0.1908
 7788SOL    HW135000   2.196   1.718   3.834 -3.0422 -2.2347 -1.5700
 7788SOL    HW235001   2.173   1.856   3.908  2.1128  0.3845 -1.4821
 7789SOL     OW35002   4.329   1.551   3.771 -0.3100  0.0632 -0.5617
 7789SOL    HW135003   4.364   1.510   3.692 -1.3422  1.8292 -1.9293
 7789SOL    HW235004   4.261   1.602   3.728  0.0298  0.4614 -0.6272
 7790SOL     OW35005   3.070   0.509   5.148  0.0920  0.2944 -0.5694
 7790SOL    HW135006   3.001   0.565   5.113 -0.7790  0.5483  1.5216
 7790SOL    HW235007   3.100   0.468   5.068  1.7609 -1.5469  1.0030
 7791SOL     OW35008   2.164   3.020  14.844 -0.0272  0.3557  0.5544
 7791SOL    HW135009   2.199   2.931  14.848 -0.6662  0.1854  2.3972
 7791SOL    HW235010   2.168   3.035  14.938 -0.8982 -1.8848  0.9536
 7792SOL     OW35011   0.616   1.698   5.604 -0.4203 -0.1971  0.1576
 7792SOL    HW135012   0.658   1.734   5.682 -0.1560 -1.0222  0.3999
 7792SOL    HW235013   0.683   1.634   5.578  1.1060  0.4579  2.4727
 7793SOL     OW35014   0.007   4.509  12.568  0.2506  0.6203  0.0762
 7793SOL    HW135015   0.025   4.571  12.497 -1.9166  0.9468 -0.1839
 7793SOL    HW235016   0.089   4.462  12.553 -0.3187 -0.7153  1.2134
 7794SOL     OW35017   2.949   1.645  14.072  0.1954 -0.0571 -0.5429
 7794SOL    HW135018   2.990   1.570  14.029 -0.2182 -0.9584  0.6495
 7794SOL    HW235019   2.897   1.683  14.002  0.4419 -1.2318 -1.3568
 7795SOL     OW35020   0.137   0.096   4.776 -0.0469  0.1546  0.0233
 7795SOL    HW135021   0.143   0.007   4.741 -2.5365  0.4664 -1.2538
 7795SOL    HW235022   0.216   0.116   4.826  0.0593 -0.2066  0.0007
 7796SOL     OW35023   3.953   0.601   8.915 -0.1699 -0.2639  0.2590
 7796SOL    HW135024   3.940   0.524   8.970 -2.2415 -0.0770  0.0456
 7796SOL    HW235025   3.916   0.673   8.966 -1.0141  0.2794 -1.1088
 7797SOL     OW35026   3.906   2.799  12.697  0.4264 -0.0835 -0.3235
 7797SOL    HW135027   3.918   2.893  12.708  2.8641 -0.3154 -0.9470
 7797SOL    HW235028   3.820   2.799  12.655  0.2236  3.3348  0.0842
 7798SOL     OW35029   4.201   1.563   8.362  0.2525  0.2627 -0.3110
 7798SOL    HW135030   4.152   1.481   8.351 -0.1396  0.8558 -2.9758
 7798SOL    HW235031   4.137   1.632   8.342 -1.0495 -0.8655 -0.0171
 7799SOL     OW35032   2.870   3.811   7.725 -0.3030  0.1581  0.2751
 7799SOL    HW135033   2.777   3.814   7.746 -0.2932  1.7367  0.0999
 7799SOL    HW235034   2.889   3.741   7.787  0.3727 -0.5182 -0.6918
 7800SOL     OW35035   2.993   4.527   5.209 -0.4463 -0.3783 -0.2244
 7800SOL    HW135036   3.072   4.538   5.156 -1.7412  1.5885 -1.7366
 7800SOL    HW235037   2.961   4.451   5.162 -0.7858  0.3304 -1.1373
 7801SOL     OW35038   2.895   1.346   5.439  0.2491 -0.5892 -0.1231
 7801SOL    HW135039   2.807   1.319   5.462  0.3274  0.9298  1.9536
 7801SOL    HW235040   2.906   1.267   5.387  0.0304 -0.1767 -0.7996
 7802SOL     OW35041   1.642   4.643   6.820 -0.6683 -0.1813  0.0041
 7802SOL    HW135042   1.715   4.634   6.882  0.6315  1.7061 -1.2500
 7802SOL    HW235043   1.667   4.723   6.773 -0.8922 -0.2658 -0.2578
 7803SOL     OW35044   2.699   0.814   7.005  0.2325 -0.8106 -0.4224
 7803SOL    HW135045   2.734   0.856   6.927  0.1736  1.7994  0.9462
 7803SOL    HW235046   2.623   0.778   6.959  0.1636  0.1262 -1.0594
 7804SOL     OW35047   0.972   1.044  11.217  1.2074 -0.2727 -0.3791
 7804SOL    HW135048   1.001   0.954  11.230  0.1923 -0.0083  3.6656
 7804SOL    HW235049   0.993   1.076  11.305 -2.2619 -0.6067  0.5963
 7805SOL     OW35050   2.268   0.150   1.554 -0.6826 -0.3995  0.2392
 7805SOL    HW135051   2.248   0.114   1.467 -3.6234 -0.1694  0.8286
 7805SOL    HW235052   2.220   0.232   1.547  2.5586  1.3883 -1.3241
 7806SOL     OW35053   3.329   2.983   6.429 -0.0737  0.3643  0.7510
 7806SOL    HW135054   3.315   3.021   6.342  0.7103 -1.8612 -0.3451
 7806SOL    HW235055   3.425   2.988   6.435  0.1331 -1.7512 -0.6402
 7807SOL     OW35056   2.680   1.887   8.933 -0.4388  0.3058  0.2054
 7807SOL    HW135057   2.635   1.929   9.006 -0.3123  1.1532 -0.2117
 7807SOL    HW235058   2.652   1.796   8.946  1.3150  0.0872  2.3872
 7808SOL     OW35059   0.203   4.118   7.856 -0.4957 -0.1724  0.2350
 7808SOL    HW135060   0.113   4.128   7.825 -0.7694 -0.2769  0.9952
 7808SOL    HW235061   0.247   4.082   7.778 -0.3780 -0.7875  0.5864
 7809SOL     OW35062   0.938   3.046   5.069 -0.1100 -0.1855  0.5067
 7809SOL    HW135063   1.008   3.051   5.004 -0.0606 -0.2847  0.5520
 7809SOL    HW235064   0.928   3.132   5.108  1.4265 -0.6214  1.8540
 7810SOL     OW35065   1.829   0.835   6.252  0.2996  0.4307 -0.3817
 7810SOL    HW135066   1.776   0.784   6.314 -1.2047  0.9320 -1.2631
 7810SOL    HW235067   1.916   0.794   6.253 -0.7564 -1.8332  0.6512
 7811SOL     OW35068   4.283   3.585   7.543  0.0420 -0.2641 -0.3874
 7811SOL    HW135069   4.253   3.668   7.580  1.4102  1.1548 -2.4309
 7811SOL    HW235070   4.340   3.545   7.609 -0.0133 -0.9395 -0.7511
 7812SOL     OW35071   1.825   1.003   5.714 -0.3338  0.3313 -0.2129
 7812SOL    HW135072   1.837   0.933   5.778  1.8527 -1.4542 -2.6147
 7812SOL    HW235073   1.730   0.989   5.706  0.0352 -2.5921  0.5910
 7813SOL     OW35074   0.453   0.073   3.337 -0.0756  0.1671 -0.1955
 7813SOL    HW135075   0.427   0.107   3.423 -2.3466 -1.2764 -0.3280
 7813SOL    HW235076   0.400   0.120   3.273  2.3106 -0.2164 -2.4716
 7814SOL     OW35077   0.132   4.386   7.618  0.2292  0.4143  0.2452
 7814SOL    HW135078   0.217   4.422   7.593  0.2522  1.4636  1.8134
 7814SOL    HW235079   0.095   4.456   7.672 -3.5417 -1.0944 -0.3512
 7815SOL     OW35080   1.213   2.474  12.957 -0.0393 -0.7293 -0.3755
 7815SOL    HW135081   1.151   2.544  12.977  0.2514 -1.3677  2.7526
 7815SOL    HW235082   1.158   2.396  12.959  0.6987 -1.2513 -0.2415
 7816SOL     OW35083   2.265   4.461   2.749  0.3235  1.0775 -0.4669
 7816SOL    HW135084   2.270   4.455   2.844  1.8388  0.2884 -0.6042
 7816SOL    HW235085   2.274   4.555   2.734  1.6530  0.8641 -0.9886
 7817SOL     OW35086   0.369   1.716   4.799  0.5226 -0.4612  0.0065
 7817SOL    HW135087   0.404   1.721   4.710 -3.8944  0.3658 -1.6668
 7817SOL    HW235088   0.321   1.634   4.809  3.2043 -1.7266  2.4520
 7818SOL     OW35089   1.780   2.643   8.050  0.0889 -0.6998 -0.5081
 7818SOL    HW135090   1.803   2.690   8.130  0.2336 -1.1489 -0.2878
 7818SOL    HW235091   1.855   2.655   7.992  1.0204 -1.0232  0.6317
 7819SOL     OW35092   0.425   3.827   5.353  0.3137  0.0476  0.0377
 7819SOL    HW135093   0.407   3.749   5.302  0.1845  0.9239 -1.2527
 7819SOL    HW235094   0.340   3.870   5.350  0.5602  0.6548  1.4070
 7820SOL     OW35095   3.016   3.074   4.532 -0.2384  0.1210  0.2847
 7820SOL    HW135096   3.073   3.143   4.497  0.5001 -1.1035 -0.9211
 7820SOL    HW235097   2.957   3.067   4.457 -1.1932  0.5347  0.9998
 7821SOL     OW35098   0.735   2.989   9.065  0.1635 -0.6026 -0.0124
 7821SOL    HW135099   0.826   2.995   9.094  0.1608 -1.6836  0.2130
 7821SOL    HW235100   0.704   3.062   9.120  0.7867  0.5117 -1.1316
 7822SOL     OW35101   1.278   0.722   0.081  0.7062  0.3623 -0.4895
 7822SOL    HW135102   1.311   0.661   0.016  0.7646 -0.2164  0.0901
 7822SOL    HW235103   1.311   0.805   0.045  0.0251  1.0659  0.4838
 7823SOL     OW35104   2.932   1.993   9.945  0.3090  0.2937  0.1149
 7823SOL    HW135105   2.858   2.029   9.896  0.9794  0.7317 -0.5726
 7823SOL    HW235106   2.911   1.900   9.958  0.0301  0.4564  0.8319
 7824SOL     OW35107   3.797   0.110   0.752 -0.1800  0.1214 -0.1849
 7824SOL    HW135108   3.778   0.190   0.801  0.8555  0.0649  0.3033
 7824SOL    HW235109   3.892   0.103   0.759 -0.2020  1.2589  1.1531
 7825SOL     OW35110   4.383   0.819   1.005  0.0701  0.3829  0.1298
 7825SOL    HW135111   4.390   0.843   0.913  1.4284  0.0935  0.1631
 7825SOL    HW235112   4.361   0.726   1.001  1.3098  0.0925 -0.0566
 7826SOL     OW35113   4.468   1.415   4.402  0.0022 -0.1050  0.1227
 7826SOL    HW135114   4.471   1.471   4.324  0.4043 -0.3533 -0.0386
 7826SOL    HW235115   4.553   1.436   4.440  0.1865  2.6666 -1.8682
 7827SOL     OW35116   1.146   3.610  15.809  0.1016 -0.0408  0.3124
 7827SOL    HW135117   1.119   3.695  15.774  0.8099 -0.2760 -0.8134
 7827SOL    HW235118   1.158   3.614  15.904  2.2370 -3.5862  0.1901
 7828SOL     OW35119   2.114   0.317   8.348  0.1086  0.0215 -0.4553
 7828SOL    HW135120   2.209   0.305   8.349 -0.0093 -0.7953  1.0467
 7828SOL    HW235121   2.091   0.228   8.319 -0.8939  0.5374 -1.2636
 7829SOL     OW35122   0.014   1.443   8.662 -0.7861 -0.5661  0.1895
 7829SOL    HW135123   0.070   1.367   8.649 -0.2701 -0.0578 -0.5119
 7829SOL    HW235124   0.065   1.512   8.706  0.2759 -1.2319 -0.0070
 7830SOL     OW35125   3.806   1.933   0.820 -0.3863 -0.2186  0.1876
 7830SOL    HW135126   3.724   1.982   0.818 -0.5072 -0.4747 -1.6389
 7830SOL    HW235127   3.851   1.961   0.740  0.2310 -0.0234  0.6095
 7831SOL     OW35128   1.013   3.722   4.244 -0.1853 -0.1154 -0.1922
 7831SOL    HW135129   1.107   3.725   4.229 -0.4010  3.3299 -0.8537
 7831SOL    HW235130   0.994   3.814   4.258  0.0081 -0.0647 -0.2653
 7832SOL     OW35131   1.824   3.090   8.817 -0.5328 -0.2373 -0.5668
 7832SOL    HW135132   1.749   3.127   8.863 -0.9313  0.4763 -1.7958
 7832SOL    HW235133   1.903   3.127   8.858  0.3322 -0.0140 -2.4210
 7833SOL     OW35134   0.479   0.762   9.565 -0.0192  0.0374  0.0168
 7833SOL    HW135135   0.497   0.726   9.652 -0.6091  1.7379  0.8486
 7833SOL    HW235136   0.562   0.740   9.522  0.2212 -0.0873  0.5412
 7834SOL     OW35137   1.155   3.729   4.921 -0.4218 -0.4526  0.4170
 7834SOL    HW135138   1.117   3.741   4.834  0.9066 -1.6570 -0.3486
 7834SOL    HW235139   1.079   3.752   4.973  0.1274  0.8484  0.6442
 7835SOL     OW35140   1.944   0.636  14.450  0.1713  0.5121 -0.2788
 7835SOL    HW135141   1.909   0.549  14.469 -1.1839  0.9043 -0.9563
 7835SOL    HW235142   1.974   0.619  14.360 -0.3128 -1.7751 -0.0027
 7836SOL     OW35143   2.880   3.413  14.371  0.5326  0.1448 -0.2408
 7836SOL    HW135144   2.892   3.507  14.362  2.4187 -0.1141 -0.4477
 7836SOL    HW235145   2.808   3.408  14.308  0.7197  0.7088 -0.4955
 7837SOL     OW35146   0.070   3.707   3.160 -0.2733  0.0461  0.5946
 7837SOL    HW135147   0.089   3.646   3.088 -1.2081 -0.8113  1.0637
 7837SOL    HW235148   4.710   3.710   3.160 -0.2851 -0.1115 -1.3180
 7838SOL     OW35149   1.690   0.614  17.047  0.3962  0.1382  0.5920
 7838SOL    HW135150   1.729   0.526  17.053  0.1844 -0.0187 -0.3780
 7838SOL    HW235151   1.618   0.585  16.990 -0.1417  1.6374  0.5270
 7839SOL     OW35152   1.603   1.816  11.477 -0.1891  0.2257  0.1690
 7839SOL    HW135153   1.608   1.808  11.572  1.3764  0.5212  0.1061
 7839SOL    HW235154   1.697   1.829  11.468 -0.3177 -0.4166 -2.1355
 7840SOL     OW35155   2.102   1.877   2.290  0.5698  0.8518 -0.4752
 7840SOL    HW135156   2.195   1.892   2.310  0.9073 -1.4555 -0.3433
 7840SOL    HW235157   2.115   1.793   2.247 -0.2180  0.1146  0.7393
 7841SOL     OW35158   1.126   1.606   2.103  0.2161 -0.5509 -0.0390
 7841SOL    HW135159   1.080   1.530   2.139 -1.5252  1.3469  1.6911
 7841SOL    HW235160   1.163   1.560   2.027  0.0731 -1.0625  0.1951
 7842SOL     OW35161   0.232   2.749  15.865  0.2764 -0.1494  0.2363
 7842SOL    HW135162   0.236   2.824  15.806  0.9991  0.6115  1.2658
 7842SOL    HW235163   0.319   2.709  15.866  0.4373  0.2313  0.9203
 7843SOL     OW35164   2.568   1.109  15.559 -0.4707  0.7680  0.1774
 7843SOL    HW135165   2.537   1.099  15.469 -1.4616  1.7491  0.4196
 7843SOL    HW235166   2.662   1.115  15.539 -0.3648 -0.2310  0.3819
 7844SOL     OW35167   4.042   4.505   5.830  0.1338 -0.5991 -0.3584
 7844SOL    HW135168   4.077   4.566   5.896 -1.9509 -0.7013  0.8361
 7844SOL    HW235169   4.018   4.434   5.889 -0.0482 -0.4797 -0.2889
 7845SOL     OW35170   0.958   0.703   4.938 -0.6452 -0.5629  0.0365
 7845SOL    HW135171   1.013   0.651   4.880 -1.1519 -1.5812  0.4825
 7845SOL    HW235172   0.895   0.730   4.871 -2.0847 -0.4433  1.4420
 7846SOL     OW35173   0.342   2.962   3.852 -0.0755  0.2521  0.5571
 7846SOL    HW135174   0.341   2.879   3.900  0.0381 -1.6928 -2.8052
 7846SOL    HW235175   0.370   2.934   3.765  0.7930  1.2165  0.5325
 7847SOL     OW35176   1.078   2.254   2.030  0.6653  0.4622 -0.6333
 7847SOL    HW135177   1.043   2.220   2.112  2.3246  1.3430  0.4363
 7847SOL    HW235178   1.053   2.175   1.981  1.9923 -1.7246  2.2106
 7848SOL     OW35179   0.970   0.869   8.645 -0.1629 -0.5433 -0.5794
 7848SOL    HW135180   0.881   0.838   8.630 -0.4833 -0.2093  0.6105
 7848SOL    HW235181   1.014   0.847   8.563  0.5696  0.3230 -0.4280
 7849SOL     OW35182   3.063   3.364   0.355  0.4141 -0.3384  0.6698
 7849SOL    HW135183   3.002   3.373   0.281  1.4099  1.9360  0.1135
 7849SOL    HW235184   3.135   3.426   0.341 -0.3559  0.3201 -0.3843
 7850SOL     OW35185   3.800   3.907   7.153  0.0598  0.9039 -0.2247
 7850SOL    HW135186   3.849   3.832   7.118 -0.0340  0.7232  0.0335
 7850SOL    HW235187   3.710   3.893   7.122 -0.2478 -0.1021  1.1443
 7851SOL     OW35188   4.641   0.581   5.371  0.1133  0.0911 -0.3563
 7851SOL    HW135189   4.639   0.495   5.413  0.8843  0.3791  0.2955
 7851SOL    HW235190   4.712   0.571   5.307 -0.8188  4.0610 -2.0276
 7852SOL     OW35191   1.298   1.887   0.528 -0.1624 -0.0305 -0.0731
 7852SOL    HW135192   1.351   1.967   0.524  1.2021 -0.8658  1.3688
 7852SOL    HW235193   1.365   1.825   0.558 -0.9716 -0.5048  0.7784
 7853SOL     OW35194   4.468   2.643   4.986 -0.2772  0.0349  0.1617
 7853SOL    HW135195   4.526   2.692   4.929 -0.1356 -0.0558  0.2272
 7853SOL    HW235196   4.476   2.554   4.950 -1.7536 -0.3054  0.6586
 7854SOL     OW35197   0.547   2.858   2.211  0.4939  0.2854  0.7805
 7854SOL    HW135198   0.533   2.794   2.282  0.2605 -0.5995 -0.0707
 7854SOL    HW235199   0.497   2.818   2.140  1.2144  0.6432  0.0735
 7855SOL     OW35200   0.931   1.308   3.551 -0.4636 -0.0993 -0.4897
 7855SOL    HW135201   1.006   1.365   3.566 -1.6439  0.8020  1.8397
 7855SOL    HW235202   0.923   1.255   3.630 -0.4058 -0.2626 -0.5930
 7856SOL     OW35203   3.101   3.763   9.598 -0.3874 -0.9096  0.4586
 7856SOL    HW135204   3.127   3.760   9.507  2.5898 -0.2478  1.2975
 7856SOL    HW235205   3.060   3.850   9.601 -0.5001 -0.9800  1.1678
 7857SOL     OW35206   1.647   4.377   1.968  0.3351  0.4764  0.6292
 7857SOL    HW135207   1.717   4.349   1.909  1.9385  1.3358  2.1258
 7857SOL    HW235208   1.692   4.460   1.984 -0.4842  1.2934 -1.3037
 7858SOL     OW35209   2.292   1.486   4.638 -0.2484 -0.1080 -0.1494
 7858SOL    HW135210   2.299   1.390   4.637  1.1140  0.0136 -1.0782
 7858SOL    HW235211   2.260   1.508   4.550 -1.8737  0.8004  0.6669
 7859SOL     OW35212   2.984   0.243   3.610  0.2276 -0.1630 -0.0042
 7859SOL    HW135213   2.963   0.330   3.645  1.9625 -0.4157  1.7133
 7859SOL    HW235214   3.079   0.255   3.614  0.4422 -1.3056 -2.1721
 7860SOL     OW35215   3.096   0.470   4.010 -0.3940 -0.1496  0.1135
 7860SOL    HW135216   3.057   0.546   4.053  0.7838  1.2426 -1.2269
 7860SOL    HW235217   3.104   0.512   3.924 -0.3680  1.1053  0.7300
 7861SOL     OW35218   4.175   2.345   3.887  0.3124 -0.4411 -0.2445
 7861SOL    HW135219   4.185   2.366   3.980 -4.3086  0.0469  0.1192
 7861SOL    HW235220   4.264   2.367   3.858  0.5339 -1.9557 -0.7518
 7862SOL     OW35221   2.930   2.934   2.381  0.0038  0.1616  0.3483
 7862SOL    HW135222   3.012   2.890   2.356 -2.0217 -3.6821  0.5296
 7862SOL    HW235223   2.882   2.946   2.299 -0.7501  0.7555  0.8766
 7863SOL     OW35224   1.165   4.477   5.688  0.3654 -0.0842  0.4858
 7863SOL    HW135225   1.073   4.483   5.716 -0.3418 -1.1911 -1.5971
 7863SOL    HW235226   1.160   4.480   5.592 -0.6131  0.9688  0.5589
 7864SOL     OW35227   4.720   4.257   6.202 -0.2186  0.5694 -0.1743
 7864SOL    HW135228   4.661   4.210   6.262  0.5168  1.3987  1.2098
 7864SOL    HW235229   0.001   4.339   6.249 -3.0370  0.1943  1.4781
 7865SOL     OW35230   1.094   2.466  16.799  0.0501 -0.2060  0.0865
 7865SOL    HW135231   1.074   2.544  16.748  2.1541  0.2159 -0.0630
 7865SOL    HW235232   1.044   2.408  16.742  2.7505 -0.8807 -1.5512
 7866SOL     OW35233   4.132   3.915   3.079 -0.2214  0.1945 -0.8050
 7866SOL    HW135234   4.138   3.976   3.152  1.0021 -1.0127  0.1024
 7866SOL    HW235235   4.042   3.883   3.079 -0.7390  1.6476 -1.6921
 7867SOL     OW35236   1.249   1.205  16.354 -0.0164 -0.1110 -0.1214
 7867SOL    HW135237   1.243   1.278  16.292  1.2146 -0.2354 -0.3873
 7867SOL    HW235238   1.158   1.195  16.382 -0.5823  3.3874 -0.6496
 7868SOL     OW35239   2.273   1.851   5.724 -0.5674  0.6603  0.2016
 7868SOL    HW135240   2.282   1.889   5.637 -1.2621 -0.0453 -0.1766
 7868SOL    HW235241   2.186   1.814   5.713  0.0127 -1.2865  2.0342
 7869SOL     OW35242   0.987   3.114   5.475 -0.4664  0.0113  0.2619
 7869SOL    HW135243   0.893   3.132   5.481 -0.2725  0.7488  1.0400
 7869SOL    HW235244   1.013   3.082   5.561  1.5607 -2.7155 -1.3646
 7870SOL     OW35245   4.336   3.951   6.632 -0.1922  0.3682 -0.1157
 7870SOL    HW135246   4.277   3.985   6.565 -0.0128 -1.1419 -1.0459
 7870SOL    HW235247   4.333   4.021   6.697  0.9202 -1.6610  2.0979
 7871SOL     OW35248   3.485   1.555   2.705 -0.1118 -0.1613 -0.9470
 7871SOL    HW135249   3.572   1.535   2.740  0.0211  1.5081 -0.3315
 7871SOL    HW235250   3.454   1.484   2.650 -0.8932 -0.2113 -0.4330
 7872SOL     OW35251   4.518   4.633   8.368  0.3007 -0.1551 -0.0267
 7872SOL    HW135252   4.553   4.679   8.292 -0.2291  0.4190  0.0832
 7872SOL    HW235253   4.582   4.564   8.388 -0.4982 -1.5227 -2.1619
 7873SOL     OW35254   2.514   4.161   6.602 -0.0496 -0.1825  0.1049
 7873SOL    HW135255   2.587   4.103   6.578  2.2316  3.0551 -0.7216
 7873SOL    HW235256   2.496   4.204   6.518  1.8328  1.2817  0.4500
 7874SOL     OW35257   1.235   3.399   1.769  0.2428  0.1027 -0.5085
 7874SOL    HW135258   1.235   3.392   1.864 -2.6563  0.3350 -0.5158
 7874SOL    HW235259   1.325   3.429   1.753  0.9464 -0.0974  3.1180
 7875SOL     OW35260   3.587   1.379   4.484 -0.3266 -0.5361  0.4435
 7875SOL    HW135261   3.641   1.369   4.563 -1.3187  3.4122  1.6412
 7875SOL    HW235262   3.609   1.466   4.452 -0.8526 -0.5396  0.0771
 7876SOL     OW35263   0.328   2.744  16.127 -0.0916  0.6419  0.4471
 7876SOL    HW135264   0.265   2.742  16.055  0.7743  0.6245 -0.3163
 7876SOL    HW235265   0.338   2.837  16.147 -2.0884  0.7159  1.1090
 7877SOL     OW35266   2.029   3.478   3.003 -0.4199 -0.2291  0.1039
 7877SOL    HW135267   2.043   3.383   3.008  0.2519 -0.1696 -0.7149
 7877SOL    HW235268   2.112   3.515   3.032 -0.7592  0.9736 -0.4439
 7878SOL     OW35269   3.497   0.729   8.861 -0.1012 -0.3537  0.0852
 7878SOL    HW135270   3.582   0.754   8.825 -0.2175 -0.4726 -0.2695
 7878SOL    HW235271   3.475   0.793   8.929  3.0047  1.9236 -1.0648
 7879SOL     OW35272   3.371   4.581   2.762 -0.0429 -0.2282 -0.9871
 7879SOL    HW135273   3.403   4.647   2.701  1.9491 -1.6798 -1.5206
 7879SOL    HW235274   3.309   4.523   2.718  0.1873 -0.7537 -0.6230
 7880SOL     OW35275   2.099   3.012  12.959 -0.2889 -0.4722  0.3524
 7880SOL    HW135276   2.070   2.954  13.029  1.4963 -2.2941 -0.4377
 7880SOL    HW235277   2.073   3.094  13.002  1.0696  0.6694 -1.0026
 7881SOL     OW35278   4.527   1.390  13.605 -0.5495  0.4615 -0.2424
 7881SOL    HW135279   4.556   1.397  13.514  2.0910 -0.2073  0.5462
 7881SOL    HW235280   4.554   1.300  13.622 -0.9478  0.2998 -0.4823
 7882SOL     OW35281   3.525   0.061   4.655 -0.4785 -0.3097  0.2977
 7882SOL    HW135282   3.600   0.005   4.633  0.1528  0.4644  0.4572
 7882SOL    HW235283   3.462   0.023   4.594  0.4701 -0.7155 -0.4372
 7883SOL     OW35284   0.449   2.514   3.414 -0.4203  0.0405 -0.1057
 7883SOL    HW135285   0.542   2.495   3.407  0.1162  2.7686 -0.3817
 7883SOL    HW235286   0.432   2.535   3.506  0.3866  0.3222 -0.0260
 7884SOL     OW35287   3.471   3.489   9.028 -0.3751  0.1315  0.0576
 7884SOL    HW135288   3.474   3.496   9.123 -1.1694  2.1231 -0.0862
 7884SOL    HW235289   3.386   3.448   9.014 -0.4776  0.9192 -1.5895
 7885SOL     OW35290   0.938   2.654   5.052 -0.3568 -0.1220  0.2396
 7885SOL    HW135291   1.024   2.696   5.041  1.2477 -3.1573  1.2783
 7885SOL    HW235292   0.950   2.614   5.138 -1.5161 -1.9435 -0.4401
 7886SOL     OW35293   0.158   2.334   3.884  0.4155 -0.4715  0.5901
 7886SOL    HW135294   0.156   2.308   3.976  0.9244  0.3675  0.8338
 7886SOL    HW235295   0.064   2.346   3.872  0.1796 -1.2132  1.6826
 7887SOL     OW35296   2.210   1.476   6.994 -0.0090 -0.5108 -0.2041
 7887SOL    HW135297   2.134   1.533   6.993  0.9990  0.8262 -0.6419
 7887SOL    HW235298   2.181   1.404   6.939  0.9380 -0.6427 -0.5425
 7888SOL     OW35299   3.074   1.798   1.333 -0.5047  0.8372 -0.6849
 7888SOL    HW135300   2.979   1.790   1.323 -0.6057 -1.4566  2.1726
 7888SOL    HW235301   3.106   1.817   1.245 -0.7293  2.2332 -0.4671
 7889SOL     OW35302   2.769   3.961  13.136 -0.1420 -0.6458  0.1173
 7889SOL    HW135303   2.775   3.984  13.229  1.1389  2.1498 -0.6753
 7889SOL    HW235304   2.691   4.007  13.106 -0.6121  0.0087  2.2987
 7890SOL     OW35305   4.270   3.816   7.130 -0.2971 -0.0968  0.1009
 7890SOL    HW135306   4.287   3.737   7.182  1.3143  0.2033  0.0308
 7890SOL    HW235307   4.343   3.825   7.069 -1.6466 -1.5774 -1.7458
 7891SOL     OW35308   3.705   1.575   4.288  0.0814 -0.0963  0.4018
 7891SOL    HW135309   3.750   1.491   4.280  0.2746  0.2775 -2.3415
 7891SOL    HW235310   3.665   1.587   4.202  1.6393 -2.0583 -0.5950
 7892SOL     OW35311   2.695   0.097   2.633 -0.0279  0.5404  0.0676
 7892SOL    HW135312   2.679   0.051   2.551 -0.6162  2.7510 -1.0652
 7892SOL    HW235313   2.790   0.081   2.635  0.0981  0.9138 -2.2511
 7893SOL     OW35314   2.477   0.489   6.631 -0.0048 -0.4242  0.5110
 7893SOL    HW135315   2.509   0.458   6.547 -0.4971  1.1016 -0.2456
 7893SOL    HW235316   2.464   0.408   6.680 -1.9454 -0.5716 -0.2388
 7894SOL     OW35317   3.212   1.990   9.522  0.0797 -0.5111  0.1412
 7894SOL    HW135318   3.201   1.978   9.428 -0.2774  1.2945 -0.0354
 7894SOL    HW235319   3.172   2.074   9.544  0.6415 -0.7862  2.2076
 7895SOL     OW35320   0.046   0.663  14.068  0.5182 -0.0741 -0.5850
 7895SOL    HW135321   4.703   0.646  14.120  1.1625  0.0076  0.4264
 7895SOL    HW235322   0.036   0.749  14.027 -0.8673 -0.0678 -0.2392
 7896SOL     OW35323   2.451   4.233   3.091 -0.1868 -0.0509  0.4025
 7896SOL    HW135324   2.358   4.254   3.074 -0.7927 -2.3282  0.9924
 7896SOL    HW235325   2.494   4.318   3.081 -0.2598  0.1732  2.0209
 7897SOL     OW35326   1.870   0.699   4.521  0.4110  0.1532  0.3649
 7897SOL    HW135327   1.892   0.773   4.577 -0.9664  0.5463  0.4050
 7897SOL    HW235328   1.947   0.690   4.466  0.0621  0.1876 -0.1348
 7898SOL     OW35329   4.555   2.196  16.716 -0.2329  0.0981  0.1100
 7898SOL    HW135330   4.577   2.289  16.726 -1.1977  0.2507  0.8009
 7898SOL    HW235331   4.642   2.157  16.722  1.3966  3.8766  1.4912
 7899SOL     OW35332   2.165   0.103   1.040  0.0874 -0.5107  0.6512
 7899SOL    HW135333   2.078   0.067   1.058  0.1061 -2.0265 -2.2411
 7899SOL    HW235334   2.210   0.044   0.980 -1.2587 -2.6462  1.7421
 7900SOL     OW35335   1.429   0.857   4.276  0.4813 -0.0255  0.3859
 7900SOL    HW135336   1.338   0.885   4.288  1.1295  1.7531  1.0728
 7900SOL    HW235337   1.467   0.860   4.364 -1.0012 -0.1327  1.0427
 7901SOL     OW35338   2.446   1.029   6.291 -0.6814 -0.3791 -0.2198
 7901SOL    HW135339   2.368   1.025   6.347 -0.0655  1.8213  0.8051
 7901SOL    HW235340   2.420   0.969   6.221 -0.6258  2.0625 -2.3593
 7902SOL     OW35341   0.187   3.745  11.430  0.1298 -0.1011 -0.3555
 7902SOL    HW135342   0.207   3.661  11.472  1.2467 -0.2908 -1.2643
 7902SOL    HW235343   0.262   3.758  11.373  0.5015 -1.4305 -0.1724
 7903SOL     OW35344   3.149   4.729   8.806 -0.4905 -0.0036 -0.5604
 7903SOL    HW135345   3.182   0.077   8.838  0.8584 -0.5802 -0.4728
 7903SOL    HW235346   3.221   4.700   8.751  1.9314  2.0915  1.4727
 7904SOL     OW35347   0.696   2.428   2.725 -0.3471  0.5489 -0.4007
 7904SOL    HW135348   0.787   2.399   2.723 -1.0784 -1.5515 -2.8306
 7904SOL    HW235349   0.653   2.361   2.673  1.5920 -2.5733  2.0187
 7905SOL     OW35350   2.622   1.000   2.933 -0.0109  0.2789  0.7359
 7905SOL    HW135351   2.591   0.928   2.877 -0.1969  1.1505 -0.2823
 7905SOL    HW235352   2.565   0.990   3.009 -1.2420 -0.7460 -0.3107
 7906SOL     OW35353   2.526   2.170   2.002 -0.1329 -0.8597  0.4179
 7906SOL    HW135354   2.595   2.110   2.031 -0.0345 -0.8783  0.1395
 7906SOL    HW235355   2.498   2.225   2.075 -0.8047  0.6825 -1.0051
 7907SOL     OW35356   2.677   0.900   5.744  0.1064  0.5662 -0.0146
 7907SOL    HW135357   2.692   0.806   5.750 -1.9595  0.3445  1.7511
 7907SOL    HW235358   2.725   0.918   5.663 -0.5766  0.4211 -0.4530
 7908SOL     OW35359   4.343   4.292   9.083  0.5811  0.4313 -0.3815
 7908SOL    HW135360   4.319   4.361   9.021 -2.4329  0.8894  1.2905
 7908SOL    HW235361   4.259   4.277   9.127  0.6589 -1.5897 -0.9116
 7909SOL     OW35362   0.236   1.188   4.858 -0.4737 -0.4006 -0.6029
 7909SOL    HW135363   0.259   1.132   4.783 -0.6746  0.1058 -1.0449
 7909SOL    HW235364   0.271   1.132   4.927  0.6627 -1.2859 -1.8909
 7910SOL     OW35365   0.967   2.907   5.308 -0.5903  0.3338  0.3524
 7910SOL    HW135366   0.977   2.952   5.224  0.0880 -0.0506  0.2272
 7910SOL    HW235367   0.974   2.982   5.368  0.6137  0.5130 -0.0142
 7911SOL     OW35368   4.087   1.535   4.953  0.1777  0.2393  0.3821
 7911SOL    HW135369   4.180   1.514   4.948  0.3588  1.1287  0.0651
 7911SOL    HW235370   4.089   1.564   5.045  3.2372 -1.4297  0.8200
 7912SOL     OW35371   1.267   2.372   7.151 -0.2039  0.4258 -0.1963
 7912SOL    HW135372   1.338   2.353   7.213 -0.9260 -0.8635  0.2292
 7912SOL    HW235373   1.314   2.353   7.069  0.1680  1.1395 -0.1502
 7913SOL     OW35374   3.949   2.371  12.748  0.4658  0.0964  0.2881
 7913SOL    HW135375   3.855   2.390  12.738  0.9554  2.1973 -0.3095
 7913SOL    HW235376   3.988   2.458  12.762 -0.8495  0.9018 -0.9906
 7914SOL     OW35377   0.392   3.481   7.088 -0.2313 -0.0600  0.0532
 7914SOL    HW135378   0.388   3.415   7.019  1.5199 -1.3499  1.2142
 7914SOL    HW235379   0.300   3.484   7.116 -0.0315  1.2195  0.5916
 7915SOL     OW35380   2.273   4.015   9.800 -0.2863 -0.5589  0.0952
 7915SOL    HW135381   2.227   4.053   9.726  2.4308  0.1305 -1.2103
 7915SOL    HW235382   2.268   4.086   9.864  0.3585  1.0990 -1.7010
 7916SOL     OW35383   2.184   3.613   6.808 -0.1340  0.0363  0.0709
 7916SOL    HW135384   2.199   3.621   6.714  0.8870 -0.7671  0.1586
 7916SOL    HW235385   2.121   3.541   6.810  0.8924 -0.9008 -1.1760
 7917SOL     OW35386   2.039   2.924   1.931  0.2573 -0.0580  0.4473
 7917SOL    HW135387   2.052   3.010   1.971  0.9593 -1.2135  2.6559
 7917SOL    HW235388   2.127   2.887   1.939  0.7492  1.2907  1.3090
 7918SOL     OW35389   1.968   2.705  13.467 -0.3107 -0.0640 -0.1156
 7918SOL    HW135390   1.909   2.667  13.401 -0.9505 -0.0010  0.4203
 7918SOL    HW235391   1.997   2.628  13.516 -0.3774  0.9738  1.5743
 7919SOL     OW35392   3.395   3.632   8.202  0.7558 -0.0731 -0.0635
 7919SOL    HW135393   3.471   3.677   8.166  0.5281 -1.0735 -1.7589
 7919SOL    HW235394   3.440   3.548   8.206 -0.3866 -0.6739  0.0673
 7920SOL     OW35395   4.633   1.761  11.178  0.0764 -0.1702  1.0546
 7920SOL    HW135396   4.593   1.802  11.101  0.4760 -0.7148  0.5584
 7920SOL    HW235397   4.618   1.830  11.243 -1.6176  1.9360 -1.5526
 7921SOL     OW35398   1.322   0.966  11.403  0.2297  0.0748 -0.0741
 7921SOL    HW135399   1.235   0.937  11.376  0.0216 -0.3565  1.0632
 7921SOL    HW235400   1.329   0.923  11.489 -0.1285 -0.1900 -0.1778
 7922SOL     OW35401   0.840   1.772   4.826  0.1169 -0.4106 -0.3115
 7922SOL    HW135402   0.821   1.721   4.747  2.4160 -2.3190  0.3710
 7922SOL    HW235403   0.752   1.764   4.864 -0.2180 -1.6980 -1.3492
 7923SOL     OW35404   2.228   2.327   0.022  0.2798 -0.0723  0.6642
 7923SOL    HW135405   2.289   2.283   0.081 -0.6425 -2.4867 -0.1826
 7923SOL    HW235406   2.169   2.261  17.727 -0.3433  1.5782 -1.3801
 7924SOL     OW35407   1.100   3.894   8.863  0.1057  0.2552  0.1224
 7924SOL    HW135408   1.116   3.920   8.953  1.8953 -0.4866  0.0203
 7924SOL    HW235409   1.153   3.815   8.869  0.7960  0.7667  0.7182
 7925SOL     OW35410   3.240   4.220   2.909 -0.1128  0.3611 -0.3595
 7925SOL    HW135411   3.300   4.208   2.835 -0.6061 -0.7054 -0.5755
 7925SOL    HW235412   3.297   4.273   2.965  1.5135 -1.2110 -0.5237
 7926SOL     OW35413   3.703   3.127   7.002  0.0104  0.4111  0.4252
 7926SOL    HW135414   3.608   3.136   7.010 -0.1700 -0.7710 -0.5094
 7926SOL    HW235415   3.727   3.122   7.095  0.6054  0.3947  0.2710
 7927SOL     OW35416   0.501   0.976  14.203 -0.3232 -0.4371  0.0888
 7927SOL    HW135417   0.430   0.935  14.252 -1.0990 -0.8245 -1.3534
 7927SOL    HW235418   0.471   1.067  14.206 -0.5023 -0.5459  1.3674
 7928SOL     OW35419   0.921   2.062   0.964 -0.1187  0.3140 -0.0658
 7928SOL    HW135420   0.971   2.013   0.899 -2.8412  0.4253 -2.2170
 7928SOL    HW235421   0.915   2.004   1.040 -0.3804  0.5795  0.1146
 7929SOL     OW35422   4.550   1.116   3.802 -0.5579 -0.3780  0.4351
 7929SOL    HW135423   4.524   1.093   3.713 -1.9441 -1.0144  1.0009
 7929SOL    HW235424   4.545   1.211   3.792 -1.2537 -0.6584 -1.8571
 7930SOL     OW35425   3.373   2.163   3.010 -0.5141  0.0133  0.0150
 7930SOL    HW135426   3.297   2.152   3.068 -0.9366 -2.5075 -0.9940
 7930SOL    HW235427   3.321   2.157   2.929 -0.9029  2.3958  0.1025
 7931SOL     OW35428   0.836   3.226  15.004  0.0754  0.1416 -0.1226
 7931SOL    HW135429   0.754   3.263  15.035  0.1581  0.0523  0.2066
 7931SOL    HW235430   0.893   3.300  15.024  0.1833 -0.2080  0.8240
 7932SOL     OW35431   4.081   2.604  12.760  0.3646  0.0513 -0.2943
 7932SOL    HW135432   4.032   2.686  12.757 -0.2054 -0.2195  1.3490
 7932SOL    HW235433   4.168   2.641  12.747 -0.3952  1.7834 -0.4801
 7933SOL     OW35434   0.984   2.363   8.561 -0.5522 -0.0708 -0.0464
 7933SOL    HW135435   0.992   2.280   8.515  1.9547 -0.6952  1.5194
 7933SOL    HW235436   0.995   2.421   8.486 -3.4531 -1.3832 -1.4870
 7934SOL     OW35437   0.864   1.940   1.225 -0.0447 -0.1650  0.0852
 7934SOL    HW135438   0.873   1.859   1.276 -1.8422 -0.8205 -0.6462
 7934SOL    HW235439   0.924   1.997   1.274 -0.7554  1.2106 -0.6639
 7935SOL     OW35440   3.145   3.028   5.889 -0.4275 -0.7188  0.0985
 7935SOL    HW135441   3.086   3.000   5.819  1.3568 -0.9496 -1.3190
 7935SOL    HW235442   3.085   3.003   5.960 -0.6722 -0.9821 -0.2003
 7936SOL     OW35443   1.947   3.443  11.592 -0.1731 -0.2779 -0.3946
 7936SOL    HW135444   1.883   3.375  11.613 -0.3778 -0.9433 -3.1898
 7936SOL    HW235445   1.899   3.525  11.605  0.4956  0.0496 -0.0145
 7937SOL     OW35446   2.243   0.094  17.540  0.3019 -0.0645 -0.1601
 7937SOL    HW135447   2.177   0.072  17.473 -1.6246 -0.1461  1.7635
 7937SOL    HW235448   2.235   0.189  17.549 -1.0745 -0.2844  1.0125
 7938SOL     OW35449   0.481   3.934   6.031 -0.0493 -0.3973 -0.1248
 7938SOL    HW135450   0.421   3.870   5.993  1.4598 -1.7476 -0.2348
 7938SOL    HW235451   0.429   3.989   6.091  2.6261  1.3708  0.5656
 7939SOL     OW35452   0.627   3.473   6.471  0.0101 -0.0711 -0.0075
 7939SOL    HW135453   0.668   3.391   6.444 -1.0173 -1.0583  1.4646
 7939SOL    HW235454   0.685   3.501   6.542 -0.3718 -0.8611  0.6114
 7940SOL     OW35455   0.362   0.144   6.529 -0.1356  0.5224  0.5018
 7940SOL    HW135456   0.285   0.134   6.473  0.9845 -0.6751 -0.8390
 7940SOL    HW235457   0.333   0.217   6.583 -1.3632  2.1494 -2.3185
 7941SOL     OW35458   2.495   4.026   3.299  0.1854 -0.3323 -0.3655
 7941SOL    HW135459   2.418   3.970   3.290 -2.3705  2.9996  0.7743
 7941SOL    HW235460   2.476   4.093   3.234 -0.1010  0.8818  0.9669
 7942SOL     OW35461   3.757   1.800  11.134 -0.0714  0.3347  0.9927
 7942SOL    HW135462   3.727   1.728  11.189 -1.7973 -0.0196 -0.4138
 7942SOL    HW235463   3.729   1.869  11.194 -0.4580  1.0738 -0.0516
 7943SOL     OW35464   1.939   1.995   5.894 -0.2269  1.2109  0.1564
 7943SOL    HW135465   1.903   1.916   5.856 -3.0214  2.4483  0.2500
 7943SOL    HW235466   1.864   2.055   5.893 -0.9689  0.3224  3.4079
 7944SOL     OW35467   0.677   0.314   2.024 -0.2099  0.1181 -0.2758
 7944SOL    HW135468   0.735   0.298   2.098  0.9402 -2.3844 -1.7290
 7944SOL    HW235469   0.708   0.260   1.952 -1.7750 -0.7421 -0.3041
 7945SOL     OW35470   4.332   1.039   5.970 -0.3897 -0.4248  0.1449
 7945SOL    HW135471   4.273   1.017   5.897  0.9676 -0.4707 -0.9370
 7945SOL    HW235472   4.395   0.968   5.964  0.5340  0.3816  0.3269
 7946SOL     OW35473   3.199   1.664   5.416  0.2816 -0.3928  0.0393
 7946SOL    HW135474   3.163   1.590   5.367  1.2817 -0.5361 -0.4798
 7946SOL    HW235475   3.240   1.718   5.348  0.3183 -0.7268 -0.2084
 7947SOL     OW35476   3.743   2.124   6.984 -0.5084 -0.0955 -0.2028
 7947SOL    HW135477   3.670   2.063   6.981  0.9734 -1.8925  0.5836
 7947SOL    HW235478   3.805   2.089   6.921  1.3645  1.0443  0.9805
 7948SOL     OW35479   0.715   3.504   8.935 -0.3120 -0.4371 -0.1548
 7948SOL    HW135480   0.790   3.464   8.980 -1.5859 -1.4708  1.0330
 7948SOL    HW235481   0.737   3.594   8.960 -1.1446 -0.1228 -0.5560
 7949SOL     OW35482   0.726   1.277   0.067 -0.2423  0.1177 -0.7120
 7949SOL    HW135483   0.766   1.362   0.082 -1.7577  0.4504  1.5971
 7949SOL    HW235484   0.635   1.307   0.059 -0.2219  0.3300 -0.1537
 7950SOL     OW35485   1.583   4.328   3.325 -0.1419  0.0888 -0.1661
 7950SOL    HW135486   1.650   4.308   3.260  0.1794 -0.1985  0.2509
 7950SOL    HW235487   1.510   4.272   3.299 -0.4764  1.1334 -1.4692
 7951SOL     OW35488   1.055   2.301   2.425  0.0391 -0.4505 -0.1118
 7951SOL    HW135489   1.030   2.301   2.517 -0.7713 -0.7754 -0.3363
 7951SOL    HW235490   1.014   2.217   2.406 -1.0703  0.3040 -1.0531
 7952SOL     OW35491   2.217   1.033   3.571  0.0293  0.8661  0.2666
 7952SOL    HW135492   2.228   1.069   3.658  2.1619  1.1939 -0.1430
 7952SOL    HW235493   2.136   0.982   3.577  1.4754 -1.3445  1.1222
 7953SOL     OW35494   0.659   1.711   7.667 -0.4391 -0.5523 -0.2427
 7953SOL    HW135495   0.672   1.677   7.579 -0.8090 -2.1472  0.3095
 7953SOL    HW235496   0.629   1.802   7.659 -0.4730 -0.5390  0.0147
 7954SOL     OW35497   2.920   4.003   8.718  0.2566  0.4945 -0.5204
 7954SOL    HW135498   2.832   4.041   8.716  0.5583  1.1094 -1.8276
 7954SOL    HW235499   2.921   3.966   8.630 -0.7831  1.0024 -0.7370
 7955SOL     OW35500   0.229   1.573   3.316 -0.3504  0.7572 -0.2081
 7955SOL    HW135501   0.323   1.564   3.334 -0.6826 -2.5238 -0.2182
 7955SOL    HW235502   0.206   1.532   3.233  1.3053 -0.2200 -0.1894
 7956SOL     OW35503   4.337   1.801  10.609 -0.3660  0.1851 -0.9764
 7956SOL    HW135504   4.332   1.732  10.676 -2.3627  0.3104 -1.0104
 7956SOL    HW235505   4.345   1.745  10.532 -1.3761 -0.6113 -0.5049
 7957SOL     OW35506   1.437   3.867   8.677 -0.0148  0.1034  0.1772
 7957SOL    HW135507   1.403   3.941   8.627 -0.4978 -2.3561 -3.1608
 7957SOL    HW235508   1.529   3.891   8.668 -0.0766  0.5981  0.8632
 7958SOL     OW35509   1.630   2.424  15.494  0.2371 -0.0568 -0.1303
 7958SOL    HW135510   1.710   2.473  15.512  1.1449 -1.2833 -0.8237
 7958SOL    HW235511   1.633   2.350  15.554  3.2104  1.1160  1.1714
 7959SOL     OW35512   3.106   0.966   6.732  0.1932  0.4385 -0.0192
 7959SOL    HW135513   3.143   0.905   6.668  1.1153 -1.0797  1.9863
 7959SOL    HW235514   3.184   1.004   6.773  0.5105 -0.2526  0.0119
 7960SOL     OW35515   1.203   0.667  17.463  0.9415 -0.1683  0.6387
 7960SOL    HW135516   1.137   0.729  17.495 -0.9673 -2.5451  1.3571
 7960SOL    HW235517   1.193   0.665  17.368  0.2152 -3.2403  0.7685
 7961SOL     OW35518   1.358   2.127   8.188  0.4633 -0.0798  0.1936
 7961SOL    HW135519   1.333   2.039   8.161  2.2735  0.2605 -2.5112
 7961SOL    HW235520   1.354   2.118   8.284 -1.2239 -2.2874 -0.0833
 7962SOL     OW35521   2.114   2.007  15.360  0.4310  0.2728  0.1571
 7962SOL    HW135522   2.143   1.940  15.297 -2.3547 -0.4253 -0.3951
 7962SOL    HW235523   2.023   2.019  15.331  0.3038 -0.9834  0.0255
 7963SOL     OW35524   2.822   3.591   5.342 -0.1809  0.1992  0.3383
 7963SOL    HW135525   2.863   3.533   5.406 -0.7588 -0.1180  0.4185
 7963SOL    HW235526   2.881   3.583   5.268  1.1563  0.1670  1.4104
 7964SOL     OW35527   3.866   0.673  17.657  0.2221 -0.5341 -0.6176
 7964SOL    HW135528   3.796   0.721  17.700  0.9433  0.1240 -0.1906
 7964SOL    HW235529   3.922   0.652  17.731 -0.5202  0.8968  0.3459
 7965SOL     OW35530   3.568   3.331   6.692  0.0099 -0.6450 -0.0180
 7965SOL    HW135531   3.481   3.351   6.659  0.9264  0.8280 -1.5473
 7965SOL    HW235532   3.557   3.240   6.722 -2.3636 -0.5278 -0.5733
 7966SOL     OW35533   4.613   1.835   4.292 -0.4858 -0.2308 -0.3733
 7966SOL    HW135534   4.653   1.900   4.234  1.5647 -1.9516 -0.8845
 7966SOL    HW235535   4.532   1.882   4.313  0.2325  1.5125 -1.5334
 7967SOL     OW35536   4.329   2.889   5.010 -0.3636 -0.1747  0.1347
 7967SOL    HW135537   4.381   2.810   4.994  0.9778  0.9528 -1.0535
 7967SOL    HW235538   4.239   2.859   5.001 -0.6311  0.6189  0.1754
 7968SOL     OW35539   0.269   2.196   7.656 -0.1931  0.2429 -0.5464
 7968SOL    HW135540   0.285   2.189   7.562  1.0360  0.6390 -0.3595
 7968SOL    HW235541   0.252   2.104   7.677 -0.5576  0.4854  0.2407
 7969SOL     OW35542   2.765   3.605   9.542  0.0367  0.0801 -0.0130
 7969SOL    HW135543   2.810   3.679   9.501  1.0769 -1.1883 -1.1464
 7969SOL    HW235544   2.729   3.643   9.622 -1.5342 -1.5916  0.0619
 7970SOL     OW35545   2.768   2.846  11.102 -0.0358 -0.5505 -0.0164
 7970SOL    HW135546   2.726   2.762  11.122  2.3929 -1.6570  0.3299
 7970SOL    HW235547   2.694   2.903  11.080  1.0194  0.2893 -1.3681
 7971SOL     OW35548   4.442   0.696   3.532 -0.0792 -0.2847 -0.1097
 7971SOL    HW135549   4.361   0.744   3.550 -0.7545 -1.2594 -0.5444
 7971SOL    HW235550   4.431   0.687   3.437  0.1395  2.0138 -0.3457
 7972SOL     OW35551   4.733   0.577   9.385 -0.6512 -0.3195 -0.6771
 7972SOL    HW135552   0.031   0.494   9.418 -0.4615 -1.3114 -3.3781
 7972SOL    HW235553   4.639   0.561   9.390 -0.7027 -0.1945 -1.2753
 7973SOL     OW35554   4.065   2.912   6.653 -0.0913 -0.2296  0.7141
 7973SOL    HW135555   4.052   2.830   6.700 -0.3261  0.0729  1.1725
 7973SOL    HW235556   4.130   2.962   6.702  0.8585  0.7061 -1.4550
 7974SOL     OW35557   1.191   3.754  11.883  0.2837  0.2408  0.4136
 7974SOL    HW135558   1.203   3.696  11.808 -1.3281 -0.1153  0.4170
 7974SOL    HW235559   1.280   3.763  11.915  0.3598 -2.5084  0.9879
 7975SOL     OW35560   0.199   1.836   4.218 -0.5826 -0.4031 -0.0070
 7975SOL    HW135561   0.150   1.758   4.190  1.0504 -1.4833  0.1931
 7975SOL    HW235562   0.219   1.816   4.309  0.5800 -0.3378 -0.2538
 7976SOL     OW35563   1.822   3.029  14.107 -0.0116  0.1432 -0.2660
 7976SOL    HW135564   1.787   2.954  14.155 -0.0921 -0.3824 -1.1552
 7976SOL    HW235565   1.800   3.098  14.170  0.0312 -2.1510  2.2913
 7977SOL     OW35566   4.551   4.352   6.957 -0.3769 -0.0217 -0.2321
 7977SOL    HW135567   4.487   4.408   6.913 -1.2616  0.3478  1.5001
 7977SOL    HW235568   4.498   4.306   7.023 -0.7517  1.4531  0.4990
 7978SOL     OW35569   4.341   1.094   0.510  0.1362  0.1356 -0.1762
 7978SOL    HW135570   4.429   1.128   0.531  0.1212  1.7518 -2.7548
 7978SOL    HW235571   4.308   1.184   0.510 -0.2396 -0.0222 -2.2914
 7979SOL     OW35572   0.586   2.856  14.159  0.6339  0.3361  0.1327
 7979SOL    HW135573   0.534   2.837  14.238  2.3159 -1.0006  0.9046
 7979SOL    HW235574   0.516   2.879  14.097  1.1781 -0.2421 -0.6851
 7980SOL     OW35575   2.781   4.278   6.293  0.2484 -0.0618  0.4060
 7980SOL    HW135576   2.739   4.310   6.213 -2.8406  1.7675  2.7563
 7980SOL    HW235577   2.786   4.187   6.266 -0.6376  0.1613 -0.5093
 7981SOL     OW35578   0.833   2.850   2.211 -0.0830  0.1440 -0.3963
 7981SOL    HW135579   0.738   2.840   2.217  0.0306 -1.3752 -0.9373
 7981SOL    HW235580   0.859   2.770   2.164  3.5277  1.3623 -0.4756
 7982SOL     OW35581   1.412   4.724  16.907 -0.0060  0.2718  0.7035
 7982SOL    HW135582   1.326   0.005  16.946  1.0076  1.6886  2.3351
 7982SOL    HW235583   1.384   4.669  16.833 -0.8742  1.0963  0.4244
 7983SOL     OW35584   1.639   1.407   0.633 -0.3797 -0.5009 -0.1099
 7983SOL    HW135585   1.556   1.367   0.662  0.4074  0.6410  3.7270
 7983SOL    HW235586   1.673   1.436   0.717 -1.0886  1.2270 -0.4361
 7984SOL     OW35587   2.962   4.291   2.502 -0.1827  0.4627 -0.3515
 7984SOL    HW135588   2.908   4.369   2.492  0.2594  0.7883 -0.2214
 7984SOL    HW235589   3.035   4.304   2.441 -1.8798  1.5786 -2.1255
 7985SOL     OW35590   4.691   2.685   1.313 -0.3145  0.2535  0.3062
 7985SOL    HW135591   4.731   2.612   1.265 -1.9277 -0.9590  0.8238
 7985SOL    HW235592   4.716   2.686   1.405 -1.1680 -0.9264  0.5395
 7986SOL     OW35593   1.050   1.821   6.461  0.1867  0.1540  0.0789
 7986SOL    HW135594   1.071   1.752   6.525  2.0073  0.0738 -0.6105
 7986SOL    HW235595   1.061   1.893   6.523 -0.6999 -0.6390  1.1704
 7987SOL     OW35596   3.501   4.299   8.090  0.2755 -0.7687 -0.0745
 7987SOL    HW135597   3.588   4.313   8.054 -0.8506  3.0827 -1.3277
 7987SOL    HW235598   3.458   4.301   8.004  1.2715  1.2501 -0.5175
 7988SOL     OW35599   1.572   1.425   2.933  0.0575  0.1871 -0.3115
 7988SOL    HW135600   1.490   1.470   2.917 -0.2486 -0.3345 -0.2285
 7988SOL    HW235601   1.625   1.455   2.859 -0.4259  2.2717  0.1981
 7989SOL     OW35602   2.875   1.592   3.032  0.4278 -0.2634  0.0624
 7989SOL    HW135603   2.781   1.613   3.038  0.0942 -1.4856 -0.9509
 7989SOL    HW235604   2.909   1.649   3.101 -1.1028  0.0677  0.5631
 7990SOL     OW35605   2.012   0.622   7.951 -0.6001  0.5543 -0.1006
 7990SOL    HW135606   1.927   0.579   7.943 -0.3852 -0.0817  1.0945
 7990SOL    HW235607   2.019   0.627   8.046  1.6008 -0.1173 -0.2363
 7991SOL     OW35608   3.432   1.840  10.846  0.4580  0.4249 -0.4215
 7991SOL    HW135609   3.484   1.772  10.888 -0.6148 -0.1918 -0.0958
 7991SOL    HW235610   3.368   1.781  10.807  2.6834 -1.1445 -1.7247
 7992SOL     OW35611   0.267   3.812   3.715  0.2997  0.5654 -0.1218
 7992SOL    HW135612   0.277   3.832   3.622  3.2502  0.3071  0.1252
 7992SOL    HW235613   0.228   3.895   3.742 -0.7296  0.5314 -1.5428
 7993SOL     OW35614   2.716   2.997   6.305 -0.5572 -0.7428 -0.0540
 7993SOL    HW135615   2.746   3.066   6.365  0.2349 -2.0377  1.0272
 7993SOL    HW235616   2.647   2.955   6.354 -0.4999 -0.9924 -0.1877
 7994SOL     OW35617   2.911   3.691   4.055 -0.8092  0.2156  0.9299
 7994SOL    HW135618   2.959   3.611   4.078 -0.3519 -0.1426 -1.2720
 7994SOL    HW235619   2.825   3.656   4.032 -1.3383  1.7217  0.6719
 7995SOL     OW35620   1.007   1.122  11.469  0.2944 -0.6977  0.3305
 7995SOL    HW135621   0.994   1.070  11.548  0.5006 -0.1981  0.6955
 7995SOL    HW235622   0.984   1.209  11.503  1.0540 -0.1555 -0.5292
 7996SOL     OW35623   3.467   0.724   7.341  0.2971 -0.0308 -0.2769
 7996SOL    HW135624   3.385   0.766   7.366  1.1570 -0.3518  2.9884
 7996SOL    HW235625   3.439   0.635   7.361  1.2031 -0.7581 -2.1522
 7997SOL     OW35626   0.299   0.212   3.141  0.0908 -0.2537  0.2055
 7997SOL    HW135627   0.293   0.181   3.050 -1.9105  0.1485  0.2102
 7997SOL    HW235628   0.261   0.299   3.131  0.2090  0.2030  3.6237
 7998SOL     OW35629   3.347   0.989   6.848 -0.4147  0.1259  0.5408
 7998SOL    HW135630   3.331   0.963   6.938 -2.4140 -2.2634 -0.4902
 7998SOL    HW235631   3.409   1.062   6.848 -0.2545 -0.0145  1.2457
 7999SOL     OW35632   2.607   0.806  15.511  0.0281  0.3082 -0.4634
 7999SOL    HW135633   2.593   0.876  15.447 -1.5894  1.8178  1.5420
 7999SOL    HW235634   2.581   0.860  15.585 -2.2436 -0.5304 -0.6439
 8000SOL     OW35635   1.556   0.750  10.570  0.1259 -0.1330 -0.5897
 8000SOL    HW135636   1.601   0.815  10.625  0.2062  0.3930 -1.2775
 8000SOL    HW235637   1.619   0.679  10.562 -0.4461 -0.4293 -2.5069
 8001SOL     OW35638   1.909   2.531  15.593  0.4141 -0.2340  0.5220
 8001SOL    HW135639   2.000   2.560  15.606 -0.0454  1.6797 -0.4836
 8001SOL    HW235640   1.909   2.438  15.573 -1.1223 -0.2220  0.4569
 8002SOL     OW35641   0.777   3.400  12.646 -0.5050 -0.2019 -0.2997
 8002SOL    HW135642   0.746   3.433  12.561  0.3907  0.3274 -0.4210
 8002SOL    HW235643   0.804   3.313  12.618 -0.6001 -0.0788 -0.7839
 8003SOL     OW35644   1.921   2.302   1.425  0.0900 -0.0509 -0.2166
 8003SOL    HW135645   1.878   2.258   1.498  0.9232 -0.1149  0.2397
 8003SOL    HW235646   1.926   2.394   1.450 -0.9496 -0.1460  0.3644
 8004SOL     OW35647   2.311   2.307   1.806 -0.6009  0.0556  0.1045
 8004SOL    HW135648   2.287   2.223   1.845 -0.2639 -1.1505 -2.2605
 8004SOL    HW235649   2.404   2.296   1.823 -0.0268 -0.0918 -3.1437
 8005SOL     OW35650   0.880   2.767   8.522 -0.0304  0.2953 -0.2573
 8005SOL    HW135651   0.968   2.758   8.485  1.1445  3.3606  1.6877
 8005SOL    HW235652   0.911   2.814   8.600  0.4497  0.9315 -0.8318
 8006SOL     OW35653   1.281   0.782   1.747  0.1242 -0.4059 -0.2823
 8006SOL    HW135654   1.302   0.851   1.810 -1.5475  1.5712 -1.8893
 8006SOL    HW235655   1.243   0.720   1.810 -2.3291 -0.6531 -2.0045
 8007SOL     OW35656   0.430   0.167  10.159 -0.0370  0.1985  0.0766
 8007SOL    HW135657   0.353   0.134  10.113  0.9833 -0.9421 -0.8186
 8007SOL    HW235658   0.443   0.253  10.120  2.8191 -0.6936 -0.9040
 8008SOL     OW35659   1.108   3.431   3.854 -0.0353  0.8180 -0.4657
 8008SOL    HW135660   1.118   3.345   3.815 -2.1169  0.2048  0.3315
 8008SOL    HW235661   1.194   3.469   3.838  0.3150  0.2455  0.0951
 8009SOL     OW35662   2.591   4.012  14.849  0.1914  0.0514  0.0796
 8009SOL    HW135663   2.509   4.037  14.891  0.8640 -0.4591  1.7097
 8009SOL    HW235664   2.616   3.941  14.909  1.3001 -0.4735 -0.9970
 8010SOL     OW35665   4.039   2.808   9.322 -0.3892 -0.1896  0.2764
 8010SOL    HW135666   3.971   2.854   9.372 -0.0283 -0.2093  0.7894
 8010SOL    HW235667   4.103   2.807   9.393  0.0187  0.4574 -0.0815
 8011SOL     OW35668   1.274   2.216  10.701  0.4143  0.5601 -0.5141
 8011SOL    HW135669   1.275   2.311  10.692 -0.3587  0.7352  1.3835
 8011SOL    HW235670   1.365   2.191  10.682  1.1401  2.3439  0.6322
 8012SOL     OW35671   3.263   0.277  16.110 -0.3537  0.9017 -0.4602
 8012SOL    HW135672   3.241   0.192  16.074  4.2521 -0.8829  0.8516
 8012SOL    HW235673   3.210   0.338  16.059 -1.8305  1.8266  2.1770
 8013SOL     OW35674   0.722   2.616  16.529 -0.1958  0.5636 -0.1797
 8013SOL    HW135675   0.740   2.709  16.543  2.3976  0.0227  0.0144
 8013SOL    HW235676   0.763   2.603  16.444 -1.5798 -0.7264 -0.6459
 8014SOL     OW35677   2.462   1.306   7.294  0.3960 -1.0809 -1.3331
 8014SOL    HW135678   2.409   1.239   7.337 -0.8849  2.1703  2.1084
 8014SOL    HW235679   2.412   1.386   7.278  0.2927 -1.2459 -1.8412
 8015SOL     OW35680   2.973   3.351   5.559 -0.3847 -0.2031 -0.1032
 8015SOL    HW135681   3.012   3.267   5.537  0.9237  0.1035  1.0720
 8015SOL    HW235682   3.022   3.411   5.503  0.2234 -1.9611 -1.4603
 8016SOL     OW35683   2.590   1.536   8.336 -0.6363  0.4651 -0.0431
 8016SOL    HW135684   2.528   1.597   8.297 -1.2315  0.3999  0.8104
 8016SOL    HW235685   2.616   1.482   8.261 -2.4828 -0.5025  0.0133
 8017SOL     OW35686   3.745   0.099  15.899  0.5086  0.5442  0.0454
 8017SOL    HW135687   3.750   0.147  15.817  0.0433 -1.7012 -1.2975
 8017SOL    HW235688   3.738   0.007  15.875  0.3515  1.0745 -1.9438
 8018SOL     OW35689   4.704   3.868  11.541  0.1493  0.3135  0.1254
 8018SOL    HW135690   0.042   3.832  11.492 -0.3604  0.1944 -0.5434
 8018SOL    HW235691   4.682   3.795  11.598  1.3014  0.7146  1.0812
 8019SOL     OW35692   0.059   0.935   7.588 -0.9110  0.1811  0.0774
 8019SOL    HW135693   4.722   0.899   7.639 -2.0816 -0.3641 -1.9905
 8019SOL    HW235694   0.068   0.866   7.523 -1.8182  0.5791 -0.4701
 8020SOL     OW35695   4.566   0.491   0.925  0.5172 -0.4628 -0.9122
 8020SOL    HW135696   4.584   0.457   1.013  0.2295  2.5883  0.3054
 8020SOL    HW235697   4.477   0.518   0.949  0.3178 -0.5884 -1.5046
 8021SOL     OW35698   2.335   1.099   7.412  0.2248  0.3872 -0.5555
 8021SOL    HW135699   2.412   1.049   7.441 -0.5356 -0.8617 -0.6522
 8021SOL    HW235700   2.326   1.072   7.320  0.3345  1.6461 -0.9289
 8022SOL     OW35701   0.257   3.103   3.584  0.3238  0.4792 -0.2587
 8022SOL    HW135702   0.258   3.024   3.637  2.4781  0.2352 -0.6474
 8022SOL    HW235703   0.256   3.067   3.495 -0.6185 -3.1218  1.2145
 8023SOL     OW35704   3.246   0.740   7.481 -0.1819  0.6564 -0.0495
 8023SOL    HW135705   3.186   0.666   7.489 -0.3151  0.8766  1.0176
 8023SOL    HW235706   3.244   0.774   7.570  2.0396 -1.4750  0.7995
 8024SOL     OW35707   1.494   4.358  16.605 -0.0408  0.7445  0.5835
 8024SOL    HW135708   1.563   4.413  16.567 -1.3727  1.7518 -0.3983
 8024SOL    HW235709   1.436   4.345  16.530  1.1811 -2.2321  0.1555
 8025SOL     OW35710   3.818   0.549   1.370 -0.1451  0.1380 -0.3058
 8025SOL    HW135711   3.759   0.476   1.353  0.3363 -0.3377  0.0859
 8025SOL    HW235712   3.892   0.529   1.313  0.1260 -2.4448  0.9609
 8026SOL     OW35713   4.707   4.650   2.403 -0.1465 -0.7035 -0.2606
 8026SOL    HW135714   0.041   4.708   2.435 -0.7356 -0.9328  1.4576
 8026SOL    HW235715   4.630   4.687   2.445  0.1315 -0.8016  0.3403
 8027SOL     OW35716   0.458   1.306   7.385 -0.5539  0.2378 -0.2957
 8027SOL    HW135717   0.476   1.253   7.463  1.6341  2.2154  0.5355
 8027SOL    HW235718   0.541   1.337   7.350 -1.7111  0.8436 -2.4863
 8028SOL     OW35719   3.241   3.903   6.853  0.6983 -0.4444  0.7755
 8028SOL    HW135720   3.320   3.914   6.905  1.2877  2.5813 -0.7875
 8028SOL    HW235721   3.183   3.905   6.929  0.3584  1.2444  0.4651
 8029SOL     OW35722   3.059   3.366   7.257 -0.1694 -0.5076  0.3735
 8029SOL    HW135723   2.997   3.314   7.205 -0.3096  1.3132 -1.2713
 8029SOL    HW235724   3.094   3.428   7.193 -1.5101  0.5784  0.6980
 8030SOL     OW35725   3.067   0.831   3.819  0.1752  0.3220  0.0499
 8030SOL    HW135726   3.014   0.822   3.740 -0.9702  1.3907  0.6941
 8030SOL    HW235727   3.057   0.926   3.824  0.0033  0.2018  2.1892
 8031SOL     OW35728   0.803   2.631   1.902  0.4843 -0.2580  0.1721
 8031SOL    HW135729   0.804   2.539   1.875  1.1145 -0.0108 -0.6544
 8031SOL    HW235730   0.798   2.623   1.997  0.7335  0.3848  0.2376
 8032SOL     OW35731   1.902   2.794  13.045  0.2285  0.1299 -0.5577
 8032SOL    HW135732   1.852   2.874  13.027 -0.4113  0.1892  1.4861
 8032SOL    HW235733   1.902   2.751  12.959  0.3157  0.4273 -0.7090
 8033SOL     OW35734   2.518   2.846   5.011  0.0980  0.4070 -0.3498
 8033SOL    HW135735   2.609   2.836   5.041  0.3738 -0.8635 -1.6175
 8033SOL    HW235736   2.475   2.788   5.074 -1.1382  3.1865  1.3763
 8034SOL     OW35737   2.849   1.573   8.461  0.5685  0.3975  0.1475
 8034SOL    HW135738   2.842   1.593   8.555 -1.1423  0.7625 -0.0573
 8034SOL    HW235739   2.757   1.557   8.440  0.5351 -1.3654  1.6624
 8035SOL     OW35740   1.791   1.168   4.568 -0.1905 -0.1481  0.1592
 8035SOL    HW135741   1.728   1.181   4.640 -0.9329 -0.2860 -0.4659
 8035SOL    HW235742   1.844   1.248   4.580  0.9718 -0.9284  0.2021
 8036SOL     OW35743   2.022   3.705   5.993 -0.3321 -0.2581 -0.4464
 8036SOL    HW135744   2.091   3.674   5.935  1.6104 -0.4367  2.0078
 8036SOL    HW235745   2.014   3.632   6.053 -0.8931 -0.8480 -1.2320
 8037SOL     OW35746   2.442   3.788   5.590 -0.4390 -0.1983  0.8675
 8037SOL    HW135747   2.425   3.724   5.521 -2.3640 -1.2388  2.3244
 8037SOL    HW235748   2.353   3.823   5.601 -0.7465 -0.7523  0.1170
 8038SOL     OW35749   2.896   0.680   7.835  0.1454  0.4393  0.4772
 8038SOL    HW135750   2.986   0.701   7.807 -0.0653  1.2848  0.4354
 8038SOL    HW235751   2.844   0.679   7.754  1.8764  1.9605 -0.6723
 8039SOL     OW35752   4.167   0.252   2.845  0.3546 -0.9167  0.5282
 8039SOL    HW135753   4.231   0.275   2.912  0.3685  1.8344 -0.4164
 8039SOL    HW235754   4.167   0.159   2.868  1.8755 -0.8808  0.7109
 8040SOL     OW35755   4.161   4.057  10.400  0.4026  0.2326 -0.3426
 8040SOL    HW135756   4.163   3.986  10.335 -1.5009 -1.5646  1.5470
 8040SOL    HW235757   4.113   4.021  10.475  0.0657  3.6710  1.0532
 8041SOL     OW35758   4.094   2.195   6.030  0.1632  0.0525 -0.1627
 8041SOL    HW135759   4.096   2.104   6.061 -2.7706  0.0928  0.1725
 8041SOL    HW235760   4.190   2.203   6.026  0.2390 -1.0630 -0.6250
 8042SOL     OW35761   0.367   1.316  16.595 -0.0568 -0.2609 -0.5502
 8042SOL    HW135762   0.284   1.282  16.627  0.8174 -0.5967  1.3293
 8042SOL    HW235763   0.372   1.283  16.505  0.8815 -0.9212 -0.2507
 8043SOL     OW35764   3.437   3.629  14.502 -0.5206  0.2438 -0.2334
 8043SOL    HW135765   3.433   3.722  14.484 -0.8744 -0.0028 -1.4386
 8043SOL    HW235766   3.408   3.592  14.418  1.3489  1.0200 -1.2383
 8044SOL     OW35767   1.104   1.392  11.170 -0.0244  0.5682 -0.2493
 8044SOL    HW135768   1.018   1.426  11.145 -1.1581 -1.7910  0.4029
 8044SOL    HW235769   1.160   1.469  11.181 -1.3723  1.7656 -1.8426
 8045SOL     OW35770   3.645   1.522   5.888  0.8785 -0.3601 -0.1156
 8045SOL    HW135771   3.717   1.460   5.891  0.3336 -1.0485 -1.1670
 8045SOL    HW235772   3.581   1.478   5.944  1.1030 -1.5716 -0.8114
 8046SOL     OW35773   0.553   0.669   5.134 -0.1656  0.0982 -0.2368
 8046SOL    HW135774   0.559   0.720   5.214 -0.1793  0.2713 -0.3458
 8046SOL    HW235775   0.647   0.656   5.120 -0.0988  0.8008 -0.4546
 8047SOL     OW35776   2.853   0.315   8.980 -0.8545  0.1446  0.4739
 8047SOL    HW135777   2.874   0.404   8.951  0.9275 -0.1010  0.9598
 8047SOL    HW235778   2.825   0.274   8.899 -0.0125 -0.2404  0.3763
 8048SOL     OW35779   0.520   0.124   7.065 -0.1871 -0.0616 -0.0723
 8048SOL    HW135780   0.607   0.084   7.060 -1.2880 -2.5608  1.0921
 8048SOL    HW235781   0.532   0.185   6.991 -1.1562  0.5775  0.3034
 8049SOL     OW35782   0.034   3.414  16.842  0.4523  0.1687 -0.5869
 8049SOL    HW135783   0.121   3.451  16.826 -0.0699  1.8150  0.4351
 8049SOL    HW235784   0.054   3.327  16.806 -0.7821 -0.1309 -0.5378
 8050SOL     OW35785   4.507   0.739   7.533  0.6859  0.1523  0.2576
 8050SOL    HW135786   4.484   0.799   7.462 -0.8221  0.8357  1.3187
 8050SOL    HW235787   4.418   0.708   7.552  0.6507  1.3444  2.0158
 8051SOL     OW35788   4.157   1.063  16.433  0.1283 -0.8544  0.2725
 8051SOL    HW135789   4.165   1.076  16.528  4.3542  0.4769 -0.2706
 8051SOL    HW235790   4.134   0.970  16.432 -0.1706 -0.7387 -3.1207
 8052SOL     OW35791   1.570   2.916   5.650  0.1194  0.3229 -0.4387
 8052SOL    HW135792   1.634   2.940   5.583  0.6011  1.6930  0.5176
 8052SOL    HW235793   1.628   2.916   5.726 -2.1633  0.5734  1.3030
 8053SOL     OW35794   2.403   3.467   6.313 -0.1761 -0.6169  0.3304
 8053SOL    HW135795   2.402   3.561   6.300  1.6661 -0.5937  0.3624
 8053SOL    HW235796   2.378   3.459   6.405  1.2121  3.4043  1.0382
 8054SOL     OW35797   3.300   3.243   4.604  0.4358 -0.6260  0.2202
 8054SOL    HW135798   3.279   3.221   4.513  1.1038 -1.6082  0.3043
 8054SOL    HW235799   3.356   3.319   4.590 -1.4037  0.7371  0.3058
 8055SOL     OW35800   3.990   3.145   4.541  0.1310 -0.3015 -0.4837
 8055SOL    HW135801   3.992   3.233   4.504 -1.3438 -0.2662 -0.4950
 8055SOL    HW235802   3.905   3.112   4.510 -0.1328 -2.5131  2.5685
 8056SOL     OW35803   1.524   3.734  16.282  0.5039  0.1661  0.4930
 8056SOL    HW135804   1.617   3.736  16.305  0.8716  1.7108 -1.1117
 8056SOL    HW235805   1.537   3.708  16.190  1.1075  1.0346  0.3360
 8057SOL     OW35806   1.465   1.390   4.939 -0.2465  0.0381  0.4102
 8057SOL    HW135807   1.544   1.397   4.992  0.6778  1.3650 -1.1143
 8057SOL    HW235808   1.441   1.482   4.929  1.5094  0.4621 -0.0909
 8058SOL     OW35809   3.959   1.167   2.100  0.7126  0.1607 -0.2989
 8058SOL    HW135810   3.890   1.132   2.045  1.6241 -0.1065 -1.2736
 8058SOL    HW235811   3.915   1.237   2.148 -0.9195  1.0640 -3.1370
 8059SOL     OW35812   2.245   2.032   3.979  0.1365 -0.1440 -0.5532
 8059SOL    HW135813   2.302   2.064   4.048  0.6586 -1.1140 -0.5363
 8059SOL    HW235814   2.179   2.101   3.985  2.3050  1.6259  2.7057
 8060SOL     OW35815   2.590   0.549   0.186 -0.0527  0.0050 -0.2025
 8060SOL    HW135816   2.600   0.643   0.171 -3.1915  0.5436  1.2774
 8060SOL    HW235817   2.515   0.553   0.245  0.2220  2.0021  0.0195
 8061SOL     OW35818   4.725   0.368   8.787  0.0472  0.0518 -0.0559
 8061SOL    HW135819   4.724   0.406   8.875  0.7329  0.8371 -0.3874
 8061SOL    HW235820   0.061   0.421   8.753  0.4309  0.9130  2.1289
 8062SOL     OW35821   1.010   1.219   1.407 -0.3079 -0.0220 -0.2418
 8062SOL    HW135822   0.975   1.141   1.450 -1.1365 -0.4361 -1.6698
 8062SOL    HW235823   0.940   1.240   1.346  0.8004 -1.3756 -1.9516
 8063SOL     OW35824   2.348   4.456  14.713  0.4299  0.8937  0.2372
 8063SOL    HW135825   2.329   4.364  14.693 -0.9224  1.4911 -1.2124
 8063SOL    HW235826   2.301   4.511  14.650 -0.6816 -0.4452 -0.1002
 8064SOL     OW35827   1.740   3.963   5.883 -0.3027 -0.0261  0.1352
 8064SOL    HW135828   1.678   3.994   5.817  1.9902 -1.1820 -2.5458
 8064SOL    HW235829   1.703   3.879   5.910  0.7924 -1.0167 -1.5215
 8065SOL     OW35830   3.098   2.217   9.628 -0.1223  0.2893  0.6163
 8065SOL    HW135831   3.103   2.173   9.713 -1.4457 -0.3615  0.3573
 8065SOL    HW235832   3.021   2.270   9.650  0.1033  0.8240  0.1119
 8066SOL     OW35833   0.386   0.161   4.172 -0.0091  0.6209 -0.0706
 8066SOL    HW135834   0.377   0.082   4.120 -1.2099  0.7900 -0.1216
 8066SOL    HW235835   0.370   0.228   4.106  4.6147  0.7923 -1.0100
 8067SOL     OW35836   1.230   3.474   5.996  0.3228 -0.2707 -0.2646
 8067SOL    HW135837   1.134   3.480   6.001  0.1665 -2.0261 -1.1239
 8067SOL    HW235838   1.252   3.416   6.068  3.7268 -0.3494 -1.3861
 8068SOL     OW35839   2.956   2.648   9.493 -0.1902 -0.9340  0.5885
 8068SOL    HW135840   2.987   2.647   9.403  1.0890 -0.7447  1.0232
 8068SOL    HW235841   2.975   2.741   9.508 -1.4639 -1.0251  2.8136
 8069SOL     OW35842   4.470   3.101   7.302  0.1618 -0.5539 -0.2235
 8069SOL    HW135843   4.503   3.060   7.222 -0.3918 -0.2763 -0.5963
 8069SOL    HW235844   4.382   3.062   7.303 -0.0275 -0.1176  0.2027
 8070SOL     OW35845   3.419   0.914  14.016  0.6376 -0.4888  0.0440
 8070SOL    HW135846   3.431   0.945  13.926  1.1739 -3.1400 -0.7694
 8070SOL    HW235847   3.507   0.881  14.033  1.0511  0.3779 -0.4161
 8071SOL     OW35848   1.759   3.405  16.643  0.0629 -0.2902 -0.5497
 8071SOL    HW135849   1.791   3.315  16.642 -1.1553 -0.7274  0.8580
 8071SOL    HW235850   1.681   3.399  16.588 -0.2232 -0.0891 -0.1599
 8072SOL     OW35851   1.356   1.856   6.436 -0.1081 -0.2170  0.1825
 8072SOL    HW135852   1.376   1.808   6.516 -1.1668 -0.0414  0.5456
 8072SOL    HW235853   1.262   1.841   6.435  0.1197 -1.6383 -0.2843
 8073SOL     OW35854   3.673   0.172   8.169  0.3347 -0.8987 -0.2554
 8073SOL    HW135855   3.609   0.101   8.183  0.8074 -1.3811 -0.5338
 8073SOL    HW235856   3.685   0.160   8.075  0.7471 -0.5414 -0.2462
 8074SOL     OW35857   2.391   3.097   5.398 -0.0214 -0.2701 -0.3165
 8074SOL    HW135858   2.448   3.158   5.353  0.5460  0.8377  1.9499
 8074SOL    HW235859   2.427   3.010   5.379 -0.1513 -0.2503 -0.6629
 8075SOL     OW35860   0.849   1.261  12.403 -0.4371 -0.1347  0.0621
 8075SOL    HW135861   0.844   1.297  12.315  0.2358 -0.5018 -0.1283
 8075SOL    HW235862   0.765   1.217  12.417  0.8294 -3.2611 -2.0238
 8076SOL     OW35863   0.853   3.965   6.567 -0.1814 -0.0542  0.1478
 8076SOL    HW135864   0.813   4.041   6.525  1.8804  0.2587 -1.1981
 8076SOL    HW235865   0.884   4.010   6.646  2.1462 -0.6874 -0.3991
 8077SOL     OW35866   1.755   1.251   3.094  0.5574 -0.0742  0.3337
 8077SOL    HW135867   1.791   1.332   3.129 -0.6982  0.7255 -0.2297
 8077SOL    HW235868   1.675   1.288   3.055  0.6398  1.0648  1.2347
 8078SOL     OW35869   1.248   4.661   1.773 -0.1151 -0.1921  0.6671
 8078SOL    HW135870   1.182   4.715   1.817  0.0084  0.5126  0.0037
 8078SOL    HW235871   1.210   4.574   1.781 -0.4351  0.0570  1.8192
 8079SOL     OW35872   1.595   3.524  14.638 -0.0635  0.2655 -0.1779
 8079SOL    HW135873   1.597   3.616  14.609 -1.2739  0.0486 -0.9837
 8079SOL    HW235874   1.550   3.488  14.561 -0.9055  1.3916 -0.2274
 8080SOL     OW35875   3.767   4.649   4.637  0.4979  0.0989 -0.5750
 8080SOL    HW135876   3.821   4.693   4.571 -0.6089 -0.4544 -1.8420
 8080SOL    HW235877   3.793   4.558   4.621  0.9613  0.4687 -1.9825
 8081SOL     OW35878   2.475   3.379   9.784  0.5113  0.0663 -0.9230
 8081SOL    HW135879   2.499   3.471   9.793 -0.3915  0.4477 -2.3475
 8081SOL    HW235880   2.393   3.382   9.834  0.6752 -0.9016 -0.6089
 8082SOL     OW35881   4.005   1.983   5.192 -0.0092 -0.0550 -0.0630
 8082SOL    HW135882   3.929   2.019   5.238 -0.4266 -0.8306 -0.1630
 8082SOL    HW235883   3.989   1.889   5.186  1.8531 -0.3758  0.1090
 8083SOL     OW35884   0.195   4.269   4.766  0.2448 -0.7006 -0.5443
 8083SOL    HW135885   0.241   4.252   4.684  1.6368 -2.3286  0.5944
 8083SOL    HW235886   0.126   4.203   4.772  0.2926 -0.7602 -0.6722
 8084SOL     OW35887   2.678   3.460   3.484  0.4323 -0.5820 -0.0521
 8084SOL    HW135888   2.598   3.490   3.527  0.3183 -2.3243  0.9504
 8084SOL    HW235889   2.663   3.502   3.399  0.8513 -1.3292 -0.4965
 8085SOL     OW35890   2.448   4.705  17.104  0.2538 -0.0598  0.4521
 8085SOL    HW135891   2.481   4.663  17.024  0.1286  1.2890 -0.3099
 8085SOL    HW235892   2.520   0.031  17.119  1.7103 -1.3936 -1.1423
 8086SOL     OW35893   1.709   0.796   6.008  0.5520 -0.4084  0.0362
 8086SOL    HW135894   1.769   0.795   6.082 -0.1414  1.6982  0.6151
 8086SOL    HW235895   1.628   0.786   6.057 -0.2925 -0.3727 -1.3494
 8087SOL     OW35896   2.522   1.347   7.919  0.2568  0.2593  0.1740
 8087SOL    HW135897   2.503   1.433   7.881 -1.0426 -0.5054 -0.9294
 8087SOL    HW235898   2.478   1.291   7.856 -0.2019  1.9265 -0.9966
 8088SOL     OW35899   4.061   4.735   6.335  0.4762  0.0535  0.1096
 8088SOL    HW135900   4.022   4.724   6.422 -0.3687  0.5700 -0.2041
 8088SOL    HW235901   4.042   0.092   6.321  0.5617 -0.2044 -1.6833
 8089SOL     OW35902   0.141   2.710  11.924 -0.3398 -0.5236 -0.2412
 8089SOL    HW135903   0.048   2.727  11.941 -0.9799 -0.9023 -3.4393
 8089SOL    HW235904   0.155   2.761  11.844  2.4032  0.8265  1.0675
 8090SOL     OW35905   2.499   1.908   4.643  0.5459 -0.0351 -0.5406
 8090SOL    HW135906   2.425   1.920   4.703  0.9033  0.7314 -0.2511
 8090SOL    HW235907   2.483   1.981   4.584  0.0007  1.0736  0.9666
 8091SOL     OW35908   0.134   2.640   7.168 -0.6388  0.4250  0.3629
 8091SOL    HW135909   0.070   2.704   7.199  0.2518  1.5360 -0.1113
 8091SOL    HW235910   0.078   2.584   7.113 -0.0699  1.4775 -1.2827
 8092SOL     OW35911   4.150   3.936   4.093  0.1096  0.0043  0.1217
 8092SOL    HW135912   4.213   3.865   4.081 -0.6977 -0.4054 -1.6406
 8092SOL    HW235913   4.107   3.950   4.009  2.9551  0.8786 -1.1815
 8093SOL     OW35914   3.094   4.642   3.382  0.1173 -0.0623 -0.2634
 8093SOL    HW135915   3.061   4.608   3.465  2.7930  1.5666  1.4468
 8093SOL    HW235916   3.012   4.683   3.354  0.1625  0.8718  1.0168
 8094SOL     OW35917   4.017   4.698  12.658 -0.1341 -0.0479  0.0785
 8094SOL    HW135918   4.027   4.712  12.564  1.0666  1.1152  0.3826
 8094SOL    HW235919   4.070   4.618  12.661 -1.3132 -0.8643 -1.0854
 8095SOL     OW35920   1.618   3.050   3.949 -0.0926  0.0806 -0.8031
 8095SOL    HW135921   1.638   2.969   3.902 -1.6664 -0.1152 -1.1304
 8095SOL    HW235922   1.613   3.021   4.040 -1.9475  0.1890 -0.8697
 8096SOL     OW35923   4.399   2.830   6.517  0.1753  0.3781 -0.0162
 8096SOL    HW135924   4.490   2.851   6.538 -0.2634  1.1598  1.0848
 8096SOL    HW235925   4.372   2.912   6.477 -0.4708  0.0078 -0.3459
 8097SOL     OW35926   2.317   4.217  10.614 -0.2602  0.3388 -0.1764
 8097SOL    HW135927   2.342   4.127  10.638 -1.7149  0.8747  3.2164
 8097SOL    HW235928   2.338   4.271  10.690 -0.2305  1.8670 -1.2878
 8098SOL     OW35929   1.508   1.035   5.408 -0.3325  0.3467  0.4591
 8098SOL    HW135930   1.533   1.107   5.350 -2.1652  0.8107  0.2350
 8098SOL    HW235931   1.541   0.962   5.356  0.2685  1.5472 -0.8442
 8099SOL     OW35932   0.162   3.921   9.535 -0.3942 -0.6304 -0.1395
 8099SOL    HW135933   0.105   3.897   9.462 -0.2214 -1.4691  0.0078
 8099SOL    HW235934   0.119   3.870   9.604  1.8570 -0.7871  1.1549
 8100SOL     OW35935   0.787   2.133  11.990 -0.2389 -0.1585  0.2651
 8100SOL    HW135936   0.847   2.128  11.915  0.8984  0.6336  1.1160
 8100SOL    HW235937   0.851   2.105  12.055 -1.1982 -1.2969  0.7213
 8101SOL     OW35938   2.763   1.707   4.847  0.4489  0.3047 -0.5824
 8101SOL    HW135939   2.707   1.785   4.842 -0.9571 -0.6382  0.7816
 8101SOL    HW235940   2.699   1.640   4.824  0.9858  0.3154 -2.1113
 8102SOL     OW35941   3.386   0.764   7.862  0.4646 -0.0556 -0.5811
 8102SOL    HW135942   3.430   0.692   7.909 -0.3794 -0.1215  0.1120
 8102SOL    HW235943   3.390   0.833   7.928  0.4549 -0.5601 -0.0470
 8103SOL     OW35944   3.123   0.456  15.934 -0.4813 -0.2762  0.5021
 8103SOL    HW135945   3.152   0.426  15.848  0.1125  0.8723  0.3078
 8103SOL    HW235946   3.167   0.540  15.943 -0.4312 -0.1223 -1.2495
 8104SOL     OW35947   3.017   2.601   9.885 -0.2899  0.1132 -0.0527
 8104SOL    HW135948   2.955   2.573   9.818  0.4612 -0.0322 -0.6905
 8104SOL    HW235949   2.949   2.642   9.939  0.9326  1.1074  0.7380
 8105SOL     OW35950   0.691   0.854   8.916  0.1708 -0.0011 -0.5714
 8105SOL    HW135951   0.709   0.836   9.008  0.9913 -2.0808 -1.1426
 8105SOL    HW235952   0.602   0.888   8.918 -0.4832 -1.7759  0.4188
 8106SOL     OW35953   0.531   1.466   6.452 -0.4142 -0.0438  0.0773
 8106SOL    HW135954   0.549   1.404   6.523 -1.1398 -1.9470 -1.3915
 8106SOL    HW235955   0.615   1.508   6.432  0.2561 -1.8615 -0.9769
 8107SOL     OW35956   3.370   1.934   7.743 -0.9038 -0.4156 -0.0972
 8107SOL    HW135957   3.425   1.874   7.794 -0.2498 -0.1094 -0.4342
 8107SOL    HW235958   3.416   2.017   7.759 -4.0433  1.1241  0.9878
 8108SOL     OW35959   3.487   0.243  12.716 -0.1703 -0.3558  0.2639
 8108SOL    HW135960   3.411   0.253  12.658 -0.3346  2.7413  0.9846
 8108SOL    HW235961   3.484   0.152  12.744 -0.7100 -0.7343 -1.0353
 8109SOL     OW35962   2.990   2.905   6.842 -0.2923 -0.6898  0.2448
 8109SOL    HW135963   2.904   2.898   6.883 -0.0144 -1.5702  0.6828
 8109SOL    HW235964   2.976   2.862   6.758 -0.3892  1.7304 -0.9654
 8110SOL     OW35965   1.490   4.642   4.803 -0.1010  0.1303 -0.1082
 8110SOL    HW135966   1.437   4.585   4.747  1.2406  0.4876 -1.7556
 8110SOL    HW235967   1.435   4.666   4.877 -0.1935 -0.4941  0.0235
 8111SOL     OW35968   0.343   3.175   0.938 -0.3455 -0.2479 -0.6657
 8111SOL    HW135969   0.355   3.082   0.920  0.2149 -0.4192  0.5699
 8111SOL    HW235970   0.435   3.201   0.933 -0.4431  0.0073 -1.1485
 8112SOL     OW35971   0.775   4.466  11.392 -0.5405  0.0030  0.2978
 8112SOL    HW135972   0.832   4.539  11.417 -0.7144 -0.4638  2.1140
 8112SOL    HW235973   0.722   4.495  11.318 -1.1836 -1.3754  0.2116
 8113SOL     OW35974   1.998   4.420   2.670 -0.4554 -0.1198  0.0386
 8113SOL    HW135975   2.089   4.435   2.697 -0.2398  0.9211 -1.2485
 8113SOL    HW235976   1.999   4.421   2.574 -0.8434 -3.4373 -0.0060
 8114SOL     OW35977   2.769   4.043  11.811  0.1063 -0.0905  0.0696
 8114SOL    HW135978   2.706   4.007  11.873  0.8486 -1.9219 -0.2394
 8114SOL    HW235979   2.851   4.031  11.859 -0.2485  0.8665  0.9342
 8115SOL     OW35980   4.001   2.202   4.463 -0.4699 -0.0042 -0.5244
 8115SOL    HW135981   4.072   2.139   4.474  0.8982  2.0291  2.1088
 8115SOL    HW235982   3.982   2.225   4.554 -0.5232  0.6909 -0.7140
 8116SOL     OW35983   0.380   2.896   0.928  0.0876  0.1320  0.0010
 8116SOL    HW135984   0.436   2.837   0.979 -1.1597 -1.2551 -0.2362
 8116SOL    HW235985   0.410   2.868   0.842  1.8360  1.9651  0.0036
 8117SOL     OW35986   2.563   3.056   7.612  0.5064  0.7234 -0.4740
 8117SOL    HW135987   2.634   3.107   7.650 -0.5563  2.1713 -0.4142
 8117SOL    HW235988   2.585   3.077   7.521 -1.3963 -0.2908 -1.1713
 8118SOL     OW35989   2.101   2.676   5.180  0.0763 -0.2854  0.9030
 8118SOL    HW135990   2.129   2.750   5.234 -0.3773  1.2122 -0.9024
 8118SOL    HW235991   2.088   2.609   5.246 -1.5852 -1.9928 -1.1614
 8119SOL     OW35992   3.853   0.354   1.988  0.2041 -0.0261 -0.0204
 8119SOL    HW135993   3.899   0.437   1.977  1.2590 -0.6187 -0.1060
 8119SOL    HW235994   3.929   0.298   1.971  1.7572  2.5736 -1.7937
 8120SOL     OW35995   4.587   1.810   3.451  0.0587  0.4736 -0.4844
 8120SOL    HW135996   4.619   1.722   3.432  0.4621  0.1040  1.9450
 8120SOL    HW235997   4.491   1.807   3.450  0.0652  0.2878 -0.4621
 8121SOL     OW35998   2.994   0.090  13.246 -0.0454 -0.0235 -0.2879
 8121SOL    HW135999   2.933   0.040  13.192 -1.3427 -2.1020  3.1643
 8121SOL    HW236000   3.051   0.016  13.266 -3.0087 -1.6370  1.9734
 8122SOL     OW36001   0.385   0.894   7.467  0.8755 -0.4523  0.3774
 8122SOL    HW136002   0.333   0.958   7.516 -2.7453 -1.3980 -2.2374
 8122SOL    HW236003   0.327   0.872   7.395  1.6210  1.5539 -0.8388
 8123SOL     OW36004   2.309   2.771   4.546 -0.0705 -0.3736  0.5047
 8123SOL    HW136005   2.336   2.819   4.624  2.3531  1.8896 -1.6979
 8123SOL    HW236006   2.270   2.694   4.587 -0.0120 -1.6021 -1.7643
 8124SOL     OW36007   4.726   3.150   0.587  0.9569  0.3312 -0.1775
 8124SOL    HW136008   0.016   3.208   0.659  1.0758  0.8794 -0.6635
 8124SOL    HW236009   4.697   3.218   0.526 -1.7356  0.9976  1.8236
 8125SOL     OW36010   1.687   1.249  17.054 -0.0036  0.5735 -0.5536
 8125SOL    HW136011   1.717   1.278  16.967 -0.6913  1.3199 -0.5422
 8125SOL    HW236012   1.711   1.157  17.058  0.0578  0.5879 -0.5804
 8126SOL     OW36013   3.607   2.425   8.785  0.0476  0.0925 -0.6164
 8126SOL    HW136014   3.611   2.463   8.873 -0.7546 -1.1646 -0.0462
 8126SOL    HW236015   3.650   2.487   8.726 -3.0420  0.9622 -1.9438
 8127SOL     OW36016   4.406   3.301  14.294 -0.0340 -0.8150 -0.3422
 8127SOL    HW136017   4.465   3.257  14.355  0.9311 -0.4407 -1.0186
 8127SOL    HW236018   4.323   3.253  14.289 -0.0326 -1.2887  3.4735
 8128SOL     OW36019   1.822   3.096  13.721 -0.2781 -0.1517  0.1357
 8128SOL    HW136020   1.832   3.159  13.650  0.0593 -1.2303 -0.7729
 8128SOL    HW236021   1.823   3.021  13.662  3.2910  1.0561 -1.3355
 8129SOL     OW36022   2.803   4.370  13.677 -0.6554  0.1827 -0.4172
 8129SOL    HW136023   2.888   4.379  13.720 -0.0589 -1.7563 -1.1708
 8129SOL    HW236024   2.787   4.278  13.700 -0.8601  0.6377  1.2786
 8130SOL     OW36025   0.974   1.376   8.171 -0.8048 -0.0279 -0.2261
 8130SOL    HW136026   0.960   1.285   8.147 -1.3981  0.2591 -0.9924
 8130SOL    HW236027   0.920   1.423   8.107 -0.5419 -0.1366 -0.5235
 8131SOL     OW36028   3.125   0.533   1.581  0.4082  0.3358 -0.0289
 8131SOL    HW136029   3.037   0.557   1.611 -0.4253 -2.1254 -0.4940
 8131SOL    HW236030   3.114   0.500   1.492  0.9239 -0.0900  0.0649
 8132SOL     OW36031   0.712   2.353  14.391 -0.0592  0.5720 -0.7572
 8132SOL    HW136032   0.633   2.303  14.373 -1.0907  0.9209  2.7908
 8132SOL    HW236033   0.762   2.351  14.309  0.4472  0.3750 -0.4457
 8133SOL     OW36034   2.242   1.273  15.799  0.7829  0.2609  0.2319
 8133SOL    HW136035   2.236   1.211  15.871  0.3857  0.1169  0.0737
 8133SOL    HW236036   2.156   1.312  15.782  0.6800  1.0395  2.5113
 8134SOL     OW36037   2.787   0.406   8.257  0.2017 -0.0706  0.1007
 8134SOL    HW136038   2.843   0.461   8.203 -1.0176 -0.4847 -1.5601
 8134SOL    HW236039   2.857   0.375   8.315  0.3577 -0.7411 -0.4501
 8135SOL     OW36040   2.842   0.039   3.432  0.2762  0.2593 -0.0132
 8135SOL    HW136041   2.899   0.094   3.486  0.6502 -0.4437  0.2963
 8135SOL    HW236042   2.846   0.083   3.347 -0.8278  2.7808  1.2236
 8136SOL     OW36043   1.271   0.911   5.316 -0.1811  0.2090  0.0550
 8136SOL    HW136044   1.291   0.998   5.349  2.4065 -1.3147  2.4760
 8136SOL    HW236045   1.339   0.862   5.362  0.7735 -1.4118 -3.0810
 8137SOL     OW36046   1.520   0.061   6.541 -0.6436  0.5303 -0.6070
 8137SOL    HW136047   1.498   4.712   6.581 -1.7232 -0.4452 -3.3059
 8137SOL    HW236048   1.614   0.070   6.530 -0.6547  2.4592  0.9159
 8138SOL     OW36049   2.958   2.285   4.725 -0.4573 -0.0060 -0.1565
 8138SOL    HW136050   2.967   2.342   4.649  0.2358  0.3941  0.2227
 8138SOL    HW236051   2.924   2.352   4.785 -0.4260 -0.0290 -0.1128
 8139SOL     OW36052   4.668   2.831  11.739 -0.4644 -0.1890  0.1454
 8139SOL    HW136053   4.607   2.798  11.806  0.3256  0.4334  1.1734
 8139SOL    HW236054   4.687   2.923  11.759 -0.1254  0.3495 -2.6303
 8140SOL     OW36055   1.016   1.789   3.034 -0.2797  0.1422 -0.0280
 8140SOL    HW136056   1.072   1.722   3.072  0.1053 -0.0350 -0.9090
 8140SOL    HW236057   1.032   1.859   3.098 -0.8188 -0.2583  0.5534
 8141SOL     OW36058   0.245   2.151   6.074  0.0990  0.7135  0.1990
 8141SOL    HW136059   0.283   2.110   6.151  0.1990 -1.2731 -0.9122
 8141SOL    HW236060   0.180   2.202   6.124 -0.8101  0.3718 -0.6218
 8142SOL     OW36061   2.000   0.029   5.418 -0.8266 -0.3769  0.2635
 8142SOL    HW136062   1.953   0.101   5.460 -0.0402  0.7100 -0.7093
 8142SOL    HW236063   1.942   4.691   5.438  0.2188 -0.6166  2.2892
 8143SOL     OW36064   4.014   3.783   4.786 -0.1644 -0.0404 -0.5171
 8143SOL    HW136065   4.083   3.737   4.835 -0.8410  0.2894  0.7449
 8143SOL    HW236066   3.942   3.734   4.824  0.6120  0.9527  2.2927
 8144SOL     OW36067   1.564   4.140   6.856  0.3898 -0.3566  0.2737
 8144SOL    HW136068   1.622   4.115   6.785  0.2411 -1.9246  0.7041
 8144SOL    HW236069   1.542   4.231   6.839  0.0128 -0.5030 -0.0307
 8145SOL     OW36070   3.384   3.172   6.017  0.4176  0.6775  0.7519
 8145SOL    HW136071   3.378   3.257   5.973  1.1728 -0.1708 -0.9685
 8145SOL    HW236072   3.313   3.124   5.975 -1.0000  2.2793  1.2980
 8146SOL     OW36073   3.348   1.793   8.093  0.3418 -0.1510  0.3390
 8146SOL    HW136074   3.439   1.804   8.063 -0.1735  1.9714 -0.4677
 8146SOL    HW236075   3.324   1.883   8.115  1.4497  0.0658  0.6541
 8147SOL     OW36076   0.566   0.676   6.449 -0.4514  0.2037 -0.4884
 8147SOL    HW136077   0.553   0.663   6.355 -0.6271 -0.5020 -0.3634
 8147SOL    HW236078   0.508   0.751   6.463 -1.3115 -0.4653 -0.4638
 8148SOL     OW36079   2.060   2.920   3.252 -0.1444 -0.3976 -0.1174
 8148SOL    HW136080   2.000   2.948   3.184  2.0072  1.1378 -1.3868
 8148SOL    HW236081   2.005   2.921   3.330 -0.3040  1.3675 -0.2575
 8149SOL     OW36082   4.735   0.544  12.352 -0.4348 -0.6426  0.0925
 8149SOL    HW136083   0.075   0.508  12.306  1.3232  0.6819  1.9583
 8149SOL    HW236084   0.021   0.521  12.442 -0.4856 -0.9355  0.0297
 8150SOL     OW36085   4.619   1.873   7.231  0.2716  0.1187 -0.0422
 8150SOL    HW136086   4.599   1.866   7.137 -2.0691 -1.2582  0.5650
 8150SOL    HW236087   4.582   1.793   7.267 -0.4724 -0.1004 -1.2849
 8151SOL     OW36088   3.843   3.391   3.142  0.7029 -0.4718  0.3408
 8151SOL    HW136089   3.845   3.380   3.047 -2.3854  0.7535  0.1272
 8151SOL    HW236090   3.862   3.485   3.149  1.3548 -0.5371 -0.5033
 8152SOL     OW36091   1.932   4.247  15.798  0.2328  0.6455  0.5058
 8152SOL    HW136092   1.939   4.170  15.743  1.8997  0.2519  1.2616
 8152SOL    HW236093   1.971   4.209  15.877  2.6534  0.5612 -0.7269
 8153SOL     OW36094   2.697   0.762   4.033 -0.5677  0.2759 -0.6627
 8153SOL    HW136095   2.665   0.852   4.026 -0.2924  0.3773 -0.5874
 8153SOL    HW236096   2.617   0.713   4.052 -0.0407  0.2493  1.4213
 8154SOL     OW36097   4.139   4.079   9.476  0.0482 -0.3121 -0.0435
 8154SOL    HW136098   4.095   4.004   9.516 -2.5728 -0.0448 -2.4208
 8154SOL    HW236099   4.059   4.129   9.460 -0.5733 -1.1480  0.4649
 8155SOL     OW36100   2.341   3.025   8.982 -0.4890 -0.2917 -0.2030
 8155SOL    HW136101   2.323   2.935   9.006 -0.3521 -0.3147 -0.1898
 8155SOL    HW236102   2.275   3.071   9.035  1.1662 -0.4578  1.9810
 8156SOL     OW36103   4.141   1.969   4.519 -0.4368 -0.4143  0.1632
 8156SOL    HW136104   4.095   1.886   4.505 -1.2828  0.2247 -0.8139
 8156SOL    HW236105   4.160   1.962   4.612 -1.6775  1.7563  0.5607
 8157SOL     OW36106   0.406   2.871   9.968 -0.5827 -0.1047  0.2945
 8157SOL    HW136107   0.357   2.882  10.049  0.1232 -0.7207  0.7984
 8157SOL    HW236108   0.329   2.872   9.911 -0.6437  1.1586  0.3936
 8158SOL     OW36109   3.833   0.914  10.754  0.3941  0.0192  0.2221
 8158SOL    HW136110   3.750   0.961  10.741  1.3735  1.4186 -0.9372
 8158SOL    HW236111   3.813   0.848  10.688  0.5885 -0.4666  0.6500
 8159SOL     OW36112   3.955   0.169   8.805  0.2280 -0.3798  0.1382
 8159SOL    HW136113   4.047   0.160   8.828  0.0268  1.8686  1.8206
 8159SOL    HW236114   3.962   0.217   8.722 -1.1254  1.2477  0.9834
 8160SOL     OW36115   2.873   1.925  12.825 -0.1752 -1.1795 -0.6840
 8160SOL    HW136116   2.902   1.840  12.791  1.9726 -0.6889 -0.0875
 8160SOL    HW236117   2.788   1.904  12.863 -0.0952 -2.2019 -1.0623
 8161SOL     OW36118   1.155   1.323   3.752 -0.0623 -0.0833  0.2009
 8161SOL    HW136119   1.117   1.400   3.794  1.5230  0.8614 -0.1107
 8161SOL    HW236120   1.093   1.253   3.775 -0.3894 -0.0696 -0.6440
 8162SOL     OW36121   2.395   1.915   2.037  0.0702  0.0160 -0.2215
 8162SOL    HW136122   2.459   1.908   1.966 -2.2387 -3.4540 -1.9499
 8162SOL    HW236123   2.450   1.934   2.113 -0.6974  1.5437 -0.0342
 8163SOL     OW36124   4.576   4.251   8.663  0.0438  0.2896 -0.1897
 8163SOL    HW136125   4.552   4.182   8.601  1.0440  0.5176 -0.8383
 8163SOL    HW236126   4.495   4.283   8.703  0.0817  0.2119 -0.0522
 8164SOL     OW36127   2.549   4.294   3.703 -0.5156  0.5775 -0.1020
 8164SOL    HW136128   2.532   4.257   3.790 -2.1594  2.9644  0.6033
 8164SOL    HW236129   2.636   4.330   3.722  0.3863 -1.8284  0.2563
 8165SOL     OW36130   3.332   1.673   0.549 -0.1562  0.0100 -0.7271
 8165SOL    HW136131   3.312   1.580   0.536 -1.3896  0.1723 -0.0167
 8165SOL    HW236132   3.416   1.670   0.595 -0.6437  1.8260  0.2503
 8166SOL     OW36133   2.764   2.750  15.036  0.4503  0.3490  0.2479
 8166SOL    HW136134   2.721   2.818  15.088  0.6393  1.2921 -0.8448
 8166SOL    HW236135   2.689   2.691  15.031  1.1255 -0.4537 -0.5779
 8167SOL     OW36136   1.099   4.435   9.458  0.0060 -0.6118  0.4948
 8167SOL    HW136137   1.189   4.410   9.441  0.1604 -1.1138  2.0148
 8167SOL    HW236138   1.109   4.488   9.537 -0.6280 -0.0791  0.2225
 8168SOL     OW36139   1.842   0.326   2.239 -0.3934 -0.1392 -0.1519
 8168SOL    HW136140   1.848   0.250   2.180 -2.3694  1.5319 -2.4678
 8168SOL    HW236141   1.934   0.347   2.254 -1.3472  3.7584  0.2052
 8169SOL     OW36142   0.278   4.090   4.127 -0.4543 -0.5074 -0.0945
 8169SOL    HW136143   0.231   4.166   4.091  0.5329  0.6107  0.9714
 8169SOL    HW236144   0.343   4.071   4.059 -0.7434 -0.6140 -0.3410
 8170SOL     OW36145   2.616   0.721   1.796 -0.0016 -0.0848  0.1340
 8170SOL    HW136146   2.605   0.799   1.851 -2.3541  0.2603 -0.8119
 8170SOL    HW236147   2.523   0.698   1.791  0.3545 -1.4138 -0.2211
 8171SOL     OW36148   4.088   1.220  13.647  0.2966 -0.4679 -0.2658
 8171SOL    HW136149   4.147   1.254  13.714  1.2817 -0.2744 -1.2173
 8171SOL    HW236150   4.082   1.285  13.576 -1.1581  0.2461  0.5092
 8172SOL     OW36151   0.952   4.552   4.633 -0.3157  0.2008  0.4350
 8172SOL    HW136152   0.901   4.498   4.571 -2.4440  0.1339  2.2365
 8172SOL    HW236153   0.918   4.514   4.714 -1.3462  0.6277  0.2127
 8173SOL     OW36154   3.089   4.057  15.195 -0.4706 -0.2668 -0.0143
 8173SOL    HW136155   3.140   4.008  15.130 -0.8670  0.3284 -0.7641
 8173SOL    HW236156   3.000   4.027  15.211 -0.4990 -0.9220 -1.3372
 8174SOL     OW36157   0.058   3.422  17.110 -0.3742 -0.0421  0.4369
 8174SOL    HW136158   0.047   3.453  17.020  0.7670  0.5606  0.5052
 8174SOL    HW236159   0.066   3.503  17.160 -0.8420  1.1354 -1.3978
 8175SOL     OW36160   3.671   4.544  17.455 -0.4682 -0.0939 -0.0669
 8175SOL    HW136161   3.655   4.634  17.427  1.2089  0.1572 -0.2714
 8175SOL    HW236162   3.602   4.493  17.414 -1.2128 -0.1052  1.2132
 8176SOL     OW36163   0.793   0.709   7.537  0.6205 -0.2081  0.1114
 8176SOL    HW136164   0.703   0.699   7.568 -0.0521  0.0217 -1.8115
 8176SOL    HW236165   0.788   0.799   7.504  1.9783  0.1947  0.9997
 8177SOL     OW36166   1.049   3.753   6.507  0.0313 -0.5082 -0.6445
 8177SOL    HW136167   1.104   3.770   6.583  1.5461  0.6267 -1.9885
 8177SOL    HW236168   0.987   3.825   6.520 -1.9100 -2.0021 -1.5624
 8178SOL     OW36169   0.167   3.965   7.242 -0.0471 -0.1619 -0.3874
 8178SOL    HW136170   0.223   3.903   7.195 -0.3307  0.9758 -2.2273
 8178SOL    HW236171   0.226   4.034   7.272 -0.1919 -0.7922  1.3060
 8179SOL     OW36172   1.360   1.124   7.226  0.6473 -0.0241  0.4274
 8179SOL    HW136173   1.368   1.200   7.169 -0.2429 -0.4766 -0.3040
 8179SOL    HW236174   1.295   1.157   7.288  2.1167  0.5294  1.6715
 8180SOL     OW36175   3.305   3.438   5.972 -0.0565  0.8380  0.2361
 8180SOL    HW136176   3.238   3.478   5.917 -1.4316  0.1345  1.4079
 8180SOL    HW236177   3.291   3.476   6.058  0.1938  0.4229  0.4583
 8181SOL     OW36178   0.821   0.512   9.092  0.0127 -0.0982 -0.3080
 8181SOL    HW136179   0.814   0.448   9.163  2.3174  0.9294  0.8454
 8181SOL    HW236180   0.906   0.553   9.107 -0.5829  1.1028 -0.1807
 8182SOL     OW36181   1.582   1.277   2.253  0.3663  0.2861 -0.4424
 8182SOL    HW136182   1.583   1.219   2.329  0.0755 -0.1967 -0.8005
 8182SOL    HW236183   1.635   1.227   2.191 -0.7337 -1.6751  0.2091
 8183SOL     OW36184   0.947   0.481  13.967  0.2801  0.2784  0.4248
 8183SOL    HW136185   1.023   0.455  13.914  1.4736  1.7628  1.4316
 8183SOL    HW236186   0.963   0.429  14.046 -2.6495 -1.2730 -0.0113
 8184SOL     OW36187   0.176   1.901   1.471 -0.3227  0.2380 -0.2696
 8184SOL    HW136188   0.096   1.953   1.467 -1.4082 -1.5546 -1.6446
 8184SOL    HW236189   0.194   1.886   1.379 -0.0046  0.2377 -0.2079
 8185SOL     OW36190   3.790   3.085  16.988 -0.3786  0.4006  0.5518
 8185SOL    HW136191   3.770   3.046  16.903 -1.1084  1.5544  0.1948
 8185SOL    HW236192   3.806   3.175  16.961  0.5846 -0.0319 -0.3269
 8186SOL     OW36193   0.797   2.612  13.244  0.1933  0.3485 -0.0848
 8186SOL    HW136194   0.775   2.558  13.168 -1.6944 -0.8202  1.3055
 8186SOL    HW236195   0.719   2.668  13.240  1.4676  1.9251 -3.0427
 8187SOL     OW36196   4.341   3.404   3.970  0.3058  0.4716  0.5050
 8187SOL    HW136197   4.281   3.448   3.909 -0.8959 -0.4654  1.0017
 8187SOL    HW236198   4.423   3.452   3.964 -0.5622  2.0233  0.9673
 8188SOL     OW36199   4.429   3.633   1.588  0.5014 -0.4140 -0.5939
 8188SOL    HW136200   4.408   3.705   1.647 -1.5092 -0.9708 -0.6239
 8188SOL    HW236201   4.516   3.659   1.558  1.0069 -0.4672  0.8111
 8189SOL     OW36202   2.798   4.057   3.985 -0.7579  0.0624  0.2310
 8189SOL    HW136203   2.718   4.097   3.952  0.2553  1.9385  0.0324
 8189SOL    HW236204   2.769   3.984   4.039 -2.5737  0.0245 -0.8111
 8190SOL     OW36205   2.025   2.802   2.475  0.5253 -0.0324 -0.3054
 8190SOL    HW136206   2.104   2.801   2.420 -0.4287  2.2232 -1.6906
 8190SOL    HW236207   1.952   2.824   2.419  0.1220  1.1022  0.6725
 8191SOL     OW36208   2.688   2.675  10.276 -0.4700 -0.5038 -0.6217
 8191SOL    HW136209   2.666   2.642  10.363  0.8229  0.8536  0.2225
 8191SOL    HW236210   2.771   2.632  10.258 -1.1990 -1.7901 -0.8613
 8192SOL     OW36211   0.239   0.349  10.363 -0.7960  0.5409 -0.6323
 8192SOL    HW136212   0.218   0.309  10.279  0.4367  2.2588 -1.7656
 8192SOL    HW236213   0.309   0.408  10.337 -0.9782 -0.0095 -2.3366
 8193SOL     OW36214   1.013   0.324  12.053 -0.2437  0.7907 -0.1946
 8193SOL    HW136215   0.995   0.304  12.145  1.4247  2.2908  0.4485
 8193SOL    HW236216   0.981   0.238  12.024 -1.9254  1.2760  0.2221
 8194SOL     OW36217   4.730   2.249   9.041 -0.5512 -0.4924  0.1265
 8194SOL    HW136218   4.692   2.307   8.975  4.5794  0.9650 -1.5464
 8194SOL    HW236219   0.031   2.185   8.980 -0.7927 -0.4237 -0.0893
 8195SOL     OW36220   3.872   1.982  16.456 -0.3157 -0.5790 -0.1750
 8195SOL    HW136221   3.849   2.049  16.391 -2.7230 -2.2413 -1.0340
 8195SOL    HW236222   3.881   1.906  16.398 -0.7500 -1.2016  0.5784
 8196SOL     OW36223   2.866   1.808   6.633  0.8352  0.1522  0.7479
 8196SOL    HW136224   2.798   1.743   6.650  0.4496  0.2600 -0.3499
 8196SOL    HW236225   2.947   1.759   6.647  1.0330  0.4890  0.7909
 8197SOL     OW36226   4.292   2.460  11.967 -0.1375  0.0164 -0.2054
 8197SOL    HW136227   4.206   2.492  11.938  1.3248  3.7025 -0.4455
 8197SOL    HW236228   4.289   2.448  12.062  2.0213  0.8668 -0.0279
 8198SOL     OW36229   2.773   2.783   1.729 -0.5110  0.0007  0.1255
 8198SOL    HW136230   2.788   2.722   1.656  0.2956 -0.3098  0.5481
 8198SOL    HW236231   2.808   2.859   1.684 -0.8369  0.9716  1.5098
 8199SOL     OW36232   3.476   0.621   1.359 -0.0271 -0.0603  0.2458
 8199SOL    HW136233   3.442   0.537   1.328  2.1417 -1.4596  1.6762
 8199SOL    HW236234   3.391   0.664   1.368  0.1999  0.3324  0.5219
 8200SOL     OW36235   4.217   2.492   5.929  0.2995  1.0037  0.3772
 8200SOL    HW136236   4.176   2.471   6.013  0.8305 -0.1422  0.3421
 8200SOL    HW236237   4.151   2.555   5.900 -1.8417 -1.0798  0.7606
 8201SOL     OW36238   3.247   0.277   9.711  0.6824 -0.0360  0.5869
 8201SOL    HW136239   3.296   0.196   9.722 -1.0500 -1.2540 -0.6599
 8201SOL    HW236240   3.281   0.311   9.628 -1.8178  0.4975 -0.2122
 8202SOL     OW36241   3.999   3.769   1.675  0.4503  0.3331  0.3727
 8202SOL    HW136242   4.053   3.714   1.732 -0.5252 -0.0440  0.9202
 8202SOL    HW236243   4.061   3.773   1.602 -1.2381 -0.0112 -1.0632
 8203SOL     OW36244   2.656   1.202  17.384  0.7335 -0.2405 -0.1688
 8203SOL    HW136245   2.579   1.257  17.368  0.0925 -0.9401  0.5654
 8203SOL    HW236246   2.674   1.175  17.294  2.2740  3.0083 -0.8452
 8204SOL     OW36247   1.679   4.015   3.264 -0.4194 -0.0643  0.1940
 8204SOL    HW136248   1.706   3.971   3.184 -0.2659  1.5932 -0.6531
 8204SOL    HW236249   1.708   4.103   3.241 -3.8831  0.6090 -1.5075
 8205SOL     OW36250   2.504   3.329   8.229 -0.3479  0.0545  0.9469
 8205SOL    HW136251   2.507   3.238   8.259  0.5051 -0.3374 -0.3367
 8205SOL    HW236252   2.424   3.352   8.277 -2.2553  0.6992 -2.5872
 8206SOL     OW36253   1.415   0.777   2.147  0.0503  0.6346  0.3637
 8206SOL    HW136254   1.490   0.719   2.134 -0.7221 -0.1650 -0.4931
 8206SOL    HW236255   1.336   0.724   2.144 -0.2975  1.1247  0.9024
 8207SOL     OW36256   1.085   2.721   3.683 -0.2343  0.1952 -0.4636
 8207SOL    HW136257   1.019   2.791   3.690 -1.1651 -0.8440  1.0879
 8207SOL    HW236258   1.092   2.703   3.777 -0.0171  1.6319 -0.2009
 8208SOL     OW36259   1.380   0.473   7.018  0.4153  0.2564 -0.6661
 8208SOL    HW136260   1.376   0.400   6.957  2.1654 -2.5899  2.6740
 8208SOL    HW236261   1.401   0.543   6.955 -1.4423  2.8656  1.5946
 8209SOL     OW36262   1.476   3.579  11.489 -0.4657  0.0625  0.0912
 8209SOL    HW136263   1.526   3.499  11.498 -0.1624  0.4563  1.9565
 8209SOL    HW236264   1.466   3.584  11.394  1.0731  0.6734 -0.0268
 8210SOL     OW36265   1.635   0.484  12.448  0.3055  0.1018 -0.4906
 8210SOL    HW136266   1.638   0.572  12.409 -2.8876  0.4403  0.0412
 8210SOL    HW236267   1.682   0.497  12.531  0.8894 -0.0697 -0.7900
 8211SOL     OW36268   0.870   1.363   1.225 -0.0717 -0.4021 -0.1821
 8211SOL    HW136269   0.779   1.380   1.249  0.0047  2.3724 -1.8623
 8211SOL    HW236270   0.905   1.449   1.247 -0.1847 -0.3221 -0.3127
 8212SOL     OW36271   0.078   2.723   9.464  0.3907  0.6853 -0.5165
 8212SOL    HW136272   4.726   2.701   9.432  0.5043  1.5974 -1.4611
 8212SOL    HW236273   0.069   2.818   9.463  0.3617  0.6918  0.5890
 8213SOL     OW36274   0.970   2.311  11.030 -0.1943  0.4580  0.2789
 8213SOL    HW136275   0.885   2.275  11.054 -0.3818  0.1872 -0.8055
 8213SOL    HW236276   1.013   2.297  11.115  0.6927  2.2106  0.1233
 8214SOL     OW36277   2.790   0.837   4.974 -0.1824 -0.3675 -0.2873
 8214SOL    HW136278   2.812   0.877   4.890  1.0412 -2.0183 -0.7324
 8214SOL    HW236279   2.699   0.866   4.984 -1.3630 -4.3021  0.2823
 8215SOL     OW36280   2.858   1.986   8.283 -0.1157 -0.1726  0.5870
 8215SOL    HW136281   2.773   1.979   8.327  0.5719 -1.4444  1.7017
 8215SOL    HW236282   2.887   1.895   8.286 -0.2312 -0.2565 -0.9337
 8216SOL     OW36283   0.650   1.017  17.469 -0.0670 -0.2780  0.2900
 8216SOL    HW136284   0.641   0.940  17.525  0.6242 -0.5964 -0.0332
 8216SOL    HW236285   0.728   1.051  17.514  1.9020  0.3958 -3.6236
 8217SOL     OW36286   1.960   2.449   7.985  0.0180  0.0477 -0.6280
 8217SOL    HW136287   1.884   2.423   8.037  0.5774  0.4733  0.3862
 8217SOL    HW236288   1.919   2.457   7.899  1.4853 -0.8021 -1.4153
 8218SOL     OW36289   0.757   0.080  15.580  0.0011  0.7482  0.7232
 8218SOL    HW136290   0.682   0.111  15.529 -1.6124  0.8153  3.1384
 8218SOL    HW236291   0.707   0.083  15.662 -2.3049  1.4987 -0.7063
 8219SOL     OW36292   0.683   2.015   0.099  0.8100 -0.4432  0.1175
 8219SOL    HW136293   0.602   2.063   0.084  0.6167 -0.6579  0.4794
 8219SOL    HW236294   0.739   2.092   0.087 -2.5897  1.7008 -2.0604
 8220SOL     OW36295   4.055   3.741  13.419  0.5605 -0.4400  0.9160
 8220SOL    HW136296   3.999   3.803  13.373  0.7190  0.0252  1.3492
 8220SOL    HW236297   4.129   3.729  13.360  0.6625  2.3272  0.4954
 8221SOL     OW36298   0.183   2.185   8.788 -0.1606  0.6070  0.1377
 8221SOL    HW136299   0.275   2.161   8.806 -0.4572 -1.3959 -0.9772
 8221SOL    HW236300   0.193   2.268   8.742  0.7894  1.4098  1.7676
 8222SOL     OW36301   2.334   0.784   1.512  0.0930 -0.0403 -0.0844
 8222SOL    HW136302   2.369   0.840   1.444 -2.0735  0.9197 -0.4308
 8222SOL    HW236303   2.385   0.703   1.514  0.7897  0.4279  1.1668
 8223SOL     OW36304   3.264   2.031   4.195  0.2846 -0.0341  0.1946
 8223SOL    HW136305   3.248   2.007   4.104  1.6860  0.9566 -0.3189
 8223SOL    HW236306   3.260   1.944   4.234  1.8732 -0.9135 -1.5852
 8224SOL     OW36307   4.168   4.611   9.262  0.5463  0.2323  0.1603
 8224SOL    HW136308   4.199   4.571   9.181  0.0520 -0.6356  0.3882
 8224SOL    HW236309   4.099   4.670   9.232  0.1936  0.2527  1.0071
 8225SOL     OW36310   2.708   0.083   6.076 -0.7498  0.0460  0.0612
 8225SOL    HW136311   2.664   0.168   6.083 -1.9635 -0.6700  1.1924
 8225SOL    HW236312   2.693   0.064   5.983  0.9150  0.5833 -0.3146
 8226SOL     OW36313   0.788   2.864  16.496  0.3126 -0.2185 -0.5011
 8226SOL    HW136314   0.779   2.952  16.458  0.4754 -0.0384 -0.1290
 8226SOL    HW236315   0.866   2.837  16.449  1.1182  2.7069 -0.8347
 8227SOL     OW36316   4.672   2.770   3.526 -0.1630 -0.1630 -0.5574
 8227SOL    HW136317   4.582   2.794   3.504 -0.4426 -1.8659 -1.2483
 8227SOL    HW236318   4.685   2.792   3.618 -0.1313 -0.7437 -0.4234
 8228SOL     OW36319   4.692   1.269   8.132 -0.3823 -0.2375  0.0882
 8228SOL    HW136320   0.037   1.312   8.102 -0.7944 -1.0108 -2.1612
 8228SOL    HW236321   4.721   1.253   8.222 -0.3018 -0.7936 -0.0327
 8229SOL     OW36322   0.592   3.018   3.681  0.1510 -0.6321  0.3631
 8229SOL    HW136323   0.583   3.102   3.725 -2.1183 -0.4019 -0.5503
 8229SOL    HW236324   0.609   3.042   3.589 -1.9080 -1.2325 -0.1774
 8230SOL     OW36325   4.220   2.067  10.372  0.1844 -0.0775 -0.5161
 8230SOL    HW136326   4.131   2.033  10.362  0.0039  0.1740  0.2452
 8230SOL    HW236327   4.227   2.132  10.302 -0.1757  0.3798 -0.1258
 8231SOL     OW36328   4.162   4.669  11.574 -0.1571 -0.5725  0.4284
 8231SOL    HW136329   4.182   4.669  11.668 -1.0774  0.4245  0.6302
 8231SOL    HW236330   4.098   0.004  11.577  1.7824  1.2656 -1.7256
 8232SOL     OW36331   1.446   0.871  12.979  0.3661  0.0928  0.4266
 8232SOL    HW136332   1.540   0.888  12.970  0.3356  0.9971  1.8793
 8232SOL    HW236333   1.406   0.939  13.033  0.3778 -0.0407  0.6026
 8233SOL     OW36334   4.248   0.064   3.882 -0.2900  0.8671  0.2040
 8233SOL    HW136335   4.155   0.043   3.884 -0.2715  1.0371  3.5591
 8233SOL    HW236336   4.249   0.126   3.810 -0.7291 -0.6210 -1.0688
 8234SOL     OW36337   2.904   2.123   3.379 -0.1206 -0.4081  0.2501
 8234SOL    HW136338   2.997   2.138   3.361 -0.6067  1.6655 -0.5453
 8234SOL    HW236339   2.874   2.213   3.394  1.3361  0.2573 -0.7967
 8235SOL     OW36340   0.949   2.440  15.861  0.7709  0.1668 -0.1590
 8235SOL    HW136341   1.017   2.433  15.928 -0.2058  2.5802  1.0933
 8235SOL    HW236342   0.991   2.505  15.805  0.6600  2.0400  1.8972
 8236SOL     OW36343   1.933   4.398   3.408 -0.2464  0.3470  0.2579
 8236SOL    HW136344   2.018   4.436   3.429 -0.2918  0.6294 -0.0538
 8236SOL    HW236345   1.875   4.447   3.467  1.6537  0.6405  1.8592
 8237SOL     OW36346   0.892   1.542   0.558  0.0707 -0.4441 -0.4193
 8237SOL    HW136347   0.829   1.482   0.598  0.0372  0.0323  0.2303
 8237SOL    HW236348   0.850   1.628   0.563  0.7589 -0.1401  0.0750
 8238SOL     OW36349   1.153   1.893   3.520 -0.3803 -0.0152 -0.5516
 8238SOL    HW136350   1.232   1.918   3.568  0.6535 -0.3054 -2.0720
 8238SOL    HW236351   1.106   1.846   3.590 -2.5658  1.8840 -0.7555
 8239SOL     OW36352   2.117   4.404  12.724  0.0908  0.0603 -0.0730
 8239SOL    HW136353   2.122   4.420  12.629  0.6346 -1.3268 -0.2637
 8239SOL    HW236354   2.175   4.329  12.728 -0.0931 -0.1378 -1.1518
 8240SOL     OW36355   1.438   1.902   2.086  0.5085  0.1194 -0.4324
 8240SOL    HW136356   1.417   1.985   2.128 -1.7388 -2.2908  3.2554
 8240SOL    HW236357   1.348   1.883   2.058  1.1742  0.8252 -3.0084
 8241SOL     OW36358   3.546   0.235   3.361  0.4193  0.4047  0.6424
 8241SOL    HW136359   3.470   0.293   3.357  0.3741  0.2808 -0.2155
 8241SOL    HW236360   3.608   0.293   3.405  0.8433  1.0563 -0.8144
 8242SOL     OW36361   1.006   2.409   9.543 -0.0256 -0.2358  0.7207
 8242SOL    HW136362   1.091   2.422   9.584  1.7195 -0.5479 -2.8000
 8242SOL    HW236363   0.945   2.438   9.611  0.6163 -3.8034  2.7981
 8243SOL     OW36364   2.591   2.441   5.100  0.2374  0.4964  0.2719
 8243SOL    HW136365   2.558   2.460   5.013 -1.6431  0.4985  0.9966
 8243SOL    HW236366   2.621   2.350   5.102 -0.3057  0.2865 -1.4177
 8244SOL     OW36367   1.563   3.315  11.574 -0.0911  0.0310  0.4159
 8244SOL    HW136368   1.556   3.295  11.667  0.3112  0.8356  0.6118
 8244SOL    HW236369   1.621   3.241  11.554 -0.2010  0.0389  0.0675
 8245SOL     OW36370   0.472   0.361   5.447 -0.4358  0.4672 -0.8180
 8245SOL    HW136371   0.501   0.310   5.522 -1.0755 -0.5469 -1.2671
 8245SOL    HW236372   0.378   0.373   5.454 -0.2257  1.4774  0.3190
 8246SOL     OW36373   0.893   1.181   3.806  0.2132  0.0391 -0.3110
 8246SOL    HW136374   0.807   1.182   3.847  0.6415 -0.1033  0.5849
 8246SOL    HW236375   0.927   1.096   3.835 -3.4045 -0.3097  2.6999
 8247SOL     OW36376   0.272   1.168  17.100 -0.2429 -0.0917  0.7099
 8247SOL    HW136377   0.247   1.179  17.191 -1.4731 -0.0675  0.3744
 8247SOL    HW236378   0.354   1.118  17.102  0.2297  0.6107 -1.0586
 8248SOL     OW36379   3.291   1.147   2.151 -0.1237 -0.6065  0.0701
 8248SOL    HW136380   3.290   1.241   2.171  3.5142 -0.7093  0.7606
 8248SOL    HW236381   3.348   1.161   2.075 -2.3679 -0.4868 -1.6049
 8249SOL     OW36382   1.938   1.649  12.146 -0.5683 -0.6209  0.3558
 8249SOL    HW136383   1.960   1.662  12.054 -1.6399  0.0697  0.2060
 8249SOL    HW236384   1.958   1.556  12.160 -2.1657 -0.8800  0.9274
 8250SOL     OW36385   3.064   0.529   7.512  0.0132 -0.0103  0.0479
 8250SOL    HW136386   2.978   0.547   7.550  0.1633 -1.1028  0.9255
 8250SOL    HW236387   3.036   0.478   7.437  1.0693  0.7939 -0.8846
 8251SOL     OW36388   2.313   0.317   2.698 -0.4545 -0.7652  0.1582
 8251SOL    HW136389   2.348   0.228   2.696  0.0958 -0.5249 -0.6372
 8251SOL    HW236390   2.256   0.314   2.775 -0.2471  1.3527  0.3787
 8252SOL     OW36391   1.064   0.265   4.067  0.0519  0.0264  0.1309
 8252SOL    HW136392   1.038   0.193   4.009 -0.8447  0.9037 -0.5663
 8252SOL    HW236393   1.079   0.334   4.003  1.7250 -1.9486 -1.6123
 8253SOL     OW36394   4.714   4.551   8.088  0.0608 -0.3343  0.4368
 8253SOL    HW136395   4.705   4.637   8.048 -1.1329  0.3306  2.1653
 8253SOL    HW236396   4.647   4.505   8.039  0.8587  1.3065 -2.2035
 8254SOL     OW36397   1.690   0.934   1.831  0.1758  0.6871  0.8916
 8254SOL    HW136398   1.735   1.015   1.809 -1.2683  0.5122 -2.7140
 8254SOL    HW236399   1.743   0.873   1.780  0.9546  0.8231  1.5438
 8255SOL     OW36400   0.898   0.808   4.062  0.0199 -0.4528 -0.2409
 8255SOL    HW136401   0.807   0.782   4.048 -0.1425 -0.2205  0.3956
 8255SOL    HW236402   0.939   0.721   4.057  0.5926 -0.1771 -0.3360
 8256SOL     OW36403   1.766   4.664   7.254 -0.2956  0.2665  0.1838
 8256SOL    HW136404   1.795   4.596   7.314  2.0181  1.2652  0.1999
 8256SOL    HW236405   1.799   0.009   7.294  0.9518 -0.2600  0.2043
 8257SOL     OW36406   0.725   1.014   5.494 -0.3870  0.5701  0.4678
 8257SOL    HW136407   0.819   1.025   5.507  0.1890 -0.0350 -3.1017
 8257SOL    HW236408   0.712   0.958   5.570 -1.1368 -0.3737 -0.3520
 8258SOL     OW36409   4.054   1.948  13.893  0.1615 -0.0332  0.1210
 8258SOL    HW136410   4.119   1.881  13.869 -1.5446 -2.3693  2.0974
 8258SOL    HW236411   3.975   1.899  13.871 -0.2289  0.9931 -0.7633
 8259SOL     OW36412   1.020   3.601   5.671 -0.2509  0.2010 -0.4525
 8259SOL    HW136413   0.929   3.614   5.644 -0.8350  0.1760  1.4368
 8259SOL    HW236414   1.027   3.680   5.725 -0.4627  0.8008 -1.3044
 8260SOL     OW36415   2.878   4.601   7.390  0.4444  0.3879  0.3919
 8260SOL    HW136416   2.838   4.514   7.399  0.8199  0.3162  1.4071
 8260SOL    HW236417   2.864   4.618   7.297 -0.6653 -1.4497  0.2125
 8261SOL     OW36418   2.183   1.995   6.965 -0.0688 -0.4585  0.6084
 8261SOL    HW136419   2.237   2.046   6.904  0.4333 -0.7887  0.7795
 8261SOL    HW236420   2.250   1.973   7.030 -0.4324 -1.4764  0.6357
 8262SOL     OW36421   0.159   4.732   6.152  0.0973 -0.7628 -0.0867
 8262SOL    HW136422   0.084   0.051   6.128 -0.1422 -2.2875 -2.7399
 8262SOL    HW236423   0.195   0.057   6.218  0.7812  0.0818 -1.2200
 8263SOL     OW36424   1.109   4.536  15.111 -0.7944  0.0462 -0.9835
 8263SOL    HW136425   1.139   4.484  15.186  2.4564  0.7029 -1.8524
 8263SOL    HW236426   1.140   4.481  15.039  1.4473  0.6377 -0.4470
 8264SOL     OW36427   1.987   1.765   6.518  0.6945 -0.1967 -0.7499
 8264SOL    HW136428   1.998   1.693   6.456 -1.1636 -0.8414 -0.3331
 8264SOL    HW236429   2.034   1.719   6.587 -0.9913  0.1764  0.6402
 8265SOL     OW36430   1.062   2.251   5.810  0.2358  0.5733  0.6991
 8265SOL    HW136431   1.072   2.224   5.718 -2.2037 -0.1601  0.6579
 8265SOL    HW236432   1.013   2.332   5.794 -1.0768 -0.2489  0.5776
 8266SOL     OW36433   1.533   1.705   1.053 -0.2320  0.0662  0.2338
 8266SOL    HW136434   1.463   1.661   1.005 -0.4945  0.1421  0.5467
 8266SOL    HW236435   1.574   1.764   0.990 -2.4842  1.9483  0.5522
 8267SOL     OW36436   1.638   3.391   5.478  0.0425  0.1685 -0.2498
 8267SOL    HW136437   1.646   3.397   5.383 -0.9994 -2.1868 -0.4851
 8267SOL    HW236438   1.582   3.314   5.489 -2.0196  1.7430  0.4351
 8268SOL     OW36439   0.082   0.238   5.769  0.3098 -0.2918 -0.3145
 8268SOL    HW136440   4.732   0.197   5.781  0.9443 -1.3618  0.5778
 8268SOL    HW236441   0.088   0.304   5.839  1.2090  0.1382 -0.7990
 8269SOL     OW36442   3.048   4.353  16.843  0.2854 -0.3161 -0.2006
 8269SOL    HW136443   3.044   4.382  16.934 -0.0668 -2.7697  0.5712
 8269SOL    HW236444   3.091   4.269  16.858  0.0491 -0.4449 -0.2411
 8270SOL     OW36445   4.537   0.295  12.065 -0.1683 -0.3710  0.2287
 8270SOL    HW136446   4.549   0.318  11.973  1.8877 -0.6482  0.4333
 8270SOL    HW236447   4.443   0.282  12.079  0.3989 -2.3833  2.2483
 8271SOL     OW36448   2.141   2.090   9.869  0.4637  0.3461 -0.6199
 8271SOL    HW136449   2.048   2.098   9.888  0.8865  1.2462  1.0711
 8271SOL    HW236450   2.170   2.019   9.927  1.4138  1.2809  0.0437
 8272SOL     OW36451   0.498   2.468  12.842  0.3567 -0.1763  0.0673
 8272SOL    HW136452   0.528   2.480  12.751  2.2406 -0.5727  0.6441
 8272SOL    HW236453   0.487   2.374  12.855  2.9105 -0.3144  1.1645
 8273SOL     OW36454   0.384   4.566   9.406  0.0901  0.0140 -0.1097
 8273SOL    HW136455   0.452   4.623   9.371  0.8545  0.0791  1.4772
 8273SOL    HW236456   0.431   4.484   9.389 -0.1863 -0.3973  1.1269
 8274SOL     OW36457   3.415   3.078   4.908 -0.0016  0.3271 -0.1985
 8274SOL    HW136458   3.483   3.138   4.875  2.4721 -1.9222  0.8254
 8274SOL    HW236459   3.348   3.142   4.932 -1.2333 -1.3002  0.6170
 8275SOL     OW36460   4.174   3.665   4.990  0.1820 -0.4974  0.0367
 8275SOL    HW136461   4.134   3.687   5.074  0.3242  1.2467 -0.3620
 8275SOL    HW236462   4.227   3.593   5.024 -0.4408 -0.6605  0.6604
 8276SOL     OW36463   4.107   3.174   0.150 -0.4476 -0.5737  0.4208
 8276SOL    HW136464   4.135   3.097   0.102  2.0719  1.8638 -2.0398
 8276SOL    HW236465   4.038   3.209   0.094  0.0538 -1.2310 -0.6103
 8277SOL     OW36466   1.888   0.977   7.861  0.8695  0.7687 -0.1045
 8277SOL    HW136467   1.945   1.047   7.830  2.6393 -0.5023  0.2975
 8277SOL    HW236468   1.934   0.896   7.840 -1.6761 -0.3687 -1.3688
 8278SOL     OW36469   0.230   2.690   6.557  0.1004 -0.2229 -0.6450
 8278SOL    HW136470   0.175   2.631   6.506 -0.7949  1.0672 -1.1651
 8278SOL    HW236471   0.242   2.638   6.636  1.5883 -0.3581 -0.9535
 8279SOL     OW36472   2.731   0.226   9.880 -0.7547  0.0024  0.0246
 8279SOL    HW136473   2.824   0.230   9.856 -0.3202  0.1911  1.7449
 8279SOL    HW236474   2.745   0.232   9.975 -0.2535  0.2043 -0.0614
 8280SOL     OW36475   3.919   3.020   0.339  0.0637 -0.3383  0.3597
 8280SOL    HW136476   3.900   3.086   0.272 -0.1189  0.3685  1.1084
 8280SOL    HW236477   3.924   2.940   0.287  1.4867  0.0095 -0.0390
 8281SOL     OW36478   3.488   2.300   8.527 -0.7090  0.4740 -0.6340
 8281SOL    HW136479   3.450   2.211   8.529 -0.9669  0.6114  1.0805
 8281SOL    HW236480   3.495   2.317   8.621  0.2951 -1.5526 -0.3328
 8282SOL     OW36481   4.028   2.722   7.502  0.1807  0.3920 -0.0733
 8282SOL    HW136482   4.091   2.788   7.530  0.4188 -0.3572  1.1331
 8282SOL    HW236483   3.992   2.774   7.430 -1.4670 -0.7816 -0.1105
 8283SOL     OW36484   2.034   4.100   3.409 -0.2266  0.0051 -0.0220
 8283SOL    HW136485   2.028   4.194   3.390 -1.0874  0.0924  0.6607
 8283SOL    HW236486   1.950   4.087   3.453  1.1518  1.0089  2.9128
 8284SOL     OW36487   2.705   3.594   1.839  0.1906  0.0470 -0.0385
 8284SOL    HW136488   2.617   3.564   1.859  0.2100 -0.0208 -0.0542
 8284SOL    HW236489   2.750   3.513   1.865 -0.7368 -0.5343 -0.2732
 8285SOL     OW36490   3.410   3.707  17.041 -0.1731 -0.1834  0.3170
 8285SOL    HW136491   3.482   3.653  17.008 -0.4102 -0.3825  0.1299
 8285SOL    HW236492   3.346   3.637  17.054  0.2251 -0.8055 -1.0196
 8286SOL     OW36493   2.483   4.450   0.936  0.0250 -0.3311 -0.3740
 8286SOL    HW136494   2.399   4.407   0.920  0.8533 -2.0054 -0.2205
 8286SOL    HW236495   2.519   4.454   0.848  0.8103  0.6011 -0.0049
 8287SOL     OW36496   2.340   4.109   8.529 -0.2254 -0.0301  0.2799
 8287SOL    HW136497   2.335   4.141   8.619  1.7544 -0.6572  0.6052
 8287SOL    HW236498   2.417   4.053   8.537 -0.2845 -0.3397 -1.3611
 8288SOL     OW36499   3.060   2.188  11.603 -0.0897  0.4160  0.7686
 8288SOL    HW136500   3.139   2.227  11.640  0.1099  1.2940 -0.6121
 8288SOL    HW236501   3.059   2.113  11.663 -0.7916  0.1431  0.4110
 8289SOL     OW36502   4.380   3.219  12.602  0.3530  0.1332  0.1638
 8289SOL    HW136503   4.462   3.238  12.647  0.8378 -1.6207  0.0240
 8289SOL    HW236504   4.419   3.193  12.519  1.1143  1.2054  0.1879
 8290SOL     OW36505   4.642   3.565  15.512 -0.0462  0.2459 -0.2885
 8290SOL    HW136506   0.002   3.567  15.506 -0.0950  0.0964 -1.0961
 8290SOL    HW236507   4.624   3.580  15.605  3.5817  0.5465  0.3848
 8291SOL     OW36508   4.107   1.050   8.882  0.0407  0.3222 -0.2704
 8291SOL    HW136509   4.199   1.048   8.854  0.3270  0.2422  0.6948
 8291SOL    HW236510   4.114   1.102   8.961  0.4795  0.0961 -0.1592
 8292SOL     OW36511   0.089   3.363   4.620  0.0936  0.2369 -0.2367
 8292SOL    HW136512   0.054   3.288   4.572  0.1468 -1.5528  2.5234
 8292SOL    HW236513   0.161   3.394   4.565  1.5838 -1.5294  0.7014
 8293SOL     OW36514   0.398   1.172   7.613 -0.0871 -0.2004  0.2997
 8293SOL    HW136515   0.363   1.157   7.700 -2.7997 -0.5771 -0.8516
 8293SOL    HW236516   0.344   1.242   7.577 -1.2224 -0.4592  1.5049
 8294SOL     OW36517   2.794   1.011   8.246  0.2313  0.2896  0.4799
 8294SOL    HW136518   2.752   0.947   8.304  0.1881  0.9076  1.1339
 8294SOL    HW236519   2.887   0.996   8.261  0.6787  1.4659 -1.0772
 8295SOL     OW36520   0.232   2.383   1.880  0.7229  0.3149 -0.0218
 8295SOL    HW136521   0.254   2.372   1.787  0.9525 -1.7258  0.2673
 8295SOL    HW236522   0.313   2.354   1.923  0.6479  1.6129  0.9748
 8296SOL     OW36523   2.565   0.827   0.702  0.1961  0.5066 -0.3687
 8296SOL    HW136524   2.566   0.900   0.641 -0.9721  0.3955 -0.5123
 8296SOL    HW236525   2.483   0.852   0.745  1.0152  0.2647  1.3615
 8297SOL     OW36526   1.488   0.921   4.571 -0.6421  0.1695 -0.0270
 8297SOL    HW136527   1.573   0.900   4.608 -0.0743 -0.2241 -1.5430
 8297SOL    HW236528   1.503   1.016   4.569 -0.7254  0.1613 -1.0563
 8298SOL     OW36529   3.946   1.590   0.359 -0.4710 -0.0940 -0.1424
 8298SOL    HW136530   4.037   1.617   0.350  0.5131 -3.0960  0.9035
 8298SOL    HW236531   3.949   1.494   0.362 -0.1776 -0.1018 -0.5973
 8299SOL     OW36532   4.147   4.703  14.879  0.5814 -0.0845  0.0895
 8299SOL    HW136533   4.155   4.629  14.939  1.3907 -0.1339 -0.0776
 8299SOL    HW236534   4.100   0.030  14.933 -0.1249  0.6687 -1.3778
 8300SOL     OW36535   1.149   2.327   5.092  0.5243  0.3892  0.0387
 8300SOL    HW136536   1.130   2.385   5.166  0.5180  3.1657 -2.1474
 8300SOL    HW236537   1.239   2.303   5.115 -0.2404  0.4570  3.1203
 8301SOL     OW36538   0.330   0.359   6.664  0.3396  0.2057  0.4396
 8301SOL    HW136539   0.376   0.443   6.672  0.5432  0.1518 -0.1637
 8301SOL    HW236540   0.288   0.350   6.749 -0.0417  2.2986  0.4762
 8302SOL     OW36541   4.295   3.102   1.240  0.1887 -0.0171 -0.1009
 8302SOL    HW136542   4.317   3.043   1.168 -1.0766 -0.3758 -0.2014
 8302SOL    HW236543   4.369   3.163   1.238 -1.3698  1.8861  0.0601
 8303SOL     OW36544   1.635   0.980   7.990  0.0462  0.2718  0.7641
 8303SOL    HW136545   1.655   0.945   8.077 -0.3397  1.2170  1.2300
 8303SOL    HW236546   1.720   0.990   7.948 -0.6535  0.4426 -0.6200
 8304SOL     OW36547   1.794   4.249   1.325 -0.2532  0.1389  0.1573
 8304SOL    HW136548   1.796   4.165   1.372  0.7287 -0.7661 -1.5127
 8304SOL    HW236549   1.845   4.219   1.250 -0.6892  1.2854 -0.5852
 8305SOL     OW36550   0.385   0.540   2.923  0.0225 -0.1886  0.3974
 8305SOL    HW136551   0.330   0.524   3.000 -0.9395 -1.5690 -0.5710
 8305SOL    HW236552   0.387   0.452   2.886  0.4480 -0.1767  0.3981
 8306SOL     OW36553   4.251   1.171  14.232 -0.0151  0.2542  0.3440
 8306SOL    HW136554   4.246   1.091  14.180  0.7361  1.7273 -2.0072
 8306SOL    HW236555   4.346   1.185  14.223 -0.2554  0.9966 -1.0804
 8307SOL     OW36556   4.370   1.056   8.758  0.0603  0.1385  0.3920
 8307SOL    HW136557   4.389   1.083   8.668 -1.8097  0.0838 -0.0043
 8307SOL    HW236558   4.438   1.102   8.808 -1.6799 -0.6726  3.4857
 8308SOL     OW36559   2.891   1.449  10.580  0.4571  0.4449 -0.3153
 8308SOL    HW136560   2.810   1.490  10.610 -0.0475  0.2332 -1.4022
 8308SOL    HW236561   2.917   1.417  10.666  0.9719  2.1271  0.1535
 8309SOL     OW36562   2.799   1.396   6.573  0.4774 -0.2982  0.1356
 8309SOL    HW136563   2.787   1.452   6.649 -0.5863 -1.0364  0.5119
 8309SOL    HW236564   2.877   1.343   6.591 -0.4934 -2.2749 -1.4990
 8310SOL     OW36565   4.118   4.668   6.058  0.0914 -0.2398 -0.1750
 8310SOL    HW136566   4.066   0.003   6.019 -0.4694  0.2540  1.4626
 8310SOL    HW236567   4.071   4.660   6.142  1.9745  0.7323  0.9611
 8311SOL     OW36568   3.209   2.507   7.890  0.1384  0.1631  0.2395
 8311SOL    HW136569   3.229   2.494   7.983  1.9435  0.4995 -0.1028
 8311SOL    HW236570   3.114   2.498   7.899  0.2022 -0.4918  0.2355
 8312SOL     OW36571   1.032   2.256   9.315 -0.6368 -0.2501  0.1956
 8312SOL    HW136572   0.972   2.186   9.338 -2.7101  1.2888 -0.5802
 8312SOL    HW236573   1.022   2.312   9.392  0.1494  0.9913 -0.5949
 8313SOL     OW36574   4.266   2.201   2.529  0.2739  0.4463 -0.3038
 8313SOL    HW136575   4.265   2.195   2.624  1.6701 -0.4677 -0.3518
 8313SOL    HW236576   4.177   2.195   2.496  0.1915  2.8726 -0.4926
 8314SOL     OW36577   2.643   1.259   5.489 -0.1882  0.2045 -0.1357
 8314SOL    HW136578   2.607   1.276   5.576 -1.2713  1.9892 -0.9249
 8314SOL    HW236579   2.564   1.247   5.438 -0.7360  0.1592  0.7260
 8315SOL     OW36580   4.320   1.394  10.670 -0.0752 -0.7896 -0.0101
 8315SOL    HW136581   4.410   1.409  10.642 -0.7224  0.7528 -1.3320
 8315SOL    HW236582   4.293   1.485  10.687  0.0495 -1.7399  5.1692
 8316SOL     OW36583   2.112   0.578   7.055 -0.4473 -0.5113  0.3091
 8316SOL    HW136584   2.147   0.624   6.978 -2.7813 -0.5411 -0.7480
 8316SOL    HW236585   2.070   0.645   7.108  0.7299  2.0930 -2.0277
 8317SOL     OW36586   2.527   4.542   0.001 -0.2101 -0.0198 -0.1030
 8317SOL    HW136587   2.564   4.595  17.672  0.2169  0.4194  0.4495
 8317SOL    HW236588   2.452   4.596   0.025 -1.6816 -1.7132 -0.9405
 8318SOL     OW36589   0.080   4.160   9.371 -0.4105 -0.1842  0.1047
 8318SOL    HW136590   0.161   4.209   9.378  0.2430 -1.0395 -1.4314
 8318SOL    HW236591   0.089   4.082   9.426  3.4968 -0.4361 -0.9226
 8319SOL     OW36592   1.293   3.024  12.409 -0.1088 -0.3053 -0.0080
 8319SOL    HW136593   1.349   3.088  12.454 -1.2682  1.3644 -0.9449
 8319SOL    HW236594   1.218   3.033  12.468  0.2320  1.5390  0.1584
 8320SOL     OW36595   1.331   3.191   4.178  0.0395  0.2946 -0.3177
 8320SOL    HW136596   1.343   3.111   4.229  2.8742  1.2621  0.5586
 8320SOL    HW236597   1.238   3.205   4.191 -0.1447 -0.0280 -1.3135
 8321SOL     OW36598   3.454   0.378   1.984  0.0736  0.4149 -0.0610
 8321SOL    HW136599   3.395   0.401   1.911  0.4063 -0.4180 -0.5912
 8321SOL    HW236600   3.540   0.408   1.956 -0.2190  0.4899 -0.8873
 8322SOL     OW36601   1.948   1.043  13.541 -0.3700  0.2833 -0.5976
 8322SOL    HW136602   1.966   1.013  13.452 -0.7678 -2.2964  0.1708
 8322SOL    HW236603   1.853   1.059  13.540 -0.3772  0.2199 -0.8398
 8323SOL     OW36604   1.569   0.825   8.910  0.3842 -0.2440 -0.3816
 8323SOL    HW136605   1.552   0.879   8.987 -0.1158 -2.6617  1.1961
 8323SOL    HW236606   1.664   0.837   8.917  0.4264 -0.5534 -0.3933
 8324SOL     OW36607   4.138   1.229   4.926  0.2011  0.5679 -0.1349
 8324SOL    HW136608   4.234   1.235   4.931  0.2876 -0.3598 -0.6039
 8324SOL    HW236609   4.105   1.292   4.990 -0.0607 -0.5259  0.8058
 8325SOL     OW36610   1.642   3.886   2.883  0.2717  0.4407 -0.3585
 8325SOL    HW136611   1.738   3.881   2.892  0.1997 -0.4218 -0.0314
 8325SOL    HW236612   1.621   3.798   2.850 -0.0939  0.9502 -1.5006
 8326SOL     OW36613   2.366   3.781   5.150 -0.0604  0.0760 -0.5785
 8326SOL    HW136614   2.296   3.786   5.215 -0.6669  1.6162 -1.3618
 8326SOL    HW236615   2.442   3.778   5.208 -0.8805  0.9952  0.5392
 8327SOL     OW36616   3.685   0.378  16.262 -0.3687 -0.0291  0.0900
 8327SOL    HW136617   3.590   0.389  16.260 -0.7383 -2.8533  1.8996
 8327SOL    HW236618   3.705   0.434  16.337  0.4644  0.2954 -0.3698
 8328SOL     OW36619   4.474   2.143  15.472  0.3514 -0.0740 -0.1743
 8328SOL    HW136620   4.537   2.184  15.413 -2.1689  4.3254  0.1270
 8328SOL    HW236621   4.516   2.061  15.498  2.1178  1.4616  1.8277
 8329SOL     OW36622   0.058   0.012  12.393 -0.4840 -0.3208  0.4041
 8329SOL    HW136623   0.091   0.005  12.303 -3.3555  1.1952 -0.7494
 8329SOL    HW236624   0.026   0.101  12.385 -2.3745 -0.9909  0.5367
 8330SOL     OW36625   3.879   4.556   6.622  1.1532 -0.0521 -0.1628
 8330SOL    HW136626   3.906   4.515   6.705  0.5687  1.0360  0.5703
 8330SOL    HW236627   3.866   4.643   6.659 -1.3801 -0.6908  0.4987
 8331SOL     OW36628   0.813   4.015   2.641  0.0403  0.2791  0.2268
 8331SOL    HW136629   0.788   4.040   2.552  1.2352 -1.6042 -0.6319
 8331SOL    HW236630   0.899   3.974   2.632 -0.1690 -0.5724  2.2042
 8332SOL     OW36631   4.009   3.569   2.887  0.2754  0.0275 -0.0855
 8332SOL    HW136632   4.089   3.547   2.839 -1.2453  0.0025 -2.5987
 8332SOL    HW236633   3.962   3.485   2.882  0.0635  0.1688 -0.4472
 8333SOL     OW36634   1.669   3.421   1.955  0.1770 -0.4505  0.6723
 8333SOL    HW136635   1.597   3.367   1.989  1.1120 -2.3752 -0.4463
 8333SOL    HW236636   1.732   3.351   1.943  2.1967  1.5359 -0.3010
 8334SOL     OW36637   0.206   0.383  14.902  0.1328 -0.2083 -0.3833
 8334SOL    HW136638   0.240   0.455  14.954 -0.9937  0.8452 -1.1183
 8334SOL    HW236639   0.225   0.412  14.813 -0.2049 -0.5946 -0.5812
 8335SOL     OW36640   4.119   2.010   2.882  0.5847 -0.4114  0.2385
 8335SOL    HW136641   4.155   1.923   2.862 -0.2892 -0.9388  0.9712
 8335SOL    HW236642   4.185   2.039   2.945 -0.9657 -0.0413  1.6795
 8336SOL     OW36643   4.295   4.520   8.956  0.2721 -0.1741 -0.2653
 8336SOL    HW136644   4.328   4.608   8.973  0.6435 -0.2694 -0.4920
 8336SOL    HW236645   4.228   4.544   8.893 -0.2814 -1.6121 -0.2216
 8337SOL     OW36646   4.403   0.008  16.216  0.8205 -0.9020  0.3719
 8337SOL    HW136647   4.334   0.044  16.271 -2.1887 -0.8532 -3.4883
 8337SOL    HW236648   4.363   4.659  16.198 -0.4248  0.0883 -1.3689
 8338SOL     OW36649   2.272   0.273  15.041  0.3382 -0.2500 -0.3157
 8338SOL    HW136650   2.308   0.257  15.129  0.9591 -1.8327 -0.8444
 8338SOL    HW236651   2.267   0.186  15.001  0.5299  1.0494 -3.1631
 8339SOL     OW36652   0.694   3.389   1.630  0.2986 -0.0968  0.4547
 8339SOL    HW136653   0.768   3.352   1.678 -0.8547 -2.3265  0.5122
 8339SOL    HW236654   0.626   3.326   1.653  0.4375  0.2279  1.7704
 8340SOL     OW36655   3.671   0.445   3.545 -0.5896 -0.0907  0.1907
 8340SOL    HW136656   3.617   0.411   3.617 -1.5024  0.6982 -0.1193
 8340SOL    HW236657   3.745   0.473   3.599 -0.0842 -1.6150  0.2993
 8341SOL     OW36658   2.773   4.626   8.001 -0.5304 -0.2878 -0.6660
 8341SOL    HW136659   2.745   4.535   7.995 -1.0743 -0.0793 -1.2910
 8341SOL    HW236660   2.773   4.643   8.096 -0.2196  0.3774 -0.7826
 8342SOL     OW36661   3.638   3.216   1.825  0.2259 -0.5354  0.1777
 8342SOL    HW136662   3.604   3.287   1.770  0.7401 -1.1975 -0.9870
 8342SOL    HW236663   3.575   3.150   1.795 -0.6177  0.0331  0.6897
 8343SOL     OW36664   2.994   0.925   0.864 -0.5798  0.0609  0.7108
 8343SOL    HW136665   2.962   0.835   0.869  2.4366 -1.0200  1.0056
 8343SOL    HW236666   3.048   0.926   0.942  0.6181 -1.0904 -0.1063
 8344SOL     OW36667   3.573   4.725   2.250 -0.5011  0.5908  0.4337
 8344SOL    HW136668   3.635   0.062   2.260 -0.1023  0.2283  0.6071
 8344SOL    HW236669   3.499   0.011   2.306 -0.0116  0.5574  1.0882
 8345SOL     OW36670   3.154   4.309   8.729 -0.1256  0.3065 -0.3449
 8345SOL    HW136671   3.072   4.348   8.698  0.4567  1.5681 -0.2769
 8345SOL    HW236672   3.128   4.265   8.810 -0.2464 -1.7207 -1.4985
 8346SOL     OW36673   4.374   0.131   0.789 -0.6971  0.2603  0.4523
 8346SOL    HW136674   4.450   0.101   0.837 -0.9751 -0.2845  0.5466
 8346SOL    HW236675   4.402   0.110   0.700 -0.6340 -1.9426  1.0032
 8347SOL     OW36676   2.479   4.486   2.515  0.1192 -0.0944 -0.3889
 8347SOL    HW136677   2.535   4.420   2.555 -0.0812 -0.7640 -1.2023
 8347SOL    HW236678   2.543   4.529   2.458 -1.5659  2.2872 -0.5004
 8348SOL     OW36679   2.631   3.789   6.115 -0.1507 -0.2668 -0.1667
 8348SOL    HW136680   2.558   3.757   6.167  0.8511 -1.5755  0.4327
 8348SOL    HW236681   2.590   3.788   6.029 -1.1497  4.0539  0.2453
 8349SOL     OW36682   3.643   1.454   8.606  0.0015 -0.6182  0.9762
 8349SOL    HW136683   3.596   1.475   8.525  2.0549 -2.2852 -0.6448
 8349SOL    HW236684   3.733   1.473   8.580 -1.5343  0.6999 -3.3899
 8350SOL     OW36685   3.623   3.512   8.375 -0.3556  0.1530 -0.3233
 8350SOL    HW136686   3.610   3.466   8.292 -0.3352 -0.9020  0.2655
 8350SOL    HW236687   3.539   3.515   8.419 -1.8516  0.2141 -3.1827
 8351SOL     OW36688   0.972   2.060   1.883  0.3814 -0.1873 -0.2920
 8351SOL    HW136689   0.907   2.089   1.818 -1.9910 -2.9153  0.8861
 8351SOL    HW236690   0.946   1.971   1.905  2.3297 -0.6220  0.2866
 8352SOL     OW36691   1.542   3.572   5.212  0.5736  0.6833  0.4510
 8352SOL    HW136692   1.457   3.538   5.238 -0.7484  3.0661 -0.6535
 8352SOL    HW236693   1.503   3.640   5.156 -0.2335  1.1305  1.5489
 8353SOL     OW36694   4.466   2.748   7.527  0.0697 -0.3906 -0.0372
 8353SOL    HW136695   4.482   2.825   7.582  1.1103  0.4690 -1.5258
 8353SOL    HW236696   4.514   2.685   7.580 -1.5975 -1.5882  0.0617
 8354SOL     OW36697   0.833   1.204   2.437 -0.2972 -0.2239 -0.2604
 8354SOL    HW136698   0.922   1.238   2.433 -0.1616 -0.3957  1.1196
 8354SOL    HW236699   0.847   1.131   2.497 -2.8291  0.2103  0.8782
 8355SOL     OW36700   3.162   1.861   5.010  0.6815  1.0289 -0.6832
 8355SOL    HW136701   3.194   1.950   4.993  0.1181  1.4727  0.5319
 8355SOL    HW236702   3.101   1.882   5.081 -0.5480 -0.5399 -1.2957
 8356SOL     OW36703   2.231   2.941  10.291 -0.2263  0.8518  0.0017
 8356SOL    HW136704   2.172   2.866  10.291  0.5468  0.2404  0.2362
 8356SOL    HW236705   2.295   2.916  10.358  0.6104  1.0838 -0.7010
 8357SOL     OW36706   4.157   3.520  15.025 -0.1758  0.5779  0.1853
 8357SOL    HW136707   4.232   3.461  15.032 -0.6296 -0.1120 -0.8087
 8357SOL    HW236708   4.093   3.466  14.978 -0.9786  1.1541  0.6090
 8358SOL     OW36709   1.685   1.816   1.263  0.0302 -0.4344 -0.8468
 8358SOL    HW136710   1.647   1.764   1.192  0.4151  1.2461 -2.2826
 8358SOL    HW236711   1.660   1.906   1.242  1.9005  0.3337  0.2109
 8359SOL     OW36712   3.169   2.107   2.245  0.3337  0.1034 -0.1029
 8359SOL    HW136713   3.176   2.015   2.216  1.5705  0.1998 -0.1135
 8359SOL    HW236714   3.261   2.131   2.256  0.2268  0.2669  0.4279
 8360SOL     OW36715   2.232   3.669   3.724  0.2555 -0.4052 -0.2110
 8360SOL    HW136716   2.184   3.659   3.641  0.8994 -1.4042 -0.4600
 8360SOL    HW236717   2.169   3.630   3.785  1.0344  0.9794  1.4455
 8361SOL     OW36718   1.809   3.911   7.457  0.0716  0.3068  0.7078
 8361SOL    HW136719   1.858   3.831   7.437 -0.2879 -0.1649  1.7130
 8361SOL    HW236720   1.798   3.905   7.552  0.0975 -0.8615  0.6379
 8362SOL     OW36721   0.829   3.283  12.871 -0.3793  0.0178  1.0956
 8362SOL    HW136722   0.787   3.357  12.915 -2.3950 -2.0727  2.6568
 8362SOL    HW236723   0.828   3.325  12.785  0.8754 -0.5182  0.8151
 8363SOL     OW36724   4.209   3.759   4.283 -0.0966 -0.8166 -0.8104
 8363SOL    HW136725   4.195   3.852   4.303  1.5849 -0.7526  0.1003
 8363SOL    HW236726   4.139   3.717   4.334 -0.1318 -0.6751 -0.7412
 8364SOL     OW36727   3.769   0.286   8.973  0.3174  0.5874  0.3421
 8364SOL    HW136728   3.841   0.253   8.920 -0.5335 -0.4314 -0.1753
 8364SOL    HW236729   3.715   0.323   8.903 -1.1686 -2.0295  0.1314
 8365SOL     OW36730   3.351   2.784   5.086  0.1159 -0.1268  0.0204
 8365SOL    HW136731   3.382   2.726   5.017 -1.2346 -0.3016 -0.4473
 8365SOL    HW236732   3.423   2.847   5.082 -1.2194  1.2786 -1.4546
 8366SOL     OW36733   3.120   3.312  12.746  0.5605  0.3794  0.3712
 8366SOL    HW136734   3.111   3.301  12.651 -0.1713 -0.5531  0.5450
 8366SOL    HW236735   3.043   3.261  12.774  1.7022  0.2162  3.2642
 8367SOL     OW36736   1.984   3.410   4.184 -0.1430 -0.5958 -0.4028
 8367SOL    HW136737   1.895   3.418   4.151  0.1757 -0.2086 -1.1566
 8367SOL    HW236738   1.972   3.417   4.279 -1.1858 -1.5371 -0.4653
 8368SOL     OW36739   3.177   2.538   1.592  0.0559 -0.0474  0.3088
 8368SOL    HW136740   3.100   2.559   1.646  0.3372 -1.9271  1.4535
 8368SOL    HW236741   3.129   2.494   1.522  0.0533  0.3510  0.0629
 8369SOL     OW36742   3.991   0.426  12.006 -0.0275  0.0482 -0.3205
 8369SOL    HW136743   4.036   0.429  11.922  1.1392  1.6679  0.3600
 8369SOL    HW236744   4.063   0.475  12.047 -0.5609 -0.7866  1.6407
 8370SOL     OW36745   3.185   4.712   4.765  0.1507  0.5401 -0.1834
 8370SOL    HW136746   3.091   4.714   4.748 -0.1034 -0.4350  1.1502
 8370SOL    HW236747   3.215   4.684   4.678 -0.3643 -0.0279 -0.1737
 8371SOL     OW36748   3.477   2.760   7.325 -0.5315 -0.0463 -0.0555
 8371SOL    HW136749   3.477   2.706   7.245 -0.5631  1.3098 -0.9729
 8371SOL    HW236750   3.536   2.702   7.372 -0.5486  0.1903  0.2546
 8372SOL     OW36751   3.063   3.494   9.664 -0.3163 -0.5426  0.4512
 8372SOL    HW136752   3.056   3.585   9.635  0.0038 -1.6014 -2.9580
 8372SOL    HW236753   3.145   3.489   9.713 -0.5224 -0.9158  0.7564
 8373SOL     OW36754   4.266   2.508  15.823  0.1781  0.0124 -0.4058
 8373SOL    HW136755   4.175   2.495  15.851  0.8204  3.5539  3.2986
 8373SOL    HW236756   4.240   2.525  15.733 -2.1990 -0.5785  0.1711
 8374SOL     OW36757   1.436   2.922  12.019 -0.2099  0.7331  0.4137
 8374SOL    HW136758   1.466   2.915  11.928  0.7895  1.9040  0.6553
 8374SOL    HW236759   1.504   2.979  12.055  1.3389 -1.0771  0.3862
 8375SOL     OW36760   0.904   2.854   9.373  0.8894  0.0456 -0.5322
 8375SOL    HW136761   0.817   2.888   9.351  0.0818 -0.1292  2.3846
 8375SOL    HW236762   0.902   2.769   9.329 -0.9628 -0.1116 -0.1653
 8376SOL     OW36763   3.993   0.240   6.198  0.0141  0.2201 -0.4896
 8376SOL    HW136764   3.980   0.228   6.104  1.1804  0.3035 -0.6594
 8376SOL    HW236765   4.030   0.328   6.194  0.0141  0.2228 -0.4192
 8377SOL     OW36766   1.291   1.163  15.129 -0.1225  0.0498  0.1359
 8377SOL    HW136767   1.322   1.100  15.064 -0.7407 -0.3872  0.2611
 8377SOL    HW236768   1.340   1.133  15.205 -1.9719  0.0823  1.3309
 8378SOL     OW36769   4.106   3.949   2.764  0.6267  1.1235  0.1556
 8378SOL    HW136770   4.022   3.904   2.759  1.3998 -0.2751 -0.2403
 8378SOL    HW236771   4.114   3.950   2.859 -1.8217  0.4461  0.3461
 8379SOL     OW36772   0.096   3.652  13.172 -0.0661  0.7940  0.2651
 8379SOL    HW136773   0.177   3.692  13.140  0.7994  1.5678  3.4557
 8379SOL    HW236774   0.031   3.719  13.153  0.0043  0.8004  0.0516
 8380SOL     OW36775   1.671   4.248   7.903 -0.1354  0.6312 -0.4104
 8380SOL    HW136776   1.606   4.311   7.933  1.1548  1.9223 -0.3455
 8380SOL    HW236777   1.634   4.209   7.824 -0.1151 -0.3495  0.0618
 8381SOL     OW36778   2.264   0.186   4.161  0.0993 -0.1731 -0.4268
 8381SOL    HW136779   2.204   0.159   4.230  0.2189  2.0512  0.5550
 8381SOL    HW236780   2.310   0.104   4.145  1.5911  1.0296 -2.3248
 8382SOL     OW36781   3.149   3.037  15.600 -0.7260 -0.0578 -0.2040
 8382SOL    HW136782   3.191   2.990  15.528  0.8756  0.9807  0.0553
 8382SOL    HW236783   3.145   3.129  15.573  1.5625 -0.0420 -0.4387
 8383SOL     OW36784   2.704   3.190   7.824  0.1652  0.2149 -0.0882
 8383SOL    HW136785   2.649   3.157   7.894  2.1652 -0.4731  1.1506
 8383SOL    HW236786   2.660   3.274   7.809 -1.3597 -0.3763  1.1531
 8384SOL     OW36787   0.920   4.665   6.661 -0.0274 -0.1022  0.2123
 8384SOL    HW136788   0.875   4.585   6.635  1.0858 -0.4938 -0.4941
 8384SOL    HW236789   0.931   4.657   6.756 -0.3672  0.1932  0.2801
 8385SOL     OW36790   3.351   3.709   0.795  0.1212 -0.3036  0.2195
 8385SOL    HW136791   3.414   3.660   0.743  0.4832 -0.6321  0.9650
 8385SOL    HW236792   3.414   3.762   0.844 -0.5363  0.6847  0.0089
 8386SOL     OW36793   3.266   3.957   8.528 -0.4936 -0.1265 -0.1158
 8386SOL    HW136794   3.358   3.971   8.550 -1.4653  2.8704  2.0548
 8386SOL    HW236795   3.232   4.046   8.539  1.6141  0.6983 -0.2823
 8387SOL     OW36796   0.289   1.059  11.197 -0.2301 -0.6551 -0.4207
 8387SOL    HW136797   0.276   1.150  11.225  2.5666  0.2040 -1.9447
 8387SOL    HW236798   0.362   1.063  11.136  1.9506  0.0374  2.2183
 8388SOL     OW36799   0.978   1.096   8.111 -0.2201 -0.0506  0.8173
 8388SOL    HW136800   1.031   1.093   8.191  1.5110  1.3645 -0.2646
 8388SOL    HW236801   1.037   1.048   8.052 -2.3877 -0.4960 -0.9635
 8389SOL     OW36802   3.455   2.487   4.056  0.1552 -0.0843  0.1562
 8389SOL    HW136803   3.439   2.400   4.019  0.4641  0.7967 -2.0515
 8389SOL    HW236804   3.372   2.507   4.100  0.4295  2.1456 -0.3801
 8390SOL     OW36805   0.291   1.296   2.351 -0.4309 -0.0248  0.2370
 8390SOL    HW136806   0.347   1.340   2.415 -0.5993  1.9011 -0.9249
 8390SOL    HW236807   0.211   1.339   2.381 -0.5108 -0.3613  0.5034
 8391SOL     OW36808   0.770   2.703   9.903  0.1821 -0.1502  0.0996
 8391SOL    HW136809   0.705   2.750   9.850  0.2621  0.1014  0.2258
 8391SOL    HW236810   0.714   2.644   9.955 -1.0145  0.1552 -0.8404
 8392SOL     OW36811   0.047   4.295  12.882 -0.0977 -0.6699 -0.6694
 8392SOL    HW136812   0.131   4.292  12.836  0.5442 -1.0626  0.5223
 8392SOL    HW236813   0.037   4.389  12.895  0.8615 -0.2710 -2.7687
 8393SOL     OW36814   4.261   0.691   5.865 -0.4292 -0.1675  0.1265
 8393SOL    HW136815   4.277   0.619   5.805  0.4453 -0.1049  0.2917
 8393SOL    HW236816   4.178   0.724   5.831 -0.2526  0.6142  0.4496
 8394SOL     OW36817   4.338   0.612   0.512 -0.1880 -0.8063 -0.3259
 8394SOL    HW136818   4.374   0.523   0.523 -2.2427 -1.5553  0.4638
 8394SOL    HW236819   4.410   0.645   0.459 -0.0314  0.1787  0.5032
 8395SOL     OW36820   2.123   0.716   4.373  0.3809  0.4900 -0.4242
 8395SOL    HW136821   2.089   0.689   4.288 -0.2159  0.3809 -0.1491
 8395SOL    HW236822   2.165   0.637   4.407 -0.5318  1.0012  1.8676
 8396SOL     OW36823   1.344   2.452   5.840 -0.9195  0.1003  0.0613
 8396SOL    HW136824   1.352   2.471   5.933 -1.4701 -1.1147  0.3539
 8396SOL    HW236825   1.400   2.515   5.794 -0.6236  0.3390  0.7465
 8397SOL     OW36826   4.356   4.316  16.272 -0.0032  0.3941  0.2535
 8397SOL    HW136827   4.424   4.337  16.335 -0.1121  0.0313  0.4898
 8397SOL    HW236828   4.294   4.267  16.326 -0.3564  0.1121 -0.4087
 8398SOL     OW36829   1.118   2.532   8.966  0.3858  0.2067 -0.3214
 8398SOL    HW136830   1.092   2.443   8.990  0.3950  0.3488  0.2175
 8398SOL    HW236831   1.144   2.506   8.878 -0.0785  0.9904 -0.6938
 8399SOL     OW36832   0.855   1.506   0.156 -0.7391 -0.1111  0.5884
 8399SOL    HW136833   0.947   1.489   0.178 -0.2901 -0.2855 -1.4263
 8399SOL    HW236834   0.857   1.567   0.082  2.1006  1.4154  1.9443
 8400SOL     OW36835   2.462   4.419   7.576  0.1001  0.1136  0.4950
 8400SOL    HW136836   2.434   4.510   7.589 -0.3053  0.3335 -2.0083
 8400SOL    HW236837   2.379   4.382   7.548 -1.3626  3.6587  0.0942
 8401SOL     OW36838   2.093   0.554  11.195  0.9367 -0.0972  0.6150
 8401SOL    HW136839   2.035   0.484  11.224 -0.8542  0.8717 -0.6454
 8401SOL    HW236840   2.035   0.630  11.189  1.2478  0.0203 -0.7829
 8402SOL     OW36841   1.483   1.566   1.291 -0.1049  0.0462  0.3640
 8402SOL    HW136842   1.472   1.648   1.244 -0.3636  0.2178  0.7237
 8402SOL    HW236843   1.467   1.505   1.219 -1.2231 -1.1510  1.6375
 8403SOL     OW36844   4.430   3.429   8.199  0.3900 -0.0511  0.1763
 8403SOL    HW136845   4.486   3.443   8.275  1.0740  0.2743 -0.3893
 8403SOL    HW236846   4.471   3.480   8.129  0.6564  0.0094  0.3795
 8404SOL     OW36847   0.391   3.051   1.293 -0.2337  0.2539  0.3638
 8404SOL    HW136848   0.404   2.958   1.276  1.1751  0.6178 -0.5127
 8404SOL    HW236849   0.481   3.082   1.290 -1.5055  4.0945  1.1778
 8405SOL     OW36850   2.508   3.517   1.204 -0.2306 -0.1536 -0.0859
 8405SOL    HW136851   2.568   3.518   1.279 -0.7634 -2.3025  0.3552
 8405SOL    HW236852   2.459   3.597   1.224 -1.0271 -0.7217  0.2156
 8406SOL     OW36853   1.167   3.586  15.294  0.6070 -0.2696 -0.2027
 8406SOL    HW136854   1.224   3.626  15.359 -0.2565  1.9725 -0.8174
 8406SOL    HW236855   1.097   3.649  15.311  0.6710 -0.1691 -0.3116
 8407SOL     OW36856   2.640   0.812   4.299  0.2683 -0.5299  0.3904
 8407SOL    HW136857   2.663   0.782   4.211 -0.4679 -0.7199  0.2604
 8407SOL    HW236858   2.641   0.728   4.345 -1.8841 -0.5974  0.3275
 8408SOL     OW36859   1.968   1.918   7.686 -0.2282 -0.1876 -0.5126
 8408SOL    HW136860   1.950   1.840   7.633 -1.1741  0.2292 -0.8012
 8408SOL    HW236861   1.918   1.888   7.761 -0.0751 -1.7088 -1.0279
 8409SOL     OW36862   4.571   2.238  15.159 -0.2817  0.1415 -0.3654
 8409SOL    HW136863   4.576   2.328  15.125  0.0043  0.7176  1.2152
 8409SOL    HW236864   4.663   2.212  15.160  0.2222  2.0824  2.9203
 8410SOL     OW36865   3.646   3.168  10.620 -0.0676  0.2593 -0.4733
 8410SOL    HW136866   3.648   3.153  10.526  0.5367  1.2410 -0.6211
 8410SOL    HW236867   3.578   3.236  10.618 -1.0505 -0.7353 -1.0363
 8411SOL     OW36868   2.134   3.534  12.310  0.2312  0.6356  0.5312
 8411SOL    HW136869   2.191   3.540  12.387  0.3733 -2.2325  0.6422
 8411SOL    HW236870   2.051   3.556  12.352 -0.9073 -0.0219 -1.3514
 8412SOL     OW36871   0.812   1.038  10.474 -0.1536 -0.0737 -0.1543
 8412SOL    HW136872   0.782   1.080  10.394  0.2058  0.3642 -0.0574
 8412SOL    HW236873   0.896   1.084  10.482 -0.7489  1.2239 -1.4846
 8413SOL     OW36874   4.243   0.135   7.811 -0.0308 -0.5871  0.5545
 8413SOL    HW136875   4.250   0.080   7.733 -0.1590  1.6142 -1.0168
 8413SOL    HW236876   4.330   0.129   7.851  1.1928 -2.7053 -2.3765
 8414SOL     OW36877   1.341   4.055   8.499  0.2055  0.7204  0.6987
 8414SOL    HW136878   1.422   4.066   8.450  0.3740 -0.7194  0.6770
 8414SOL    HW236879   1.293   3.987   8.451 -3.6297  1.7816  2.9788
 8415SOL     OW36880   3.140   3.958   7.099  0.0967 -0.5279 -0.0998
 8415SOL    HW136881   3.197   3.938   7.173 -2.3547 -1.0292  1.6426
 8415SOL    HW236882   3.083   4.027   7.132 -2.1381 -2.4918  0.1336
 8416SOL     OW36883   3.222   4.067   5.635 -0.1926  1.1327 -0.3446
 8416SOL    HW136884   3.221   4.011   5.712  0.3869  2.5232  0.6663
 8416SOL    HW236885   3.131   4.095   5.645 -0.4542  0.5168 -0.9853
 8417SOL     OW36886   0.670   2.161   7.613  0.2124 -0.6369  0.3115
 8417SOL    HW136887   0.649   2.199   7.698  0.7739  0.1938  0.0818
 8417SOL    HW236888   0.586   2.136   7.575 -0.6889 -0.1815  2.0283
 8418SOL     OW36889   3.358   1.027   3.338  0.7073 -0.4571  0.2147
 8418SOL    HW136890   3.300   1.103   3.337  1.5663  0.1963  0.4874
 8418SOL    HW236891   3.335   0.988   3.422 -1.4880 -2.0576 -1.1290
 8419SOL     OW36892   3.686   0.994   5.168 -0.3448  0.5194 -0.2425
 8419SOL    HW136893   3.772   1.035   5.174  1.0025 -2.0531 -1.9117
 8419SOL    HW236894   3.693   0.976   5.074  0.1198 -3.0150  0.4801
 8420SOL     OW36895   3.106   3.707   4.341  0.3663  0.1884 -0.0195
 8420SOL    HW136896   3.015   3.717   4.371  0.0732  1.0405 -1.1841
 8420SOL    HW236897   3.121   3.797   4.368 -1.8474  0.5286  0.1195
 8421SOL     OW36898   2.422   0.183   6.753 -0.0451  0.6418 -0.1325
 8421SOL    HW136899   2.419   0.159   6.846 -0.6665  0.5591 -0.1721
 8421SOL    HW236900   2.497   0.131   6.725  0.2886  1.2628 -0.4080
 8422SOL     OW36901   0.762   4.536   2.262  0.4088 -0.1384 -0.0948
 8422SOL    HW136902   0.710   4.516   2.339  1.3878  0.1544  0.6333
 8422SOL    HW236903   0.851   4.551   2.293  0.2490  1.3017 -0.2978
 8423SOL     OW36904   1.121   3.858   3.630 -0.0754  0.0486 -1.0666
 8423SOL    HW136905   1.144   3.849   3.722 -1.6219  1.4621 -0.5350
 8423SOL    HW236906   1.164   3.787   3.583  1.2903  0.8112 -0.9545
 8424SOL     OW36907   1.893   0.349   8.109 -0.0697  0.3152  0.3064
 8424SOL    HW136908   1.890   0.285   8.038  2.1332 -0.5525  0.9914
 8424SOL    HW236909   1.888   0.303   8.193 -0.7624  0.6406  0.4449
 8425SOL     OW36910   3.055   3.488   5.826  0.1219  0.2904 -0.5147
 8425SOL    HW136911   3.014   3.574   5.834  2.2899  1.4552 -1.9266
 8425SOL    HW236912   3.031   3.452   5.741 -0.7022 -0.2142 -0.0683
 8426SOL     OW36913   0.808   3.882  14.354 -0.5524  0.3836 -0.8984
 8426SOL    HW136914   0.896   3.918  14.362 -0.3670  0.3074 -2.5780
 8426SOL    HW236915   0.842   3.813  14.296 -1.6986  0.3946 -1.5784
 8427SOL     OW36916   1.787   1.760   5.062  0.5276 -0.3709 -0.4716
 8427SOL    HW136917   1.823   1.702   4.995  3.6525 -1.0822  1.8169
 8427SOL    HW236918   1.869   1.803   5.086 -0.0901  0.7432 -0.3931
 8428SOL     OW36919   0.195   0.048   3.557 -0.3354 -0.2662  0.2839
 8428SOL    HW136920   0.111   0.038   3.602 -0.1211 -0.7832  0.5620
 8428SOL    HW236921   0.171   0.025   3.467  0.9453 -1.6507  0.3086
 8429SOL     OW36922   4.000   4.682   4.516  0.0617  0.5961 -0.4517
 8429SOL    HW136923   4.079   4.634   4.491 -0.1832 -0.0059 -0.0754
 8429SOL    HW236924   4.036   0.034   4.528 -2.4538  1.3752  1.5248
 8430SOL     OW36925   3.518   2.720   3.865  0.2649 -0.0202 -0.7496
 8430SOL    HW136926   3.485   2.658   3.930 -0.4152 -0.2914 -1.3446
 8430SOL    HW236927   3.585   2.667   3.820 -0.8221 -0.7361 -1.5149
 8431SOL     OW36928   1.340   0.785   9.755 -0.0802 -0.1507  0.1873
 8431SOL    HW136929   1.403   0.841   9.711 -0.3251 -0.8948 -1.1117
 8431SOL    HW236930   1.260   0.812   9.710 -0.1728  0.3186  0.6404
 8432SOL     OW36931   2.235   1.071   2.777  0.2200  0.8644  0.7195
 8432SOL    HW136932   2.260   1.007   2.843  2.8427 -0.3566 -1.4375
 8432SOL    HW236933   2.291   1.044   2.704  3.0391 -1.6571  3.8044
 8433SOL     OW36934   2.121   2.936   5.307  0.0477 -0.1918  0.5288
 8433SOL    HW136935   2.191   2.994   5.336 -0.2494  2.3220 -3.7871
 8433SOL    HW236936   2.067   2.929   5.386 -1.0375  1.0015 -0.0934
 8434SOL     OW36937   0.942   0.102  13.352 -0.3197  0.2415 -0.8409
 8434SOL    HW136938   0.972   0.100  13.443  0.1488 -0.1352 -1.0031
 8434SOL    HW236939   0.848   0.090  13.362 -0.4143  1.4530 -0.2845
 8435SOL     OW36940   1.944   4.705   4.342  0.0437 -0.0358 -0.2840
 8435SOL    HW136941   1.906   4.618   4.349 -0.1373  0.1693  1.2870
 8435SOL    HW236942   1.911   0.008   4.423 -1.3202  1.6853 -1.6443
 8436SOL     OW36943   0.541   4.008   4.757 -0.7181  0.5575 -0.3535
 8436SOL    HW136944   0.535   3.917   4.728 -1.5929  0.4360  0.2119
 8436SOL    HW236945   0.478   4.005   4.829 -2.8099  0.5187 -2.1884
 8437SOL     OW36946   1.026   1.957   8.223 -0.1745  0.0805 -0.8140
 8437SOL    HW136947   1.060   1.868   8.231 -0.4810  0.1007  0.6120
 8437SOL    HW236948   0.935   1.935   8.202 -0.4568 -0.0621  0.5591
 8438SOL     OW36949   0.018   1.005   5.481  0.7271  0.3055  0.1459
 8438SOL    HW136950   0.031   0.960   5.398  0.9297  1.2476 -0.3280
 8438SOL    HW236951   4.661   0.981   5.485 -0.1161  3.3853 -1.0658
 8439SOL     OW36952   4.114   4.629   7.314  0.4078  0.5203  0.3013
 8439SOL    HW136953   4.130   4.723   7.311  0.2099  0.5138 -0.9620
 8439SOL    HW236954   4.025   4.612   7.282  0.6685 -2.0626  0.9852
 8440SOL     OW36955   4.019   1.230   7.504  0.3523 -0.7294  0.0815
 8440SOL    HW136956   3.960   1.164   7.539  0.2757 -1.0699 -0.7035
 8440SOL    HW236957   4.087   1.198   7.564 -1.6783 -3.6700  0.7859
 8441SOL     OW36958   3.544   2.819   6.108  0.0147 -1.0559 -0.0465
 8441SOL    HW136959   3.592   2.784   6.032 -1.1994 -2.9944  0.0873
 8441SOL    HW236960   3.599   2.896   6.122  0.1860 -1.2521  0.3774
 8442SOL     OW36961   1.160   0.975   4.307 -0.6245  0.1707  0.5545
 8442SOL    HW136962   1.081   1.020   4.277  1.3505  2.4762 -1.1887
 8442SOL    HW236963   1.211   1.037   4.360  1.0125 -0.8083  0.1226
 8443SOL     OW36964   3.849   2.214   7.793 -0.3388  0.0039  0.3429
 8443SOL    HW136965   3.851   2.133   7.741 -2.1654  1.0386 -1.3205
 8443SOL    HW236966   3.837   2.289   7.735 -3.4348 -0.4622  0.3698
 8444SOL     OW36967   3.426   4.363   3.014  0.5539  0.3025 -0.8101
 8444SOL    HW136968   3.511   4.327   3.038 -0.2468 -1.0684 -0.0356
 8444SOL    HW236969   3.446   4.457   3.008  1.0944  0.3353  1.7442
 8445SOL     OW36970   1.826   0.157   8.277 -0.1210  0.2269 -0.2541
 8445SOL    HW136971   1.752   0.099   8.293  0.6389 -0.4023  1.0140
 8445SOL    HW236972   1.901   0.103   8.301  0.9215 -0.1147 -4.2349
 8446SOL     OW36973   2.617   4.642   8.972 -0.0756 -0.5928 -0.3495
 8446SOL    HW136974   2.697   4.643   9.024  0.7014  1.4257 -1.5403
 8446SOL    HW236975   2.593   4.734   8.982 -1.3246 -0.9494 -0.0679
 8447SOL     OW36976   2.232   2.969   5.918 -0.2738 -0.1332 -0.3712
 8447SOL    HW136977   2.283   2.888   5.930  0.4010  0.8218  3.2848
 8447SOL    HW236978   2.287   3.015   5.855  0.6288  0.0591  0.5364
 8448SOL     OW36979   4.193   2.480   7.467 -0.3235  0.4217  0.0700
 8448SOL    HW136980   4.160   2.548   7.408 -0.2909 -0.0812 -0.5426
 8448SOL    HW236981   4.286   2.484   7.444 -0.2114 -0.9554  0.2553
 8449SOL     OW36982   1.227   4.540  11.285 -0.0526 -0.4686  0.1377
 8449SOL    HW136983   1.304   4.490  11.311 -0.3069 -0.4109  0.9832
 8449SOL    HW236984   1.172   4.463  11.269 -1.1927  0.3275  0.1986
 8450SOL     OW36985   0.182   0.637   9.737 -0.4502 -0.0623 -0.3213
 8450SOL    HW136986   0.129   0.564   9.768 -0.4323  0.4704  0.9743
 8450SOL    HW236987   0.264   0.623   9.784  0.1052 -0.0795 -1.3010
 8451SOL     OW36988   4.212   1.152  16.677 -0.3732 -0.0246  0.8483
 8451SOL    HW136989   4.231   1.147  16.771 -0.0773  1.4108  0.8542
 8451SOL    HW236990   4.266   1.223  16.643 -0.1125 -0.5595  0.1295
 8452SOL     OW36991   2.047   2.407   6.658 -0.0635 -0.1242  0.1326
 8452SOL    HW136992   2.097   2.378   6.735 -0.0142  2.2509  1.0095
 8452SOL    HW236993   2.001   2.327   6.634 -0.1480 -0.2211  0.6158
 8453SOL     OW36994   4.187   1.418  14.682  0.0277  0.1199  0.0784
 8453SOL    HW136995   4.242   1.487  14.719 -2.0956  1.3627  0.9031
 8453SOL    HW236996   4.104   1.443  14.722  0.3702  2.2986 -0.5756
 8454SOL     OW36997   1.171   2.932   6.718  0.2059 -0.1870 -0.0983
 8454SOL    HW136998   1.105   3.000   6.731  0.0366 -0.2367 -0.6869
 8454SOL    HW236999   1.159   2.876   6.795 -0.3475 -1.1973 -0.9155
 8455SOL     OW37000   3.693   0.259   1.457 -0.0794 -0.3861  0.4343
 8455SOL    HW137001   3.721   0.309   1.534  0.4153 -1.4962  0.9618
 8455SOL    HW237002   3.726   0.170   1.467  1.2533  0.3033  2.3037
 8456SOL     OW37003   1.393   3.106   6.252  0.3356  0.1820 -0.2468
 8456SOL    HW137004   1.304   3.126   6.280  0.3008  0.1018 -0.2986
 8456SOL    HW237005   1.441   3.065   6.323 -2.3355 -0.9704  0.8794
 8457SOL     OW37006   4.612   0.877  12.304 -0.5136 -0.1187  0.0940
 8457SOL    HW137007   4.686   0.911  12.354 -0.2375 -0.5681 -0.0076
 8457SOL    HW237008   4.664   0.855  12.226  0.7418 -1.3313  1.2770
 8458SOL     OW37009   3.178   3.348   6.880 -0.3221 -0.1653  0.3090
 8458SOL    HW137010   3.226   3.379   6.803 -2.1861  1.7113 -0.1095
 8458SOL    HW237011   3.203   3.256   6.875 -2.0286 -0.6994  1.3900
 8459SOL     OW37012   2.214   4.541  17.146  0.6644  0.1275  0.5438
 8459SOL    HW137013   2.219   4.527  17.051  0.9062  1.6615  0.3328
 8459SOL    HW237014   2.300   4.573  17.172 -0.6116  2.6762  1.6462
 8460SOL     OW37015   0.550   0.096  15.771  0.4265  0.4441 -0.4458
 8460SOL    HW137016   0.523   0.137  15.689 -0.1171  1.5242  0.2765
 8460SOL    HW237017   0.468   0.120  15.813  0.9715 -0.2862  1.0022
 8461SOL     OW37018   1.636   3.119   7.043 -0.8372  0.1376  0.4116
 8461SOL    HW137019   1.545   3.089   7.037 -0.8728  0.2967  0.1668
 8461SOL    HW237020   1.654   3.090   6.953  0.5692  4.1066 -0.5850
 8462SOL     OW37021   4.426   0.120   2.264 -0.1429 -0.2440  0.2989
 8462SOL    HW137022   4.421   0.215   2.269  0.1803 -0.1056 -2.1709
 8462SOL    HW237023   4.450   0.090   2.352 -3.4559 -1.0715  0.9474
 8463SOL     OW37024   1.835   4.085   6.427 -0.0374  0.0426  0.4088
 8463SOL    HW137025   1.776   4.156   6.453 -0.8572  0.0189 -1.3658
 8463SOL    HW237026   1.822   4.072   6.333 -0.9028  0.3437  0.4885
 8464SOL     OW37027   1.348   1.353   4.044 -0.1014 -0.1732  0.6985
 8464SOL    HW137028   1.390   1.292   4.105 -0.7214  0.1900  1.4982
 8464SOL    HW237029   1.321   1.295   3.973  1.2206  0.6612 -0.4915
 8465SOL     OW37030   1.816   2.756  17.440 -0.1194  0.2526 -0.0395
 8465SOL    HW137031   1.761   2.833  17.458 -0.1064  0.3512 -0.4292
 8465SOL    HW237032   1.874   2.761  17.516  0.6997  1.0183 -0.7082
 8466SOL     OW37033   2.168   2.552   8.129  0.2709  0.0040 -0.1212
 8466SOL    HW137034   2.175   2.488   8.200  0.5070  1.5436  1.2435
 8466SOL    HW237035   2.079   2.540   8.097 -0.4704 -0.9592  2.2624
 8467SOL     OW37036   3.509   3.670   7.469 -0.1698 -0.1495 -0.4281
 8467SOL    HW137037   3.426   3.681   7.515  0.3070 -1.9159  0.8765
 8467SOL    HW237038   3.538   3.760   7.455  0.7026 -0.4312 -0.4529
 8468SOL     OW37039   3.896   3.103   3.852  0.5748  0.1925  0.3753
 8468SOL    HW137040   3.875   3.141   3.767 -1.1314  2.0760  1.6551
 8468SOL    HW237041   3.812   3.129   3.890 -0.1622 -3.2810  1.1466
 8469SOL     OW37042   2.822   2.798   5.143  0.2245 -0.5382 -0.1754
 8469SOL    HW137043   2.867   2.829   5.222 -1.5398 -0.5337  0.8294
 8469SOL    HW237044   2.872   2.723   5.112 -0.0792 -0.9454  0.3047
 8470SOL     OW37045   0.537   1.265   6.978  0.1542  0.0547 -0.5747
 8470SOL    HW137046   0.466   1.330   6.977 -0.5044 -0.6192  3.1103
 8470SOL    HW237047   0.499   1.202   7.039 -0.6653 -0.4196 -1.5718
 8471SOL     OW37048   3.854   1.192   8.841  0.0941 -0.4481 -0.0764
 8471SOL    HW137049   3.916   1.120   8.834  0.3717 -0.1104 -1.1027
 8471SOL    HW237050   3.883   1.236   8.761 -2.3461 -0.5279 -1.0103
 8472SOL     OW37051   4.561   1.327   5.261 -0.0557  0.4425 -0.1585
 8472SOL    HW137052   4.560   1.378   5.342  1.0244  2.6574 -1.5502
 8472SOL    HW237053   4.652   1.295   5.264 -0.6738 -1.1609  1.7823
 8473SOL     OW37054   1.302   2.702   9.849  0.2842  0.2059 -0.3408
 8473SOL    HW137055   1.384   2.713   9.802  1.7699 -1.5769  1.8320
 8473SOL    HW237056   1.271   2.615   9.824 -0.4283 -0.0563  1.4094
 8474SOL     OW37057   2.378   0.805   2.126  0.9983 -0.8993  0.1860
 8474SOL    HW137058   2.443   0.875   2.135 -0.1700  0.4331 -1.7523
 8474SOL    HW237059   2.431   0.726   2.128  0.9247 -0.9872 -1.0925
 8475SOL     OW37060   2.875   4.386   8.718  0.1924 -0.2750  0.5248
 8475SOL    HW137061   2.796   4.400   8.769 -1.7153  0.0986 -2.5141
 8475SOL    HW237062   2.833   4.332   8.651 -1.3974  1.4215  0.1688
 8476SOL     OW37063   0.936   1.645  10.859 -0.4425  0.1387 -0.0946
 8476SOL    HW137064   0.936   1.585  10.784  0.4328  0.6652 -0.5070
 8476SOL    HW237065   0.965   1.728  10.820  2.2800 -1.0619 -0.6125
 8477SOL     OW37066   1.412   3.660   5.927 -0.3889 -0.6620  0.5395
 8477SOL    HW137067   1.472   3.608   5.873  1.5593  0.7703  1.3495
 8477SOL    HW237068   1.349   3.591   5.951 -0.8561 -0.5828 -0.4189
 8478SOL     OW37069   0.504   2.705  15.808  0.3673 -0.2236  0.2041
 8478SOL    HW137070   0.584   2.654  15.821  0.7660  0.3476 -0.0070
 8478SOL    HW237071   0.470   2.677  15.723 -0.7986 -2.6383  1.4400
 8479SOL     OW37072   3.849   1.529   4.825  1.0807  0.2673 -0.4929
 8479SOL    HW137073   3.929   1.566   4.861  0.1205 -0.4005  2.3826
 8479SOL    HW237074   3.819   1.614   4.794 -3.0718 -1.3795 -1.0586
 8480SOL     OW37075   1.607   1.227   5.239 -0.3547 -0.7067  0.5924
 8480SOL    HW137076   1.598   1.176   5.159  0.4500 -2.1867  1.4344
 8480SOL    HW237077   1.685   1.283   5.241 -0.0342 -1.1605  0.8760
 8481SOL     OW37078   1.237   2.186  11.739 -0.6120 -0.3928  0.0065
 8481SOL    HW137079   1.321   2.144  11.726 -1.3930 -3.2800  4.2118
 8481SOL    HW237080   1.200   2.131  11.808 -0.7564 -0.9550 -0.5241
 8482SOL     OW37081   2.286   2.667   2.427 -0.6509 -0.7272 -0.2203
 8482SOL    HW137082   2.358   2.710   2.380 -1.5988  0.4838 -0.5628
 8482SOL    HW237083   2.245   2.615   2.358  0.4478  0.7982 -2.0395
 8483SOL     OW37084   0.860   4.176   5.880  0.1188 -0.0699  0.5703
 8483SOL    HW137085   0.780   4.130   5.855  1.3629 -1.0056 -1.7664
 8483SOL    HW237086   0.896   4.179   5.791  0.0489  0.5267  0.5658
 8484SOL     OW37087   3.922   2.143   5.567 -0.3142 -0.6047 -0.3411
 8484SOL    HW137088   3.861   2.072   5.545 -0.0000 -1.1857  0.6541
 8484SOL    HW237089   3.878   2.208   5.622 -0.0032 -0.7483  0.0787
 8485SOL     OW37090   4.352   0.476   4.757  0.1595 -0.0516 -0.1081
 8485SOL    HW137091   4.371   0.385   4.779 -1.2771  0.0712  1.7051
 8485SOL    HW237092   4.389   0.484   4.669  0.3658 -1.8482 -0.1755
 8486SOL     OW37093   4.401   1.175   2.460 -0.3270  0.0532  0.3477
 8486SOL    HW137094   4.311   1.159   2.430  0.0245 -0.3541 -0.4923
 8486SOL    HW237095   4.460   1.162   2.385  0.4768  0.0133  0.9955
 8487SOL     OW37096   3.350   1.212   7.068 -0.3075 -0.3483 -0.3930
 8487SOL    HW137097   3.329   1.144   7.132  0.2063 -0.3617 -0.2425
 8487SOL    HW237098   3.442   1.209   7.092 -0.5250 -2.8515  0.1095
 8488SOL     OW37099   1.729   2.276   8.687 -0.0328  0.2757 -0.2085
 8488SOL    HW137100   1.657   2.325   8.727  0.3275 -1.3397  2.3937
 8488SOL    HW237101   1.717   2.191   8.729 -0.1210 -0.4330 -1.6625
 8489SOL     OW37102   3.119   0.109   4.047  0.0270  0.4693 -0.4421
 8489SOL    HW137103   3.190   0.171   4.030  1.4030 -0.9464  0.2320
 8489SOL    HW237104   3.119   0.100   4.143 -0.0718 -2.2982 -0.7077
 8490SOL     OW37105   4.712   3.687  16.992 -0.7751  0.0225  0.0280
 8490SOL    HW137106   0.063   3.676  16.955  1.4013  1.3692  4.7850
 8490SOL    HW237107   4.730   3.751  17.060 -0.5618 -0.4469  0.4169
 8491SOL     OW37108   4.615   3.855  13.123 -0.1167 -0.1099 -0.4838
 8491SOL    HW137109   4.656   3.941  13.135 -0.6079 -0.2141  1.9126
 8491SOL    HW237110   4.524   3.876  13.099 -0.1536  0.5504  0.2388
 8492SOL     OW37111   4.055   1.639   3.270 -1.0750 -0.0237 -0.4769
 8492SOL    HW137112   4.068   1.612   3.179  1.6542 -1.4026  0.3249
 8492SOL    HW237113   4.064   1.734   3.261  1.6723 -0.0072  2.4720
 8493SOL     OW37114   2.183   3.602   5.796  0.6087  0.3954  0.2131
 8493SOL    HW137115   2.268   3.578   5.758  0.7317  0.3309  0.5256
 8493SOL    HW237116   2.122   3.574   5.728  0.8083 -2.2346  1.1360
 8494SOL     OW37117   2.571   0.278  15.660 -0.9689  0.1391 -0.2195
 8494SOL    HW137118   2.623   0.225  15.599  2.3919 -0.4263  3.1050
 8494SOL    HW237119   2.637   0.303  15.724  0.6297 -1.8330 -1.0878
 8495SOL     OW37120   2.352   4.555   8.459 -0.2212  0.1316  0.4489
 8495SOL    HW137121   2.301   4.490   8.412  0.5546 -0.4115  0.3424
 8495SOL    HW237122   2.368   4.509   8.542 -2.5422 -1.3020  0.0964
 8496SOL     OW37123   2.887   1.131  10.219 -0.4882  0.0017 -0.0432
 8496SOL    HW137124   2.855   1.041  10.214 -4.3019  1.3212  0.4650
 8496SOL    HW237125   2.980   1.114  10.237 -0.4060  1.1367  0.6173
 8497SOL     OW37126   2.984   0.298  17.713 -0.1057 -0.3286  0.3281
 8497SOL    HW137127   2.902   0.346  17.718  1.1464  1.9653 -1.0898
 8497SOL    HW237128   3.021   0.321   0.057  0.0625 -0.5015  0.3034
 8498SOL     OW37129   2.843   0.181  10.123  0.2520 -0.2826 -0.2827
 8498SOL    HW137130   2.892   0.187  10.206 -0.0676  1.5596 -0.2241
 8498SOL    HW237131   2.819   0.088  10.120  1.6124 -0.6015 -1.0140
 8499SOL     OW37132   3.511   4.193   6.823  0.0053  0.1813 -0.2347
 8499SOL    HW137133   3.461   4.112   6.822  1.9439 -1.0029  0.5818
 8499SOL    HW237134   3.572   4.179   6.895  0.9871 -0.7311 -1.2415
 8500SOL     OW37135   3.675   4.646   5.063 -0.3976 -0.2050  0.1223
 8500SOL    HW137136   3.601   4.689   5.107  0.3084  0.5153  0.6000
 8500SOL    HW237137   3.714   4.600   5.138  1.2680  1.7524  0.4614
 8501SOL     OW37138   3.950   1.076   5.172 -0.2322  0.5001 -0.0068
 8501SOL    HW137139   4.010   1.075   5.098 -1.7221  0.2823 -1.2157
 8501SOL    HW237140   3.993   1.119   5.246  2.8246 -1.6157 -0.5777
 8502SOL     OW37141   3.295   0.666   3.833 -0.3247 -0.8292  0.8059
 8502SOL    HW137142   3.294   0.661   3.737 -1.0631  0.6607  0.7370
 8502SOL    HW237143   3.227   0.732   3.847 -1.0240 -1.1335 -1.1113
 8503SOL     OW37144   3.464   2.975   4.035 -0.6898 -0.5076 -0.1013
 8503SOL    HW137145   3.490   2.904   3.976 -0.0234  0.0122 -0.4371
 8503SOL    HW237146   3.448   3.051   3.978  0.9972  1.1487  1.6528
 8504SOL     OW37147   1.091   0.580   9.471  0.3996 -0.0925 -0.8490
 8504SOL    HW137148   1.083   0.535   9.555 -5.5801 -1.1021 -1.9310
 8504SOL    HW237149   1.074   0.506   9.413 -0.2206 -0.3824 -0.2950
 8505SOL     OW37150   1.100   3.482   4.463 -0.2260  0.1574  0.5326
 8505SOL    HW137151   1.147   3.485   4.379  1.8558  0.1187  1.7086
 8505SOL    HW237152   1.134   3.562   4.505 -1.0676  0.5320  0.5055
 8506SOL     OW37153   1.138   2.764  11.349 -0.1998  0.2961  0.0091
 8506SOL    HW137154   1.167   2.737  11.262 -1.1090  1.2661 -0.5817
 8506SOL    HW237155   1.224   2.786  11.385  0.2073 -0.7968 -0.2742
 8507SOL     OW37156   4.621   3.306   2.407  0.3058  0.1311  0.0790
 8507SOL    HW137157   4.578   3.306   2.322 -1.1084  1.9371  0.7881
 8507SOL    HW237158   4.637   3.401   2.411 -0.6439  0.2707  0.5422
 8508SOL     OW37159   1.791   0.494  11.385 -0.6517  0.0678 -0.2389
 8508SOL    HW137160   1.771   0.479  11.477 -1.1872 -0.1798 -0.3964
 8508SOL    HW237161   1.745   0.578  11.376 -2.5202 -0.8137  1.1630
 8509SOL     OW37162   4.243   1.377   5.377  0.3071 -0.4908 -0.6064
 8509SOL    HW137163   4.321   1.334   5.344 -0.2671 -0.8682 -1.4767
 8509SOL    HW237164   4.179   1.307   5.390 -2.3766  1.6936 -1.9487
 8510SOL     OW37165   2.156   1.255  14.788  0.3721 -0.1958 -0.0245
 8510SOL    HW137166   2.209   1.181  14.819 -1.0716 -0.6137  1.4541
 8510SOL    HW237167   2.186   1.267  14.698  1.4893 -1.8386  0.1275
 8511SOL     OW37168   0.087   4.278   4.041  0.1443 -0.3282  0.0760
 8511SOL    HW137169   0.030   4.355   4.044 -1.9129 -1.9716  2.9246
 8511SOL    HW237170   0.025   4.207   4.053  0.5585 -0.7657 -0.3759
 8512SOL     OW37171   0.104   4.600   3.798 -0.2153 -0.2866 -0.1475
 8512SOL    HW137172   0.169   4.575   3.733 -2.0246 -0.4057 -1.9044
 8512SOL    HW237173   0.071   4.681   3.758 -1.7486 -0.2288  1.2383
 8513SOL     OW37174   3.119   4.329  13.304  0.7266 -0.2902  0.1577
 8513SOL    HW137175   3.076   4.304  13.385  1.5976 -4.1035 -0.5282
 8513SOL    HW237176   3.117   4.241  13.266 -2.5244 -0.3055  0.3546
 8514SOL     OW37177   0.016   1.587  12.381  0.4006  0.2832 -0.2798
 8514SOL    HW137178   0.109   1.606  12.389  0.5878 -0.4360 -0.7131
 8514SOL    HW237179   0.014   1.498  12.417  0.0158  0.6607  0.6303
 8515SOL     OW37180   3.982   2.698   9.094  0.3827 -0.4995  0.2694
 8515SOL    HW137181   3.890   2.707   9.118 -0.1874 -0.7775 -1.7685
 8515SOL    HW237182   4.013   2.752   9.166 -1.8869  0.4867  0.5238
 8516SOL     OW37183   3.661   0.729   8.193 -0.5573 -0.1551 -0.3233
 8516SOL    HW137184   3.578   0.681   8.192  0.5461 -2.1170  1.2391
 8516SOL    HW237185   3.710   0.699   8.116  1.0992 -0.0766  0.6856
 8517SOL     OW37186   3.804   2.644   7.180  0.0216 -0.1120  0.8153
 8517SOL    HW137187   3.887   2.601   7.163 -0.1366  0.0073 -0.2745
 8517SOL    HW237188   3.810   2.723   7.126 -0.5654 -0.7691 -0.2296
 8518SOL     OW37189   0.037   1.086   2.655 -0.5024  0.0788  0.3311
 8518SOL    HW137190   4.679   1.103   2.657 -0.4631  0.6567 -2.6581
 8518SOL    HW237191   0.056   1.126   2.740  1.4272 -0.2494  0.0664
 8519SOL     OW37192   0.474   1.312   4.628 -0.0856  0.1762  0.7019
 8519SOL    HW137193   0.425   1.236   4.596 -2.3627  1.1323  1.8938
 8519SOL    HW237194   0.445   1.389   4.579 -1.2007 -1.1586 -0.7276
 8520SOL     OW37195   3.756   2.208   2.689 -0.1546 -0.6621 -0.2920
 8520SOL    HW137196   3.780   2.120   2.659 -1.1840 -1.2189  0.5062
 8520SOL    HW237197   3.668   2.212   2.652 -0.5111 -0.8219  0.5224
 8521SOL     OW37198   1.313   1.162   5.579 -0.3379  0.3634  0.2278
 8521SOL    HW137199   1.366   1.101   5.529  1.0663  2.1182 -0.4326
 8521SOL    HW237200   1.286   1.222   5.509  0.3774  0.2417 -0.1519
 8522SOL     OW37201   0.216   3.969   6.564  0.4194  0.2334 -0.2948
 8522SOL    HW137202   0.181   3.923   6.640  0.4792  1.3933  0.4327
 8522SOL    HW237203   0.145   4.031   6.543  0.6116  0.5917  0.1115
 8523SOL     OW37204   2.592   3.958   3.624  0.1260  0.4274 -0.4874
 8523SOL    HW137205   2.535   3.898   3.577 -1.6428  0.8291  1.1746
 8523SOL    HW237206   2.534   4.001   3.687  0.6180 -1.1577  1.0687
 8524SOL     OW37207   3.945   3.049   8.662 -0.0940 -0.2624 -0.0186
 8524SOL    HW137208   3.960   3.097   8.743 -1.3159 -1.5403  0.9828
 8524SOL    HW237209   3.982   2.969   8.699  0.1859 -0.2668 -0.3062
 8525SOL     OW37210   4.729   0.902  13.958  0.0074 -0.2563  0.2159
 8525SOL    HW137211   4.657   0.966  13.959  1.5778  1.4691  1.6596
 8525SOL    HW237212   4.720   0.870  13.868 -2.3808  1.4723 -0.1815
 8526SOL     OW37213   2.609   2.955   8.902 -0.8035 -0.0836 -0.1275
 8526SOL    HW137214   2.605   2.994   8.814  0.4597 -0.4522 -0.3437
 8526SOL    HW237215   2.519   2.925   8.917 -0.7460 -0.0879  0.1966
 8527SOL     OW37216   2.298   0.808   8.289  0.1839 -0.7237  0.1853
 8527SOL    HW137217   2.210   0.773   8.279  0.1402 -0.9450  1.3464
 8527SOL    HW237218   2.324   0.793   8.198 -0.9418  0.6988 -0.3822
 8528SOL     OW37219   3.714   2.552  10.791  0.2089  0.5813 -0.2274
 8528SOL    HW137220   3.748   2.485  10.732  2.0278 -0.5685  2.1475
 8528SOL    HW237221   3.676   2.494  10.856 -0.2664  1.1484 -0.0027
 8529SOL     OW37222   3.738   0.201  11.864  0.7303 -0.0298  0.5380
 8529SOL    HW137223   3.701   0.157  11.788 -1.7587  1.0922  1.1251
 8529SOL    HW237224   3.811   0.147  11.895  0.3024 -0.3596  0.9702
 8530SOL     OW37225   3.962   2.361  13.134 -0.3619 -0.8791 -0.8814
 8530SOL    HW137226   3.997   2.348  13.047 -2.8477 -0.0905 -2.0086
 8530SOL    HW237227   4.043   2.388  13.176  0.3499 -0.5002 -2.5079
 8531SOL     OW37228   2.750   0.912   7.891  0.6177 -0.1996  0.1657
 8531SOL    HW137229   2.664   0.872   7.879 -0.1900  1.3276  0.8174
 8531SOL    HW237230   2.807   0.837   7.878 -2.2830 -1.8392 -2.9037
 8532SOL     OW37231   1.258   4.398   7.906  0.2811 -0.3992  0.1310
 8532SOL    HW137232   1.227   4.419   7.993  2.4370 -2.2464  1.3521
 8532SOL    HW237233   1.185   4.402   7.844  0.1532  1.0882  0.3850
 8533SOL     OW37234   0.055   3.540  13.429  0.4114  0.0411 -0.9912
 8533SOL    HW137235   4.735   3.470  13.395 -0.0010 -1.3109  2.4171
 8533SOL    HW237236   0.106   3.561  13.351  1.6346  3.9059  0.8212
 8534SOL     OW37237   3.464   1.434  14.732  0.1119  0.0511 -0.0144
 8534SOL    HW137238   3.444   1.459  14.822  0.0895  1.1794 -0.3321
 8534SOL    HW237239   3.401   1.495  14.694  0.8089  1.4008  1.0013
 8535SOL     OW37240   1.869   0.997   0.391 -1.3371 -0.3782  0.4975
 8535SOL    HW137241   1.824   0.954   0.464  1.0457 -4.8086 -0.6001
 8535SOL    HW237242   1.819   0.955   0.320  0.3018 -0.4221 -0.6158
 8536SOL     OW37243   2.064   3.974  15.735  0.1388  0.0659 -0.3429
 8536SOL    HW137244   2.063   4.002  15.826 -0.1514 -0.3439 -0.2186
 8536SOL    HW237245   2.138   3.913  15.735 -0.0709 -0.1868  1.3764
 8537SOL     OW37246   1.086   0.101   2.201 -0.2741  0.0551 -0.4575
 8537SOL    HW137247   1.155   0.146   2.250  1.7660  0.3156 -3.5374
 8537SOL    HW237248   1.110   0.009   2.211  1.6343  0.4476 -1.4266
 8538SOL     OW37249   4.670   1.863   2.876  0.4314  0.0188 -0.5656
 8538SOL    HW137250   4.649   1.833   2.965  0.4116 -1.1012 -0.9520
 8538SOL    HW237251   4.687   1.957   2.886  2.8788 -0.3320 -1.4221
 8539SOL     OW37252   4.659   3.228  12.639  0.1103  0.6261  0.4227
 8539SOL    HW137253   4.733   3.247  12.581 -0.2673 -2.7148 -1.1944
 8539SOL    HW237254   4.678   3.300  12.699  0.2504  0.2192  0.8694
 8540SOL     OW37255   3.733   1.351  14.694  0.1153 -0.0991 -0.2861
 8540SOL    HW137256   3.717   1.281  14.631  1.2468 -2.0014  1.5563
 8540SOL    HW237257   3.644   1.386  14.700 -0.1982 -1.2656  1.9007
 8541SOL     OW37258   3.242   1.721   7.359 -0.1527 -0.0384  0.4072
 8541SOL    HW137259   3.229   1.655   7.428  2.0982  1.2157  2.0494
 8541SOL    HW237260   3.158   1.748   7.323  0.2525 -1.3065 -1.4559
 8542SOL     OW37261   1.141   4.546   5.414 -0.7648 -0.2336  0.0438
 8542SOL    HW137262   1.136   4.499   5.331 -0.5716  0.1102 -0.1619
 8542SOL    HW237263   1.048   4.536   5.434 -0.2447  0.8475  2.9834
 8543SOL     OW37264   1.786   2.199   7.825 -0.7438 -0.7649 -0.5819
 8543SOL    HW137265   1.800   2.293   7.813 -2.9715 -0.1599  1.8077
 8543SOL    HW237266   1.701   2.192   7.868 -0.2385 -1.4151  0.3100
 8544SOL     OW37267   1.146   2.556  10.966  0.2653 -0.0183 -0.1265
 8544SOL    HW137268   1.235   2.520  10.965  0.1385 -0.3403 -0.1505
 8544SOL    HW237269   1.102   2.470  10.974  0.0613  0.1376  0.3987
 8545SOL     OW37270   3.383   0.575  12.850 -0.1470 -0.4103  0.6600
 8545SOL    HW137271   3.420   0.548  12.934  1.6918 -1.2238 -0.4061
 8545SOL    HW237272   3.312   0.511  12.851 -0.6645  0.1379 -0.6672
 8546SOL     OW37273   2.925   2.507  11.013 -0.1823 -0.6194  0.0274
 8546SOL    HW137274   2.871   2.508  10.935 -0.7511 -0.3691  0.4249
 8546SOL    HW237275   2.929   2.417  11.045  0.6855 -0.4240  0.4894
 8547SOL     OW37276   2.835   1.307  16.686 -0.0685  0.1402 -0.2776
 8547SOL    HW137277   2.742   1.311  16.662 -0.0525  1.4870 -0.1127
 8547SOL    HW237278   2.864   1.395  16.661  0.1104  0.3155  0.5489
 8548SOL     OW37279   4.612   3.408   7.024  0.8787  0.3486  0.4810
 8548SOL    HW137280   4.697   3.372   7.051  1.8976  1.9951 -0.4687
 8548SOL    HW237281   4.576   3.328   6.985  1.8066  0.1479  0.0296
 8549SOL     OW37282   2.924   1.466   5.050  0.4350  0.1973 -0.0902
 8549SOL    HW137283   2.897   1.375   5.040  1.9537 -0.3650  0.9104
 8549SOL    HW237284   2.841   1.512   5.052  0.6106  0.4451  1.5913
 8550SOL     OW37285   2.462   0.015   2.170  0.5584  0.6381  0.1645
 8550SOL    HW137286   2.372   4.722   2.154  0.3882  2.0421 -1.3420
 8550SOL    HW237287   2.474   0.102   2.133 -0.2137 -0.2341 -2.1455
 8551SOL     OW37288   4.502   2.708  13.804 -0.5932  0.8576 -0.3243
 8551SOL    HW137289   4.536   2.761  13.732 -0.9373 -0.1969 -1.2669
 8551SOL    HW237290   4.534   2.766  13.874  1.7866 -2.4291  1.3360
 8552SOL     OW37291   1.231   3.664   3.487  0.6625 -0.4127  0.0969
 8552SOL    HW137292   1.207   3.572   3.483  1.4583 -0.5874 -0.5222
 8552SOL    HW237293   1.323   3.661   3.511  0.6253  0.1017  0.3182
 8553SOL     OW37294   0.311   1.959   0.919 -0.3873 -0.3467 -0.2295
 8553SOL    HW137295   0.344   2.001   0.998  2.0954 -0.8367 -0.9984
 8553SOL    HW237296   0.379   1.977   0.853 -1.5728  0.6647 -1.1736
 8554SOL     OW37297   1.853   2.478   1.963  0.2349 -0.9187  0.1545
 8554SOL    HW137298   1.838   2.568   1.993  0.7476 -0.8346  0.1459
 8554SOL    HW237299   1.781   2.434   2.010  0.2460 -1.3019 -0.1858
 8555SOL     OW37300   0.511   1.513   8.333 -0.8153  0.0107  0.2019
 8555SOL    HW137301   0.596   1.520   8.376 -0.5122  0.5439 -0.4879
 8555SOL    HW237302   0.484   1.602   8.311 -0.4628 -0.0036 -0.2764
 8556SOL     OW37303   0.266   1.215   3.120 -0.6005 -0.3198 -0.0756
 8556SOL    HW137304   0.340   1.255   3.074 -2.2954  1.0311 -1.6007
 8556SOL    HW237305   0.302   1.132   3.151 -0.3121  0.0285  0.5195
 8557SOL     OW37306   2.779   2.723   9.988 -0.2562 -0.3446  0.1235
 8557SOL    HW137307   2.746   2.752  10.073 -0.6365 -0.2668 -0.0506
 8557SOL    HW237308   2.779   2.806   9.941 -3.2309 -0.2435  0.3106
 8558SOL     OW37309   0.056   0.935   4.945  0.0899  0.2559 -0.7356
 8558SOL    HW137310   0.058   0.845   4.911  1.0160 -0.0676  0.1715
 8558SOL    HW237311   4.729   0.973   4.884  0.7179  0.7176 -1.0989
 8559SOL     OW37312   4.297   1.911   8.035 -0.4014  0.2775  0.8858
 8559SOL    HW137313   4.235   1.844   8.005 -1.0225  2.0838 -1.9060
 8559SOL    HW237314   4.307   1.961   7.954 -2.0419  0.7228  0.9564
 8560SOL     OW37315   3.641   1.820   0.412  0.8015  0.2744  0.3157
 8560SOL    HW137316   3.599   1.905   0.426  1.5581  0.6983  0.0223
 8560SOL    HW237317   3.605   1.772   0.487  2.5544  0.0085  0.9885
 8561SOL     OW37318   1.583   0.417   4.783  0.1691  0.1521 -0.6670
 8561SOL    HW137319   1.534   0.353   4.731  0.0206 -0.3065  0.0351
 8561SOL    HW237320   1.560   0.393   4.872  4.0084 -4.1267 -0.8012
 8562SOL     OW37321   1.133   3.151   4.419  0.0502  0.2285 -0.1811
 8562SOL    HW137322   1.093   3.125   4.502 -0.9165 -3.0295 -1.6760
 8562SOL    HW237323   1.130   3.245   4.433 -1.5605  0.0417  0.7303
 8563SOL     OW37324   4.172   2.567   5.405 -0.1568  0.0517 -0.4448
 8563SOL    HW137325   4.178   2.662   5.417 -0.1296 -0.1982  1.5067
 8563SOL    HW237326   4.257   2.564   5.361 -0.4075 -2.9921 -0.7346
 8564SOL     OW37327   2.873   3.336   9.784 -0.7581  0.2698 -0.0747
 8564SOL    HW137328   2.914   3.406   9.732  0.6222  0.6831  1.5972
 8564SOL    HW237329   2.936   3.266   9.768  0.2468  1.2506 -0.4259
 8565SOL     OW37330   4.494   4.238   5.134 -0.1209  0.4000  0.3531
 8565SOL    HW137331   4.509   4.329   5.109  1.0758  0.0230 -0.2868
 8565SOL    HW237332   4.399   4.228   5.126 -0.0123  0.1975 -0.6615
 8566SOL     OW37333   2.211   4.601  11.308 -0.4637 -0.4029  0.0686
 8566SOL    HW137334   2.240   4.609  11.399  1.8487 -1.4788 -0.5927
 8566SOL    HW237335   2.148   4.673  11.309  0.5432  0.4853 -1.5699
 8567SOL     OW37336   4.661   1.872  12.380  0.2339 -0.1126  0.3416
 8567SOL    HW137337   4.706   1.792  12.405 -0.1573 -1.4787 -3.3960
 8567SOL    HW237338   4.586   1.844  12.327 -2.8033  1.6604  3.6485
 8568SOL     OW37339   2.019   1.368   3.717  0.0375  0.2403  0.0671
 8568SOL    HW137340   1.980   1.418   3.788 -1.7682  0.0467 -0.7807
 8568SOL    HW237341   2.094   1.320   3.752 -0.6702 -0.2256  0.9330
 8569SOL     OW37342   4.601   2.082   5.548  0.1124  0.6007 -0.7003
 8569SOL    HW137343   4.554   2.115   5.472 -0.6892  1.2241  0.0495
 8569SOL    HW237344   4.568   2.146   5.611  0.4616  1.0120 -0.9382
 8570SOL     OW37345   4.616   2.230  14.684 -0.6201  0.2031 -0.0670
 8570SOL    HW137346   4.668   2.310  14.676 -1.9643  1.2152  1.4418
 8570SOL    HW237347   4.563   2.245  14.605 -2.4451 -1.5329  0.8508
 8571SOL     OW37348   3.458   0.520   9.031  0.5088  0.2045 -0.1358
 8571SOL    HW137349   3.434   0.582   9.099 -2.3710 -0.2725 -0.7233
 8571SOL    HW237350   3.461   0.582   8.959  2.6917 -1.7381 -1.7422
 8572SOL     OW37351   3.822   0.420   3.324  0.5919  0.0700  0.0120
 8572SOL    HW137352   3.750   0.436   3.385  1.8279  1.0971  1.1960
 8572SOL    HW237353   3.893   0.416   3.388  0.1207  0.7567  0.5733
 8573SOL     OW37354   2.812   4.653   4.098 -0.0162  0.3130  0.0332
 8573SOL    HW137355   2.833   4.636   4.006  0.1850  1.5494 -0.1451
 8573SOL    HW237356   2.855   4.577   4.138 -0.6809 -0.6719 -1.1372
 8574SOL     OW37357   3.992   4.391   5.060  0.0850 -0.2843 -1.0597
 8574SOL    HW137358   4.055   4.337   5.013  0.2102 -2.2566  1.3420
 8574SOL    HW237359   4.008   4.384   5.155 -2.9503  0.8701 -0.4416
 8575SOL     OW37360   1.598   3.670   9.038 -0.9729 -0.0671  0.1926
 8575SOL    HW137361   1.559   3.595   9.084 -0.9869 -0.1858 -0.0154
 8575SOL    HW237362   1.602   3.733   9.110  0.4526 -1.2957  1.2035
 8576SOL     OW37363   1.687   4.720   0.329 -0.2757  0.3736  0.5352
 8576SOL    HW137364   1.631   4.642   0.328 -2.2133  1.7892 -1.2192
 8576SOL    HW237365   1.777   4.688   0.336  0.7229  2.7249 -1.3614
 8577SOL     OW37366   4.731   3.875   7.615  0.1637 -0.3162 -0.3813
 8577SOL    HW137367   4.668   3.918   7.557 -1.7653 -0.5205  1.5546
 8577SOL    HW237368   0.036   3.955   7.648  0.2119 -0.5862  0.2123
 8578SOL     OW37369   1.341   3.165   6.931 -0.2041  0.0072 -0.5523
 8578SOL    HW137370   1.248   3.162   6.954  0.0683  0.6530  0.6612
 8578SOL    HW237371   1.358   3.256   6.956 -0.8283 -0.0028 -0.0899
 8579SOL     OW37372   2.236   1.817   9.250  0.3887 -0.1906  0.4030
 8579SOL    HW137373   2.297   1.850   9.185  0.3758 -1.2013 -0.1184
 8579SOL    HW237374   2.155   1.859   9.222  1.5249  0.9813 -1.1614
 8580SOL     OW37375   4.666   2.916  10.012  0.0240  0.3251  0.4367
 8580SOL    HW137376   4.632   2.895  10.099 -1.2919  2.2113  0.3814
 8580SOL    HW237377   4.655   3.012  10.015 -0.9866  0.2209  0.1294
 8581SOL     OW37378   4.094   2.911   3.378 -0.7111  0.3013  0.0417
 8581SOL    HW137379   4.043   2.865   3.445 -0.3864 -0.9695 -0.5848
 8581SOL    HW237380   4.136   2.969   3.441  1.5459  0.5544 -1.6803
 8582SOL     OW37381   3.435   0.599   4.062  0.5502  0.2344 -0.5662
 8582SOL    HW137382   3.375   0.611   4.135  1.1579 -0.7430  0.0853
 8582SOL    HW237383   3.380   0.634   3.992 -0.8111 -0.6237  0.0855
 8583SOL     OW37384   3.262   2.893   8.970 -0.2071 -0.3517  0.2552
 8583SOL    HW137385   3.231   2.820   8.916 -0.1452  0.7154 -1.2078
 8583SOL    HW237386   3.262   2.965   8.907  0.4936 -1.9658 -1.5824
 8584SOL     OW37387   0.330   3.689   4.097 -0.3285 -0.2578 -0.5528
 8584SOL    HW137388   0.341   3.594   4.098  2.3809  0.0566  0.5448
 8584SOL    HW237389   0.393   3.717   4.031  2.2969  1.1388  2.5221
 8585SOL     OW37390   3.276   2.120   4.998  0.1333 -0.1376  0.0219
 8585SOL    HW137391   3.295   2.192   5.058 -1.1391  0.1427  0.0666
 8585SOL    HW237392   3.334   2.147   4.927 -2.1521  2.0111 -0.9899
 8586SOL     OW37393   1.294   2.973   3.847  0.0732  0.1118  0.0777
 8586SOL    HW137394   1.272   2.921   3.924  1.2274  0.2009  0.4732
 8586SOL    HW237395   1.376   3.013   3.875 -0.6456 -0.6853  3.2552
 8587SOL     OW37396   0.842   3.310   5.956  0.2279  0.9532  0.2314
 8587SOL    HW137397   0.797   3.344   5.879 -0.5305  0.6194  0.5219
 8587SOL    HW237398   0.891   3.390   5.975  1.5877 -0.0800  1.0787
 8588SOL     OW37399   1.832   1.655  14.575 -0.1779 -0.2573  0.4617
 8588SOL    HW137400   1.887   1.648  14.653  0.0288 -3.0712  0.0828
 8588SOL    HW237401   1.891   1.631  14.503 -0.1402 -0.6073  0.6086
 8589SOL     OW37402   4.592   2.864  13.576 -0.0214 -0.4180 -0.4264
 8589SOL    HW137403   4.512   2.913  13.555 -0.1805 -0.1800  0.7003
 8589SOL    HW237404   4.628   2.835  13.493 -0.8059  0.8322 -1.2128
 8590SOL     OW37405   0.484   1.674   5.160 -0.6369  0.0491  0.2253
 8590SOL    HW137406   0.510   1.587   5.128  0.3747  0.9385 -1.3578
 8590SOL    HW237407   0.397   1.655   5.196 -1.2232  2.4033  0.0361
 8591SOL     OW37408   4.591   2.742   3.052  0.1148 -0.4313  0.1174
 8591SOL    HW137409   4.546   2.795   2.986  1.3320  2.4708  1.6651
 8591SOL    HW237410   4.673   2.788   3.069 -0.0142  0.6376 -2.1733
 8592SOL     OW37411   0.709   1.302   5.646 -0.6956 -0.1780 -0.1224
 8592SOL    HW137412   0.632   1.246   5.642 -1.3809  0.7000  0.7670
 8592SOL    HW237413   0.700   1.342   5.732  1.1019 -1.2626  0.5787
 8593SOL     OW37414   3.610   1.153   2.341 -0.2636 -0.2556  0.3147
 8593SOL    HW137415   3.628   1.105   2.261 -0.9995 -0.4980  0.2984
 8593SOL    HW237416   3.632   1.089   2.409 -1.2283 -1.1690 -0.2410
 8594SOL     OW37417   2.669   3.325   2.182  0.4958  0.0049 -0.2245
 8594SOL    HW137418   2.626   3.392   2.235 -0.0820 -0.8849  0.4228
 8594SOL    HW237419   2.742   3.306   2.240  1.5394 -0.8644 -1.8140
 8595SOL     OW37420   3.818   1.919   8.556 -0.5988 -0.6270 -0.6797
 8595SOL    HW137421   3.813   1.835   8.602  0.6891 -1.4638 -2.0871
 8595SOL    HW237422   3.730   1.955   8.566 -0.0981  0.1373  1.0155
 8596SOL     OW37423   1.275   2.066  10.991 -0.5901  0.2186 -0.2204
 8596SOL    HW137424   1.341   2.124  11.028 -0.2810  0.6419 -1.4274
 8596SOL    HW237425   1.199   2.085  11.045 -0.0211 -0.8247  0.9330
 8597SOL     OW37426   3.962   0.939   4.102 -0.5910 -0.0965  0.5006
 8597SOL    HW137427   4.011   0.997   4.043 -1.4750 -0.7647 -0.8766
 8597SOL    HW237428   4.035   0.886   4.134  0.2443  0.8098  0.0994
 8598SOL     OW37429   1.471   4.249  11.512  0.3312 -0.0175  0.7392
 8598SOL    HW137430   1.395   4.191  11.504 -0.4457  0.5705  4.0893
 8598SOL    HW237431   1.505   4.234  11.599 -1.5381 -1.8195  1.1774
 8599SOL     OW37432   2.344   4.410  10.855  0.4372  0.2337  0.6630
 8599SOL    HW137433   2.313   4.381  10.941  0.4916 -0.4588  0.4502
 8599SOL    HW237434   2.438   4.409  10.871  0.4560 -0.1083  0.5277
 8600SOL     OW37435   3.473   4.442   6.750  0.1639  0.2453 -0.0188
 8600SOL    HW137436   3.383   4.438   6.782  0.1556  1.7720  0.1459
 8600SOL    HW237437   3.506   4.356   6.775 -2.0300 -1.1398 -1.7840
 8601SOL     OW37438   2.634   1.656   3.552 -0.1226  0.1260 -0.2422
 8601SOL    HW137439   2.551   1.705   3.550 -0.1287  0.1497  0.5812
 8601SOL    HW237440   2.649   1.656   3.458  1.3298  1.5787  0.0022
 8602SOL     OW37441   1.917   0.066  11.663  0.3130 -0.0756 -0.4076
 8602SOL    HW137442   1.823   0.085  11.662  0.2209 -0.3942  1.2366
 8602SOL    HW237443   1.925   4.735  11.731  1.3027  1.4459  0.9918
 8603SOL     OW37444   2.591   1.105   5.173 -0.4132 -0.1122 -0.3292
 8603SOL    HW137445   2.563   1.062   5.093  0.7015 -1.0063 -0.2393
 8603SOL    HW237446   2.519   1.084   5.232 -2.1570 -0.1403 -2.4666
 8604SOL     OW37447   4.012   0.260   7.771  0.9855 -0.3758 -0.1184
 8604SOL    HW137448   4.094   0.219   7.800  0.9942 -1.4877 -1.7313
 8604SOL    HW237449   3.985   0.209   7.695 -0.3198  0.9729 -0.5696
 8605SOL     OW37450   1.844   0.460   4.699  0.5593 -0.2780 -0.0429
 8605SOL    HW137451   1.841   0.543   4.651  1.3021  1.1683  2.4077
 8605SOL    HW237452   1.753   0.442   4.721  1.0254 -0.0147  2.0915
 8606SOL     OW37453   2.629   0.419   5.084 -0.2198  0.6180  0.3886
 8606SOL    HW137454   2.574   0.497   5.074  0.7622  1.4311  1.2353
 8606SOL    HW237455   2.626   0.421   5.180 -0.1562  0.9148  0.3841
 8607SOL     OW37456   1.815   2.283  11.268 -0.4900 -0.2579  0.0859
 8607SOL    HW137457   1.850   2.207  11.315  0.7559  0.0005 -0.4468
 8607SOL    HW237458   1.784   2.335  11.342 -1.4783 -0.6323 -0.0677
 8608SOL     OW37459   4.406   4.599  13.705 -0.1368 -0.5006  0.4943
 8608SOL    HW137460   4.496   4.594  13.674 -0.3899  0.8644 -0.5046
 8608SOL    HW237461   4.397   4.694  13.697 -0.4591 -0.6834 -1.4677
 8609SOL     OW37462   0.649   0.327  12.695 -0.2222 -0.5569  0.3581
 8609SOL    HW137463   0.726   0.369  12.658 -0.7917  0.4666  0.3043
 8609SOL    HW237464   0.600   0.314  12.614 -0.0012 -0.0898  0.1499
 8610SOL     OW37465   3.224   2.540   2.511  0.6082 -0.4374 -0.1378
 8610SOL    HW137466   3.218   2.632   2.537 -0.4159 -0.5462 -0.0081
 8610SOL    HW237467   3.277   2.505   2.582 -1.0909  0.0435  1.3459
 8611SOL     OW37468   2.508   0.293   4.280 -0.0062 -0.0779 -0.0276
 8611SOL    HW137469   2.422   0.252   4.271 -0.0999 -0.0655  0.7791
 8611SOL    HW237470   2.562   0.216   4.260 -0.1516 -0.0094 -0.6927
 8612SOL     OW37471   4.210   1.683   5.777  0.0715  0.1035 -0.3705
 8612SOL    HW137472   4.199   1.772   5.811  0.2121 -0.5072  1.2958
 8612SOL    HW237473   4.152   1.635   5.836 -0.4238  0.3382 -0.6697
 8613SOL     OW37474   0.667   2.452  10.839  0.4078  0.1037  0.1818
 8613SOL    HW137475   0.682   2.388  10.909  2.2027  0.4180  0.0732
 8613SOL    HW237476   0.581   2.490  10.858  0.2867 -0.4768  0.7758
 8614SOL     OW37477   0.491   1.511   3.185  0.9347 -0.2057 -0.6548
 8614SOL    HW137478   0.496   1.589   3.131  1.2771 -1.1987 -2.0590
 8614SOL    HW237479   0.470   1.446   3.118 -3.8079  1.1265 -0.4241
 8615SOL     OW37480   3.198   4.110   3.293 -0.0273  0.3170  0.3154
 8615SOL    HW137481   3.125   4.083   3.237 -1.0995  0.7471  1.5108
 8615SOL    HW237482   3.182   4.205   3.290  1.8514  0.6641  1.4146
 8616SOL     OW37483   1.749   2.058   5.284 -0.5403  0.3859 -0.0003
 8616SOL    HW137484   1.671   2.107   5.312  0.2803  1.3645  0.5550
 8616SOL    HW237485   1.709   1.991   5.228  0.6323 -0.8862  0.6848
 8617SOL     OW37486   3.002   0.857   4.276  0.2562 -0.0184  0.0726
 8617SOL    HW137487   3.026   0.800   4.203  1.3041 -1.6613  1.7048
 8617SOL    HW237488   3.039   0.939   4.244  0.2741 -0.2202 -0.4223
 8618SOL     OW37489   3.799   2.869   8.319 -0.5387 -0.2982  0.3002
 8618SOL    HW137490   3.806   2.876   8.224 -0.0971 -0.1883  0.3397
 8618SOL    HW237491   3.746   2.790   8.319 -0.3749 -0.4094  0.6731
 8619SOL     OW37492   0.532   4.353   4.583 -0.5436 -0.6324  0.1653
 8619SOL    HW137493   0.440   4.329   4.571 -0.8159 -0.1458  1.2901
 8619SOL    HW237494   0.574   4.315   4.506  0.3796  0.0596  0.3333
 8620SOL     OW37495   1.283   3.151   5.302 -0.3945  0.6608 -0.0903
 8620SOL    HW137496   1.321   3.238   5.317 -1.7116  1.7315 -2.8656
 8620SOL    HW237497   1.207   3.155   5.360 -1.9191 -1.3253 -1.9453
 8621SOL     OW37498   4.255   4.625   7.692  0.4155 -0.3907 -0.0698
 8621SOL    HW137499   4.343   4.591   7.675 -0.4548 -2.8190  0.3568
 8621SOL    HW237500   4.221   4.577   7.767 -0.5613 -1.0185 -0.9170
 8622SOL     OW37501   1.215   2.985  16.619  0.1419 -0.2379  0.3074
 8622SOL    HW137502   1.201   3.056  16.681 -0.9417 -1.6509  1.6932
 8622SOL    HW237503   1.301   3.003  16.579 -0.1984 -1.2744 -0.8710
 8623SOL     OW37504   1.074   4.124   1.908  0.0987  0.0680 -0.0497
 8623SOL    HW137505   1.016   4.110   1.833  0.1957 -0.2248 -0.0700
 8623SOL    HW237506   1.133   4.051   1.891  0.6108  0.6645 -0.8029
 8624SOL     OW37507   3.714   2.338  16.549 -0.0041  0.3368  0.1917
 8624SOL    HW137508   3.701   2.265  16.488 -1.3971  0.7552 -0.0106
 8624SOL    HW237509   3.795   2.308  16.590 -0.9174  0.2412  1.9383
 8625SOL     OW37510   2.423   1.506  15.108 -0.5047 -0.1377  0.0677
 8625SOL    HW137511   2.490   1.488  15.042  0.9968  1.0537  1.2803
 8625SOL    HW237512   2.388   1.417  15.112 -1.0724  0.0862  0.0302
 8626SOL     OW37513   0.513   2.642   2.393  0.1711  0.0944 -0.0044
 8626SOL    HW137514   0.475   2.555   2.407 -1.3867  0.7938  0.1951
 8626SOL    HW237515   0.601   2.619   2.423 -0.0295 -1.3398 -0.5635
 8627SOL     OW37516   1.932   0.316   6.011 -0.0547  0.0622  0.1539
 8627SOL    HW137517   1.985   0.373   5.955  0.0323 -0.2647 -0.0936
 8627SOL    HW237518   1.868   0.282   5.949 -1.7996  1.2915  1.2921
 8628SOL     OW37519   4.442   0.053   9.071  0.0102 -0.1715 -0.2614
 8628SOL    HW137520   4.511   0.032   9.009 -0.2896 -0.9588 -0.3340
 8628SOL    HW237521   4.481   0.133   9.105 -1.3427  0.3110  0.1834
 8629SOL     OW37522   2.073   2.222   7.906 -0.1368  0.1246 -0.3460
 8629SOL    HW137523   2.045   2.313   7.914 -0.9694 -0.1814  0.2870
 8629SOL    HW237524   1.989   2.184   7.877 -1.1936 -0.5870  3.6238
 8630SOL     OW37525   1.387   2.875  15.751  0.2687  0.0881  0.3446
 8630SOL    HW137526   1.411   2.797  15.700 -2.1731 -0.6655  0.3411
 8630SOL    HW237527   1.313   2.902  15.696  0.6776 -1.0983 -0.7888
 8631SOL     OW37528   1.433   3.374  13.480  0.1225  0.4259 -0.6334
 8631SOL    HW137529   1.451   3.393  13.387  0.0847  2.0373 -0.2926
 8631SOL    HW237530   1.473   3.287  13.481 -2.1022 -0.5534  2.2732
 8632SOL     OW37531   1.712   2.551   4.474  0.0153  0.1775 -0.2378
 8632SOL    HW137532   1.625   2.519   4.497 -0.1040  0.0318 -0.8765
 8632SOL    HW237533   1.743   2.534   4.563 -1.8363  1.8761  0.7296
 8633SOL     OW37534   1.174   2.014   4.517  0.1225  0.1430 -0.3342
 8633SOL    HW137535   1.105   1.957   4.483  1.9079 -1.9328 -0.4580
 8633SOL    HW237536   1.146   2.011   4.609  1.5722 -0.9318  0.0681
 8634SOL     OW37537   2.729   3.877   9.610 -0.4150  0.6741  0.1904
 8634SOL    HW137538   2.696   3.903   9.524  1.1294  0.2702 -0.5340
 8634SOL    HW237539   2.702   3.957   9.655  1.7016  1.2906  0.3531
 8635SOL     OW37540   1.000   3.404   3.130  0.0597 -0.0986  0.0753
 8635SOL    HW137541   1.028   3.326   3.082  3.3509  0.0289  1.7414
 8635SOL    HW237542   0.956   3.363   3.204 -1.7072 -1.1680 -1.5805
 8636SOL     OW37543   1.227   1.211   5.281 -0.1399  0.1491  0.7215
 8636SOL    HW137544   1.146   1.250   5.248  0.3207 -0.9671 -1.7536
 8636SOL    HW237545   1.285   1.188   5.208 -1.6346 -0.5807 -0.2404
 8637SOL     OW37546   4.137   3.004   1.423  0.1893  0.1332  0.1402
 8637SOL    HW137547   4.177   3.046   1.347 -3.1413 -0.7462 -2.1016
 8637SOL    HW237548   4.153   3.071   1.489  1.0638  2.0616 -2.0514
 8638SOL     OW37549   2.462   0.819  11.186  0.5693 -0.1725  0.3286
 8638SOL    HW137550   2.395   0.814  11.255  0.8015  2.1507  0.7218
 8638SOL    HW237551   2.493   0.729  11.195  0.1730 -0.5153 -1.7623
 8639SOL     OW37552   2.819   3.989   7.259  0.2348 -0.6028 -0.1926
 8639SOL    HW137553   2.862   4.009   7.176  0.5481  1.9254  0.5856
 8639SOL    HW237554   2.783   3.903   7.238  2.6611 -1.8202  0.5360
 8640SOL     OW37555   3.113   3.754   4.671 -0.4331  0.3407  0.0594
 8640SOL    HW137556   3.033   3.706   4.691 -0.5502  0.5309  0.0451
 8640SOL    HW237557   3.079   3.843   4.660 -0.7641  0.1123 -0.7342
 8641SOL     OW37558   0.453   4.630   4.777  0.4126 -0.2265 -0.2625
 8641SOL    HW137559   0.442   4.724   4.795  0.6551 -0.0763 -0.8827
 8641SOL    HW237560   0.361   4.603   4.779  0.5808 -0.8815 -1.2443
 8642SOL     OW37561   1.058   0.924   1.851 -0.6740 -0.7069  0.2308
 8642SOL    HW137562   0.970   0.943   1.818 -1.2831 -2.4940  0.8115
 8642SOL    HW237563   1.043   0.939   1.945  2.6356 -1.7541  0.9096
 8643SOL     OW37564   1.170   2.289   2.939  0.0059 -0.0344  0.2903
 8643SOL    HW137565   1.182   2.200   2.906  1.2147 -0.4846  1.9745
 8643SOL    HW237566   1.243   2.278   3.000  0.2248 -0.4105 -0.0393
 8644SOL     OW37567   4.363   1.749  14.052 -0.1157 -0.3785 -0.1113
 8644SOL    HW137568   4.351   1.761  14.146 -0.7311 -5.5024  0.5043
 8644SOL    HW237569   4.312   1.670  14.034 -1.0341 -0.0197  0.9410
 8645SOL     OW37570   3.300   1.498   3.783 -0.0998 -0.1050  0.4183
 8645SOL    HW137571   3.330   1.482   3.693 -0.7794  0.2400  0.1336
 8645SOL    HW237572   3.257   1.581   3.765 -0.6362 -1.3262 -3.8517
 8646SOL     OW37573   1.273   1.646   9.726 -0.3102 -0.1152 -0.1823
 8646SOL    HW137574   1.223   1.587   9.670 -0.4060 -1.3181  1.1675
 8646SOL    HW237575   1.352   1.653   9.672  0.6462 -0.1194  1.2195
 8647SOL     OW37576   4.330   0.215   1.716 -0.5975  0.0226  0.1490
 8647SOL    HW137577   4.319   0.283   1.783 -0.0678  1.6547 -1.4043
 8647SOL    HW237578   4.249   0.166   1.731 -1.2554  0.2184 -2.7258
 8648SOL     OW37579   4.575   1.671  13.848  0.2558 -0.3507  0.2012
 8648SOL    HW137580   4.501   1.688  13.906 -0.1271  2.6915 -1.1733
 8648SOL    HW237581   4.644   1.711  13.900  2.5126 -0.8583 -2.4055
 8649SOL     OW37582   1.928   0.282   0.219 -0.5416 -0.0017  0.1413
 8649SOL    HW137583   1.933   0.351   0.153  1.1969  0.3128  0.6025
 8649SOL    HW237584   1.930   0.334   0.300  2.1761 -0.4574  0.3857
 8650SOL     OW37585   0.276   4.564  16.972  0.1056 -0.9063  0.2322
 8650SOL    HW137586   0.187   4.600  16.973  0.8030  0.8029 -0.1477
 8650SOL    HW237587   0.322   4.619  16.909 -1.5953 -2.1836 -2.1091
 8651SOL     OW37588   0.352   2.822   0.618  0.2800  0.0226  0.2566
 8651SOL    HW137589   0.322   2.912   0.611 -1.1998 -0.4629  0.2927
 8651SOL    HW237590   0.267   2.784   0.639  1.2027 -1.1277  1.9240
 8652SOL     OW37591   0.302   1.484   9.584 -0.3400 -0.7199 -0.6072
 8652SOL    HW137592   0.237   1.433   9.536 -1.3608 -0.3523  0.3891
 8652SOL    HW237593   0.371   1.420   9.604  0.1309 -0.1363 -0.3582
 8653SOL     OW37594   0.511   4.086   1.385 -0.5167  0.1251  0.2073
 8653SOL    HW137595   0.528   4.003   1.340 -2.4965  0.3495 -0.9734
 8653SOL    HW237596   0.449   4.055   1.451 -0.6861  3.9144  1.7708
 8654SOL     OW37597   1.083   1.335   5.609 -0.2275  0.1125 -0.3548
 8654SOL    HW137598   1.159   1.381   5.646  0.3145 -0.2484 -1.0161
 8654SOL    HW237599   1.011   1.377   5.657  0.5637  1.3326 -0.2273
 8655SOL     OW37600   0.091   4.500   6.300  0.5161 -0.5709  0.3810
 8655SOL    HW137601   0.122   4.574   6.248 -1.6033  0.2350  0.2600
 8655SOL    HW237602   0.048   4.553   6.368 -0.1718 -0.6460  0.0061
 8656SOL     OW37603   2.675   4.285  11.786  0.2629  0.0414  0.5386
 8656SOL    HW137604   2.740   4.340  11.830 -0.1704  1.5471 -0.7128
 8656SOL    HW237605   2.718   4.202  11.807  1.4774  0.6228  0.3607
 8657SOL     OW37606   0.989   1.339  17.443  0.6722  0.0955 -0.3797
 8657SOL    HW137607   0.975   1.264  17.501 -1.4748  1.8186  1.3398
 8657SOL    HW237608   1.062   1.309  17.389 -1.2036 -3.4791 -0.9618
 8658SOL     OW37609   2.499   1.046   4.213  0.5484 -0.8044 -0.5981
 8658SOL    HW137610   2.581   1.081   4.249 -0.2921  1.6032 -1.0296
 8658SOL    HW237611   2.494   0.964   4.262 -3.5050 -0.7650 -1.0155
 8659SOL     OW37612   0.434   2.228  12.689 -0.0333  0.3687 -0.4162
 8659SOL    HW137613   0.371   2.271  12.631 -0.0661  1.4380  0.4161
 8659SOL    HW237614   0.376   2.190  12.756  1.3207 -0.7792  0.1123
 8660SOL     OW37615   1.225   4.285   8.564  0.8068  0.3765 -1.1031
 8660SOL    HW137616   1.293   4.350   8.581  0.9135 -0.2508  0.8978
 8660SOL    HW237617   1.284   4.211   8.551 -0.0532 -0.9656  2.6167
 8661SOL     OW37618   3.680   4.302   4.071  0.0149  0.1949 -0.2351
 8661SOL    HW137619   3.631   4.375   4.108 -0.0892  0.6297 -1.2231
 8661SOL    HW237620   3.630   4.222   4.090 -0.4164  0.1774 -1.4861
 8662SOL     OW37621   1.147   1.524   7.298  0.0280 -0.1515  0.6969
 8662SOL    HW137622   1.201   1.463   7.248 -1.2812 -0.2231 -0.6105
 8662SOL    HW237623   1.204   1.601   7.292 -0.4839  0.2781  1.3220
 8663SOL     OW37624   1.747   3.615  11.685  0.1278  0.6200 -0.1823
 8663SOL    HW137625   1.710   3.701  11.703 -1.3595  0.2699 -1.6484
 8663SOL    HW237626   1.667   3.564  11.696  0.5768 -0.3976 -1.5838
 8664SOL     OW37627   1.218   4.283   4.734  0.3936 -0.2567  0.3146
 8664SOL    HW137628   1.236   4.265   4.642  0.5500 -1.4062  0.5584
 8664SOL    HW237629   1.302   4.320   4.760 -0.0196  2.8878 -2.9255
 8665SOL     OW37630   4.506   0.423   2.786 -0.0225  0.3556 -0.3264
 8665SOL    HW137631   4.450   0.493   2.754 -0.4848  0.3979  0.5850
 8665SOL    HW237632   4.520   0.458   2.874  1.2397  0.8942 -0.7406
 8666SOL     OW37633   1.906   2.158   0.134  0.1059 -0.4403 -0.4807
 8666SOL    HW137634   1.934   2.174   0.224 -0.2876 -3.9132  0.2427
 8666SOL    HW237635   1.988   2.165   0.085  0.4454 -0.3433  0.1046
 8667SOL     OW37636   2.370   4.414   2.146  0.3658 -0.0970 -0.0289
 8667SOL    HW137637   2.385   4.462   2.064 -0.3497  1.4766  0.7671
 8667SOL    HW237638   2.449   4.360   2.153  0.0405 -0.2886  2.1461
 8668SOL     OW37639   0.366   3.513   2.825  0.1340  0.4079 -0.0924
 8668SOL    HW137640   0.378   3.436   2.880 -1.6168 -0.3820 -0.8305
 8668SOL    HW237641   0.362   3.474   2.737 -5.0796  1.3105 -0.2249
 8669SOL     OW37642   1.194   2.216   6.816  0.1502  0.0094  0.2157
 8669SOL    HW137643   1.261   2.281   6.838 -0.8633  1.1466 -0.0460
 8669SOL    HW237644   1.152   2.244   6.734 -0.7498  0.4143  0.8116
 8670SOL     OW37645   1.901   3.674  17.279 -0.0007  0.1525  0.2156
 8670SOL    HW137646   1.957   3.635  17.346 -0.7164 -1.4212 -0.1158
 8670SOL    HW237647   1.958   3.750  17.267 -0.2383 -0.0379 -2.1512
 8671SOL     OW37648   3.099   3.974   4.337 -0.3456  0.0529  0.0622
 8671SOL    HW137649   3.167   4.038   4.355 -0.1036  0.5979 -2.8249
 8671SOL    HW237650   3.027   4.031   4.310 -0.5661 -0.2427  0.0146
 8672SOL     OW37651   2.349   2.703  13.470 -0.2140  0.4129  0.1408
 8672SOL    HW137652   2.365   2.776  13.411  1.0822 -0.5692 -0.7033
 8672SOL    HW237653   2.415   2.641  13.439 -1.1433 -0.8952  0.7644
 8673SOL     OW37654   2.235   3.403   4.686 -0.4946  0.4716 -0.4513
 8673SOL    HW137655   2.165   3.381   4.748  0.8801  2.4558  1.8184
 8673SOL    HW237656   2.260   3.315   4.658  0.7345  1.3564 -2.1322
 8674SOL     OW37657   0.712   2.332  15.490 -0.3508 -0.1729  0.2366
 8674SOL    HW137658   0.703   2.425  15.471  1.4887 -0.0437  0.0176
 8674SOL    HW237659   0.618   2.312  15.496 -0.9546  2.4176 -0.7433
 8675SOL     OW37660   2.873   4.396   3.201 -0.3330  0.2038  0.0753
 8675SOL    HW137661   2.804   4.406   3.266 -0.3333 -2.9689  0.6038
 8675SOL    HW237662   2.849   4.318   3.151 -1.6745  1.7857 -1.7275
 8676SOL     OW37663   2.231   2.892   6.290 -0.2145 -0.0809  0.3609
 8676SOL    HW137664   2.323   2.873   6.307  0.0595 -0.0088 -1.0110
 8676SOL    HW237665   2.198   2.921   6.375 -0.8224  0.8490 -0.1965
 8677SOL     OW37666   4.732   4.534   1.518  0.3153 -0.3076 -0.2897
 8677SOL    HW137667   4.722   4.446   1.483 -0.7166  0.5651 -2.1689
 8677SOL    HW237668   4.643   4.557   1.544  1.0089 -0.0867  1.8722
 8678SOL     OW37669   3.411   0.985  11.622 -0.1305 -0.0840  0.4113
 8678SOL    HW137670   3.447   1.071  11.602 -0.0509 -0.3569 -0.5997
 8678SOL    HW237671   3.323   1.009  11.650  0.4813  0.5446  1.8124
 8679SOL     OW37672   4.535   0.031   4.961  0.2385 -0.3044  0.1063
 8679SOL    HW137673   4.524   4.676   4.932  0.9245  0.3437 -2.2648
 8679SOL    HW237674   4.631   0.035   4.956 -0.0601  4.3502 -1.7398
 8680SOL     OW37675   0.088   3.238   7.111  0.4173  0.2574 -0.4490
 8680SOL    HW137676   0.161   3.212   7.055  0.7719  2.2536 -0.8880
 8680SOL    HW237677   0.139   3.260   7.188 -0.0072 -0.2287 -0.0247
 8681SOL     OW37678   1.216   3.994   4.450  0.1929 -0.4497 -0.2464
 8681SOL    HW137679   1.187   4.085   4.453  0.7972 -0.2194 -1.4421
 8681SOL    HW237680   1.308   4.010   4.469  1.1526 -3.1614 -2.6048
 8682SOL     OW37681   0.566   3.975   8.028  0.5708 -0.6413  0.0834
 8682SOL    HW137682   0.499   3.909   8.012  0.3656 -0.5303  0.5037
 8682SOL    HW237683   0.554   4.021   7.944  2.3448  2.1364  1.3308
 8683SOL     OW37684   3.988   1.565   7.104 -0.1994 -0.0822  0.7210
 8683SOL    HW137685   3.895   1.568   7.127 -0.7570 -1.0586 -1.4036
 8683SOL    HW237686   3.980   1.643   7.049 -3.1280 -0.8788  0.0211
 8684SOL     OW37687   3.557   2.249  12.862 -0.4047 -0.0513 -0.1737
 8684SOL    HW137688   3.633   2.194  12.881 -1.4931 -1.5768 -0.2289
 8684SOL    HW237689   3.489   2.198  12.907  0.8987  0.0651  1.9431
 8685SOL     OW37690   3.185   2.453  10.039 -0.4354  0.2987  0.8244
 8685SOL    HW137691   3.185   2.358  10.050  0.4258  0.1338 -0.5205
 8685SOL    HW237692   3.130   2.468   9.961 -0.8600  0.8509  1.2273
 8686SOL     OW37693   3.822   1.942   7.215 -0.5916  0.2736 -0.1452
 8686SOL    HW137694   3.796   2.005   7.147  0.7304  2.5405  1.4430
 8686SOL    HW237695   3.904   1.982   7.243  0.6095 -0.5391 -2.5217
 8687SOL     OW37696   2.349   4.499   4.960  0.2630  0.0178 -0.1612
 8687SOL    HW137697   2.421   4.539   4.911 -0.3240  2.1467  0.7225
 8687SOL    HW237698   2.316   4.448   4.886  1.6323 -2.3554  0.8417
 8688SOL     OW37699   1.865   1.086   6.327  0.1753  0.2574  0.2577
 8688SOL    HW137700   1.845   1.002   6.286  0.4104  0.4126 -0.1796
 8688SOL    HW237701   1.837   1.060   6.415 -0.2656 -1.2163 -0.3245
 8689SOL     OW37702   2.963   0.042   2.606  0.1437  0.9922  0.3175
 8689SOL    HW137703   3.028   0.045   2.676 -0.4980 -0.3539  0.9747
 8689SOL    HW237704   2.987   0.128   2.573 -1.1349  0.9558 -0.6904
 8690SOL     OW37705   4.302   2.901   8.477  0.3407  0.5491  0.0673
 8690SOL    HW137706   4.218   2.940   8.451 -0.1728  0.7218  1.9306
 8690SOL    HW237707   4.277   2.809   8.470  1.8333  0.0587  1.2977
 8691SOL     OW37708   0.567   1.463   3.425  0.3444 -0.1056  0.3048
 8691SOL    HW137709   0.523   1.477   3.342  1.4915  1.1546 -0.0819
 8691SOL    HW237710   0.606   1.548   3.444 -2.3166  0.6409  2.4497
 8692SOL     OW37711   3.793   1.971   2.254 -0.1159  0.1154  0.3211
 8692SOL    HW137712   3.825   1.882   2.241 -2.3929 -0.4257 -1.4039
 8692SOL    HW237713   3.836   2.014   2.181 -1.1114 -1.7603 -1.3625
 8693SOL     OW37714   3.871   1.449   7.434 -0.0390 -0.1084  0.2243
 8693SOL    HW137715   3.816   1.441   7.355 -0.5873 -1.3429  0.7313
 8693SOL    HW237716   3.902   1.360   7.448  1.3421 -0.0140 -2.2081
 8694SOL     OW37717   2.167   0.190   5.266  0.2579  0.3310  0.8540
 8694SOL    HW137718   2.073   0.174   5.273  0.5510 -0.8393  2.1728
 8694SOL    HW237719   2.204   0.114   5.221 -0.3005  0.3720  0.3272
 8695SOL     OW37720   1.815   0.476  13.474  0.2572  0.1266 -0.4323
 8695SOL    HW137721   1.842   0.557  13.518 -2.4530 -0.7421  2.8957
 8695SOL    HW237722   1.903   0.439  13.467  0.8145  1.5441 -0.9271
 8696SOL     OW37723   4.321   1.839   8.371 -0.6136 -0.2696 -0.3279
 8696SOL    HW137724   4.328   1.747   8.344  2.8261 -0.2564  0.6046
 8696SOL    HW237725   4.230   1.829   8.400  0.1026 -0.7519  1.7322
 8697SOL     OW37726   0.874   0.870  13.759 -0.3693 -0.0356 -0.6918
 8697SOL    HW137727   0.825   0.788  13.771 -1.9934  0.8363 -1.2980
 8697SOL    HW237728   0.836   0.925  13.827  2.6315  1.1915 -0.0153
 8698SOL     OW37729   2.250   2.753   7.624  0.0834 -0.1366  0.0066
 8698SOL    HW137730   2.238   2.772   7.717 -0.1148 -1.9109  0.3359
 8698SOL    HW237731   2.344   2.764   7.616  0.0742 -0.1526 -0.1210
 8699SOL     OW37732   3.869   2.796   4.427  0.1067 -0.2770 -0.1510
 8699SOL    HW137733   3.783   2.798   4.469 -0.0330  1.4703 -0.5284
 8699SOL    HW237734   3.861   2.818   4.335  0.0071  0.8582  0.1284
 8700SOL     OW37735   4.677   0.104   1.803  0.2569  0.2164  0.1685
 8700SOL    HW137736   4.717   0.017   1.792  0.3454  0.4204 -1.1680
 8700SOL    HW237737   4.590   0.080   1.833  0.6697 -0.1506  1.0764
 8701SOL     OW37738   4.244   4.563   4.488 -0.4524 -0.6716 -0.0356
 8701SOL    HW137739   4.295   4.481   4.493 -0.5417 -0.7905 -1.1081
 8701SOL    HW237740   4.309   4.621   4.528 -0.5571 -0.1430 -0.6362
 8702SOL     OW37741   1.175   4.408  13.801  0.1900 -0.4936  0.2395
 8702SOL    HW137742   1.232   4.381  13.728 -0.9665 -0.7211 -0.5801
 8702SOL    HW237743   1.203   4.345  13.868  1.5477 -0.8279 -0.6355
 8703SOL     OW37744   2.701   2.139   7.816  0.6599  0.0455  0.7605
 8703SOL    HW137745   2.768   2.113   7.880  1.8899  0.9267 -0.1811
 8703SOL    HW237746   2.622   2.108   7.860 -0.6956  0.5288 -1.3262
 8704SOL     OW37747   2.121   3.132  14.449  0.7428 -0.2986  0.0546
 8704SOL    HW137748   2.216   3.140  14.460  0.2118  3.5072  1.8506
 8704SOL    HW237749   2.115   3.051  14.398 -0.1653  0.7206 -1.4811
 8705SOL     OW37750   2.416   0.610   5.070 -0.3571 -0.5514 -0.1279
 8705SOL    HW137751   2.333   0.563   5.072 -0.7073  0.0949  0.2485
 8705SOL    HW237752   2.382   0.681   5.015 -0.8394  0.8126  1.9218
 8706SOL     OW37753   0.708   0.523   4.666 -0.2157  0.4622 -0.3343
 8706SOL    HW137754   0.718   0.615   4.692 -0.2655  0.4393 -0.2349
 8706SOL    HW237755   0.794   0.481   4.670 -0.5520 -0.4876 -2.5784
 8707SOL     OW37756   4.148   1.730   5.490  0.1854 -0.4316 -0.5124
 8707SOL    HW137757   4.174   1.701   5.577 -0.7449  1.2068  0.3008
 8707SOL    HW237758   4.059   1.758   5.510 -0.3605 -2.1044 -0.6204
 8708SOL     OW37759   4.174   3.951   4.629 -0.5254 -0.0941  0.3243
 8708SOL    HW137760   4.124   3.878   4.664  0.2126 -0.9464 -0.4183
 8708SOL    HW237761   4.132   4.025   4.674  0.4564  1.1721 -0.8281
 8709SOL     OW37762   4.109   2.512  11.446  0.4087  0.1786  0.5853
 8709SOL    HW137763   4.160   2.470  11.514 -0.6674 -0.7609  0.8093
 8709SOL    HW237764   4.048   2.446  11.412 -0.0562  0.8878  0.0221
 8710SOL     OW37765   0.507   2.360   3.076  0.1021  0.2390 -0.1960
 8710SOL    HW137766   0.542   2.316   2.998  0.0143 -2.6135  1.3800
 8710SOL    HW237767   0.567   2.434   3.079 -0.1530  0.4299  0.1480
 8711SOL     OW37768   3.227   0.837   1.099 -0.3942 -0.5177 -0.0399
 8711SOL    HW137769   3.246   0.756   1.051 -1.5362 -1.6118  1.3583
 8711SOL    HW237770   3.311   0.882   1.101 -1.3305  1.3307 -2.6072
 8712SOL     OW37771   1.240   3.093   4.764  0.8531  0.0309  0.0713
 8712SOL    HW137772   1.224   3.186   4.747  2.2153  0.1913 -0.3477
 8712SOL    HW237773   1.231   3.077   4.858  0.4565 -1.7283 -0.2796
 8713SOL     OW37774   3.107   3.973   1.032 -0.0308  0.6553  0.4494
 8713SOL    HW137775   3.012   3.987   1.038  0.6190  5.2944 -0.1773
 8713SOL    HW237776   3.103   3.945   0.940 -1.0583 -1.1390  1.0394
 8714SOL     OW37777   2.344   4.661  15.402 -0.1340 -0.2900 -0.6619
 8714SOL    HW137778   2.272   4.599  15.414 -0.9355  0.7819  0.0649
 8714SOL    HW237779   2.426   4.611  15.411  0.0735  0.0179 -0.8282
 8715SOL     OW37780   2.293   0.266   3.225 -0.0094 -0.5994  0.0670
 8715SOL    HW137781   2.227   0.198   3.240 -0.2742  0.1647  2.3830
 8715SOL    HW237782   2.303   0.296   3.316  2.0990  1.3484 -0.8089
 8716SOL     OW37783   2.817   4.318   6.642 -0.8833  0.1417  0.0685
 8716SOL    HW137784   2.857   4.232   6.633 -0.6232  0.4888 -2.0085
 8716SOL    HW237785   2.732   4.299   6.603 -2.0783  0.4410  2.5235
 8717SOL     OW37786   1.878   2.285  11.005 -0.3431 -0.1555 -0.5095
 8717SOL    HW137787   1.861   2.267  11.098 -0.6648  0.2718 -0.4835
 8717SOL    HW237788   1.792   2.307  10.970 -0.1202 -0.1194 -1.0292
 8718SOL     OW37789   4.704   1.977   1.128 -0.3569  0.1478 -0.2152
 8718SOL    HW137790   4.642   1.922   1.079  0.1974 -0.9347  0.2765
 8718SOL    HW237791   4.644   2.040   1.167  2.1651  1.3189  1.7810
 8719SOL     OW37792   3.207   3.536   0.927  0.0802  0.4345  0.4984
 8719SOL    HW137793   3.241   3.588   0.854  2.1491 -1.8348 -0.1596
 8719SOL    HW237794   3.210   3.603   0.995 -0.2406  3.1512 -2.1384
 8720SOL     OW37795   0.853   2.346   5.173 -0.2088 -0.0569  0.8836
 8720SOL    HW137796   0.920   2.285   5.202  2.0341  1.4785 -1.1405
 8720SOL    HW237797   0.879   2.374   5.086 -0.8114  0.5873  0.9077
 8721SOL     OW37798   0.388   0.232   0.347 -0.4375 -0.4034  0.5715
 8721SOL    HW137799   0.431   0.314   0.325 -0.5831 -0.6294 -0.5274
 8721SOL    HW237800   0.314   0.265   0.399 -0.1731  2.1952 -0.7250
 8722SOL     OW37801   1.656   2.521   8.361 -0.4477 -0.7245 -0.3258
 8722SOL    HW137802   1.586   2.585   8.350  0.4110  0.0558 -1.2551
 8722SOL    HW237803   1.687   2.533   8.451 -0.1028  2.2718 -0.8226
 8723SOL     OW37804   3.273   1.179  12.724  0.1134 -0.2523  0.6472
 8723SOL    HW137805   3.324   1.200  12.646  1.2087  1.2292  1.7503
 8723SOL    HW237806   3.220   1.102  12.705 -1.9683  1.0951  0.9828
 8724SOL     OW37807   4.731   3.608   4.984 -0.2971  0.3196  0.0797
 8724SOL    HW137808   4.708   3.592   4.893  0.3929 -0.8037  0.1031
 8724SOL    HW237809   4.653   3.633   5.034 -1.1559 -0.1877 -1.0254
 8725SOL     OW37810   1.446   1.448  16.224  0.0881  0.1707 -0.2973
 8725SOL    HW137811   1.499   1.469  16.147 -0.8416 -0.5472 -1.1495
 8725SOL    HW237812   1.358   1.456  16.188 -0.2400 -0.2581  0.4145
 8726SOL     OW37813   0.112   4.013   2.249  0.4028 -0.2358  0.3552
 8726SOL    HW137814   0.169   3.988   2.176 -0.6314 -3.0174  0.4745
 8726SOL    HW237815   0.043   3.950   2.229  0.2252 -0.5479  1.9363
 8727SOL     OW37816   2.289   0.079   8.181 -0.3939  0.4235  0.6693
 8727SOL    HW137817   2.253   0.116   8.100 -0.5255  0.6405  0.8261
 8727SOL    HW237818   2.323   0.160   8.219  0.0476 -0.2009  1.5966
 8728SOL     OW37819   4.635   1.086  13.355  0.5721 -0.1598 -0.2905
 8728SOL    HW137820   4.684   1.026  13.412  0.5953  0.4547  0.3353
 8728SOL    HW237821   4.545   1.062  13.375 -0.0858  2.2730 -0.3827
 8729SOL     OW37822   1.375   0.764   8.301  0.3980 -0.3205  0.2019
 8729SOL    HW137823   1.418   0.849   8.293  0.5316 -0.6302 -2.4960
 8729SOL    HW237824   1.404   0.741   8.389 -2.8813 -2.4920  0.7309
 8730SOL     OW37825   1.615   0.061   4.344 -0.1428 -0.2778  0.3197
 8730SOL    HW137826   1.589   0.114   4.420  1.8172 -1.6326  1.9442
 8730SOL    HW237827   1.710   0.053   4.355 -0.0445  0.3292 -0.0560
 8731SOL     OW37828   3.957   2.842   0.538 -0.1742  1.4183  0.0266
 8731SOL    HW137829   3.931   2.909   0.475 -0.1960  0.4176 -1.0530
 8731SOL    HW237830   3.997   2.898   0.604 -0.2200 -0.3503  1.5462
 8732SOL     OW37831   0.643   4.337   9.472  0.4994  0.0078 -0.3602
 8732SOL    HW137832   0.650   4.295   9.387  1.7498  0.7939 -0.6404
 8732SOL    HW237833   0.629   4.258   9.525  0.4374 -0.6055 -1.3063
 8733SOL     OW37834   1.564   0.821   7.109  0.0613  0.5052 -0.0442
 8733SOL    HW137835   1.603   0.908   7.104 -1.4686  1.3754  2.9254
 8733SOL    HW237836   1.643   0.775   7.081 -1.6614 -3.0878  1.0315
 8734SOL     OW37837   4.556   2.701   2.223  0.3365 -0.2487 -0.2638
 8734SOL    HW137838   4.605   2.733   2.147  1.8718 -1.8306  0.0467
 8734SOL    HW237839   4.467   2.691   2.189 -1.1688  2.8624  2.7580
 8735SOL     OW37840   2.333   3.289   7.259 -0.1561 -0.0699 -0.0309
 8735SOL    HW137841   2.290   3.317   7.178 -1.9234 -2.0827  0.1990
 8735SOL    HW237842   2.342   3.195   7.243  0.8496  0.2963 -1.5363
 8736SOL     OW37843   0.355   3.863   9.202  0.4254 -0.1389  0.8288
 8736SOL    HW137844   0.329   3.871   9.110  1.7356 -0.1779  0.4540
 8736SOL    HW237845   0.372   3.768   9.202 -1.4471 -0.4686 -0.8941
 8737SOL     OW37846   1.640   0.734  12.725  0.2952 -0.1421  0.5872
 8737SOL    HW137847   1.650   0.788  12.647  0.1435  0.4669  0.9896
 8737SOL    HW237848   1.544   0.723  12.727  0.2236  1.1794  4.0358
 8738SOL     OW37849   3.568   0.301   2.584  0.2045  0.5180 -0.2493
 8738SOL    HW137850   3.516   0.337   2.655 -2.0410  0.2312 -1.7516
 8738SOL    HW237851   3.602   0.387   2.559 -0.1159 -0.0904 -2.7861
 8739SOL     OW37852   4.401   1.111   8.456 -0.1202  0.1308  0.6553
 8739SOL    HW137853   4.315   1.100   8.415 -0.5985  0.1207  1.6616
 8739SOL    HW237854   4.413   1.206   8.461  1.7760 -0.1641  1.5975
 8740SOL     OW37855   3.720   0.669   4.409 -0.7992 -0.4333  0.3619
 8740SOL    HW137856   3.722   0.719   4.327  0.6938  0.3021  0.8460
 8740SOL    HW237857   3.806   0.699   4.439 -0.7918  0.2290 -0.3147
 8741SOL     OW37858   0.971   0.280  16.921 -0.3333 -0.6346  0.7257
 8741SOL    HW137859   0.957   0.375  16.926 -0.0487 -0.4479 -2.2010
 8741SOL    HW237860   0.933   0.249  16.839  0.3073  0.9417 -0.1776
 8742SOL     OW37861   4.118   4.420  10.055  0.2038  0.2308 -0.1203
 8742SOL    HW137862   4.169   4.343  10.077 -0.3501 -0.1761 -0.2499
 8742SOL    HW237863   4.036   4.373  10.040  0.9591 -1.4235  1.0702
 8743SOL     OW37864   3.115   2.205  12.127  0.3270 -0.4548 -0.5317
 8743SOL    HW137865   3.156   2.291  12.130  1.4936 -1.1126  2.5828
 8743SOL    HW237866   3.067   2.213  12.209 -3.0067 -0.8733 -2.4353
 8744SOL     OW37867   2.072   3.320   6.384  0.3301 -0.1574  0.1001
 8744SOL    HW137868   1.983   3.316   6.419  1.0009 -0.2454  1.8143
 8744SOL    HW237869   2.134   3.279   6.444 -0.1165  1.1761  1.4799
 8745SOL     OW37870   0.944   3.400  16.612  0.6360  0.0091  0.3210
 8745SOL    HW137871   0.929   3.341  16.686  0.9430  1.6083  1.6727
 8745SOL    HW237872   0.855   3.419  16.582  1.6815  1.9577 -1.5229
 8746SOL     OW37873   4.561   0.829   3.745  0.3359  0.1191 -0.3427
 8746SOL    HW137874   4.523   0.788   3.667 -0.1306 -0.1435  0.0262
 8746SOL    HW237875   4.541   0.920   3.725 -1.7661 -0.4283 -0.7598
 8747SOL     OW37876   3.885   0.074   6.004 -0.1816 -0.5039 -0.4773
 8747SOL    HW137877   3.808   0.068   6.061  0.1327  0.4597  0.0453
 8747SOL    HW237878   3.842   0.108   5.925 -1.7248 -0.9264  0.1766
 8748SOL     OW37879   4.324   3.448   1.417 -0.1693 -0.1965  0.2763
 8748SOL    HW137880   4.343   3.528   1.466  0.6853 -0.1582 -0.1084
 8748SOL    HW237881   4.289   3.480   1.334  1.6226  1.9201  0.3442
 8749SOL     OW37882   1.213   2.763  14.746  0.3674  0.0217  0.6330
 8749SOL    HW137883   1.201   2.668  14.735 -0.2894 -0.0855  2.2906
 8749SOL    HW237884   1.187   2.796  14.661  3.1750  1.8963  0.5324
 8750SOL     OW37885   3.536   1.808   3.874 -0.2359 -0.0008 -0.4501
 8750SOL    HW137886   3.589   1.886   3.889 -2.0152  0.9768  0.7074
 8750SOL    HW237887   3.588   1.764   3.807  1.7938  3.5932 -1.2485
 8751SOL     OW37888   3.474   4.090   4.976  0.5903  0.0322  0.3449
 8751SOL    HW137889   3.540   4.140   5.025  1.2867  0.2257 -0.7740
 8751SOL    HW237890   3.400   4.150   4.977 -2.2785 -3.5343  0.6070
 8752SOL     OW37891   0.986   4.465   7.736  0.2299  0.3194  0.4159
 8752SOL    HW137892   1.065   4.505   7.700 -0.1893 -0.8047 -1.6930
 8752SOL    HW237893   0.934   4.451   7.658  3.2652  0.7999 -1.7000
 8753SOL     OW37894   0.478   1.088   8.028 -0.0236 -0.0736  0.1807
 8753SOL    HW137895   0.553   1.031   8.009 -1.0495 -1.4520  0.2386
 8753SOL    HW237896   0.515   1.158   8.081 -1.1957  1.4519 -1.0279
 8754SOL     OW37897   2.584   0.312   8.072  0.4365  0.1637  0.7576
 8754SOL    HW137898   2.665   0.320   8.122  0.7241  0.4107  0.2523
 8754SOL    HW237899   2.520   0.373   8.108 -2.2762 -2.0585 -0.2703
 8755SOL     OW37900   4.552   1.765  12.625  0.6832  0.0762  0.3236
 8755SOL    HW137901   4.604   1.697  12.668  0.1844  1.2646  2.7449
 8755SOL    HW237902   4.595   1.773  12.539 -0.4793 -3.2890 -0.5859
 8756SOL     OW37903   4.576   2.449   5.375  0.4942  0.2826 -0.3170
 8756SOL    HW137904   4.643   2.507   5.337 -0.2783  1.9068  0.7929
 8756SOL    HW237905   4.616   2.427   5.459 -0.9468 -1.4315 -0.1105
 8757SOL     OW37906   1.361   3.705   2.281  0.6068  0.1460  0.3463
 8757SOL    HW137907   1.285   3.736   2.231  0.5665 -0.5349 -0.0140
 8757SOL    HW237908   1.425   3.774   2.265  0.5960 -0.0323 -0.4838
 8758SOL     OW37909   1.787   3.549   2.231  0.1250  0.2025  0.1546
 8758SOL    HW137910   1.824   3.634   2.205  1.6283  0.0374  1.7566
 8758SOL    HW237911   1.726   3.523   2.162  1.2555  0.2507 -0.8679
 8759SOL     OW37912   3.600   1.196  17.275  0.0165  0.3210 -0.4696
 8759SOL    HW137913   3.629   1.124  17.331 -1.0202  0.9803  0.9137
 8759SOL    HW237914   3.512   1.211  17.309  0.2618  2.0477 -0.6092
 8760SOL     OW37915   2.578   4.210  10.058 -0.1860 -0.1603  0.7137
 8760SOL    HW137916   2.501   4.236  10.007  0.3310  0.2003  0.1247
 8760SOL    HW237917   2.534   4.175  10.135 -0.1733 -1.3336  0.1839
 8761SOL     OW37918   0.394   0.779   2.436 -0.5121  0.5143 -0.3465
 8761SOL    HW137919   0.370   0.854   2.490  0.8976 -0.0553  1.0572
 8761SOL    HW237920   0.475   0.807   2.393  0.5523 -1.2914  0.4837
 8762SOL     OW37921   0.995   0.808   4.586  0.1418 -0.1743 -0.0831
 8762SOL    HW137922   0.990   0.846   4.498  1.9241  0.2882  0.0324
 8762SOL    HW237923   1.086   0.782   4.593  0.5710  1.9863  2.4528
 8763SOL     OW37924   2.585   2.613  10.505 -0.3761 -0.0594 -0.2548
 8763SOL    HW137925   2.494   2.597  10.479  0.6834 -1.7600 -3.0039
 8763SOL    HW237926   2.609   2.524  10.531  0.2116  0.0798 -0.3253
 8764SOL     OW37927   3.587   1.746  12.399  0.1430 -0.1849  0.2866
 8764SOL    HW137928   3.658   1.808  12.414  2.3680 -2.6192 -0.0791
 8764SOL    HW237929   3.518   1.797  12.356 -0.6920  0.7719  2.7858
 8765SOL     OW37930   2.730   0.806   6.585 -0.2212 -0.2790  0.2748
 8765SOL    HW137931   2.726   0.729   6.528  0.7838 -0.8089  0.9299
 8765SOL    HW237932   2.641   0.835   6.564  0.0233  0.1777 -0.1359
 8766SOL     OW37933   2.787   2.516   3.813  0.5640  0.0472 -0.0334
 8766SOL    HW137934   2.717   2.554   3.865 -0.3389  1.6635 -2.4117
 8766SOL    HW237935   2.744   2.477   3.737 -1.1484  2.7769 -0.4472
 8767SOL     OW37936   3.074   4.026   8.243 -0.4951 -0.5746  0.3544
 8767SOL    HW137937   3.007   4.076   8.196  0.7145 -0.1457 -0.9209
 8767SOL    HW237938   3.145   4.085   8.217  0.7712 -2.0419  0.4860
 8768SOL     OW37939   3.939   4.262   6.547  0.5031 -0.0692  0.1733
 8768SOL    HW137940   3.853   4.291   6.515  0.6104  1.2256  1.0636
 8768SOL    HW237941   3.996   4.292   6.476  0.0295  1.4872  0.4579
 8769SOL     OW37942   2.914   1.868  16.375  0.0674  0.4475 -0.5102
 8769SOL    HW137943   2.837   1.832  16.420  0.3690  1.2031  0.6138
 8769SOL    HW237944   2.909   1.823  16.291 -0.7831  0.7063 -0.6010
 8770SOL     OW37945   2.199   4.624   3.899  0.3016 -0.4701  0.8599
 8770SOL    HW137946   2.112   4.593   3.926 -1.2301  0.9066 -2.4980
 8770SOL    HW237947   2.176   4.703   3.850  1.3458  0.0695  1.2625
 8771SOL     OW37948   3.096   4.508   4.489  0.3991  0.0517  0.1544
 8771SOL    HW137949   3.066   4.488   4.401  0.4883 -2.3878  0.6594
 8771SOL    HW237950   3.021   4.562   4.513 -0.2663 -1.1561  0.8409
 8772SOL     OW37951   0.136   3.297   1.912 -0.2945  0.0676  0.4740
 8772SOL    HW137952   0.097   3.291   2.000 -0.0819  0.2335  0.5800
 8772SOL    HW237953   0.118   3.212   1.873 -1.5213 -0.0214  1.2191
 8773SOL     OW37954   0.816   3.133  16.027 -0.5229 -0.1858 -0.0858
 8773SOL    HW137955   0.818   3.070  15.955 -1.3827 -2.1786  1.6257
 8773SOL    HW237956   0.775   3.201  15.974 -0.4206 -0.2616 -0.2620
 8774SOL     OW37957   0.999   2.195  12.309 -0.2613  0.5211  0.2360
 8774SOL    HW137958   1.077   2.152  12.345  0.6178  1.6439 -0.3160
 8774SOL    HW237959   0.993   2.283  12.346  0.2761  1.4259 -1.8217
 8775SOL     OW37960   1.651   3.044   7.341 -0.3049  0.5019 -0.5292
 8775SOL    HW137961   1.694   2.958   7.338 -0.1779  0.5260  0.6143
 8775SOL    HW237962   1.618   3.051   7.252 -1.4108  1.7784 -0.0128
 8776SOL     OW37963   1.532   0.074   7.960 -0.7020  0.1316  0.2222
 8776SOL    HW137964   1.479   0.083   7.881 -1.8685  1.9717  1.1964
 8776SOL    HW237965   1.478   0.074   8.039 -1.5168 -0.4400 -0.3415
 8777SOL     OW37966   1.261   0.992   8.898 -0.0652  0.5491 -0.0532
 8777SOL    HW137967   1.324   0.922   8.883  1.2508  1.8217 -0.5098
 8777SOL    HW237968   1.266   0.998   8.993 -0.8427  1.8982 -0.0988
 8778SOL     OW37969   2.869   2.898   3.025 -0.4242 -0.5234 -0.1365
 8778SOL    HW137970   2.940   2.962   3.031 -0.5534 -0.2583 -1.5335
 8778SOL    HW237971   2.850   2.877   3.117  0.5397 -2.8345 -0.4603
 8779SOL     OW37972   1.112   1.023   3.152 -0.8784 -0.0956  0.4138
 8779SOL    HW137973   1.105   1.089   3.221 -1.6009  0.0123  0.2402
 8779SOL    HW237974   1.128   0.942   3.199 -1.2727 -2.2962 -3.3021
 8780SOL     OW37975   3.387   4.561   5.755  0.1410  0.3556  0.0329
 8780SOL    HW137976   3.433   4.633   5.798 -0.5418  0.6384  0.2960
 8780SOL    HW237977   3.296   4.580   5.779  0.1063 -0.3968  0.4984
 8781SOL     OW37978   3.157   0.766   3.290  0.5245  0.0967 -0.2186
 8781SOL    HW137979   3.116   0.830   3.348 -1.3996 -2.8432  1.6346
 8781SOL    HW237980   3.093   0.695   3.284  3.3725 -2.3179 -2.3117
 8782SOL     OW37981   0.030   3.317   2.824  0.2521  0.1922 -0.0215
 8782SOL    HW137982   0.057   3.285   2.738 -0.0535  3.2877 -1.2753
 8782SOL    HW237983   4.697   3.256   2.851  0.2415  0.5697  0.8018
 8783SOL     OW37984   3.694   3.192   0.617 -0.1191  0.5823 -0.4221
 8783SOL    HW137985   3.667   3.275   0.578 -1.1428  0.7412  0.6179
 8783SOL    HW237986   3.680   3.121   0.554 -2.9010 -1.2527  2.2766
 8784SOL     OW37987   3.773   1.753   5.089 -0.2961  0.2594 -0.0551
 8784SOL    HW137988   3.719   1.729   5.014  2.3748 -1.4924 -1.3868
 8784SOL    HW237989   3.722   1.807   5.150  1.9306 -0.0590  2.0732
 8785SOL     OW37990   4.352   3.830   7.752  0.5642  0.3971  0.4082
 8785SOL    HW137991   4.424   3.773   7.724 -0.3622 -1.3851  1.6408
 8785SOL    HW237992   4.330   3.880   7.673 -0.0997  0.2245  0.4873
 8786SOL     OW37993   0.792   1.916  16.951 -0.4460  0.8653 -0.2539
 8786SOL    HW137994   0.698   1.927  16.967  0.0213  1.2645  2.2270
 8786SOL    HW237995   0.805   1.993  16.896  1.5070  0.2307 -0.6729
 8787SOL     OW37996   2.521   0.788   0.335  0.1430  0.2198 -0.0858
 8787SOL    HW137997   2.459   0.721   0.362  1.5434 -0.1483  2.2132
 8787SOL    HW237998   2.515   0.855   0.404  1.4019  0.4556 -0.1996
 8788SOL     OW37999   1.918   0.951   0.878  0.0598 -0.2134  0.7314
 8788SOL    HW138000   1.864   0.958   0.957 -0.4791 -0.7612  0.4146
 8788SOL    HW238001   1.915   1.036   0.835  0.1096  0.1870  1.5152
 8789SOL     OW38002   1.314   0.181   9.594 -0.8224  0.5842 -0.7278
 8789SOL    HW138003   1.341   0.163   9.684  1.4241  1.4550 -1.2170
 8789SOL    HW238004   1.384   0.143   9.541 -2.7794 -3.7239 -0.2234
 8790SOL     OW38005   1.553   3.052   1.763  0.0167  0.8167  0.1543
 8790SOL    HW138006   1.492   3.096   1.703  1.0771 -1.5479 -2.6349
 8790SOL    HW238007   1.638   3.069   1.723  0.4068  3.1306  1.9559
 8791SOL     OW38008   4.125   0.303   3.264  0.0584 -0.4188 -0.0607
 8791SOL    HW138009   4.133   0.389   3.222  1.2166 -1.1823 -1.4070
 8791SOL    HW238010   4.220   0.303   3.275  0.3298  0.3438 -2.3149
 8792SOL     OW38011   3.827   0.455  17.512 -0.4902 -0.2455  0.2352
 8792SOL    HW138012   3.810   0.511  17.435 -1.9000  0.5444  1.1120
 8792SOL    HW238013   3.850   0.523  17.575 -1.3520  0.3556 -0.1017
 8793SOL     OW38014   0.321   2.278  11.341  0.0783  0.2505 -0.4349
 8793SOL    HW138015   0.353   2.191  11.367  0.1343  0.7023  1.0369
 8793SOL    HW238016   0.252   2.287  11.407 -0.9371 -1.1800 -1.3016
 8794SOL     OW38017   0.493   1.422   0.331 -0.2724 -0.1695 -0.1818
 8794SOL    HW138018   0.571   1.371   0.352  0.0706  0.3013 -0.3151
 8794SOL    HW238019   0.425   1.355   0.336 -2.3114  1.6478 -3.3901
 8795SOL     OW38020   1.906   1.599  17.470 -0.4151 -0.3064 -0.1721
 8795SOL    HW138021   1.973   1.667  17.457 -1.2386  0.2196 -1.6705
 8795SOL    HW238022   1.851   1.602  17.392 -0.7407 -0.4560  0.0517
 8796SOL     OW38023   0.285   4.126   2.683 -0.0669  0.0477 -0.6384
 8796SOL    HW138024   0.335   4.097   2.607 -1.2288  2.1497 -2.1758
 8796SOL    HW238025   0.257   4.215   2.662 -2.1942 -0.2860  0.7936
 8797SOL     OW38026   1.534   4.681   9.274  0.2418  0.0023 -0.2146
 8797SOL    HW138027   1.487   4.678   9.190 -0.4713 -2.3377  0.2932
 8797SOL    HW238028   1.557   0.039   9.276  1.2825 -0.2419 -0.8855
 8798SOL     OW38029   2.794   4.132  13.781 -0.3911  0.0774 -0.8477
 8798SOL    HW138030   2.763   4.067  13.843  1.5955  0.6285  0.7223
 8798SOL    HW238031   2.889   4.135  13.792 -0.4186 -0.0257 -0.5940
 8799SOL     OW38032   3.543   3.072   7.798  0.3909  0.6556  0.6957
 8799SOL    HW138033   3.585   3.062   7.713 -1.2104  2.1391 -0.2679
 8799SOL    HW238034   3.484   3.142   7.770  0.1800  0.4955  0.7421
 8800SOL     OW38035   1.560   2.737   2.689  0.4107 -0.0212  0.1031
 8800SOL    HW138036   1.508   2.765   2.613 -1.6956 -0.1403  1.5120
 8800SOL    HW238037   1.608   2.819   2.698  0.7191 -0.0242 -1.4676
 8801SOL     OW38038   0.191   4.195   1.605 -0.6077 -0.4052  0.2809
 8801SOL    HW138039   0.155   4.245   1.678 -0.2409 -0.9730  0.8473
 8801SOL    HW238040   0.143   4.225   1.528  2.9096 -1.6099 -2.3456
 8802SOL     OW38041   2.995   0.040   6.104  0.0159  0.6255 -0.0911
 8802SOL    HW138042   2.900   0.048   6.112 -0.2550 -0.4430 -2.1929
 8802SOL    HW238043   3.028   0.095   6.175  0.4403 -1.9183  1.6943
 8803SOL     OW38044   3.416   2.201  13.221 -0.0396 -0.6128 -0.1812
 8803SOL    HW138045   3.368   2.169  13.145 -2.1960  2.4589 -0.1062
 8803SOL    HW238046   3.494   2.239  13.181 -1.1124  0.5231 -1.1804
 8804SOL     OW38047   2.820   1.661   5.774 -0.3374  0.3314 -0.5326
 8804SOL    HW138048   2.839   1.569   5.792  2.8306  1.1353  0.1156
 8804SOL    HW238049   2.737   1.649   5.729  0.0878  1.0542 -1.5009
 8805SOL     OW38050   1.874   3.145   6.590  0.0948 -0.1190  0.5931
 8805SOL    HW138051   1.877   3.113   6.500 -0.1946  0.4335  0.3886
 8805SOL    HW238052   1.862   3.239   6.583 -0.4493 -0.1956  0.4642
 8806SOL     OW38053   1.673   2.837   3.811 -0.1968 -0.3324 -0.4929
 8806SOL    HW138054   1.625   2.856   3.730  0.0156 -1.1801 -0.8186
 8806SOL    HW238055   1.751   2.818   3.759 -0.1504  1.5337 -1.1014
 8807SOL     OW38056   3.018   4.527   3.603  0.2139 -0.8909 -0.0737
 8807SOL    HW138057   3.020   4.432   3.619  1.5025 -0.9149 -0.4030
 8807SOL    HW238058   3.042   4.551   3.693 -2.1778 -0.9034  0.5602
 8808SOL     OW38059   2.014   4.015   5.731 -0.1936  0.6973 -0.2590
 8808SOL    HW138060   1.924   4.046   5.727 -0.2501  0.8322  2.0238
 8808SOL    HW238061   2.058   4.092   5.765 -1.0117  0.5097  1.2365
 8809SOL     OW38062   3.768   0.756   3.938 -0.6114  0.0450  0.1197
 8809SOL    HW138063   3.717   0.772   4.017  2.4268  1.2763  1.8083
 8809SOL    HW238064   3.831   0.828   3.942 -1.4325  0.6889  1.3665
 8810SOL     OW38065   3.613   3.377   7.158  0.5822 -0.1871  0.0865
 8810SOL    HW138066   3.653   3.372   7.244 -1.3522  0.0524  0.9959
 8810SOL    HW238067   3.605   3.283   7.142  0.3261  0.4508 -3.6778
 8811SOL     OW38068   0.022   3.723   9.673 -0.0697 -0.1534  0.4791
 8811SOL    HW138069   0.023   3.663   9.599  3.5063  0.3125  0.1262
 8811SOL    HW238070   4.698   3.686   9.738  0.4128 -1.5515  0.1235
 8812SOL     OW38071   1.496   1.632   7.222  0.3694  0.7776  0.1242
 8812SOL    HW138072   1.482   1.640   7.316  0.1884  0.2388  0.1428
 8812SOL    HW238073   1.575   1.683   7.203  2.3140 -1.9616  0.7412
 8813SOL     OW38074   1.017   3.035  12.464 -0.7757 -0.6549 -0.0308
 8813SOL    HW138075   0.939   3.052  12.517  1.5626  3.8333  1.9252
 8813SOL    HW238076   0.961   3.009  12.391 -0.6964  1.2734 -0.7588
 8814SOL     OW38077   1.771   0.824  14.558 -0.3283  0.0117 -0.3392
 8814SOL    HW138078   1.838   0.874  14.603 -0.8622  1.1615 -0.8198
 8814SOL    HW238079   1.824   0.761  14.509 -0.2215  0.3889 -0.7110
 8815SOL     OW38080   2.040   4.076  17.468 -0.2893 -0.2862  0.6116
 8815SOL    HW138081   2.001   4.030  17.542  0.5338 -0.0873  1.1679
 8815SOL    HW238082   2.069   4.156  17.512  1.1880 -0.5594  0.1158
 8816SOL     OW38083   1.557   4.518   7.888  0.1474  0.6906  0.4613
 8816SOL    HW138084   1.462   4.512   7.874  0.0937  0.6410  0.8580
 8816SOL    HW238085   1.567   4.600   7.936 -1.2148  1.4585 -0.5720
 8817SOL     OW38086   2.914   1.408   5.703  0.0875 -0.0557 -0.0324
 8817SOL    HW138087   2.881   1.376   5.619  1.6268  2.0762 -1.4307
 8817SOL    HW238088   3.007   1.417   5.685  0.8686 -2.6272  2.6955
 8818SOL     OW38089   0.077   0.503   3.479 -0.0351 -0.1401  0.4948
 8818SOL    HW138090   0.030   0.580   3.447  0.2347  0.2259  0.9510
 8818SOL    HW238091   0.048   0.438   3.416 -1.7442  2.2770 -1.2040
 8819SOL     OW38092   3.059   4.293   6.176 -0.3647  0.2050 -0.4601
 8819SOL    HW138093   3.113   4.371   6.194 -0.5196  0.2832 -0.3285
 8819SOL    HW238094   3.001   4.300   6.252 -0.2921 -0.0268 -0.3828
 8820SOL     OW38095   4.150   0.975   5.779  0.2601  0.0461  0.2652
 8820SOL    HW138096   4.084   1.035   5.813  1.4004  0.8595  1.0480
 8820SOL    HW238097   4.107   0.892   5.800 -0.6148 -0.1200 -2.1324
 8821SOL     OW38098   2.096   3.167   2.712  0.5769 -1.0266 -0.3415
 8821SOL    HW138099   2.141   3.251   2.718  0.0309 -0.7749  0.2300
 8821SOL    HW238100   2.151   3.112   2.657  0.5182 -0.0173 -1.4138
 8822SOL     OW38101   1.532   4.642   2.701  0.1594 -0.1919 -0.4481
 8822SOL    HW138102   1.560   4.552   2.716  1.6414  0.3180 -0.1371
 8822SOL    HW238103   1.451   4.644   2.754  1.2532  0.5435  1.2091
 8823SOL     OW38104   4.574   1.245  11.214 -1.1264  0.0519  0.4706
 8823SOL    HW138105   4.574   1.330  11.171 -1.4548 -0.1756  0.0285
 8823SOL    HW238106   4.666   1.239  11.242 -0.5164  2.7191 -0.9933
 8824SOL     OW38107   0.511   3.027   0.309  0.1943  0.6829  0.4319
 8824SOL    HW138108   0.518   3.061   0.220  0.6048 -0.9162 -0.1511
 8824SOL    HW238109   0.420   2.998   0.310  0.2238  0.5942  0.4872
 8825SOL     OW38110   1.011   3.764   9.211 -0.7151  0.4346  0.2377
 8825SOL    HW138111   0.954   3.830   9.250  0.3359  2.1192 -1.0864
 8825SOL    HW238112   1.097   3.789   9.244 -0.1612 -0.2465 -0.6862
 8826SOL     OW38113   3.111   0.859  10.890  0.0981 -0.2767  0.1404
 8826SOL    HW138114   3.183   0.907  10.931  1.9178 -3.9639  1.2198
 8826SOL    HW238115   3.039   0.870  10.952 -0.0100 -1.5061  0.2222
 8827SOL     OW38116   3.811   0.621   6.986 -0.3798 -0.3318  0.1086
 8827SOL    HW138117   3.731   0.674   6.988 -0.9394 -1.0987 -1.5105
 8827SOL    HW238118   3.874   0.661   6.926 -1.1501  1.2632  0.3917
 8828SOL     OW38119   0.038   2.655   4.746  0.1839 -0.2924  0.1968
 8828SOL    HW138120   0.090   2.619   4.818  1.6943 -0.3128 -0.9256
 8828SOL    HW238121   0.109   2.659   4.682 -0.7562  1.4510 -0.7365
 8829SOL     OW38122   0.381   0.622   8.983 -0.1329 -0.0590 -0.4118
 8829SOL    HW138123   0.383   0.569   9.063  1.4013  0.8309  0.1434
 8829SOL    HW238124   0.442   0.575   8.925  0.6627 -0.1574  0.5116
 8830SOL     OW38125   0.412   4.614   6.641  0.4365 -0.1469 -0.5499
 8830SOL    HW138126   0.378   4.694   6.600  3.3397  1.7578  0.7457
 8830SOL    HW238127   0.339   4.554   6.623 -1.7911  2.0254  1.2546
 8831SOL     OW38128   1.375   2.210   5.174 -0.2269  0.8803 -0.4388
 8831SOL    HW138129   1.448   2.212   5.237 -0.3015 -1.9478 -0.2716
 8831SOL    HW238130   1.425   2.192   5.094 -0.7966  0.5207 -0.7132
 8832SOL     OW38131   3.525   3.405   9.850  0.2496  0.7313 -0.2163
 8832SOL    HW138132   3.500   3.368   9.765 -1.4504 -0.2130  0.7052
 8832SOL    HW238133   3.616   3.428   9.830  0.6637 -0.3419  0.4467
 8833SOL     OW38134   3.561   1.690   0.931 -0.1986 -0.4271  0.3227
 8833SOL    HW138135   3.587   1.762   0.988  1.8860 -2.6747  2.1968
 8833SOL    HW238136   3.527   1.628   0.996  1.7366  0.4552  2.1434
 8834SOL     OW38137   1.832   4.311  13.529  0.0810  0.3322 -0.6069
 8834SOL    HW138138   1.831   4.269  13.614  1.0591 -1.1924 -1.3501
 8834SOL    HW238139   1.924   4.302  13.504  0.0666 -1.8026  0.1508
 8835SOL     OW38140   4.111   1.015   8.413  0.2665  0.4414 -0.0103
 8835SOL    HW138141   4.079   0.931   8.380  0.0672  0.9068 -0.9849
 8835SOL    HW238142   4.119   1.064   8.331  1.0784 -1.1073 -0.8536
 8836SOL     OW38143   0.537   2.867  17.727  0.0028 -0.3983  0.2378
 8836SOL    HW138144   0.450   2.850  17.690  0.2749  0.1760 -0.6736
 8836SOL    HW238145   0.530   2.959   0.011  0.4347 -0.0419 -0.9155
 8837SOL     OW38146   3.478   1.647   5.725  0.0745 -0.4206 -0.4597
 8837SOL    HW138147   3.528   1.598   5.789 -0.4146 -1.3975 -0.8317
 8837SOL    HW238148   3.399   1.593   5.728 -0.4417  0.3554  0.2579
 8838SOL     OW38149   0.908   3.286  15.304  0.0291  0.0742  0.5807
 8838SOL    HW138150   0.950   3.361  15.344  1.5828  0.5763 -1.9783
 8838SOL    HW238151   0.965   3.279  15.227  0.9000 -2.8372  1.4767
 8839SOL     OW38152   1.332   1.489  10.908  0.0657  0.5332  0.6880
 8839SOL    HW138153   1.301   1.470  10.997 -0.9071  0.2278  0.2724
 8839SOL    HW238154   1.309   1.582  10.904 -0.3281  0.3851 -0.3042
 8840SOL     OW38155   1.008   2.503   8.346 -0.2640  0.4410 -0.4278
 8840SOL    HW138156   1.062   2.442   8.295 -1.1742 -1.0140  0.3600
 8840SOL    HW238157   0.955   2.549   8.280 -0.9874 -0.5738 -0.5462
 8841SOL     OW38158   3.522   0.434   0.310  0.8698 -0.0705  0.0223
 8841SOL    HW138159   3.439   0.461   0.350  0.9614  2.0217 -1.1873
 8841SOL    HW238160   3.573   0.440   0.391  0.3541 -0.3722  0.3753
 8842SOL     OW38161   2.757   4.035   4.558  0.2911 -0.3070  0.6594
 8842SOL    HW138162   2.690   4.043   4.625 -0.5881 -2.0767 -0.0052
 8842SOL    HW238163   2.761   4.127   4.530 -2.1450 -0.0826  1.1180
 8843SOL     OW38164   1.863   4.301   8.130  0.8342 -0.8245 -0.5732
 8843SOL    HW138165   1.843   4.373   8.071 -0.6543 -0.4107  0.4470
 8843SOL    HW238166   1.884   4.235   8.064 -0.4886 -1.5988 -0.2239
 8844SOL     OW38167   4.284   1.797   7.003  0.0947 -0.1885  0.0649
 8844SOL    HW138168   4.364   1.841   6.972  0.2640 -1.2295 -0.9510
 8844SOL    HW238169   4.294   1.707   6.972 -1.8505 -0.4957  0.3204
 8845SOL     OW38170   1.733   2.333   8.156  0.3140  0.7111 -0.4400
 8845SOL    HW138171   1.719   2.419   8.196  0.3313  0.8186 -0.6638
 8845SOL    HW238172   1.710   2.283   8.234  0.2581  2.1897  0.4946
 8846SOL     OW38173   1.729   2.869  13.560  0.0467 -0.3927 -0.1144
 8846SOL    HW138174   1.672   2.794  13.579 -0.4744  0.2012  0.6523
 8846SOL    HW238175   1.814   2.827  13.545  0.4992  0.1230  1.0390
 8847SOL     OW38176   3.464   1.867   2.372  0.1268  0.6379  0.1553
 8847SOL    HW138177   3.520   1.808   2.321 -0.6294  0.6460 -0.6812
 8847SOL    HW238178   3.395   1.884   2.308 -0.7480 -2.8318  0.1587
 8848SOL     OW38179   3.530   1.627   4.086 -0.2038 -0.4935  0.4115
 8848SOL    HW138180   3.460   1.668   4.137 -1.9223 -0.0801 -2.2915
 8848SOL    HW238181   3.525   1.689   4.014  0.3305 -1.4315 -0.4372
 8849SOL     OW38182   1.710   2.177   4.874  0.4085  1.0785 -0.2090
 8849SOL    HW138183   1.747   2.187   4.787  2.2320  0.8569  0.5423
 8849SOL    HW238184   1.787   2.190   4.930 -0.6405  0.4381  1.3667
 8850SOL     OW38185   3.491   1.973  16.234 -0.2217 -0.2380 -0.1417
 8850SOL    HW138186   3.536   1.916  16.296 -0.5162  0.8889  1.1151
 8850SOL    HW238187   3.559   2.037  16.214 -0.5912  1.0966  2.8407
 8851SOL     OW38188   1.506   0.250   3.216 -0.0503  0.6088  0.0737
 8851SOL    HW138189   1.425   0.201   3.204  0.4013 -0.0160 -0.4695
 8851SOL    HW238190   1.552   0.192   3.277  0.9755  0.9082 -0.4138
 8852SOL     OW38191   4.030   0.530   6.225 -0.1516 -0.0218  0.4158
 8852SOL    HW138192   3.968   0.603   6.228  0.6311  0.7988 -4.6488
 8852SOL    HW238193   4.024   0.493   6.313  0.5460 -2.4029 -0.5555
 8853SOL     OW38194   3.532   4.051   2.385  0.1018  0.1894 -0.2327
 8853SOL    HW138195   3.497   3.965   2.408  1.0399 -0.4496 -1.1926
 8853SOL    HW238196   3.626   4.040   2.395  0.3440  0.6201 -2.1256
 8854SOL     OW38197   2.231   4.403   3.075  0.0981 -0.2418  0.7510
 8854SOL    HW138198   2.247   4.497   3.081 -2.2839  0.1797  0.1829
 8854SOL    HW238199   2.198   4.386   3.163 -0.7106 -0.2653  0.4428
 8855SOL     OW38200   4.087   3.350   3.639 -0.2514 -0.0893 -0.5919
 8855SOL    HW138201   4.002   3.322   3.671  3.0238 -2.9772  5.4936
 8855SOL    HW238202   4.075   3.445   3.641 -0.4728 -0.1676  1.9803
 8856SOL     OW38203   4.681   2.480   5.656  0.0725  0.0198 -0.0243
 8856SOL    HW138204   0.023   2.536   5.659 -0.3066  0.5538 -0.2763
 8856SOL    HW238205   4.691   2.457   5.748 -0.1043 -0.8307 -0.2160
 8857SOL     OW38206   1.832   2.547   7.006 -0.4542  0.2783  0.3428
 8857SOL    HW138207   1.862   2.638   7.002 -1.8767  0.7717  1.0335
 8857SOL    HW238208   1.866   2.511   7.088  0.8350  0.7465  0.0211
 8858SOL     OW38209   2.687   0.935   3.268  0.0286  0.6082 -0.1889
 8858SOL    HW138210   2.688   0.965   3.359  0.1044  0.6901 -0.2172
 8858SOL    HW238211   2.593   0.930   3.251  0.0420 -0.5649  0.1225
 8859SOL     OW38212   2.335   4.302   7.815 -0.2872  0.8637 -0.3861
 8859SOL    HW138213   2.404   4.306   7.749 -0.7038  0.6154 -0.8322
 8859SOL    HW238214   2.324   4.393   7.843  1.9068  0.5551  1.4511
 8860SOL     OW38215   0.067   0.712   3.018 -0.1140  0.6943  0.5896
 8860SOL    HW138216   0.112   0.744   2.940  0.0853 -1.9632 -0.3949
 8860SOL    HW238217   0.037   0.799   3.045 -2.1811  1.4608 -4.1918
 8861SOL     OW38218   3.542   4.377  15.225 -0.2708  0.6824 -0.8718
 8861SOL    HW138219   3.614   4.366  15.164 -3.0729 -0.8311 -3.8528
 8861SOL    HW238220   3.471   4.394  15.164 -0.8437  1.2863 -0.0395
 8862SOL     OW38221   0.851   2.955   6.155  0.3585 -0.0043 -0.2432
 8862SOL    HW138222   0.867   3.014   6.081  0.8884  0.2752  0.0950
 8862SOL    HW238223   0.774   2.998   6.194  0.1328  0.8379 -1.6211
 8863SOL     OW38224   1.739   0.446   9.065 -0.1806  0.7719 -0.0055
 8863SOL    HW138225   1.654   0.451   9.022 -0.9210 -0.9141  1.2828
 8863SOL    HW238226   1.794   0.474   8.991 -0.4153 -0.8910 -0.8049
 8864SOL     OW38227   0.886   0.863  17.298  0.4544  0.4971 -0.0400
 8864SOL    HW138228   0.958   0.887  17.355 -0.4856 -1.5250  1.9866
 8864SOL    HW238229   0.829   0.808  17.351  0.3512 -0.3330 -1.0044
 8865SOL     OW38230   1.036   3.819   6.922 -0.2405  1.2305 -0.0258
 8865SOL    HW138231   1.117   3.813   6.871  0.5538 -1.0126  1.5017
 8865SOL    HW238232   1.079   3.827   7.007  0.0795 -0.1747 -0.0504
 8866SOL     OW38233   0.335   1.866   1.754 -0.5744 -0.0719 -0.4744
 8866SOL    HW138234   0.335   1.781   1.799  2.9632  0.3195  0.3258
 8866SOL    HW238235   0.260   1.859   1.696 -0.8614  0.6552 -0.1978
 8867SOL     OW38236   0.943   0.840   2.806  0.1073 -0.4755 -0.3236
 8867SOL    HW138237   1.007   0.911   2.807 -0.5091  0.0949 -2.2271
 8867SOL    HW238238   0.899   0.847   2.891  1.8885 -0.4434  0.5911
 8868SOL     OW38239   0.706   2.318   9.180 -0.7035  0.1957 -0.4791
 8868SOL    HW138240   0.705   2.247   9.244  2.5779  0.8937  0.3574
 8868SOL    HW238241   0.669   2.389   9.232  0.3867  0.3426  0.0822
 8869SOL     OW38242   3.682   2.955  10.802  0.1166  0.5314  0.4328
 8869SOL    HW138243   3.678   3.021  10.732 -0.7419 -0.7869 -0.7624
 8869SOL    HW238244   3.762   2.980  10.848  0.5382 -0.3994  0.1924
 8870SOL     OW38245   0.894   4.250   3.432 -0.2868  0.2472  0.2885
 8870SOL    HW138246   0.799   4.246   3.441 -0.0392  0.1657  2.7812
 8870SOL    HW238247   0.887   4.253   3.337 -1.2681  0.7838  0.3801
 8871SOL     OW38248   4.365   3.172   5.035  0.1299  0.2781  0.0071
 8871SOL    HW138249   4.358   3.083   4.999 -2.0971  0.0053  1.0896
 8871SOL    HW238250   4.457   3.183   5.056  0.2923 -1.5180  0.2744
 8872SOL     OW38251   4.091   1.184   8.613  0.1017 -0.6391 -0.6256
 8872SOL    HW138252   4.135   1.115   8.663  0.7305  2.4311  2.9835
 8872SOL    HW238253   4.095   1.142   8.527  0.6906  0.5186 -1.1606
 8873SOL     OW38254   3.918   0.711   7.472  0.2557 -0.1749 -0.1623
 8873SOL    HW138255   3.825   0.726   7.491 -0.5963 -1.9223 -3.0319
 8873SOL    HW238256   3.945   0.695   7.563  2.0452  0.9568 -0.4968
 8874SOL     OW38257   2.153   0.409   5.860  0.0736  0.3905  0.0138
 8874SOL    HW138258   2.172   0.414   5.766 -0.4146 -0.2339 -0.1103
 8874SOL    HW238259   2.201   0.327   5.870 -0.6046  0.0858  0.7850
 8875SOL     OW38260   3.622   2.354  10.964  0.6292 -0.4814 -0.1123
 8875SOL    HW138261   3.642   2.270  10.923  0.8057 -0.9979  1.0428
 8875SOL    HW238262   3.573   2.334  11.044  3.0404  0.3721  1.5992
 8876SOL     OW38263   2.237   2.721   7.083  0.4661 -0.5489  0.2167
 8876SOL    HW138264   2.213   2.773   7.006  1.2530 -1.2788 -0.5190
 8876SOL    HW238265   2.292   2.658   7.037  0.4475 -1.4280  1.4029
 8877SOL     OW38266   4.505   3.069   5.435 -0.0208  0.5285  0.6684
 8877SOL    HW138267   4.496   3.035   5.346 -1.8783  0.8449  0.7309
 8877SOL    HW238268   4.574   3.019   5.479 -0.8114 -1.4572 -0.3202
 8878SOL     OW38269   0.479   0.651  12.938  0.0927  0.5572 -0.5125
 8878SOL    HW138270   0.560   0.664  12.888 -1.5256 -0.1552 -3.3092
 8878SOL    HW238271   0.489   0.728  12.994 -1.1102  1.6535 -1.8273
 8879SOL     OW38272   4.489   1.323   1.997 -0.3562 -0.1509  0.1791
 8879SOL    HW138273   4.408   1.281   2.026 -0.6754 -0.3757 -1.0673
 8879SOL    HW238274   4.562   1.265   2.020 -0.4984 -0.3309  0.1846
 8880SOL     OW38275   0.143   3.005   4.206  0.1202  0.2133 -0.0229
 8880SOL    HW138276   0.132   3.085   4.257  1.2198  0.0262  0.4902
 8880SOL    HW238277   0.059   2.966   4.230  0.0076 -0.1809 -1.0299
 8881SOL     OW38278   0.126   4.731  17.654  0.2101  0.2324  0.4889
 8881SOL    HW138279   0.134   0.077  17.605 -1.0277  0.3909  0.5305
 8881SOL    HW238280   0.124   0.017   0.005  1.6840 -1.7301  0.9701
 8882SOL     OW38281   1.159   0.050   4.258  0.9014 -0.1290  0.0949
 8882SOL    HW138282   1.110   0.109   4.201  0.0119 -1.3497 -0.3966
 8882SOL    HW238283   1.246   0.039   4.221  0.8810  0.0937 -0.0158
 8883SOL     OW38284   3.422   2.904   1.449  0.1773  0.3871 -0.0523
 8883SOL    HW138285   3.327   2.911   1.442  0.3047  0.5430 -1.7835
 8883SOL    HW238286   3.424   2.816   1.488  0.5398  0.4213  0.0080
 8884SOL     OW38287   0.924   4.548   5.819  0.6689  0.0267 -0.4865
 8884SOL    HW138288   0.851   4.505   5.863  1.8512  0.7401  2.1242
 8884SOL    HW238289   0.923   4.638   5.853 -4.9488 -0.6063  1.0518
 8885SOL     OW38290   0.198   1.094   6.413  0.6458  0.1799 -1.2357
 8885SOL    HW138291   0.115   1.064   6.449  1.4899 -2.8701 -1.8318
 8885SOL    HW238292   0.249   1.013   6.418 -1.3504 -0.9767 -0.0526
 8886SOL     OW38293   3.153   3.751   8.899  0.1197  0.2513  0.0384
 8886SOL    HW138294   3.238   3.708   8.902  0.5695  1.1752  0.2544
 8886SOL    HW238295   3.161   3.831   8.951 -1.1403 -0.0904  0.7661
 8887SOL     OW38296   2.615   2.486  14.340 -0.3308  0.0357  0.3419
 8887SOL    HW138297   2.619   2.450  14.251 -0.7920 -2.0824  1.1775
 8887SOL    HW238298   2.705   2.475  14.370  0.8769  0.3133 -3.1211
 8888SOL     OW38299   3.528   2.728  10.573  0.9795  0.1841  0.0490
 8888SOL    HW138300   3.593   2.760  10.511  1.2460  0.7687  0.6250
 8888SOL    HW238301   3.457   2.694  10.518 -0.2076  0.1601  1.5909
 8889SOL     OW38302   4.654   0.375   6.906 -0.0895  0.2938 -0.4463
 8889SOL    HW138303   4.586   0.364   6.840 -0.1349 -0.6318 -0.2400
 8889SOL    HW238304   4.597   0.430   6.960 -0.5579 -2.7704  2.1737
 8890SOL     OW38305   0.753   2.390  11.898  0.3298 -0.1670  0.1632
 8890SOL    HW138306   0.694   2.349  11.961  0.7573  0.2369  0.8230
 8890SOL    HW238307   0.800   2.311  11.874 -0.2178 -0.3846 -0.1881
 8891SOL     OW38308   0.750   1.476   7.314 -0.4826  0.2266  0.0308
 8891SOL    HW138309   0.794   1.555   7.346  0.7143 -0.6583  0.5153
 8891SOL    HW238310   0.815   1.456   7.247 -0.1345 -1.9736  1.0500
 8892SOL     OW38311   4.539   1.743   8.167 -0.2321  0.9133 -0.1926
 8892SOL    HW138312   4.539   1.808   8.238  1.7396  0.1394  0.5355
 8892SOL    HW238313   4.451   1.759   8.133  0.0402  2.0750 -0.3403
 8893SOL     OW38314   1.471   3.211   2.325  0.3036  0.0408 -0.1170
 8893SOL    HW138315   1.456   3.300   2.292 -1.8291  0.0772  0.9871
 8893SOL    HW238316   1.379   3.186   2.332  0.7831 -1.9744 -0.8788
 8894SOL     OW38317   1.840   1.030   3.262  0.1478 -1.0382 -0.3445
 8894SOL    HW138318   1.767   1.036   3.324  1.0206  2.1885  0.3557
 8894SOL    HW238319   1.810   1.084   3.188 -0.8764  0.2223  0.9825
 8895SOL     OW38320   3.727   0.426  17.239 -0.2535  0.0240 -0.5593
 8895SOL    HW138321   3.642   0.402  17.277 -0.6838 -0.0390 -1.5508
 8895SOL    HW238322   3.759   0.343  17.205 -0.0762 -0.3135  0.4283
 8896SOL     OW38323   1.972   3.989  10.156 -0.4910 -0.2065  0.0312
 8896SOL    HW138324   2.041   4.009  10.093 -1.9342  1.6646 -0.9437
 8896SOL    HW238325   1.977   3.894  10.146 -1.3469 -0.4510  1.9020
 8897SOL     OW38326   0.614   1.354   8.118 -0.2341  0.0441  0.5948
 8897SOL    HW138327   0.673   1.396   8.055  1.1930 -1.5405  0.8794
 8897SOL    HW238328   0.563   1.420   8.166  1.1394 -0.2595  2.4573
 8898SOL     OW38329   3.735   4.654   1.912 -0.2161  0.4166  0.0490
 8898SOL    HW138330   3.736   4.574   1.964 -0.8035  0.6939  0.4986
 8898SOL    HW238331   3.711   4.715   1.982  0.5097  1.2041 -0.3903
 8899SOL     OW38332   0.212   2.758  15.091  0.0538  0.1246  0.2562
 8899SOL    HW138333   0.234   2.669  15.061 -1.2894 -0.2484  0.3948
 8899SOL    HW238334   0.240   2.812  15.018 -1.3445 -0.9263 -1.0668
 8900SOL     OW38335   0.830   1.404   6.847  0.3392 -0.4888  0.3555
 8900SOL    HW138336   0.836   1.436   6.937  0.2708  0.0736  0.1578
 8900SOL    HW238337   0.828   1.308   6.850 -2.5666 -0.4180  0.8747
 8901SOL     OW38338   3.933   3.100   6.855 -0.3053 -0.4414  0.4767
 8901SOL    HW138339   3.852   3.113   6.904  0.4401  1.2287  1.2759
 8901SOL    HW238340   3.983   3.045   6.916  1.2486 -0.4075 -0.7699
 8902SOL     OW38341   3.010   2.100  17.735 -0.3591 -0.0152  0.6899
 8902SOL    HW138342   3.100   2.077  17.713 -0.4478  0.2243  0.0507
 8902SOL    HW238343   3.000   2.187  17.695 -1.3918  0.2849  1.6145
 8903SOL     OW38344   4.043   4.546   8.196 -0.3970 -0.0076  0.0251
 8903SOL    HW138345   4.122   4.581   8.237 -0.7511  2.3609 -1.3528
 8903SOL    HW238346   4.072   4.458   8.170  0.9496  0.2910  0.5159
 8904SOL     OW38347   3.207   2.158   7.930 -0.5349  0.4269  0.0773
 8904SOL    HW138348   3.127   2.150   7.878  0.7200 -1.1737 -1.6189
 8904SOL    HW238349   3.260   2.203   7.864  0.1972 -1.2656 -0.4763
 8905SOL     OW38350   2.742   4.367   7.917  0.0511 -0.4503 -0.2266
 8905SOL    HW138351   2.665   4.318   7.946 -0.6301  1.1410  0.6499
 8905SOL    HW238352   2.737   4.343   7.825 -0.4193  1.5668 -0.7285
 8906SOL     OW38353   0.369   2.553   8.713 -0.4352  0.1065  0.8594
 8906SOL    HW138354   0.333   2.614   8.649  2.0419 -0.1354 -0.7987
 8906SOL    HW238355   0.291   2.501   8.731 -2.0338  3.1870  2.8938
 8907SOL     OW38356   4.454   2.216   5.318  0.1805 -0.0380 -0.1701
 8907SOL    HW138357   4.495   2.300   5.336  0.5194  0.5096 -3.6297
 8907SOL    HW238358   4.364   2.237   5.343 -0.1241 -0.9145 -0.5201
 8908SOL     OW38359   0.247   3.566   1.321  0.1490  0.0146 -0.6233
 8908SOL    HW138360   0.246   3.499   1.252  0.0600  0.1239 -0.7285
 8908SOL    HW238361   0.318   3.625   1.296  0.9339 -0.3793  0.6930
 8909SOL     OW38362   3.417   0.467  15.074  0.5193  1.0413  0.1867
 8909SOL    HW138363   3.437   0.375  15.091  0.9039  0.8631 -1.2901
 8909SOL    HW238364   3.360   0.450  14.999  1.1613 -0.3435  0.0179
 8910SOL     OW38365   0.700   0.058   7.963 -0.1415  0.2008 -0.0392
 8910SOL    HW138366   0.769   0.106   8.008 -1.0398  0.9877  0.4865
 8910SOL    HW238367   0.718   4.700   7.969  0.1789  0.1635 -1.6070
 8911SOL     OW38368   3.323   1.291   5.883  0.1458  0.2045  0.1376
 8911SOL    HW138369   3.264   1.273   5.810 -0.5108  4.7622 -0.4927
 8911SOL    HW238370   3.296   1.380   5.907 -2.9186 -0.9372  0.9631
 8912SOL     OW38371   0.588   1.826  10.167  0.3641 -0.0282  0.2722
 8912SOL    HW138372   0.546   1.743  10.190 -0.8719  1.0246  1.8213
 8912SOL    HW238373   0.527   1.892  10.199 -0.2189 -0.3505 -0.1633
 8913SOL     OW38374   4.029   2.185   8.002 -0.1460  0.0222  0.0478
 8913SOL    HW138375   3.978   2.175   8.082  0.0463  1.0080  0.3012
 8913SOL    HW238376   3.974   2.191   7.924  0.7271 -0.9505 -0.6365
 8914SOL     OW38377   3.663   0.843  14.088 -0.0616  0.0092  0.3778
 8914SOL    HW138378   3.714   0.914  14.049 -1.0827 -0.2345 -1.4093
 8914SOL    HW238379   3.714   0.767  14.060 -2.4485 -1.2526 -0.5377
 8915SOL     OW38380   0.669   1.191   4.004 -0.7477  0.2658  0.4572
 8915SOL    HW138381   0.642   1.147   4.085  0.5668 -0.8944  0.2844
 8915SOL    HW238382   0.616   1.147   3.938  0.2976  0.7043 -0.6698
 8916SOL     OW38383   1.214   3.488   4.175 -0.4227  0.3456  0.3225
 8916SOL    HW138384   1.187   3.467   4.086 -2.3571  1.3232  0.6692
 8916SOL    HW238385   1.239   3.578   4.155  0.2061  0.2484  0.6804
 8917SOL     OW38386   1.835   0.636   7.280  0.3389  0.2067  0.2731
 8917SOL    HW138387   1.905   0.572   7.296  2.0814  2.0930  0.2516
 8917SOL    HW238388   1.825   0.621   7.186  0.5161  2.3909 -0.1020
 8918SOL     OW38389   3.438   2.248   4.751  0.1392 -0.3580 -0.1542
 8918SOL    HW138390   3.369   2.287   4.697 -0.3037  0.3940  0.9607
 8918SOL    HW238391   3.508   2.313   4.757  0.4575 -0.7649  0.6020
 8919SOL     OW38392   1.186   0.934  14.476  0.7058 -0.5783  0.4402
 8919SOL    HW138393   1.177   1.026  14.451  0.4519 -0.2015  1.9067
 8919SOL    HW238394   1.094   0.908  14.478  0.5899 -0.2734 -1.1758
 8920SOL     OW38395   0.622   0.143   6.170 -0.0997  0.0846 -0.0982
 8920SOL    HW138396   0.571   0.099   6.238 -1.4897  1.9430  0.0649
 8920SOL    HW238397   0.645   0.065   6.119  0.6985  0.1905  0.1046
 8921SOL     OW38398   3.894   4.151   7.833 -0.2365  0.1587 -0.0516
 8921SOL    HW138399   3.855   4.238   7.838 -0.6585 -0.0597  0.4918
 8921SOL    HW238400   3.906   4.118   7.922  0.7590  0.0450 -0.2306
 8922SOL     OW38401   3.027   3.482  15.145  0.6289  0.0636  0.4571
 8922SOL    HW138402   3.061   3.471  15.057 -2.8624 -0.4414 -0.8095
 8922SOL    HW238403   3.080   3.434  15.209 -0.8466 -1.2282  0.7293
 8923SOL     OW38404   3.196   1.473   7.147  0.2037 -0.4331 -0.6161
 8923SOL    HW138405   3.286   1.491   7.121  0.3052 -3.1507 -2.1252
 8923SOL    HW238406   3.184   1.384   7.115  4.0836 -1.3665  0.5512
 8924SOL     OW38407   1.939   4.128   8.895  0.2743  0.1050  0.0840
 8924SOL    HW138408   1.979   4.212   8.921 -0.5818  0.4147  0.3779
 8924SOL    HW238409   1.910   4.091   8.977  1.5359 -0.8259  0.1179
 8925SOL     OW38410   0.099   4.557   6.782  0.1349  0.2223 -0.1801
 8925SOL    HW138411   0.082   4.650   6.800 -1.1255 -0.2525  1.0849
 8925SOL    HW238412   0.099   4.520   6.871  0.8235 -0.4528 -0.4635
 8926SOL     OW38413   4.670   3.487   7.494  0.1261 -0.2582 -0.9551
 8926SOL    HW138414   4.652   3.395   7.474  0.6314 -0.4576 -0.4804
 8926SOL    HW238415   0.023   3.497   7.529 -0.6665  0.6806  0.7628
 8927SOL     OW38416   4.523   0.335  15.760 -0.1245  0.2109 -0.0722
 8927SOL    HW138417   4.598   0.291  15.721 -1.1931 -0.9360 -0.8214
 8927SOL    HW238418   4.491   0.276  15.828  0.8065  1.2917  1.3063
 8928SOL     OW38419   1.082   0.578   0.555 -0.1467 -0.3261 -0.4990
 8928SOL    HW138420   1.135   0.532   0.620 -0.5001 -0.0248  0.0091
 8928SOL    HW238421   1.068   0.513   0.486 -0.9190 -0.1821 -0.4737
 8929SOL     OW38422   4.282   3.430   5.620  0.0808  0.2794 -0.1137
 8929SOL    HW138423   4.262   3.349   5.572 -0.2133  1.1808 -1.5246
 8929SOL    HW238424   4.344   3.396   5.684 -2.5659  1.5911  3.1181
 8930SOL     OW38425   3.184   3.868   6.573  0.0882  0.3008  0.1009
 8930SOL    HW138426   3.219   3.880   6.661  0.3970 -1.3837  0.2095
 8930SOL    HW238427   3.255   3.904   6.521 -2.3996  0.5700 -3.1258
 8931SOL     OW38428   0.038   1.679   8.833  0.1893 -0.3414 -0.5022
 8931SOL    HW138429   0.009   1.750   8.891  0.5861  0.1138 -0.8667
 8931SOL    HW238430   0.133   1.686   8.839  0.0850 -1.1529  1.9377
 8932SOL     OW38431   2.673   0.274   3.371  0.2222  0.3862 -0.1245
 8932SOL    HW138432   2.686   0.284   3.277  0.8013 -4.1722 -0.5155
 8932SOL    HW238433   2.721   0.192   3.376  0.2380  0.4715  1.0627
 8933SOL     OW38434   3.307   4.722   2.367  1.2237 -0.0415  0.1204
 8933SOL    HW138435   3.213   4.710   2.356  1.2461 -0.8964  0.8599
 8933SOL    HW238436   3.329   4.647   2.312 -0.1446  1.8736 -3.0938
 8934SOL     OW38437   0.009   2.799   6.835  0.5336  0.0277 -0.4581
 8934SOL    HW138438   0.042   2.881   6.800 -0.7656  0.5913 -0.3321
 8934SOL    HW238439   0.083   2.748   6.801  0.2174 -0.0964 -0.9519
 8935SOL     OW38440   4.153   2.112  13.685 -0.3437 -0.6226 -0.2119
 8935SOL    HW138441   4.113   2.092  13.770  1.2238 -0.9769  0.4473
 8935SOL    HW238442   4.172   2.023  13.658 -1.9412 -0.6091 -1.3721
 8936SOL     OW38443   2.610   2.043   7.551  0.1642 -0.0535  0.3979
 8936SOL    HW138444   2.607   2.073   7.641  1.1842  1.6335 -0.1331
 8936SOL    HW238445   2.539   1.979   7.543  1.3686 -1.7685  3.3776
 8937SOL     OW38446   0.184   4.683  14.691 -0.2090 -0.4790 -0.2178
 8937SOL    HW138447   0.142   0.001  14.758  0.4367  2.1226 -1.8750
 8937SOL    HW238448   0.209   4.602  14.734 -4.1252 -1.8259 -0.5275
 8938SOL     OW38449   1.132   0.205   3.461 -1.0368  0.7526 -0.0244
 8938SOL    HW138450   1.141   0.125   3.409 -1.8449 -0.5325  1.7981
 8938SOL    HW238451   1.144   0.272   3.393  1.7324  0.0594 -0.2111
 8939SOL     OW38452   2.253   0.834   7.636  0.0222 -0.5181 -0.0532
 8939SOL    HW138453   2.220   0.921   7.660 -0.7843 -1.1085  1.0048
 8939SOL    HW238454   2.346   0.852   7.649 -0.1449  1.6733 -1.8249
 8940SOL     OW38455   1.261   3.520   6.524 -0.4124  0.1642  0.8926
 8940SOL    HW138456   1.332   3.577   6.554 -0.0765  0.8738 -1.1799
 8940SOL    HW238457   1.205   3.585   6.481 -0.4218 -0.3137  0.1829
 8941SOL     OW38458   4.383   3.686   5.651 -0.2153 -0.8283 -0.2152
 8941SOL    HW138459   4.344   3.599   5.652  2.8175 -2.1808 -1.5038
 8941SOL    HW238460   4.307   3.734   5.685  1.8825  1.9594  0.5383
 8942SOL     OW38461   1.077   2.763   7.646  0.0927  0.0955  0.0041
 8942SOL    HW138462   1.116   2.676   7.650 -0.2359 -0.1072 -1.1103
 8942SOL    HW238463   1.022   2.767   7.724 -1.3240 -0.4472 -0.9470
 8943SOL     OW38464   3.267   2.706  15.853  0.2000  0.0150  0.6574
 8943SOL    HW138465   3.227   2.620  15.839  0.2274 -0.3530  2.8556
 8943SOL    HW238466   3.342   2.692  15.911 -1.1187  0.8789  2.5743
 8944SOL     OW38467   2.558   1.624   1.369 -0.1741  0.0107 -0.1324
 8944SOL    HW138468   2.478   1.612   1.319 -0.1165 -1.3058  0.1140
 8944SOL    HW238469   2.514   1.601   1.451  1.3570 -0.2667  0.6141
 8945SOL     OW38470   2.590   0.370   3.614 -0.1580 -0.1581 -0.4609
 8945SOL    HW138471   2.504   0.388   3.575  0.2947  2.7970 -0.1367
 8945SOL    HW238472   2.631   0.343   3.532  1.4697  0.4005  0.1663
 8946SOL     OW38473   2.365   1.424   5.490  0.4797  0.0741 -0.8344
 8946SOL    HW138474   2.286   1.478   5.489 -1.3568 -2.5110  3.2006
 8946SOL    HW238475   2.337   1.339   5.526  0.3742 -1.1683 -3.8694
 8947SOL     OW38476   2.365   0.816   5.581  0.6037 -0.0508  0.0418
 8947SOL    HW138477   2.380   0.795   5.489 -1.6225 -0.2007 -0.2707
 8947SOL    HW238478   2.345   0.728   5.614  1.6601 -0.6227 -0.8325
 8948SOL     OW38479   2.195   1.329   5.251 -0.6647 -0.0197 -0.1922
 8948SOL    HW138480   2.291   1.338   5.252 -0.7345  0.6458  0.5332
 8948SOL    HW238481   2.163   1.398   5.309 -0.0962 -1.8694  2.2988
 8949SOL     OW38482   0.729   2.436   2.371 -0.5129 -0.2823  0.3196
 8949SOL    HW138483   0.729   2.364   2.307 -0.0082  0.8799 -0.9934
 8949SOL    HW238484   0.775   2.400   2.447  3.3915  0.7618 -1.5086
 8950SOL     OW38485   4.561   2.837   4.781  0.0784 -0.0396  0.3173
 8950SOL    HW138486   4.598   2.923   4.762  1.5188 -0.6085  0.5758
 8950SOL    HW238487   4.628   2.775   4.752 -0.5477 -0.4801 -0.2007
 8951SOL     OW38488   0.305   0.036  12.528  0.3067 -0.6585  0.7342
 8951SOL    HW138489   0.285   0.123  12.493  2.2345 -0.0996  1.0598
 8951SOL    HW238490   0.223   4.731  12.500  0.1901 -0.6268  1.0292
 8952SOL     OW38491   0.113   0.676   0.219  0.0946  0.2252  0.0260
 8952SOL    HW138492   0.086   0.651   0.308 -1.0767 -2.6577 -1.1298
 8952SOL    HW238493   0.093   0.596   0.170  0.0234 -0.0607  0.5187
 8953SOL     OW38494   1.188   0.381   5.500  0.2259 -0.3070  0.2370
 8953SOL    HW138495   1.108   0.354   5.455  1.4382  0.7774 -2.5837
 8953SOL    HW238496   1.205   0.469   5.466  0.4862 -0.5983 -0.3967
 8954SOL     OW38497   2.448   1.586   8.658 -0.1134 -0.0196  0.1832
 8954SOL    HW138498   2.516   1.645   8.690  1.3036 -1.0918 -0.8440
 8954SOL    HW238499   2.377   1.603   8.720 -0.6231 -2.8044  0.3428
 8955SOL     OW38500   0.315   2.884   9.143 -0.3356  0.1393 -0.1894
 8955SOL    HW138501   0.351   2.920   9.062  2.0511 -0.9188  0.3618
 8955SOL    HW238502   0.233   2.844   9.117  1.1941 -2.2937 -1.3076
 8956SOL     OW38503   0.163   3.348   3.842  0.6071  0.3721 -0.1028
 8956SOL    HW138504   0.244   3.325   3.888  0.0653 -0.7579  0.2705
 8956SOL    HW238505   0.132   3.270   3.796  1.5169 -0.6427  1.0034
 8957SOL     OW38506   3.197   1.950   3.546 -0.1040 -0.1696  0.5410
 8957SOL    HW138507   3.225   2.027   3.496 -2.5599  0.3609 -0.0305
 8957SOL    HW238508   3.278   1.899   3.537  0.3921  0.4725  1.3657
 8958SOL     OW38509   1.315   1.258   0.882 -0.0022 -0.4242  0.1110
 8958SOL    HW138510   1.357   1.250   0.796  2.5127  1.0741  1.2289
 8958SOL    HW238511   1.339   1.172   0.914 -0.9581 -0.0010  1.9669
 8959SOL     OW38512   0.210   3.155   7.824 -0.0536  0.2512  0.4100
 8959SOL    HW138513   0.223   3.223   7.758  0.2761  0.9863  1.2411
 8959SOL    HW238514   0.132   3.186   7.870 -0.4592 -0.4586  0.2022
 8960SOL     OW38515   3.334   0.131  15.812 -0.2631  0.0937 -0.8565
 8960SOL    HW138516   3.360   0.060  15.753  1.0308 -0.6433  0.5969
 8960SOL    HW238517   3.369   0.111  15.899 -2.0407  0.2621 -0.1023
 8961SOL     OW38518   2.712   1.939   3.236  0.1749  0.1549 -0.4825
 8961SOL    HW138519   2.627   1.960   3.197  0.1781  1.3140  0.1355
 8961SOL    HW238520   2.748   2.016   3.281  0.4469  1.0758 -2.2734
 8962SOL     OW38521   3.094   1.530   8.057  0.3183  0.4316 -0.4510
 8962SOL    HW138522   3.051   1.447   8.076  0.5062  0.7174  1.1993
 8962SOL    HW238523   3.038   1.568   7.989 -0.1290 -3.0261 -1.9815
 8963SOL     OW38524   0.357   4.571   9.062  0.3111 -0.0966  0.3952
 8963SOL    HW138525   0.392   4.491   9.100  2.5915 -1.3338 -4.3762
 8963SOL    HW238526   0.274   4.540   9.025  1.6901 -2.9293 -0.3481
 8964SOL     OW38527   3.643   1.417   8.327  0.1902 -0.0438  0.0804
 8964SOL    HW138528   3.733   1.388   8.346 -0.3477 -0.4782  1.9708
 8964SOL    HW238529   3.660   1.463   8.245  0.5026  0.7026  0.5631
 8965SOL     OW38530   4.049   1.573   3.019  0.1676 -0.1805  0.3713
 8965SOL    HW138531   3.976   1.594   2.962  1.4212  1.4455 -0.6455
 8965SOL    HW238532   4.116   1.622   2.971  0.9601 -2.9780 -1.4344
 8966SOL     OW38533   1.449   3.190   7.493 -0.5398 -0.5405 -0.2167
 8966SOL    HW138534   1.515   3.125   7.467  0.5242  0.9672 -1.3340
 8966SOL    HW238535   1.437   3.171   7.586 -0.9905 -1.5207 -0.4750
 8967SOL     OW38536   0.237   0.473   8.743 -0.2110 -0.3716 -0.4622
 8967SOL    HW138537   0.304   0.488   8.677  0.4200  1.5643  0.6349
 8967SOL    HW238538   0.184   0.553   8.745  0.9356  0.3970 -1.2190
 8968SOL     OW38539   3.594   3.915   8.321  0.4883 -0.0582  0.4979
 8968SOL    HW138540   3.623   4.001   8.293 -2.5948  0.8612  0.0823
 8968SOL    HW238541   3.547   3.879   8.245  1.9357  2.3360 -1.5182
 8969SOL     OW38542   3.170   2.430  17.028  0.0519  0.2507 -0.5781
 8969SOL    HW138543   3.094   2.481  17.000 -1.4009 -1.4267  0.3487
 8969SOL    HW238544   3.234   2.464  16.965 -2.2344  1.5702 -2.1481
 8970SOL     OW38545   4.327   1.564   9.091  0.1165  0.0860 -0.2738
 8970SOL    HW138546   4.339   1.612   9.010 -0.0319  1.3328  0.4513
 8970SOL    HW238547   4.326   1.478   9.048  1.0113 -0.7385  1.3559
 8971SOL     OW38548   2.725   0.732   7.291 -0.1023 -0.0598 -0.2401
 8971SOL    HW138549   2.778   0.778   7.355  1.8650 -1.7715 -0.6387
 8971SOL    HW238550   2.678   0.796   7.237 -2.1806 -0.2534  1.3314
 8972SOL     OW38551   3.356   0.530   2.373 -0.5683 -0.4006 -0.9109
 8972SOL    HW138552   3.342   0.446   2.328  0.9440 -0.0149 -2.0829
 8972SOL    HW238553   3.452   0.530   2.373 -0.5700 -0.4168 -0.0464
 8973SOL     OW38554   0.441   2.924   9.542 -0.1766 -0.1378  0.1274
 8973SOL    HW138555   0.517   2.954   9.492  1.5490 -2.0237  1.6298
 8973SOL    HW238556   0.399   3.007   9.567  0.0915 -0.4715  1.7047
 8974SOL     OW38557   0.847   3.277   5.171 -0.0359 -0.0116  0.1905
 8974SOL    HW138558   0.810   3.327   5.099 -0.9767  0.5853  1.0917
 8974SOL    HW238559   0.782   3.259   5.239 -0.0998 -0.7282 -0.0569
 8975SOL     OW38560   0.337   2.427   7.175 -0.1670 -0.0510 -0.0007
 8975SOL    HW138561   0.281   2.503   7.191  0.1668 -0.1760  1.6978
 8975SOL    HW238562   0.269   2.365   7.150 -1.7089  0.5986  2.6438
 8976SOL     OW38563   2.309   1.104   3.308 -0.4544  0.1051  0.0312
 8976SOL    HW138564   2.252   1.088   3.383 -0.1191  1.0775  0.4955
 8976SOL    HW238565   2.270   1.180   3.265  0.3188  0.2609 -0.4102
 8977SOL     OW38566   0.171   1.433   1.734 -0.0689  0.2754 -0.8736
 8977SOL    HW138567   0.139   1.371   1.669 -2.4616 -0.8288  1.3516
 8977SOL    HW238568   0.139   1.516   1.697 -1.1133 -0.2949 -1.2494
 8978SOL     OW38569   1.491   3.353   4.320 -0.1389 -0.1446 -0.1498
 8978SOL    HW138570   1.421   3.342   4.255 -0.3648 -3.4480  0.6498
 8978SOL    HW238571   1.466   3.288   4.385 -0.0207  1.1232  1.1671
 8979SOL     OW38572   2.172   0.572   9.558 -0.9079 -0.1223 -0.0556
 8979SOL    HW138573   2.221   0.522   9.493  0.8497  0.2935  0.9519
 8979SOL    HW238574   2.224   0.551   9.635 -1.6999  0.5957  0.6816
 8980SOL     OW38575   3.838   1.670   7.579 -0.4332  0.1063 -0.0872
 8980SOL    HW138576   3.869   1.596   7.526 -1.0287  0.3269 -0.7417
 8980SOL    HW238577   3.780   1.708   7.513 -0.9025 -0.5656 -0.0620
 8981SOL     OW38578   0.285   2.731   3.955 -0.5776  0.5525 -0.3387
 8981SOL    HW138579   0.193   2.745   3.978 -0.5859 -0.2926  0.1695
 8981SOL    HW238580   0.288   2.637   3.976 -0.6045  0.5462 -0.3638
 8982SOL     OW38581   3.922   1.864   4.129  0.1565 -0.6634 -0.4496
 8982SOL    HW138582   4.007   1.892   4.094  0.9596 -1.4580  0.8631
 8982SOL    HW238583   3.935   1.771   4.149 -1.4983 -0.3068  2.2093
 8983SOL     OW38584   3.462   3.683   2.772  0.0795  0.2666 -0.2481
 8983SOL    HW138585   3.445   3.750   2.838 -0.8960 -1.4682  1.2741
 8983SOL    HW238586   3.527   3.637   2.826  1.1268  2.2519  0.1589
 8984SOL     OW38587   4.163   2.455   9.457 -0.4530 -0.4396  0.0018
 8984SOL    HW138588   4.257   2.472   9.452 -0.4861 -0.0150  0.8211
 8984SOL    HW238589   4.142   2.501   9.539 -0.4091 -0.0594 -0.1996
 8985SOL     OW38590   3.550   2.892   1.110  0.6103  0.0325 -0.0295
 8985SOL    HW138591   3.585   2.950   1.043 -0.0598  1.4924  0.8937
 8985SOL    HW238592   3.455   2.896   1.102  0.5624  0.2099  0.6068
 8986SOL     OW38593   3.896   0.498   8.283 -0.2053 -0.3713  0.1322
 8986SOL    HW138594   3.867   0.435   8.348 -0.5437  0.9610  1.2769
 8986SOL    HW238595   3.939   0.562   8.341 -0.3347  0.2479 -0.4579
 8987SOL     OW38596   1.736   3.347   7.998 -0.3388 -0.0174  0.1799
 8987SOL    HW138597   1.685   3.315   8.072 -0.9306 -3.2322 -1.6380
 8987SOL    HW238598   1.790   3.416   8.037 -0.5204  1.4963 -2.2175
 8988SOL     OW38599   1.700   2.783  16.282 -0.1150  0.6790 -0.4678
 8988SOL    HW138600   1.712   2.706  16.338 -0.6032 -0.2552 -1.6283
 8988SOL    HW238601   1.746   2.760  16.201 -0.5901 -1.6615 -0.0839
 8989SOL     OW38602   0.829   3.972   7.265 -0.1369  0.5319 -0.0858
 8989SOL    HW138603   0.889   3.898   7.258 -1.7197 -0.5935 -1.7493
 8989SOL    HW238604   0.749   3.928   7.236  0.1919  1.1645 -1.9348
 8990SOL     OW38605   2.053   1.626   8.434  0.4621 -0.2696 -0.0166
 8990SOL    HW138606   2.098   1.678   8.368 -0.8198  1.7938  0.7308
 8990SOL    HW238607   2.135   1.579   8.450  0.8894  0.4935  0.0379
 8991SOL     OW38608   4.699   4.564  10.039 -0.4964 -0.5647 -0.6906
 8991SOL    HW138609   4.629   4.618  10.003  0.3464  0.5977 -0.6019
 8991SOL    HW238610   0.035   4.593   9.982 -0.0834  0.4852  0.3905
 8992SOL     OW38611   2.310   1.972   4.228  0.5043  0.3188  0.1741
 8992SOL    HW138612   2.400   1.940   4.237  0.1058 -0.8516  0.0267
 8992SOL    HW238613   2.274   1.899   4.176  1.6591 -1.9359  2.5280
 8993SOL     OW38614   0.275   4.091   9.751 -0.0154  0.0518  0.4284
 8993SOL    HW138615   0.222   4.070   9.827 -0.8767  2.6811  0.5716
 8993SOL    HW238616   0.220   4.049   9.685  0.6603 -0.5524  0.2545
 8994SOL     OW38617   4.405   3.786  11.140  0.1234 -0.1434  0.3852
 8994SOL    HW138618   4.445   3.706  11.173 -2.2935 -0.1437  3.2609
 8994SOL    HW238619   4.480   3.844  11.123 -1.5981  1.5447 -1.4265
 8995SOL     OW38620   0.731   1.067   9.346  0.5593  0.4084  0.0585
 8995SOL    HW138621   0.652   1.121   9.352  0.8903  1.1095 -2.1070
 8995SOL    HW238622   0.802   1.123   9.378  0.3007  0.1180  1.1335
 8996SOL     OW38623   3.764   0.564  12.045  0.1732 -0.0550  0.3440
 8996SOL    HW138624   3.848   0.520  12.035 -0.7211 -0.8922 -3.4687
 8996SOL    HW238625   3.788   0.629  12.112 -0.1145 -0.8060  1.1691
 8997SOL     OW38626   2.816   0.108   3.807  0.5787  0.6168  0.7021
 8997SOL    HW138627   2.805   0.171   3.879 -0.6911  1.0389  0.1480
 8997SOL    HW238628   2.849   0.163   3.736  1.0652 -1.7309 -0.8720
 8998SOL     OW38629   4.541   3.347   2.140  0.2496 -0.2403 -0.3210
 8998SOL    HW138630   4.568   3.415   2.078  0.6514 -0.8556 -0.8164
 8998SOL    HW238631   4.465   3.318   2.089  0.5554  0.6518 -1.2780
 8999SOL     OW38632   0.177   0.900   7.910 -0.0881  0.0757 -0.1464
 8999SOL    HW138633   0.204   0.991   7.905 -1.6848  0.4172 -2.6395
 8999SOL    HW238634   0.086   0.902   7.879 -0.6637  0.4724  1.5264
 9000SOL     OW38635   2.160   4.417  14.949 -0.5522 -0.1894  0.2760
 9000SOL    HW138636   2.202   4.367  14.880 -0.4228  0.0306  0.1957
 9000SOL    HW238637   2.218   4.428  15.024 -0.2135 -2.6562  0.3891
 9001SOL     OW38638   3.605   3.280  10.120  0.2703 -0.1282  0.1415
 9001SOL    HW138639   3.594   3.335  10.043  0.9896  0.2740  0.3300
 9001SOL    HW238640   3.610   3.194  10.077  1.2393 -0.8953  1.7775
 9002SOL     OW38641   0.906   3.403   4.633  0.0387 -0.1339  0.0872
 9002SOL    HW138642   0.981   3.414   4.575  0.4085 -1.3721  0.3170
 9002SOL    HW238643   0.854   3.483   4.622  0.0105 -0.2071 -0.3331
 9003SOL     OW38644   0.323   0.106   2.893  0.3337 -0.4410  0.0214
 9003SOL    HW138645   0.245   0.053   2.880 -0.6111  1.3717 -1.7169
 9003SOL    HW238646   0.329   0.142   2.805  2.0317 -0.8731 -0.0446
 9004SOL     OW38647   0.775   1.984   2.137 -0.1576 -0.1504  0.1338
 9004SOL    HW138648   0.708   1.916   2.127 -1.9955  1.5859  0.8059
 9004SOL    HW238649   0.844   1.934   2.093 -0.3501 -0.5309  0.2640
 9005SOL     OW38650   4.013   1.245   5.716  0.1968 -0.3157  0.1971
 9005SOL    HW138651   4.068   1.321   5.697  0.4885 -0.8965 -1.2807
 9005SOL    HW238652   4.008   1.203   5.630  0.1949 -0.0658  0.0721
 9006SOL     OW38653   1.517   1.666   7.500  0.2975 -0.4404 -0.2660
 9006SOL    HW138654   1.585   1.618   7.548 -0.6784 -0.6097  0.9516
 9006SOL    HW238655   1.456   1.690   7.571 -0.9501  1.0941 -1.8707
 9007SOL     OW38656   0.994   3.137   6.730  0.2090  0.6517 -0.4928
 9007SOL    HW138657   1.067   3.191   6.702  1.0937  0.0424  0.6723
 9007SOL    HW238658   0.938   3.210   6.756  0.8668  0.6743  0.8250
 9008SOL     OW38659   1.657   1.390   0.376 -0.2069 -0.0958 -0.4862
 9008SOL    HW138660   1.672   1.397   0.471  0.2409  0.4364 -0.5964
 9008SOL    HW238661   1.593   1.457   0.354 -0.8666 -1.0280 -1.4261
 9009SOL     OW38662   2.031   3.382   6.806 -0.2724 -0.7825  0.2083
 9009SOL    HW138663   2.044   3.329   6.727  1.8632 -1.1640  0.8233
 9009SOL    HW238664   2.082   3.334   6.871 -0.5493  1.4692  2.0965
 9010SOL     OW38665   2.415   3.493   6.603  0.1176  0.1888 -0.6146
 9010SOL    HW138666   2.479   3.537   6.658  0.4306 -0.6743 -0.2939
 9010SOL    HW238667   2.409   3.410   6.650  0.8755  1.1356  1.1512
 9011SOL     OW38668   1.633   2.133   7.023 -0.3398  0.5790 -0.3150
 9011SOL    HW138669   1.575   2.156   6.951  1.3647 -0.0906 -1.9013
 9011SOL    HW238670   1.724   2.152   6.999 -0.0919  1.7098  1.4507
 9012SOL     OW38671   3.976   0.411  16.016  0.3826 -0.7490  0.0770
 9012SOL    HW138672   3.905   0.449  15.963  0.9821  0.9174  0.4767
 9012SOL    HW238673   4.021   0.366  15.944 -0.3289 -2.9216  0.9919
 9013SOL     OW38674   2.591   1.544   5.609  0.6477 -0.0528 -0.5517
 9013SOL    HW138675   2.509   1.508   5.576  0.4354 -0.5649  0.5256
 9013SOL    HW238676   2.580   1.636   5.590  1.1495 -0.3925 -2.4391
 9014SOL     OW38677   1.761   2.806   7.337  0.0249  0.2270 -0.2501
 9014SOL    HW138678   1.849   2.783   7.306  1.0245  1.6009  1.5782
 9014SOL    HW238679   1.721   2.739   7.281 -1.3601  0.1624  0.8249
 9015SOL     OW38680   1.325   1.452   5.769 -0.2912  0.2343 -0.5367
 9015SOL    HW138681   1.295   1.445   5.860 -1.4495  0.3441 -0.9157
 9015SOL    HW238682   1.386   1.379   5.757  0.7499  1.2574 -1.4140
 9016SOL     OW38683   3.998   4.384  11.218  0.1025 -0.9590 -0.0164
 9016SOL    HW138684   3.952   4.423  11.144  1.5547 -0.4460 -0.6448
 9016SOL    HW238685   3.959   4.432  11.290  1.0118  0.7713 -0.6918
 9017SOL     OW38686   1.518   1.559   7.914  0.3986  0.2390  0.5595
 9017SOL    HW138687   1.490   1.646   7.942 -2.2681 -1.0691  1.8943
 9017SOL    HW238688   1.519   1.582   7.821 -0.9892  0.2868  0.5607
 9018SOL     OW38689   1.643   2.665   7.762 -0.7405 -0.0518  0.1872
 9018SOL    HW138690   1.667   2.752   7.793  0.9559 -0.2515 -0.5188
 9018SOL    HW238691   1.580   2.681   7.691  1.7916  2.1426 -1.5717
 9019SOL     OW38692   1.938   4.412   5.004  0.1531 -0.1995  0.5228
 9019SOL    HW138693   1.885   4.417   5.083  0.1440  0.2916  0.4825
 9019SOL    HW238694   1.971   4.324   5.019  0.5452 -0.7713 -3.6324
 9020SOL     OW38695   3.064   3.282   2.890 -0.3686 -0.1769  0.4010
 9020SOL    HW138696   2.971   3.284   2.910 -0.0543 -2.1128  2.1457
 9020SOL    HW238697   3.077   3.323   2.804 -3.8204  0.0039 -0.0033
 9021SOL     OW38698   4.015   0.278  11.262 -0.4195 -0.1850 -0.6197
 9021SOL    HW138699   4.086   0.335  11.232 -0.4028 -1.0251 -2.1663
 9021SOL    HW238700   4.031   0.277  11.357 -1.0885 -2.5983 -0.5173
 9022SOL     OW38701   0.896   4.682   9.405 -0.3480  0.2128  0.3737
 9022SOL    HW138702   0.982   4.706   9.438 -0.3000  0.7164 -0.1248
 9022SOL    HW238703   0.848   0.025   9.378  0.4676  0.5185 -0.1816
 9023SOL     OW38704   0.547   4.139   3.036  0.0528  0.1395  0.2504
 9023SOL    HW138705   0.572   4.052   3.066 -2.0103 -0.3891  0.3902
 9023SOL    HW238706   0.471   4.110   2.986 -0.4388 -0.6199  1.4387
 9024SOL     OW38707   1.227   3.891   5.688 -0.5169 -0.0253  0.4080
 9024SOL    HW138708   1.139   3.877   5.723 -1.0778 -1.1335 -1.4347
 9024SOL    HW238709   1.213   3.946   5.612 -3.6794 -2.3704 -0.7435
 9025SOL     OW38710   3.634   0.357   4.018 -0.0057  0.1575 -0.5797
 9025SOL    HW138711   3.561   0.405   4.058  0.4679  1.2477 -1.0249
 9025SOL    HW238712   3.591   0.340   3.934 -1.5181 -0.6542  0.3551
 9026SOL     OW38713   1.847   1.487   3.217 -0.3750 -0.1593  0.0012
 9026SOL    HW138714   1.881   1.503   3.305 -2.5160  1.5587  0.5119
 9026SOL    HW238715   1.917   1.530   3.167 -1.6140  1.0208 -0.7068
 9027SOL     OW38716   1.390   4.259  14.782  0.0798  0.0102 -0.0564
 9027SOL    HW138717   1.459   4.278  14.845 -0.9814  1.6909  0.6006
 9027SOL    HW238718   1.434   4.195  14.725  1.3758  0.5114  0.3768
 9028SOL     OW38719   4.698   3.873   8.627  0.6447  0.5720 -0.3216
 9028SOL    HW138720   0.002   3.920   8.700  3.0325 -1.0047 -0.6106
 9028SOL    HW238721   4.607   3.859   8.654  1.0299  0.2067  0.7616
 9029SOL     OW38722   0.865   1.362   4.097  0.6076 -0.2497 -0.5981
 9029SOL    HW138723   0.770   1.353   4.087  0.5316 -0.1468  0.0304
 9029SOL    HW238724   0.898   1.344   4.009 -1.8629 -1.2688 -1.3153
 9030SOL     OW38725   1.615   4.343   9.062  0.6875  0.1455  0.0962
 9030SOL    HW138726   1.694   4.383   9.096 -1.3033  0.7798  3.9950
 9030SOL    HW238727   1.578   4.416   9.011  2.0264 -0.4772 -1.7467
 9031SOL     OW38728   2.997   2.919   9.439 -0.0884 -0.5753 -0.8733
 9031SOL    HW138729   3.063   2.960   9.382 -1.6112 -0.4439 -2.5505
 9031SOL    HW238730   2.926   2.981   9.423 -0.1784 -0.1484  1.1112
 9032SOL     OW38731   0.712   0.174  15.132 -0.1084 -0.0847  0.0334
 9032SOL    HW138732   0.798   0.204  15.103 -0.0447  1.6930  2.0263
 9032SOL    HW238733   0.657   0.166  15.055 -0.0482  1.5151 -0.1734
 9033SOL     OW38734   0.055   2.098  15.800  0.3239 -0.3250 -0.1858
 9033SOL    HW138735   0.114   2.136  15.865 -0.4120  1.3863 -0.5308
 9033SOL    HW238736   0.086   2.007  15.803  2.0326  0.2248 -1.0912
 9034SOL     OW38737   4.335   3.692   4.737  0.1962  0.1907 -0.1291
 9034SOL    HW138738   4.338   3.788   4.730 -0.7237  0.1361 -1.3322
 9034SOL    HW238739   4.305   3.681   4.827  0.7465  1.1369  0.1690
 9035SOL     OW38740   4.358   3.553   4.327 -0.0482 -0.2495 -0.2645
 9035SOL    HW138741   4.435   3.554   4.269 -1.1218 -2.4841 -1.7231
 9035SOL    HW238742   4.318   3.637   4.306  1.1095  0.6058  0.9457
 9036SOL     OW38743   4.261   1.991   5.776 -0.1355  0.4319  0.0351
 9036SOL    HW138744   4.245   1.961   5.687 -1.6876 -1.3306  0.8999
 9036SOL    HW238745   4.254   2.082   5.750  2.1702  1.1525  1.8533
 9037SOL     OW38746   1.611   0.967   9.121 -0.1883 -0.9971  0.1506
 9037SOL    HW138747   1.670   0.949   9.195 -0.4517  0.8812  0.8341
 9037SOL    HW238748   1.558   1.038   9.157  0.2197  0.1339 -1.4714
 9038SOL     OW38749   0.342   3.754   7.536  0.1777  0.5997  0.1544
 9038SOL    HW138750   0.341   3.669   7.493 -0.2006 -0.3169  1.9807
 9038SOL    HW238751   0.435   3.770   7.545 -0.3489  1.1155  4.4322
 9039SOL     OW38752   1.163   1.337  10.052  0.7342  0.1912 -0.1226
 9039SOL    HW138753   1.235   1.387  10.014  0.5477  2.3976  2.4524
 9039SOL    HW238754   1.187   1.358  10.142  0.5686 -2.2483  0.4725
 9040SOL     OW38755   3.596   3.827  11.825  0.0016 -0.5841 -0.3054
 9040SOL    HW138756   3.534   3.857  11.892 -1.0875 -1.8325 -0.7784
 9040SOL    HW238757   3.677   3.841  11.875 -0.2733 -2.4573  0.6651
 9041SOL     OW38758   1.405   4.395   2.906  0.1857  0.0366  0.1907
 9041SOL    HW138759   1.336   4.404   2.971  0.0900 -1.1301  0.2451
 9041SOL    HW238760   1.412   4.301   2.889  1.7214  0.2314 -0.2494
 9042SOL     OW38761   1.338   0.345   8.202 -0.3562  0.3559  0.3030
 9042SOL    HW138762   1.339   0.428   8.154  0.5809 -1.5083 -2.9218
 9042SOL    HW238763   1.422   0.358   8.246  0.8332 -1.6939 -1.3572
 9043SOL     OW38764   1.765   0.180   6.367 -0.0109  0.1558 -0.4300
 9043SOL    HW138765   1.700   0.188   6.297 -1.2647 -2.2657  0.4473
 9043SOL    HW238766   1.809   0.264   6.356 -0.7736  0.7031  0.6108
 9044SOL     OW38767   3.189   2.289  13.470 -0.4002 -0.1967 -0.4495
 9044SOL    HW138768   3.252   2.296  13.541 -0.7507  0.6870 -0.2296
 9044SOL    HW238769   3.153   2.377  13.473 -0.1500 -0.1202  0.3901
 9045SOL     OW38770   1.524   4.265   8.756 -0.2629  0.3231  0.3082
 9045SOL    HW138771   1.456   4.220   8.806  1.2501 -3.4933 -1.0929
 9045SOL    HW238772   1.587   4.193   8.747 -1.3923 -1.0292  3.1067
 9046SOL     OW38773   4.733   1.066   0.046 -0.3016  0.1173 -0.3536
 9046SOL    HW138774   0.014   1.042  17.696  2.4541  0.0635  0.1746
 9046SOL    HW238775   0.060   1.138   0.049  0.2085 -0.3396  0.0898
 9047SOL     OW38776   4.685   0.975   9.286 -0.0591  0.0376  0.4464
 9047SOL    HW138777   4.622   0.917   9.243 -1.3551  1.0138  1.0260
 9047SOL    HW238778   0.012   0.910   9.316 -1.4032 -1.0397  0.9065
 9048SOL     OW38779   1.597   3.172   8.167  0.1396 -0.7724 -0.1308
 9048SOL    HW138780   1.534   3.174   8.239 -2.7787 -3.6378 -2.5667
 9048SOL    HW238781   1.656   3.103   8.195  0.3529 -1.0675 -1.2937
 9049SOL     OW38782   4.162   2.930   9.743 -0.0774  0.2164  0.6230
 9049SOL    HW138783   4.229   2.982   9.787 -0.3839 -0.2721  1.6546
 9049SOL    HW238784   4.079   2.963   9.780 -2.2257 -3.4851 -0.9044
 9050SOL     OW38785   0.742   0.106   4.929  0.1749  0.6812 -0.1235
 9050SOL    HW138786   0.828   0.147   4.939 -0.3315  1.4416  1.2317
 9050SOL    HW238787   0.695   0.172   4.878 -0.2660 -0.1109 -0.7461
 9051SOL     OW38788   3.142   1.430   5.302  0.0447 -0.4884  0.2568
 9051SOL    HW138789   3.049   1.412   5.295  0.3147 -0.8845 -2.4607
 9051SOL    HW238790   3.161   1.413   5.209 -0.4877 -1.3856  0.3195
 9052SOL     OW38791   3.490   0.980   1.558  0.0576 -0.4919 -0.0192
 9052SOL    HW138792   3.571   1.031   1.552  1.1809 -2.2670  0.1665
 9052SOL    HW238793   3.446   1.000   1.475  0.0538 -0.9650 -0.1289
 9053SOL     OW38794   2.679   2.306   4.419 -0.6275 -0.0607  0.3805
 9053SOL    HW138795   2.751   2.348   4.466 -1.2241  0.2751  0.9779
 9053SOL    HW238796   2.608   2.368   4.430  0.5151  1.9367 -3.5332
 9054SOL     OW38797   3.836   1.850   9.218  0.2505 -0.1708  0.0205
 9054SOL    HW138798   3.837   1.945   9.226 -3.0612  0.1155 -3.0048
 9054SOL    HW238799   3.923   1.840   9.177  2.4893  1.5300  4.3667
 9055SOL     OW38800   3.504   1.063  12.012 -0.1746 -0.3556 -0.9440
 9055SOL    HW138801   3.434   1.118  12.044 -0.3175 -0.3394 -1.2808
 9055SOL    HW238802   3.537   1.120  11.942  0.0319  1.5012  0.6709
 9056SOL     OW38803   2.813   1.978   3.600 -0.0620  0.2366  0.6721
 9056SOL    HW138804   2.734   2.029   3.591 -0.1944 -0.0084  0.4434
 9056SOL    HW238805   2.864   2.009   3.525 -0.1043  0.1810  0.6198
 9057SOL     OW38806   0.542   1.398   4.229  0.1678  0.4545 -0.5334
 9057SOL    HW138807   0.520   1.391   4.136 -1.8164 -1.8797  0.0910
 9057SOL    HW238808   0.504   1.316   4.261  3.5620 -1.5538 -1.5782
 9058SOL     OW38809   0.881   0.690  16.474  0.3969  1.0245 -0.0681
 9058SOL    HW138810   0.846   0.779  16.471 -1.5821  0.3210  1.7929
 9058SOL    HW238811   0.964   0.708  16.431  0.3850  3.5779  0.9811
 9059SOL     OW38812   4.716   0.909   2.435 -0.0308  0.0055  0.0026
 9059SOL    HW138813   0.066   0.935   2.401 -0.1653 -0.1477 -0.4491
 9059SOL    HW238814   4.703   0.964   2.512 -0.3386 -0.0842  0.0135
 9060SOL     OW38815   3.883   4.661   5.621 -0.3536 -0.1086 -0.2491
 9060SOL    HW138816   3.789   4.644   5.627 -0.6575  2.3839  2.5652
 9060SOL    HW238817   3.922   4.611   5.693  0.0085 -0.1442 -0.4698
 9061SOL     OW38818   4.170   1.134   4.336 -0.2051 -0.4005  0.1734
 9061SOL    HW138819   4.189   1.096   4.422 -2.2140  3.3454  2.2559
 9061SOL    HW238820   4.150   1.052   4.291  4.0117 -0.9469 -0.6571
 9062SOL     OW38821   3.254   0.780   0.099  0.3338  0.4616  0.5471
 9062SOL    HW138822   3.333   0.728   0.086 -0.7142 -0.8524 -0.5545
 9062SOL    HW238823   3.283   0.864   0.064 -0.1649 -0.1606 -1.3642
 9063SOL     OW38824   2.832   2.561   8.619 -0.2458 -0.1579 -0.3531
 9063SOL    HW138825   2.901   2.618   8.584 -1.6851  3.2951  2.3469
 9063SOL    HW238826   2.848   2.475   8.582  1.7256 -0.1346  0.4702
 9064SOL     OW38827   4.255   2.213   7.859 -0.2922 -0.1621 -0.1216
 9064SOL    HW138828   4.243   2.305   7.835  0.0767 -0.2845 -0.7561
 9064SOL    HW238829   4.178   2.190   7.912  0.3347 -0.4954  0.6503
 9065SOL     OW38830   3.841   1.021   6.235  0.4590  0.8379  0.0042
 9065SOL    HW138831   3.808   0.979   6.155 -0.6791 -2.4681  2.1908
 9065SOL    HW238832   3.927   1.046   6.202  0.6988 -0.6007 -0.4618
 9066SOL     OW38833   2.540   0.710   7.875 -0.0363  0.1037  0.2370
 9066SOL    HW138834   2.456   0.690   7.916  0.8972 -3.0129  0.6445
 9066SOL    HW238835   2.597   0.687   7.948  0.7135  0.6414 -0.1844
 9067SOL     OW38836   4.662   3.554  10.527  1.1182 -0.0468 -0.2640
 9067SOL    HW138837   4.632   3.627  10.581 -0.8260 -0.5555 -0.6897
 9067SOL    HW238838   4.609   3.482  10.560 -0.4023  2.4949  2.8040
 9068SOL     OW38839   3.139   2.840   4.511 -0.3925  0.6345 -0.5577
 9068SOL    HW138840   3.231   2.855   4.536 -0.0471 -1.3506 -0.6630
 9068SOL    HW238841   3.096   2.925   4.504 -0.8055  0.4104 -0.7298
 9069SOL     OW38842   3.661   3.593   7.803 -0.9432 -0.3660 -0.0007
 9069SOL    HW138843   3.716   3.600   7.725 -1.5334  1.8322 -0.2218
 9069SOL    HW238844   3.667   3.684   7.832 -1.5839 -0.8388  1.6504
 9070SOL     OW38845   0.136   2.203   3.373 -0.3300 -0.0594 -0.0006
 9070SOL    HW138846   0.224   2.221   3.342 -0.8890 -1.0080 -2.1343
 9070SOL    HW238847   0.156   2.190   3.466 -3.1202  0.0564  0.6328
 9071SOL     OW38848   0.326   3.219   6.952 -0.4764  0.5576 -0.0908
 9071SOL    HW138849   0.288   3.133   6.972 -0.7046  1.2157  2.2618
 9071SOL    HW238850   0.333   3.209   6.857  3.1543  0.3403  0.2180
 9072SOL     OW38851   2.505   3.071   8.296  0.5731  0.1689  0.0759
 9072SOL    HW138852   2.464   3.044   8.378  0.3586 -1.1507 -0.4602
 9072SOL    HW238853   2.537   2.985   8.269  0.6108  0.0669  0.4434
 9073SOL     OW38854   0.866   3.723   4.960 -0.6503 -0.1868 -0.4332
 9073SOL    HW138855   0.814   3.650   4.994 -1.1843 -0.3010 -1.4846
 9073SOL    HW238856   0.801   3.781   4.920 -0.6643 -1.0516 -1.6458
 9074SOL     OW38857   4.350   0.727   6.693 -0.3602 -0.1413  0.0346
 9074SOL    HW138858   4.333   0.754   6.783  1.5153 -1.3937  0.7601
 9074SOL    HW238859   4.288   0.780   6.642 -1.2995 -0.2288  1.0863
 9075SOL     OW38860   1.935   4.287  14.982  0.6240 -0.0292  0.0760
 9075SOL    HW138861   2.002   4.353  14.966  1.5646 -0.3292  2.7171
 9075SOL    HW238862   1.930   4.246  14.896 -0.3801 -1.2328  0.7176
 9076SOL     OW38863   1.604   2.195  13.746  0.1119 -0.6084  0.2606
 9076SOL    HW138864   1.574   2.134  13.813 -1.5806  2.1990  2.0050
 9076SOL    HW238865   1.690   2.220  13.781  1.4083 -0.6926 -2.8578
 9077SOL     OW38866   0.955   2.756   2.619 -0.1501 -0.4167  0.0551
 9077SOL    HW138867   0.986   2.702   2.692  0.5016 -0.5282 -0.2908
 9077SOL    HW238868   0.893   2.818   2.656 -0.7405 -1.6284  1.0999
 9078SOL     OW38869   0.041   3.574   7.874 -0.7401  0.3535  0.0215
 9078SOL    HW138870   0.091   3.544   7.799  1.1776  0.2272  1.3532
 9078SOL    HW238871   4.688   3.585   7.839 -0.1979 -1.4677 -1.8774
 9079SOL     OW38872   0.730   0.635  14.583 -0.7130 -0.3777 -0.1112
 9079SOL    HW138873   0.713   0.592  14.667 -0.6873 -1.1188 -0.4860
 9079SOL    HW238874   0.767   0.563  14.533 -0.0803 -1.2258  1.5756
 9080SOL     OW38875   3.597   1.178   4.307  0.1563 -0.2067 -0.3895
 9080SOL    HW138876   3.556   1.236   4.372  0.6634  1.0011 -1.1597
 9080SOL    HW238877   3.664   1.235   4.270 -1.6705  1.9915 -0.2656
 9081SOL     OW38878   1.145   1.446   2.405  0.0246 -0.2037  0.5975
 9081SOL    HW138879   1.123   1.359   2.372  0.2290 -0.7681  1.9491
 9081SOL    HW238880   1.233   1.458   2.369  0.2547 -1.0967  0.8648
 9082SOL     OW38881   0.292   3.944  13.794 -0.2043 -0.2059  0.1719
 9082SOL    HW138882   0.358   3.978  13.854  0.6206  0.5236 -1.1477
 9082SOL    HW238883   0.230   4.013  13.815 -1.3518 -0.8048 -1.2141
 9083SOL     OW38884   3.821   1.280  14.061 -0.2746 -0.1138 -0.4374
 9083SOL    HW138885   3.888   1.236  14.113 -1.1463 -0.4205  0.4437
 9083SOL    HW238886   3.805   1.210  13.997 -0.8321 -2.8229  2.6623
 9084SOL     OW38887   2.980   4.178   9.938 -0.0893 -0.2593 -0.0624
 9084SOL    HW138888   2.984   4.087   9.969  0.8960  0.0871  0.8150
 9084SOL    HW238889   2.976   4.164   9.844 -1.7013  1.5301 -0.2526
 9085SOL     OW38890   3.726   2.357   3.176 -0.3232  0.2500 -0.3483
 9085SOL    HW138891   3.740   2.284   3.115 -1.2903 -0.3486  0.1311
 9085SOL    HW238892   3.774   2.334   3.255 -2.1883 -0.0556  0.7057
 9086SOL     OW38893   2.951   0.351  13.335  0.4778  0.5289 -0.2800
 9086SOL    HW138894   3.003   0.345  13.415  0.2604 -1.4398 -0.2832
 9086SOL    HW238895   2.975   0.265  13.300 -0.9504  0.1750 -0.4024
 9087SOL     OW38896   1.493   2.078  11.727 -0.1821 -0.2610 -0.0464
 9087SOL    HW138897   1.574   2.056  11.772  0.0360 -0.3355 -0.4743
 9087SOL    HW238898   1.521   2.107  11.640 -0.3882 -1.6812 -0.5885
 9088SOL     OW38899   2.298   1.976   4.831 -0.8708  0.4442  0.1016
 9088SOL    HW138900   2.261   1.969   4.919 -0.1650  0.2441  0.3798
 9088SOL    HW238901   2.231   1.932   4.778 -0.4422  1.4928 -1.2845
 9089SOL     OW38902   0.219   1.865   9.335 -0.0688 -0.5861  0.1664
 9089SOL    HW138903   0.223   1.819   9.419 -0.2824 -3.3413 -1.3185
 9089SOL    HW238904   0.311   1.874   9.312 -0.3414  0.2036 -0.6367
 9090SOL     OW38905   2.265   4.039   7.982 -0.1662  0.2178  0.2540
 9090SOL    HW138906   2.348   3.989   7.980  0.4534  1.2223  1.3361
 9090SOL    HW238907   2.289   4.127   7.953  2.3282 -0.9694 -1.3593
 9091SOL     OW38908   0.668   1.754  10.802  0.0963 -0.0535  0.0101
 9091SOL    HW138909   0.641   1.680  10.855  0.2858 -0.7520 -0.8625
 9091SOL    HW238910   0.761   1.731  10.794  0.3168  0.6876  0.4400
 9092SOL     OW38911   0.444   2.238   1.931 -0.3123 -0.6498 -0.3958
 9092SOL    HW138912   0.470   2.164   1.986  0.9424  0.1511  0.0770
 9092SOL    HW238913   0.404   2.192   1.857  0.4417  1.2135 -1.9658
 9093SOL     OW38914   2.072   1.880  15.067  0.0918  0.4335  0.4530
 9093SOL    HW138915   2.158   1.886  15.025 -0.6741 -2.5823 -1.5375
 9093SOL    HW238916   2.020   1.906  14.991  2.0923  3.0684 -0.0210
 9094SOL     OW38917   1.709   2.195   5.962  0.0027 -0.2055  0.4462
 9094SOL    HW138918   1.630   2.183   5.909  0.8093 -0.9029 -0.5934
 9094SOL    HW238919   1.665   2.211   6.046 -2.3121 -1.8381 -0.4595
 9095SOL     OW38920   3.004   2.315   6.129 -0.0851 -0.3442 -0.5156
 9095SOL    HW138921   3.059   2.237   6.118  2.0663  1.0766  0.0853
 9095SOL    HW238922   3.050   2.365   6.197 -1.3391  0.8937 -0.5925
 9096SOL     OW38923   3.361   4.300   5.584 -0.0947 -0.8391 -0.1166
 9096SOL    HW138924   3.414   4.274   5.509  0.4305  2.1548 -0.7849
 9096SOL    HW238925   3.293   4.233   5.587 -0.4321 -0.5474 -1.2896
 9097SOL     OW38926   3.469   1.472   8.813  0.2549 -0.3289  0.2982
 9097SOL    HW138927   3.517   1.415   8.874  0.7060  0.5931  0.8066
 9097SOL    HW238928   3.522   1.463   8.734 -0.8598 -2.1251 -0.2397
 9098SOL     OW38929   0.081   2.910   5.885  0.3992  0.0179 -0.0874
 9098SOL    HW138930   0.101   2.959   5.806  0.8790 -0.5587 -0.3277
 9098SOL    HW238931   0.022   2.841   5.856 -0.2242  1.0039 -1.1509
 9099SOL     OW38932   1.393   2.405   0.453 -0.0390  0.3757 -0.0574
 9099SOL    HW138933   1.413   2.495   0.426 -0.2275 -0.1207 -1.8506
 9099SOL    HW238934   1.298   2.410   0.445 -0.1391 -0.9568  0.2568
 9100SOL     OW38935   1.630   0.810   0.254 -0.4690  0.1227 -0.3194
 9100SOL    HW138936   1.566   0.775   0.316  1.5984 -0.8263  1.2639
 9100SOL    HW238937   1.656   0.732   0.204 -1.9607 -0.6111  0.0560
 9101SOL     OW38938   1.986   2.859   5.873  0.2918 -0.9389  0.7059
 9101SOL    HW138939   2.064   2.907   5.902  0.6171 -2.0185  1.5995
 9101SOL    HW238940   2.028   2.782   5.835 -1.5102 -1.2292 -0.6962
 9102SOL     OW38941   0.906   3.642   2.054  0.5372  0.3509  0.4442
 9102SOL    HW138942   0.818   3.614   2.080  0.8449  0.4174  1.5580
 9102SOL    HW238943   0.885   3.688   1.972 -1.8597 -3.0126 -0.8283
 9103SOL     OW38944   3.246   2.516   9.692  0.0685  0.0704 -0.8427
 9103SOL    HW138945   3.266   2.514   9.599  1.1269 -1.9980 -0.5637
 9103SOL    HW238946   3.153   2.491   9.690  0.0618  0.1584 -1.6156
 9104SOL     OW38947   2.263   4.302   5.191 -0.3021 -0.4606 -0.1611
 9104SOL    HW138948   2.287   4.369   5.126  0.0409  0.0552  0.5048
 9104SOL    HW238949   2.350   4.296   5.231 -0.4548 -1.2110  0.0534
 9105SOL     OW38950   1.557   1.627   5.101 -0.2037  0.6813 -0.0358
 9105SOL    HW138951   1.634   1.682   5.088  1.1886 -1.4377 -0.7231
 9105SOL    HW238952   1.582   1.579   5.179 -2.0217 -0.9083 -0.4225
 9106SOL     OW38953   3.157   1.697   4.491 -0.3875 -0.1327 -0.3675
 9106SOL    HW138954   3.110   1.616   4.510  0.1471 -0.3763 -0.0879
 9106SOL    HW238955   3.097   1.755   4.539  0.1312 -0.0953  0.2373
 9107SOL     OW38956   1.395   3.758   7.143 -0.7523  0.2646  0.0888
 9107SOL    HW138957   1.430   3.706   7.070 -1.5739  0.3178 -0.3382
 9107SOL    HW238958   1.470   3.807   7.177 -0.0293 -0.8598  0.1322
 9108SOL     OW38959   1.441   1.769   6.680 -0.1348  0.4107  0.1692
 9108SOL    HW138960   1.536   1.778   6.683 -0.2707  1.3388  1.4873
 9108SOL    HW238961   1.413   1.851   6.721  5.0985  1.9152  0.7503
 9109SOL     OW38962   2.468   1.270   9.537  0.1441 -0.0562 -0.5713
 9109SOL    HW138963   2.405   1.252   9.606 -0.7780  2.1304 -0.8263
 9109SOL    HW238964   2.466   1.366   9.542  1.7655 -0.0762  0.3395
 9110SOL     OW38965   1.867   2.295   6.919 -0.0971  0.2529 -0.7669
 9110SOL    HW138966   1.937   2.290   6.983  2.0205  0.1156 -3.0939
 9110SOL    HW238967   1.841   2.387   6.929  3.8046  1.3075 -0.2693
 9111SOL     OW38968   0.525   0.657   6.171 -0.2424  0.5948 -0.3762
 9111SOL    HW138969   0.595   0.647   6.107  1.1878 -1.5600  1.5340
 9111SOL    HW238970   0.514   0.565   6.191 -2.2171  0.9134  0.0381
 9112SOL     OW38971   0.824   4.055  16.023  0.1134 -0.2142  0.2142
 9112SOL    HW138972   0.833   4.147  15.995  1.4274  0.0137  1.4291
 9112SOL    HW238973   0.778   4.069  16.105  0.0358 -0.6525  0.2457
 9113SOL     OW38974   0.731   1.686   2.842 -0.0664 -0.9616  0.1196
 9113SOL    HW138975   0.816   1.726   2.825 -0.2627 -1.6404 -2.5231
 9113SOL    HW238976   0.746   1.635   2.921  1.3314 -2.1571 -0.9085
 9114SOL     OW38977   3.420   4.258   6.165  0.1651 -0.0324 -0.4434
 9114SOL    HW138978   3.449   4.292   6.250 -0.3393 -0.2634 -0.1792
 9114SOL    HW238979   3.464   4.315   6.102  0.1004  1.5252  0.9401
 9115SOL     OW38980   0.512   2.166   4.028  0.4860 -0.6088 -0.1599
 9115SOL    HW138981   0.475   2.169   4.116 -2.4614  0.2378 -1.4190
 9115SOL    HW238982   0.552   2.079   4.027 -1.2517 -1.4184  0.5251
 9116SOL     OW38983   2.253   3.388   5.456 -0.1051 -0.1586 -0.2700
 9116SOL    HW138984   2.237   3.384   5.361  3.0331  0.6964 -0.8545
 9116SOL    HW238985   2.174   3.351   5.494  1.5707 -1.2135  2.1500
 9117SOL     OW38986   3.771   2.276   5.779 -0.2685  0.6357  0.0140
 9117SOL    HW138987   3.802   2.343   5.839  2.3782  1.1323 -1.9362
 9117SOL    HW238988   3.709   2.225   5.831 -1.3204  1.6877 -0.2144
 9118SOL     OW38989   2.477   0.111  11.807  0.3389  0.2964 -0.4244
 9118SOL    HW138990   2.523   0.049  11.751 -1.4019 -0.0013 -1.5415
 9118SOL    HW238991   2.426   0.158  11.741 -0.9704  1.6916  1.5674
 9119SOL     OW38992   4.082   2.311  16.777 -0.0831  0.0561 -0.1037
 9119SOL    HW138993   4.146   2.241  16.790 -1.8984 -1.7633 -0.9256
 9119SOL    HW238994   4.017   2.272  16.718 -0.7857 -0.7992  1.2459
 9120SOL     OW38995   4.058   1.756   6.432  0.3166 -0.2522 -0.1653
 9120SOL    HW138996   4.077   1.688   6.497  2.3189 -0.4535 -0.9721
 9120SOL    HW238997   4.020   1.711   6.356 -1.1728  0.6303  0.0541
 9121SOL     OW38998   3.890   1.436  13.142 -0.5276 -0.7500  0.3509
 9121SOL    HW138999   3.910   1.387  13.062  1.3143  0.7534 -0.1189
 9121SOL    HW239000   3.980   1.457  13.165 -0.1962 -1.1522 -0.5787
 9122SOL     OW39001   0.787   2.135   2.905 -0.2479  0.0939  0.0603
 9122SOL    HW139002   0.773   2.125   3.000 -1.4946  3.1120  0.2000
 9122SOL    HW239003   0.697   2.133   2.872 -0.0469 -2.2849 -0.3219
 9123SOL     OW39004   1.023   2.126   5.296 -0.1199 -0.0904  0.5296
 9123SOL    HW139005   0.939   2.082   5.285 -0.0311  0.0378 -0.7265
 9123SOL    HW239006   1.081   2.065   5.249  0.7898  0.0587  1.4656
 9124SOL     OW39007   4.575   1.083  15.436 -0.7356  0.1965 -0.6227
 9124SOL    HW139008   4.578   1.178  15.431  1.9653  0.0962 -0.9450
 9124SOL    HW239009   4.612   1.073  15.348  0.5030 -1.1195  0.0358
 9125SOL     OW39010   2.287   0.290   3.496 -0.4122 -0.4376 -0.2480
 9125SOL    HW139011   2.321   0.379   3.491  0.5998 -0.8173 -0.1216
 9125SOL    HW239012   2.224   0.307   3.565 -0.4424  1.8087 -0.8324
 9126SOL     OW39013   2.684   4.093   7.467  0.5194  0.2431  0.2841
 9126SOL    HW139014   2.739   4.030   7.420 -2.3499 -2.3869  0.4010
 9126SOL    HW239015   2.604   4.079   7.417  0.4379 -0.5595  0.6235
 9127SOL     OW39016   2.434   3.479   2.510  0.5258 -0.4573 -0.6401
 9127SOL    HW139017   2.514   3.505   2.464  0.3186 -0.0964 -0.8005
 9127SOL    HW239018   2.468   3.392   2.530  1.8137 -0.0414 -1.0098
 9128SOL     OW39019   2.975   0.102   8.176  0.1058  0.0270 -0.6245
 9128SOL    HW139020   2.954   0.022   8.223 -1.5442  0.8977  0.1187
 9128SOL    HW239021   2.915   0.093   8.101 -0.1851 -1.2340 -0.2328
 9129SOL     OW39022   4.077   2.570   7.178  0.3583 -0.5439  0.0902
 9129SOL    HW139023   4.041   2.543   7.093 -1.4991  0.4516  0.5618
 9129SOL    HW239024   4.165   2.595   7.151  0.7057 -1.7558  0.0785
 9130SOL     OW39025   3.808   4.419   8.423  0.1848  0.5662  0.0251
 9130SOL    HW139026   3.805   4.437   8.517 -1.9582 -1.4702  0.3505
 9130SOL    HW239027   3.855   4.336   8.434  1.3340  1.2068 -0.0285
 9131SOL     OW39028   0.844   2.035   3.509  0.0272  0.3581 -0.7261
 9131SOL    HW139029   0.883   2.095   3.447  1.2224 -0.6914 -0.9995
 9131SOL    HW239030   0.762   2.073   3.542  0.5815  1.5158 -0.6909
 9132SOL     OW39031   4.055   2.288  14.005 -0.0212  0.1304 -0.2222
 9132SOL    HW139032   4.022   2.364  13.957  2.2195  0.8637 -0.6168
 9132SOL    HW239033   4.131   2.274  13.949  0.2601  0.0084  0.1922
 9133SOL     OW39034   3.882   0.798   3.076 -0.0583 -0.0512 -0.6415
 9133SOL    HW139035   3.862   0.704   3.070 -1.4111  0.0988  1.2839
 9133SOL    HW239036   3.799   0.845   3.079 -1.5083 -2.6912  1.1866
 9134SOL     OW39037   2.901   1.045  10.598  0.3978 -0.3815  0.2211
 9134SOL    HW139038   2.992   1.074  10.604 -0.0996  1.0045  1.1648
 9134SOL    HW239039   2.897   0.997  10.515 -0.9542 -0.7294  0.4882
 9135SOL     OW39040   4.314   4.729   1.472 -0.2542  0.0961 -0.4439
 9135SOL    HW139041   4.306   0.076   1.520 -2.9715 -0.4400  0.0673
 9135SOL    HW239042   4.313   0.023   1.381 -5.0531  0.9363 -0.1253
 9136SOL     OW39043   0.664   0.747   2.381  0.0601  0.3163 -0.2885
 9136SOL    HW139044   0.720   0.757   2.457  2.2064  1.8220 -2.0733
 9136SOL    HW239045   0.711   0.798   2.315  1.1084 -0.3093 -0.0231
 9137SOL     OW39046   3.106   2.220   8.868  0.4879  0.1579  0.0466
 9137SOL    HW139047   3.137   2.239   8.779  1.2326 -1.0256  0.0614
 9137SOL    HW239048   3.185   2.201   8.918  0.7505  1.3850  0.1057
 9138SOL     OW39049   1.178   2.929   1.445  0.4398 -0.7400  0.1988
 9138SOL    HW139050   1.197   2.987   1.519  1.2874  0.5231 -0.9836
 9138SOL    HW239051   1.184   2.842   1.485 -1.3407 -1.3073 -0.7859
 9139SOL     OW39052   2.976   4.015  12.000 -0.1893 -0.1022  0.1156
 9139SOL    HW139053   3.006   4.079  12.064  1.7929  1.0204 -1.9289
 9139SOL    HW239054   2.982   3.932  12.046 -0.3045 -0.8488 -1.2060
 9140SOL     OW39055   4.097   1.902   9.112 -0.1519 -0.2843 -0.5295
 9140SOL    HW139056   4.101   1.989   9.152  1.9649 -0.3794 -0.5044
 9140SOL    HW239057   4.162   1.849   9.159  0.7611  0.9940 -0.3547
 9141SOL     OW39058   2.421   0.543   6.236 -0.3165  0.2142  0.5609
 9141SOL    HW139059   2.344   0.505   6.193  0.3221  1.7030 -1.9142
 9141SOL    HW239060   2.485   0.473   6.242  1.1852  1.4719 -0.7424
 9142SOL     OW39061   2.964   4.602  13.024  0.5813  0.3538  0.3056
 9142SOL    HW139062   2.958   4.695  13.003 -0.7682  0.3778  0.7857
 9142SOL    HW239063   2.875   4.592  13.057  0.8295  1.1104  1.2223
 9143SOL     OW39064   0.149   0.357   9.723 -0.3643 -0.0454  0.0024
 9143SOL    HW139065   0.126   0.267   9.745 -2.0953  0.3159 -0.3663
 9143SOL    HW239066   0.148   0.346   9.628 -2.5406 -0.8335  0.1063
 9144SOL     OW39067   1.127   1.616   8.159  0.4195  0.0150 -0.0742
 9144SOL    HW139068   1.131   1.585   8.249  0.9924 -2.7906 -1.0479
 9144SOL    HW239069   1.078   1.542   8.123 -1.1950  0.9781  0.1925
 9145SOL     OW39070   2.955   2.094   6.939  0.1797 -0.1276 -0.3532
 9145SOL    HW139071   2.872   2.084   6.985 -0.6584  1.9435 -1.4203
 9145SOL    HW239072   2.920   2.119   6.853 -2.6990  0.5003  1.0183
 9146SOL     OW39073   3.374   2.773   0.053 -0.0753 -0.0856  0.5335
 9146SOL    HW139074   3.292   2.823   0.046 -0.4361 -1.0721 -2.1720
 9146SOL    HW239075   3.377   2.709  17.724  1.9835  1.2570 -0.5775
 9147SOL     OW39076   2.517   0.431  14.580  0.1056  0.7825 -0.6952
 9147SOL    HW139077   2.468   0.445  14.499 -0.2503  4.0134  0.0772
 9147SOL    HW239078   2.526   0.338  14.558 -0.2341  0.8499 -1.1309
 9148SOL     OW39079   1.444   0.416  12.209 -0.4459 -0.1775  0.1400
 9148SOL    HW139080   1.529   0.449  12.178  0.4039 -1.2770  1.3078
 9148SOL    HW239081   1.391   0.408  12.130  2.3759  0.2946 -1.8176
 9149SOL     OW39082   2.961   0.231   9.759  0.1151  0.0949 -0.1947
 9149SOL    HW139083   3.050   0.259   9.736 -0.0817  0.8127 -0.0792
 9149SOL    HW239084   2.934   0.180   9.683  2.0732 -0.2954 -0.6375
 9150SOL     OW39085   3.567   2.989   1.682 -0.3556  0.4149 -0.3499
 9150SOL    HW139086   3.550   3.020   1.593 -1.5511 -0.1555 -0.3142
 9150SOL    HW239087   3.619   2.910   1.664 -2.1111 -0.5829 -1.0388
 9151SOL     OW39088   4.661   0.277  14.424  0.0979 -0.3488 -0.0746
 9151SOL    HW139089   4.689   0.187  14.439 -0.7746 -0.7516 -0.8405
 9151SOL    HW239090   4.641   0.276  14.330  0.9240 -1.0484 -0.2369
 9152SOL     OW39091   0.754   2.356   8.224 -0.1795 -0.4266 -0.4276
 9152SOL    HW139092   0.714   2.276   8.260  1.0416  0.3898  2.7611
 9152SOL    HW239093   0.803   2.387   8.301  1.5041 -1.7865 -0.9373
 9153SOL     OW39094   2.704   0.378   2.916  0.3888  0.4977  0.3571
 9153SOL    HW139095   2.650   0.363   2.993 -0.9417  1.4449 -0.3900
 9153SOL    HW239096   2.698   0.286   2.892 -1.4100  0.8784 -0.6726
 9154SOL     OW39097   2.246   0.540   5.611 -0.6049  0.1214 -0.0570
 9154SOL    HW139098   2.255   0.448   5.585  0.0724  0.5127 -1.2249
 9154SOL    HW239099   2.178   0.568   5.550 -0.7032  2.1003  0.9776
 9155SOL     OW39100   0.949   1.147   9.713  0.1288 -0.2763 -0.2884
 9155SOL    HW139101   0.892   1.090   9.764 -0.8700 -0.0876 -1.1943
 9155SOL    HW239102   0.947   1.221   9.773 -1.5913  0.4563 -1.2311
 9156SOL     OW39103   3.497   1.500   1.965 -0.7734  0.4917  0.7122
 9156SOL    HW139104   3.515   1.507   1.871 -1.3490  0.4020  0.5943
 9156SOL    HW239105   3.555   1.428   1.987 -1.0497  0.6703  2.0374
 9157SOL     OW39106   0.729   2.394   4.064 -0.0149 -0.5564  0.0664
 9157SOL    HW139107   0.654   2.335   4.058  0.3739 -1.0636  0.1893
 9157SOL    HW239108   0.782   2.349   4.130  0.8688  1.0387  0.4547
 9158SOL     OW39109   0.831   0.607   6.549 -0.3239 -0.8476  0.2693
 9158SOL    HW139110   0.747   0.638   6.515 -1.1690 -1.7800  1.5283
 9158SOL    HW239111   0.887   0.665   6.497 -1.4828 -0.2362 -0.3121
 9159SOL     OW39112   2.095   2.006   5.017 -0.2367  0.8161 -0.0207
 9159SOL    HW139113   2.064   1.947   5.086  0.9714  0.1767 -0.0225
 9159SOL    HW239114   2.049   1.970   4.941  1.6522  1.3524 -1.4187
 9160SOL     OW39115   3.206   3.546   2.153 -0.5005 -0.0411 -0.0337
 9160SOL    HW139116   3.225   3.476   2.091  2.1517  0.4540  0.2234
 9160SOL    HW239117   3.226   3.499   2.234  1.1425 -1.7422 -1.4129
 9161SOL     OW39118   0.193   3.960   5.382 -0.5568 -0.4106  0.0239
 9161SOL    HW139119   0.187   3.977   5.476  1.8337 -0.1536  0.1180
 9161SOL    HW239120   0.120   3.904   5.355  0.6275 -2.9772  2.2025
 9162SOL     OW39121   0.274   1.454   4.869  0.2131 -0.0734 -1.0431
 9162SOL    HW139122   0.327   1.437   4.947  1.1034 -1.7222 -2.0105
 9162SOL    HW239123   0.271   1.365   4.834  0.9460 -0.8976  0.9988
 9163SOL     OW39124   1.208   1.807   7.450 -0.2964  0.1210 -0.1130
 9163SOL    HW139125   1.220   1.890   7.497 -0.6409 -1.3327  2.5333
 9163SOL    HW239126   1.140   1.833   7.388 -1.1182  0.7051  1.0282
 9164SOL     OW39127   0.102   2.644   0.644  0.2904  0.4155  0.3711
 9164SOL    HW139128   0.012   2.615   0.630  0.3095  1.1370 -1.2235
 9164SOL    HW239129   0.129   2.581   0.712  1.7705  0.0013 -0.5882
 9165SOL     OW39130   0.311   2.983   8.284  0.9320  0.8072 -0.2613
 9165SOL    HW139131   0.291   2.972   8.377 -0.4384  0.8442 -0.5567
 9165SOL    HW239132   0.265   3.065   8.264  0.0362  0.5237  0.6662
 9166SOL     OW39133   2.554   2.467  12.873  0.3720  0.3178 -0.1899
 9166SOL    HW139134   2.503   2.525  12.817 -1.5152  1.3510  2.6062
 9166SOL    HW239135   2.550   2.387  12.820 -0.2160  0.6541 -0.6454
 9167SOL     OW39136   1.415   1.758   3.998  0.0298 -0.8418  0.3966
 9167SOL    HW139137   1.346   1.805   3.953  0.7440 -0.1115  0.0635
 9167SOL    HW239138   1.365   1.714   4.067 -3.1216 -0.6093 -1.7547
 9168SOL     OW39139   4.247   2.346  17.726  0.3877 -0.4783  0.0642
 9168SOL    HW139140   4.323   2.290  17.707  0.6568 -0.3529  0.7779
 9168SOL    HW239141   4.294   2.426  17.704 -0.3761  0.7420  2.9152
 9169SOL     OW39142   2.290   2.341   3.242  0.1791 -0.3192 -0.7115
 9169SOL    HW139143   2.228   2.268   3.251 -1.0696  1.1822  2.7556
 9169SOL    HW239144   2.267   2.413   3.301 -0.2841 -1.2843  0.2989
 9170SOL     OW39145   3.089   2.328   3.332 -0.3238 -0.3492  0.1562
 9170SOL    HW139146   3.122   2.389   3.266  2.5422 -2.5895 -0.4600
 9170SOL    HW239147   3.120   2.372   3.411 -1.7488 -0.5654  0.8441
 9171SOL     OW39148   0.572   0.303   2.826  0.0468 -0.3708 -0.2023
 9171SOL    HW139149   0.636   0.248   2.781  0.8684  1.8208 -1.7235
 9171SOL    HW239150   0.586   0.391   2.789 -0.3936 -1.3956 -2.8557
 9172SOL     OW39151   4.568   0.859  11.034 -0.0553 -0.2274 -0.0883
 9172SOL    HW139152   4.660   0.850  11.061 -0.1003  2.0442  0.8244
 9172SOL    HW239153   4.576   0.908  10.952  0.6040  2.1186  1.3632
 9173SOL     OW39154   1.932   3.635   7.452 -0.3169 -0.1185  0.4024
 9173SOL    HW139155   1.902   3.644   7.361 -4.0400 -1.5742  1.5032
 9173SOL    HW239156   1.852   3.605   7.494 -1.6840  1.5815 -0.9256
 9174SOL     OW39157   2.198   0.528   9.264 -0.2368  0.0774  0.0102
 9174SOL    HW139158   2.227   0.553   9.176  0.1568 -0.6682 -0.0706
 9174SOL    HW239159   2.109   0.503   9.242 -0.0051  0.5450 -1.4745
 9175SOL     OW39160   4.059   0.307   5.053 -0.4273  0.0600  0.5481
 9175SOL    HW139161   4.119   0.243   5.016  0.8760  2.2795 -1.2032
 9175SOL    HW239162   4.114   0.323   5.130  0.0949 -0.6317  0.3090
 9176SOL     OW39163   4.303   2.167   3.587  0.0321 -0.0007 -0.2514
 9176SOL    HW139164   4.254   2.200   3.511  0.8117  0.7956 -0.4017
 9176SOL    HW239165   4.298   2.241   3.648  0.8416  0.4899 -0.7849
 9177SOL     OW39166   2.037   0.873   7.163 -0.2907  0.1012  0.3257
 9177SOL    HW139167   2.123   0.852   7.199  0.7834  0.6891 -1.8779
 9177SOL    HW239168   1.984   0.875   7.242 -1.4407  2.7555 -0.5092
 9178SOL     OW39169   0.548   3.258   5.894  0.2076 -0.0930  0.1811
 9178SOL    HW139170   0.569   3.325   5.829  0.3259  0.7520  1.0720
 9178SOL    HW239171   0.500   3.304   5.964 -1.1052 -1.0604 -0.0886
 9179SOL     OW39172   3.393   2.702   8.224 -0.1476  0.5491 -0.2981
 9179SOL    HW139173   3.346   2.735   8.300  0.0432  1.3247 -0.5088
 9179SOL    HW239174   3.390   2.771   8.156 -1.1870  1.6178  0.8444
 9180SOL     OW39175   4.272   1.406  15.334 -0.0251  0.0095 -0.2747
 9180SOL    HW139176   4.355   1.359  15.321  0.7035  1.0771  0.5046
 9180SOL    HW239177   4.215   1.332  15.356 -0.7371  0.5058 -0.4532
 9181SOL     OW39178   2.817   1.980   0.130  0.2037  0.1921  0.2623
 9181SOL    HW139179   2.895   2.028   0.102  0.0981  0.1887 -0.0447
 9181SOL    HW239180   2.770   1.984   0.047  1.0373 -0.7139 -0.2565
 9182SOL     OW39181   0.992   2.747   4.040 -0.1553  0.3841 -0.5576
 9182SOL    HW139182   0.902   2.736   4.009 -0.5675  2.3698 -0.0905
 9182SOL    HW239183   0.996   2.842   4.053 -0.8805  0.2868  0.4680
 9183SOL     OW39184   2.679   3.880   1.998 -0.1543  0.2637  0.2465
 9183SOL    HW139185   2.766   3.839   1.995  0.9414  2.8073 -2.8620
 9183SOL    HW239186   2.698   3.958   2.049  1.0048 -0.2227  0.5531
 9184SOL     OW39187   1.067   0.666   7.092 -0.6855 -0.9296 -0.0895
 9184SOL    HW139188   1.114   0.710   7.164 -0.4428  0.3718 -1.0350
 9184SOL    HW239189   1.096   0.576   7.105  2.9633  0.1561 -0.6262
 9185SOL     OW39190   0.095   1.747   5.470  0.5862 -0.2947 -0.1119
 9185SOL    HW139191   0.119   1.691   5.543  2.0758  1.3779  0.6830
 9185SOL    HW239192   0.084   1.829   5.518  1.7974  1.1259 -2.2225
 9186SOL     OW39193   3.395   1.417   6.706  0.1240  0.0660 -0.4089
 9186SOL    HW139194   3.325   1.369   6.750  1.4482  0.0481  1.6222
 9186SOL    HW239195   3.374   1.397   6.614  0.7098 -0.8576 -0.3401
 9187SOL     OW39196   4.717   1.849   8.422  0.9163  0.4977  0.2002
 9187SOL    HW139197   0.054   1.867   8.482  0.6858 -0.7676  0.8739
 9187SOL    HW239198   4.692   1.940   8.407 -1.0666  0.0854  0.9410
 9188SOL     OW39199   1.605   0.384   8.233  0.1001 -0.2297  0.9416
 9188SOL    HW139200   1.664   0.323   8.276 -2.3727 -0.9961  3.2643
 9188SOL    HW239201   1.648   0.467   8.250  0.5436  0.3144 -2.8545
 9189SOL     OW39202   1.395   0.553  17.647  0.0735  0.4087  0.5115
 9189SOL    HW139203   1.360   0.571  17.559  1.6943 -1.3976 -0.5087
 9189SOL    HW239204   1.487   0.561  17.621  0.9081 -2.5151  2.7017
 9190SOL     OW39205   1.081   4.627   0.621  0.0648  0.1198 -0.0145
 9190SOL    HW139206   1.051   4.658   0.535 -0.6964 -0.6044 -0.0067
 9190SOL    HW239207   1.147   4.691   0.648  0.1310 -0.0687  0.2703
 9191SOL     OW39208   2.729   0.877   2.031 -0.0878 -0.1596 -0.4986
 9191SOL    HW139209   2.724   0.822   2.109 -1.7630 -1.1126 -1.2673
 9191SOL    HW239210   2.721   0.967   2.062 -1.2827 -0.4651  0.0775
 9192SOL     OW39211   0.076   2.307   6.247  0.1758 -0.1641 -1.1171
 9192SOL    HW139212   0.090   2.402   6.251 -2.6398  0.1528  1.2994
 9192SOL    HW239213   4.719   2.297   6.267 -0.1526 -0.9569 -3.0778
 9193SOL     OW39214   2.193   0.148  14.662 -0.5006 -0.0431  0.6497
 9193SOL    HW139215   2.171   0.100  14.582 -0.0171  2.1617 -0.8212
 9193SOL    HW239216   2.192   0.073  14.722  0.0548 -0.5093  0.0684
 9194SOL     OW39217   3.410   2.616   1.479  0.3137 -0.2299  0.1619
 9194SOL    HW139218   3.366   2.549   1.531 -0.0023 -1.0873 -1.2241
 9194SOL    HW239219   3.372   2.598   1.393 -0.0407 -1.0262  0.4810
 9195SOL     OW39220   3.559   2.346   7.320 -0.3626 -0.0953 -0.1028
 9195SOL    HW139221   3.639   2.317   7.365 -1.0295 -0.8151  0.6053
 9195SOL    HW239222   3.499   2.273   7.330  2.1517 -2.2712 -0.7708
 9196SOL     OW39223   3.509   2.788   7.842  0.5272  0.5550  0.3896
 9196SOL    HW139224   3.580   2.802   7.781 -0.1472  1.1945 -0.2497
 9196SOL    HW239225   3.495   2.876   7.876 -2.7278 -0.1046  0.8356
 9197SOL     OW39226   4.338   3.418   8.796  0.0534  0.8940 -0.0695
 9197SOL    HW139227   4.337   3.337   8.745 -2.2922  1.0818 -0.3144
 9197SOL    HW239228   4.383   3.384   8.873  2.3794  0.9267 -1.3878
 9198SOL     OW39229   2.815   0.577   2.026  0.4395  0.1699 -0.5440
 9198SOL    HW139230   2.773   0.519   1.963 -2.3613  1.6327 -0.0063
 9198SOL    HW239231   2.911   0.570   2.025  0.4344 -0.2455  1.6543
 9199SOL     OW39232   4.421   3.465  11.083  0.8320 -0.9308 -0.2041
 9199SOL    HW139233   4.513   3.446  11.066 -0.1568 -3.3770 -2.8414
 9199SOL    HW239234   4.392   3.447  10.994  0.3228 -0.4482 -0.1352
 9200SOL     OW39235   0.842   0.490   0.637  0.6100  0.0247  0.3023
 9200SOL    HW139236   0.801   0.545   0.703  0.4805  0.6297 -0.2818
 9200SOL    HW239237   0.898   0.560   0.603  1.7846 -2.1111 -2.0958
 9201SOL     OW39238   2.907   2.706  16.478 -0.2080  0.1228  0.0061
 9201SOL    HW139239   2.907   2.801  16.464 -0.4932  0.0192 -0.6723
 9201SOL    HW239240   2.976   2.688  16.542 -0.8107 -0.8345  0.3943
 9202SOL     OW39241   2.853   2.161   4.266  0.5318 -0.0236 -0.3671
 9202SOL    HW139242   2.867   2.085   4.322 -0.4926  0.3109  0.3473
 9202SOL    HW239243   2.774   2.198   4.306 -0.7046 -1.0056 -1.8679
 9203SOL     OW39244   2.227   1.395  16.991  0.5598 -0.0503  0.1243
 9203SOL    HW139245   2.291   1.344  16.941  0.0843 -0.4442 -0.0828
 9203SOL    HW239246   2.229   1.478  16.944  2.1631 -0.8312 -1.1826
 9204SOL     OW39247   1.050   4.577   1.948  0.3625  0.1496  0.7973
 9204SOL    HW139248   1.126   4.604   1.999 -0.4849  0.4993  1.8844
 9204SOL    HW239249   0.968   4.588   1.997 -0.4382  1.1170 -0.7198
 9205SOL     OW39250   0.795   3.225  10.810  0.0145 -0.7835  0.0789
 9205SOL    HW139251   0.873   3.267  10.774 -0.0294 -0.4434  0.3853
 9205SOL    HW239252   0.816   3.131  10.808 -0.4684 -0.8669 -1.0920
 9206SOL     OW39253   3.747   2.497   6.782  0.5061 -0.2629 -0.0345
 9206SOL    HW139254   3.796   2.451   6.850  0.5536  1.7070  1.2323
 9206SOL    HW239255   3.692   2.432   6.738 -0.3238  1.1771 -1.1202
 9207SOL     OW39256   3.038   4.032  11.537  0.0214  0.0252  0.1469
 9207SOL    HW139257   3.039   4.101  11.603  0.0519 -0.5606  0.7621
 9207SOL    HW239258   3.002   4.066  11.455 -0.9581 -1.0651  0.1259
 9208SOL     OW39259   2.416   1.438   3.603  0.2040  0.7510 -0.3969
 9208SOL    HW139260   2.466   1.378   3.548 -0.6509  1.0032 -1.4526
 9208SOL    HW239261   2.450   1.517   3.561 -3.6902  1.7556 -1.7071
 9209SOL     OW39262   2.617   4.111   8.876  0.3202  0.0439 -0.1323
 9209SOL    HW139263   2.673   4.046   8.918 -0.2438 -1.0680 -1.0883
 9209SOL    HW239264   2.537   4.063   8.856 -0.2152  1.2365 -0.8171
 9210SOL     OW39265   4.155   0.155   7.266 -0.1408 -0.1441  0.3071
 9210SOL    HW139266   4.244   0.166   7.300  0.0853  0.9773 -0.6290
 9210SOL    HW239267   4.147   0.229   7.205  1.4632  0.7684  1.2149
 9211SOL     OW39268   2.813   4.471   4.712  0.1818  0.1688  0.0739
 9211SOL    HW139269   2.853   4.400   4.762  0.8585 -0.0431 -0.7693
 9211SOL    HW239270   2.865   4.550   4.725  0.6097 -0.2585  0.9909
 9212SOL     OW39271   4.210   1.194   7.264 -0.4107  0.7288 -0.7198
 9212SOL    HW139272   4.159   1.170   7.342 -2.3890  2.9237 -1.3354
 9212SOL    HW239273   4.240   1.110   7.230  1.8935  1.8129 -1.3369
 9213SOL     OW39274   0.574   3.081   7.727  0.4145 -0.5286  0.4332
 9213SOL    HW139275   0.621   3.017   7.780  1.3770 -0.9634 -0.9416
 9213SOL    HW239276   0.509   3.119   7.787  0.0926 -0.5207  0.0813
 9214SOL     OW39277   2.954   4.229   7.139  0.5100 -0.5316  0.0505
 9214SOL    HW139278   2.943   4.262   7.049 -1.3161 -2.8036 -0.5704
 9214SOL    HW239279   3.031   4.274   7.173  1.1993 -0.2873 -1.8180
 9215SOL     OW39280   2.213   2.570  13.659  0.4343 -0.0170 -0.8403
 9215SOL    HW139281   2.266   2.632  13.610  0.9391 -0.0824 -0.3762
 9215SOL    HW239282   2.172   2.622  13.729  1.1429 -1.5064  0.6905
 9216SOL     OW39283   0.460   1.283   6.252  0.3442  0.3799  0.6021
 9216SOL    HW139284   0.479   1.337   6.328 -0.0769  0.3155  0.7529
 9216SOL    HW239285   0.376   1.313   6.215  1.6511  1.9331 -1.1451
 9217SOL     OW39286   1.971   1.821   1.992 -0.1901  0.0368 -0.0952
 9217SOL    HW139287   2.007   1.856   1.910  0.8844 -2.8338 -0.8410
 9217SOL    HW239288   1.881   1.852   1.983  0.8960  2.4096 -2.8585
 9218SOL     OW39289   1.400   1.235  13.088  0.1387  0.4054  0.3184
 9218SOL    HW139290   1.309   1.263  13.078  0.3736  0.6579 -1.0612
 9218SOL    HW239291   1.387   1.178  13.164 -2.8271  0.1269 -0.3915
 9219SOL     OW39292   4.555   4.379  11.771 -0.0176  0.5269  0.4025
 9219SOL    HW139293   4.574   4.412  11.684  0.3261  0.2963  0.3923
 9219SOL    HW239294   4.464   4.405  11.786 -0.0064 -0.1461  1.6676
 9220SOL     OW39295   2.866   4.395   8.337 -0.6659 -0.0335  0.2342
 9220SOL    HW139296   2.810   4.323   8.307 -0.1097 -1.4742  2.7145
 9220SOL    HW239297   2.939   4.355   8.384  0.3134 -0.0273 -1.2913
 9221SOL     OW39298   0.265   2.606  14.687  0.3160  0.1411  0.1030
 9221SOL    HW139299   0.314   2.570  14.761  1.0537  0.3119 -0.2964
 9221SOL    HW239300   0.331   2.611  14.618 -1.0533  1.4257 -1.1307
 9222SOL     OW39301   2.345   3.383   0.075  0.0198 -0.1049  0.2358
 9222SOL    HW139302   2.330   3.317   0.143  2.0825 -0.1796  0.6286
 9222SOL    HW239303   2.413   3.345   0.020 -0.8256  2.2362 -2.4609
 9223SOL     OW39304   3.396   1.514   7.993 -0.6110  0.6260  0.3259
 9223SOL    HW139305   3.362   1.438   7.946 -2.2454  2.3168 -1.2747
 9223SOL    HW239306   3.320   1.535   8.048 -1.7509 -0.6739 -0.7501
 9224SOL     OW39307   0.069   4.484  16.513  0.3107  0.3465  0.0583
 9224SOL    HW139308   0.018   4.407  16.488  0.7854 -0.1630  0.6522
 9224SOL    HW239309   0.011   4.553  16.481 -0.7049  0.3100  1.8371
 9225SOL     OW39310   0.412   0.269   6.051  0.2179  0.0810  0.2027
 9225SOL    HW139311   0.489   0.228   6.090 -0.3561 -1.1951 -0.0109
 9225SOL    HW239312   0.415   0.346   6.108 -1.3442 -0.4666  1.0177
 9226SOL     OW39313   3.953   0.762   6.805  0.4600  0.4405 -0.0852
 9226SOL    HW139314   3.931   0.752   6.712  0.1657 -0.4838  0.0810
 9226SOL    HW239315   4.028   0.817   6.786  1.8540 -1.0902  0.9710
 9227SOL     OW39316   1.483   2.905  16.149  0.1150 -0.1126  0.1322
 9227SOL    HW139317   1.538   2.926  16.073 -1.3642  0.3402 -0.8142
 9227SOL    HW239318   1.546   2.853  16.198 -2.4799  1.5552  5.3145
 9228SOL     OW39319   4.136   3.917  11.042 -0.3750  0.0450  0.2409
 9228SOL    HW139320   4.150   4.011  11.050 -0.9422  0.3950 -2.6749
 9228SOL    HW239321   4.218   3.887  11.081 -0.5065  0.8054  1.0852
 9229SOL     OW39322   3.367   2.589  17.585 -0.4231  0.2679 -0.1560
 9229SOL    HW139323   3.353   2.505  17.629  0.5230  0.5779  0.7474
 9229SOL    HW239324   3.304   2.574  17.515  1.7968  0.1761 -2.1186
 9230SOL     OW39325   3.634   0.405  12.909 -0.9973 -0.1115  0.3571
 9230SOL    HW139326   3.659   0.473  12.846  1.2581  1.3175  2.7643
 9230SOL    HW239327   3.563   0.361  12.861  1.2572 -2.7312 -0.6101
 9231SOL     OW39328   2.241   0.174   5.926  0.6860  0.5626 -0.1949
 9231SOL    HW139329   2.210   0.144   6.012  1.3211  0.0908 -0.1268
 9231SOL    HW239330   2.255   0.097   5.871 -0.9416  0.2624 -0.1804
 9232SOL     OW39331   4.145   1.432  13.460 -0.2463  0.2045  0.1522
 9232SOL    HW139332   4.169   1.486  13.384  0.5304 -0.2304  0.0856
 9232SOL    HW239333   4.078   1.493  13.489 -1.4458 -0.3770 -1.3656
 9233SOL     OW39334   3.855   0.884   3.463  0.8151 -0.1031 -0.4579
 9233SOL    HW139335   3.789   0.938   3.420  2.4288  0.8216 -1.8150
 9233SOL    HW239336   3.814   0.854   3.543  1.8242 -1.1182 -0.3233
 9234SOL     OW39337   2.863   1.580   2.329 -0.1125  0.8438 -0.0615
 9234SOL    HW139338   2.767   1.582   2.323 -0.0372  1.3396 -1.0877
 9234SOL    HW239339   2.874   1.485   2.333 -2.0418  0.6451  0.6782
 9235SOL     OW39340   2.541   2.694   7.859 -0.1795 -0.1110  0.0443
 9235SOL    HW139341   2.520   2.708   7.767 -0.3407 -1.4814 -0.1240
 9235SOL    HW239342   2.621   2.744   7.876 -1.1716  1.5468 -0.1198
 9236SOL     OW39343   0.153   2.843   3.383 -0.4667  0.1707  0.1292
 9236SOL    HW139344   0.095   2.827   3.458  1.1103 -1.1176  1.0599
 9236SOL    HW239345   0.224   2.794   3.424 -1.0620 -0.5310  0.3271
 9237SOL     OW39346   2.520   2.798   7.617 -0.2446 -0.2321  0.1304
 9237SOL    HW139347   2.603   2.772   7.578 -0.0293  0.5706  0.0610
 9237SOL    HW239348   2.541   2.892   7.618  0.5636 -0.3935 -1.4900
 9238SOL     OW39349   1.934   2.249  15.528 -0.3419 -0.1873  0.7410
 9238SOL    HW139350   1.981   2.252  15.445 -2.0561 -0.8458 -0.2383
 9238SOL    HW239351   1.967   2.170  15.571  0.3622 -0.4360 -0.2545
 9239SOL     OW39352   2.268   2.707   1.993 -0.1729 -0.4543  0.3215
 9239SOL    HW139353   2.193   2.662   1.954 -1.3657  0.2678  1.8020
 9239SOL    HW239354   2.340   2.647   1.972  1.5947  2.0589 -0.8091
 9240SOL     OW39355   1.834   0.956   8.832 -0.2505 -0.4878 -0.0795
 9240SOL    HW139356   1.793   0.954   8.746  0.7736  2.3447 -0.6416
 9240SOL    HW239357   1.890   0.881   8.849  0.3130  0.2403  1.2662
 9241SOL     OW39358   3.896   0.230   3.656  0.2928  0.3701  0.2040
 9241SOL    HW139359   3.912   0.207   3.565 -1.6968  0.0607 -0.0744
 9241SOL    HW239360   3.808   0.193   3.666 -0.9282  2.9081 -1.2919
 9242SOL     OW39361   4.179   1.552  15.127 -0.1988  0.4354 -0.5387
 9242SOL    HW139362   4.210   1.487  15.190  1.9015  0.8285 -1.1917
 9242SOL    HW239363   4.122   1.606  15.182  1.8628  1.3282  0.7183
 9243SOL     OW39364   2.537   4.187   3.953 -0.3875  0.2399  0.0457
 9243SOL    HW139365   2.561   4.244   4.026 -1.2826  0.0502  0.5031
 9243SOL    HW239366   2.470   4.132   3.994  1.8725 -0.6346  2.5916
 9244SOL     OW39367   2.042   0.339   2.757  0.4698  0.0642 -0.5456
 9244SOL    HW139368   2.045   0.243   2.762 -0.5217  0.0614  0.1397
 9244SOL    HW239369   1.992   0.352   2.677  1.6043  2.3361 -0.8898
 9245SOL     OW39370   3.005   0.339   7.312 -0.0694  0.7417  0.3837
 9245SOL    HW139371   2.960   0.279   7.371  0.3345 -0.7303 -0.8009
 9245SOL    HW239372   2.946   0.345   7.237 -3.1176 -2.0730  2.5886
 9246SOL     OW39373   1.625   3.532  13.581  0.1765 -0.0841  0.2167
 9246SOL    HW139374   1.611   3.492  13.667 -0.9142  0.1751  0.1565
 9246SOL    HW239375   1.554   3.488  13.535  0.9543 -0.6478 -0.4390
 9247SOL     OW39376   2.534   0.949   8.096 -0.0397 -0.0521 -0.6092
 9247SOL    HW139377   2.619   0.983   8.068 -0.4159  0.4443 -1.1563
 9247SOL    HW239378   2.558   0.861   8.125 -1.1758 -0.2804 -0.3252
 9248SOL     OW39379   2.602   3.443   7.824  0.7076  0.7684 -0.0449
 9248SOL    HW139380   2.590   3.459   7.731  0.4030  1.1418  0.0592
 9248SOL    HW239381   2.589   3.533   7.854  0.1448  0.2959  1.1481
 9249SOL     OW39382   2.536   3.606   7.204  0.0330 -0.5201 -0.4349
 9249SOL    HW139383   2.503   3.694   7.223  0.6094  0.0678 -2.1875
 9249SOL    HW239384   2.628   3.632   7.198 -0.2375  0.9819  2.0464
 9250SOL     OW39385   2.438   1.520   6.197  0.5579  0.6248 -0.3009
 9250SOL    HW139386   2.476   1.506   6.284  2.4460  0.1067 -1.2081
 9250SOL    HW239387   2.355   1.472   6.201  0.4887  0.7229 -0.5434
 9251SOL     OW39388   2.061   0.094   3.772  0.4287  0.8442 -0.3861
 9251SOL    HW139389   1.970   0.072   3.753  0.0274  0.8273  1.6080
 9251SOL    HW239390   2.055   0.176   3.821  1.2054  0.7691 -0.1606
 9252SOL     OW39391   3.656   1.050   2.101  0.0260 -0.6153  0.1200
 9252SOL    HW139392   3.595   1.109   2.058  0.6247 -0.9736 -1.2485
 9252SOL    HW239393   3.657   0.973   2.044  2.2675 -0.5257  0.0227
 9253SOL     OW39394   0.306   4.168   4.554  0.0305 -0.6933 -0.1294
 9253SOL    HW139395   0.312   4.073   4.547  1.9604 -0.6772  1.1907
 9253SOL    HW239396   0.319   4.195   4.463 -1.7265 -0.1405 -0.2069
 9254SOL     OW39397   2.767   0.801   6.194  0.2669 -0.8366 -0.1810
 9254SOL    HW139398   2.722   0.850   6.125  0.5229 -0.8214 -0.3412
 9254SOL    HW239399   2.830   0.867   6.223  0.9167 -1.9317  0.8706
 9255SOL     OW39400   0.324   4.422   4.114  0.6806  0.1559 -0.0958
 9255SOL    HW139401   0.333   4.508   4.072  1.4707  0.4181  0.5960
 9255SOL    HW239402   0.239   4.394   4.081  0.2303 -1.4327  2.4098
 9256SOL     OW39403   0.503   0.778  14.015 -0.1836  0.3989 -0.3769
 9256SOL    HW139404   0.415   0.742  14.026 -0.4171  0.9285 -0.4878
 9256SOL    HW239405   0.498   0.837  14.090 -1.1739 -1.6622  1.1588
 9257SOL     OW39406   1.686   3.806   8.280  0.3047 -0.2145  0.4624
 9257SOL    HW139407   1.732   3.834   8.359  0.2457 -2.0628  1.1760
 9257SOL    HW239408   1.657   3.889   8.244  1.0324 -0.3607 -0.4438
 9258SOL     OW39409   2.897   4.649   8.953 -0.2120  0.2055  0.0717
 9258SOL    HW139410   2.990   4.672   8.943 -0.1834 -0.5073 -1.2654
 9258SOL    HW239411   2.861   4.687   8.873 -2.0456  0.3739  0.9770
 9259SOL     OW39412   1.494   3.130  15.963 -0.6278  0.2730  0.6286
 9259SOL    HW139413   1.453   3.193  15.904 -0.3432 -1.2324 -1.1782
 9259SOL    HW239414   1.540   3.075  15.900 -0.5106 -0.8616  1.7020
 9260SOL     OW39415   3.645   0.733  15.043 -0.5341 -0.2770 -0.1997
 9260SOL    HW139416   3.606   0.777  14.968  0.3740 -1.5021 -1.3920
 9260SOL    HW239417   3.572   0.721  15.103 -0.7325 -2.3922 -0.8503
 9261SOL     OW39418   3.618   1.623   2.995  0.1012  0.3090 -0.1451
 9261SOL    HW139419   3.523   1.631   3.005  0.0161 -1.8560  0.8636
 9261SOL    HW239420   3.634   1.530   2.977  1.9342  0.3812  1.0745
 9262SOL     OW39421   0.541   1.379   9.139  0.2830  0.4291 -0.4105
 9262SOL    HW139422   0.479   1.396   9.068  0.0529 -1.1448 -0.5711
 9262SOL    HW239423   0.502   1.309   9.191 -1.5576  0.8597 -1.1900
 9263SOL     OW39424   2.380   2.487   7.951 -0.4979  0.1586  0.4723
 9263SOL    HW139425   2.398   2.575   7.917 -1.8316  0.2140 -0.0941
 9263SOL    HW239426   2.308   2.501   8.013 -0.9498  1.8207 -0.4258
 9264SOL     OW39427   4.097   1.593  12.033 -0.3865  0.0108 -0.3210
 9264SOL    HW139428   4.161   1.523  12.022 -0.5189 -0.4432  1.9254
 9264SOL    HW239429   4.038   1.572  11.960 -2.4051  1.5905  0.8375
 9265SOL     OW39430   0.603   0.254   4.654  0.8916  0.2216 -0.1655
 9265SOL    HW139431   0.574   0.215   4.572  1.6290 -0.7855  0.0481
 9265SOL    HW239432   0.663   0.324   4.628  0.2907  1.5015  1.9053
 9266SOL     OW39433   3.231   2.635   7.535 -0.1164  0.2029 -0.1364
 9266SOL    HW139434   3.300   2.576   7.566 -1.4621 -1.1211  0.3918
 9266SOL    HW239435   3.214   2.687   7.613 -1.1314 -1.8723  1.0459
 9267SOL     OW39436   2.566   1.344  11.376 -0.5074 -0.0527 -0.2453
 9267SOL    HW139437   2.506   1.329  11.450 -0.3009 -0.6972 -0.2113
 9267SOL    HW239438   2.647   1.322  11.421 -0.1539  2.6258  0.4514
 9268SOL     OW39439   1.406   4.304  13.284  0.3554 -0.9001 -0.3246
 9268SOL    HW139440   1.344   4.277  13.351  3.3544 -0.7684  2.5427
 9268SOL    HW239441   1.469   4.358  13.332  0.0324  0.0482 -0.9786
 9269SOL     OW39442   2.273   2.568  16.027 -0.4645 -0.3136 -0.1725
 9269SOL    HW139443   2.307   2.647  15.984 -2.3503 -0.3252 -1.7212
 9269SOL    HW239444   2.328   2.563  16.105 -1.6593 -1.1847  0.6219
 9270SOL     OW39445   1.970   0.986  14.680  0.4325  0.0965 -0.2183
 9270SOL    HW139446   1.988   0.928  14.754 -1.0586  0.3985  0.3820
 9270SOL    HW239447   1.957   1.070  14.724  0.9417  0.1892 -0.2447
 9271SOL     OW39448   2.980   2.569  16.896  0.9385 -0.8471  0.8686
 9271SOL    HW139449   3.001   2.526  16.813  2.7087 -0.9457  1.3509
 9271SOL    HW239450   2.956   2.656  16.864  1.7703 -0.7252  0.5719
 9272SOL     OW39451   0.947   4.062   6.807 -0.4684 -0.5709  0.3328
 9272SOL    HW139452   0.970   3.975   6.841 -1.8711 -0.1028  2.4758
 9272SOL    HW239453   1.012   4.118   6.849  0.6636 -0.1100 -2.1024
 9273SOL     OW39454   2.006   2.300   6.363 -0.3873 -0.4536  0.1013
 9273SOL    HW139455   2.000   2.300   6.268 -0.2429 -0.0125  0.0899
 9273SOL    HW239456   2.018   2.210   6.392  1.2628 -0.4806 -0.6206
 9274SOL     OW39457   1.529   3.229  11.860  0.6118 -0.4113 -0.0807
 9274SOL    HW139458   1.447   3.272  11.881  0.9019 -0.8552  1.9388
 9274SOL    HW239459   1.540   3.199  11.950 -1.3106 -0.9998 -0.0586
 9275SOL     OW39460   1.248   1.416   7.591 -0.7659  0.5309 -0.3744
 9275SOL    HW139461   1.203   1.449   7.513  0.7428  2.3992 -0.4627
 9275SOL    HW239462   1.258   1.497   7.640  0.3039  0.1968 -0.0510
 9276SOL     OW39463   0.807   1.339   1.905 -1.1026  0.2610 -0.5183
 9276SOL    HW139464   0.772   1.257   1.939  1.0319 -1.5704 -2.7154
 9276SOL    HW239465   0.891   1.305   1.876 -1.2088 -0.1863 -0.3034
 9277SOL     OW39466   4.276   2.012   9.461 -0.4227 -0.5761  0.6919
 9277SOL    HW139467   4.286   1.929   9.414 -0.3462 -1.1485  1.7273
 9277SOL    HW239468   4.368   2.036   9.473 -0.7182  0.3737  1.0795
 9278SOL     OW39469   0.668   1.628   4.647  0.4837 -0.3563 -0.4054
 9278SOL    HW139470   0.651   1.597   4.736 -1.0732  0.4014 -0.4321
 9278SOL    HW239471   0.710   1.551   4.609  0.6862 -0.1995 -0.4991
 9279SOL     OW39472   2.053   4.087   2.842 -0.5740  0.3247 -0.2694
 9279SOL    HW139473   2.008   4.156   2.891  0.0285 -0.2173  1.0435
 9279SOL    HW239474   2.011   4.008   2.878  0.2840 -0.5436 -1.1780
 9280SOL     OW39475   0.873   0.424   8.585  0.0746 -0.6751  0.8902
 9280SOL    HW139476   0.887   0.442   8.678 -0.8779  1.9606  0.5352
 9280SOL    HW239477   0.780   0.403   8.594 -0.3907  0.6562 -0.7834
 9281SOL     OW39478   1.464   2.604   1.750  0.0427 -0.4026  0.1879
 9281SOL    HW139479   1.557   2.616   1.731  0.0335  0.6159  0.8025
 9281SOL    HW239480   1.427   2.656   1.678 -0.4143  2.2168  2.3328
 9282SOL     OW39481   2.836   0.771   2.627  0.1311  0.4301 -0.3016
 9282SOL    HW139482   2.845   0.718   2.707 -0.5882  0.2125 -0.3636
 9282SOL    HW239483   2.894   0.715   2.575  0.3675  0.6754 -0.3007
 9283SOL     OW39484   2.754   1.763   9.950  0.3115  0.3443  0.3654
 9283SOL    HW139485   2.713   1.686   9.990 -0.2033  0.1591 -0.5227
 9283SOL    HW239486   2.682   1.820   9.979 -0.2760 -0.3582  0.2752
 9284SOL     OW39487   0.114   2.524   5.952 -0.5792 -0.0106  0.6276
 9284SOL    HW139488   0.149   2.570   5.875  3.0059 -0.8983  1.7648
 9284SOL    HW239489   0.110   2.430   5.934  0.8548  0.1509 -0.5663
 9285SOL     OW39490   3.679   2.407   9.683 -0.4890 -0.5346 -0.5596
 9285SOL    HW139491   3.664   2.315   9.662 -0.1158 -1.0011  1.2246
 9285SOL    HW239492   3.608   2.413   9.747  0.1637 -2.5247  0.3790
 9286SOL     OW39493   0.246   2.633   2.581 -0.2809  0.7523  0.3892
 9286SOL    HW139494   0.333   2.598   2.558  0.3530  0.8553  2.6764
 9286SOL    HW239495   0.233   2.586   2.663 -0.4200  1.3705  0.7226
 9287SOL     OW39496   1.982   1.761   3.226 -0.0462 -0.0794 -0.8058
 9287SOL    HW139497   2.001   1.730   3.138  0.1544  0.1761 -0.8532
 9287SOL    HW239498   1.904   1.810   3.201 -0.4889  0.9576  2.5324
 9288SOL     OW39499   2.878   4.600  10.123 -0.0835 -1.2657  0.3560
 9288SOL    HW139500   2.819   4.576  10.195 -0.8291 -0.7583 -0.0847
 9288SOL    HW239501   2.849   4.528  10.065  0.1420 -0.1167 -1.1821
 9289SOL     OW39502   1.701   1.354   8.001 -0.3496  0.0835  0.0321
 9289SOL    HW139503   1.640   1.284   7.979 -1.0690 -0.0894  2.6158
 9289SOL    HW239504   1.654   1.421   7.950  2.7264  1.1077 -1.4661
 9290SOL     OW39505   2.446   4.293  17.660 -0.3763 -0.1329 -0.1870
 9290SOL    HW139506   2.477   4.378  17.691 -1.1743  0.3622 -0.7631
 9290SOL    HW239507   2.503   4.231  17.706 -0.1141 -0.2118 -0.6182
 9291SOL     OW39508   2.299   1.625  15.324 -0.1335  0.6035  0.2513
 9291SOL    HW139509   2.365   1.688  15.352  2.6951 -2.0576 -0.4750
 9291SOL    HW239510   2.307   1.629  15.229  2.6258 -2.2556  0.3741
 9292SOL     OW39511   0.474   1.487   5.682  0.3547  0.8769 -0.0135
 9292SOL    HW139512   0.498   1.451   5.597  2.9244  1.6632  0.3691
 9292SOL    HW239513   0.519   1.572   5.672  2.2613 -0.0336  0.7073
 9293SOL     OW39514   1.766   2.805   6.444  0.3064  0.7363 -0.2715
 9293SOL    HW139515   1.763   2.732   6.382  0.9460  1.2577 -0.9241
 9293SOL    HW239516   1.800   2.866   6.378  1.5683  0.9182  0.5322
 9294SOL     OW39517   2.122   1.835   2.734 -0.4866 -0.4610 -0.3862
 9294SOL    HW139518   2.118   1.861   2.826  2.7676 -0.1916 -0.3275
 9294SOL    HW239519   2.093   1.908   2.679  0.7224  2.9226  3.5193
 9295SOL     OW39520   0.819   1.089   7.814  0.1024  0.0868  0.3955
 9295SOL    HW139521   0.805   1.074   7.907  3.6960  0.2122  0.9422
 9295SOL    HW239522   0.757   1.031   7.769 -0.0096  1.4225 -1.1902
 9296SOL     OW39523   1.116   3.386   7.264  0.0031  0.3139  0.3078
 9296SOL    HW139524   1.152   3.298   7.256 -0.6995 -0.1275  1.9212
 9296SOL    HW239525   1.166   3.418   7.339  1.3201  0.3054 -0.5635
 9297SOL     OW39526   1.916   1.400   4.299  0.5916  0.4027  0.9161
 9297SOL    HW139527   1.874   1.414   4.384  0.4722  1.4037  0.6845
 9297SOL    HW239528   1.840   1.426   4.247 -0.7375 -3.4927  0.9123
 9298SOL     OW39529   1.843   2.243  15.952  0.3061 -0.1585 -0.4818
 9298SOL    HW139530   1.871   2.154  15.974 -0.3421  0.0066  0.9775
 9298SOL    HW239531   1.913   2.305  15.972  1.2739 -1.0947 -0.8818
 9299SOL     OW39532   1.032   0.228  11.548  0.0909 -0.3313  0.1529
 9299SOL    HW139533   1.084   0.156  11.512 -0.3861  0.4964 -2.1527
 9299SOL    HW239534   1.041   0.210  11.642 -0.9367 -1.0165  0.1150
 9300SOL     OW39535   3.508   0.094   3.878  0.4717  0.0463 -0.1356
 9300SOL    HW139536   3.427   0.128   3.916 -0.3436  0.4480 -2.2847
 9300SOL    HW239537   3.488   0.008   3.843 -0.2272  1.4422 -3.1714
 9301SOL     OW39538   1.144   1.099  16.849  1.0076  0.5600 -0.0454
 9301SOL    HW139539   1.152   1.037  16.921 -1.4165 -0.9172 -1.0352
 9301SOL    HW239540   1.070   1.155  16.873  1.7593  1.4291  0.2635
 9302SOL     OW39541   0.882   1.528   2.525  0.0832 -0.6279 -0.7190
 9302SOL    HW139542   0.966   1.525   2.479  2.1347 -1.0762  3.0757
 9302SOL    HW239543   0.903   1.496   2.613  0.5889 -0.8563 -0.9207
 9303SOL     OW39544   1.363   2.216  17.257 -0.3477  0.1990 -0.8822
 9303SOL    HW139545   1.386   2.210  17.349  0.3969 -0.0372 -1.0890
 9303SOL    HW239546   1.283   2.164  17.266 -0.4332  0.8948  2.2859
 9304SOL     OW39547   1.511   0.478   7.399  0.2920 -0.1927 -0.7034
 9304SOL    HW139548   1.518   0.504   7.491  0.6967 -1.6078 -0.3358
 9304SOL    HW239549   1.458   0.549   7.363  0.6728 -0.0508 -0.9801
 9305SOL     OW39550   4.165   1.131  15.822  0.2845  0.3344 -0.4729
 9305SOL    HW139551   4.194   1.053  15.869 -0.8856  0.3164  0.2297
 9305SOL    HW239552   4.181   1.195  15.891 -2.5873  1.2489 -0.6427
 9306SOL     OW39553   2.445   0.926  15.703 -0.0521  0.5957  0.3646
 9306SOL    HW139554   2.456   0.943  15.797  2.2977  0.4614  0.0992
 9306SOL    HW239555   2.466   1.008  15.659  0.4468 -0.2186 -0.8896
 9307SOL     OW39556   1.343   0.581  17.160  0.6627 -0.3368  0.0091
 9307SOL    HW139557   1.256   0.617  17.142  0.2066 -1.0533  0.7847
 9307SOL    HW239558   1.336   0.503  17.105  0.8130 -0.1798 -0.2320
 9308SOL     OW39559   0.741   2.876   8.804 -0.4150  0.1542 -0.3430
 9308SOL    HW139560   0.830   2.905   8.787 -0.5876  0.7598 -0.2137
 9308SOL    HW239561   0.723   2.925   8.884  1.4114 -0.4025  0.4020
 9309SOL     OW39562   1.042   3.259   2.172  0.0676  0.2420 -1.0800
 9309SOL    HW139563   0.966   3.296   2.127 -0.5550 -0.1071 -0.3117
 9309SOL    HW239564   1.085   3.207   2.104  0.9008 -0.2981 -0.1393
 9310SOL     OW39565   1.301   0.208   2.364  0.3018 -0.1528 -0.0582
 9310SOL    HW139566   1.266   0.273   2.425  1.7020 -1.1641  1.8230
 9310SOL    HW239567   1.367   0.166   2.419  0.5128 -1.6450 -1.4470
 9311SOL     OW39568   3.488   4.590   6.981  0.2061 -0.4907 -0.0270
 9311SOL    HW139569   3.518   4.552   6.898  0.2649  2.1170 -1.1819
 9311SOL    HW239570   3.432   4.659   6.947  1.9130 -0.2803 -2.4545
 9312SOL     OW39571   4.354   2.026   5.154 -0.1904 -0.3380  0.2991
 9312SOL    HW139572   4.357   1.956   5.219 -1.4823  0.2205  0.9558
 9312SOL    HW239573   4.418   2.083   5.196 -0.3235  0.0442 -0.0189
 9313SOL     OW39574   3.556   2.278   9.299  0.6508  0.6476 -0.1057
 9313SOL    HW139575   3.520   2.220   9.231  0.7091  0.7412 -0.2174
 9313SOL    HW239576   3.496   2.272   9.373 -2.3675  0.3869 -2.5526
 9314SOL     OW39577   3.758   1.762   1.886 -0.1057 -0.0384  0.2757
 9314SOL    HW139578   3.736   1.850   1.854  1.2214  0.1114 -0.2214
 9314SOL    HW239579   3.844   1.755   1.846 -0.1031  2.7204 -0.1919
 9315SOL     OW39580   3.404   1.597   4.573 -0.2563 -0.6591  0.1530
 9315SOL    HW139581   3.317   1.616   4.538 -0.8906 -0.6082  1.7877
 9315SOL    HW239582   3.397   1.647   4.655  1.9338  1.6074 -1.0257
 9316SOL     OW39583   4.204   1.461   7.211  0.0398 -0.3097  0.4016
 9316SOL    HW139584   4.175   1.372   7.232  0.2281 -0.3281  0.5825
 9316SOL    HW239585   4.128   1.498   7.167  1.0026  2.5880  1.2044
 9317SOL     OW39586   2.910   4.503   6.355 -0.4545  0.4342 -0.3528
 9317SOL    HW139587   2.856   4.427   6.378  0.3844  0.2839  1.1857
 9317SOL    HW239588   2.849   4.543   6.294  0.5583  2.0817 -0.2961
 9318SOL     OW39589   2.084   0.290  13.726 -0.0127  0.4654 -0.1061
 9318SOL    HW139590   2.074   0.267  13.633 -1.7994 -1.0195  0.4429
 9318SOL    HW239591   2.177   0.273  13.738  0.0712  0.7769 -0.2969
 9319SOL     OW39592   0.815   1.557   5.992  0.0433  0.0170 -0.5573
 9319SOL    HW139593   0.880   1.555   6.062 -1.2442  1.1191  0.6523
 9319SOL    HW239594   0.745   1.503   6.028 -0.0076 -0.6295 -1.6381
 9320SOL     OW39595   0.604   0.679  16.742  0.9103 -0.0279 -0.1748
 9320SOL    HW139596   0.677   0.734  16.770  0.2366  1.2582 -0.9386
 9320SOL    HW239597   0.568   0.743  16.681 -0.5971 -0.8124 -0.1145
 9321SOL     OW39598   2.596   0.963   8.954  0.2239  0.1086 -0.6697
 9321SOL    HW139599   2.591   0.889   9.015  1.0691 -0.4775 -1.3112
 9321SOL    HW239600   2.617   0.918   8.872  1.8446  1.6739 -1.1270
 9322SOL     OW39601   0.048   1.584   1.326  0.3741  0.0323 -0.0131
 9322SOL    HW139602   0.108   1.554   1.257  1.6848  1.8078  0.3645
 9322SOL    HW239603   0.061   1.678   1.327 -3.6331  0.6104 -0.7942
 9323SOL     OW39604   0.826   2.711   6.286  0.0411 -0.6375  0.2387
 9323SOL    HW139605   0.917   2.686   6.269  0.3477  1.5771 -1.5090
 9323SOL    HW239606   0.835   2.798   6.246  2.8629 -1.2047 -0.4199
 9324SOL     OW39607   1.648   0.164  11.592 -0.2269 -0.0622 -0.0750
 9324SOL    HW139608   1.588   0.108  11.641 -0.7435  1.2033  0.7440
 9324SOL    HW239609   1.616   0.154  11.502  2.0895 -1.5242 -0.7200
 9325SOL     OW39610   1.073   3.998   4.224  0.1301  0.1647  0.5733
 9325SOL    HW139611   1.099   4.086   4.198 -3.5719  1.4717  1.4443
 9325SOL    HW239612   1.112   3.994   4.312  0.1848 -2.6687  0.4299
 9326SOL     OW39613   1.563   1.756   3.382 -0.1728  0.5726  0.7304
 9326SOL    HW139614   1.573   1.676   3.433  1.3179 -0.2679 -0.8648
 9326SOL    HW239615   1.624   1.726   3.314 -0.1787  2.1248  0.0324
 9327SOL     OW39616   3.623   4.513  10.677 -0.3900  0.4662  0.2112
 9327SOL    HW139617   3.675   4.584  10.716  1.0606 -0.4383 -0.1083
 9327SOL    HW239618   3.687   4.491  10.611  2.3097  0.7017  2.7583
 9328SOL     OW39619   2.308   0.037  14.947 -0.3997  0.0019  0.1112
 9328SOL    HW139620   2.387   4.733  14.910 -2.0214 -3.4906  0.3297
 9328SOL    HW239621   2.295   4.707  15.016  0.2650 -0.9271 -0.6543
 9329SOL     OW39622   4.116   0.453   7.173 -0.2268  0.4850  0.8449
 9329SOL    HW139623   4.188   0.431   7.114 -0.7879  1.3095 -0.1354
 9329SOL    HW239624   4.043   0.401   7.139 -1.0859  2.0985  0.2473
 9330SOL     OW39625   3.937   2.429  15.018  0.0069  0.6192  0.2040
 9330SOL    HW139626   3.993   2.491  15.064 -1.5603  0.8644  1.7870
 9330SOL    HW239627   3.967   2.350  15.062 -2.3982 -0.2922  0.2579
 9331SOL     OW39628   0.371   2.658  10.688 -0.0213  1.2293  0.0833
 9331SOL    HW139629   0.381   2.631  10.779 -3.1538  3.2546  1.0358
 9331SOL    HW239630   0.350   2.751  10.700  0.7486  1.6831 -2.2132
 9332SOL     OW39631   0.971   3.154  16.466  0.4775 -0.8284 -0.7158
 9332SOL    HW139632   1.012   3.120  16.545  1.0439  0.1436 -0.5936
 9332SOL    HW239633   0.932   3.237  16.491  1.5412 -0.9327  1.3145
 9333SOL     OW39634   2.057   0.879   0.664 -0.5856  0.4578  0.3172
 9333SOL    HW139635   2.023   0.907   0.749 -0.2043  0.8970  0.3259
 9333SOL    HW239636   1.970   0.861   0.627 -0.9896 -1.4156  2.1726
 9334SOL     OW39637   1.789   3.252  15.894 -0.1637  0.5208 -0.4686
 9334SOL    HW139638   1.861   3.254  15.957  0.1158  2.4690 -0.8562
 9334SOL    HW239639   1.808   3.171  15.847  2.3684  1.6052 -1.3087
 9335SOL     OW39640   1.755   3.667   1.890 -0.0186 -0.0106  0.2581
 9335SOL    HW139641   1.712   3.587   1.921  2.3073 -1.8299 -1.2414
 9335SOL    HW239642   1.801   3.686   1.972 -1.0411 -1.0804  1.0756
 9336SOL     OW39643   0.591   4.548   8.207 -0.4914 -0.1533  0.0314
 9336SOL    HW139644   0.530   4.535   8.279 -0.1774 -0.7943  0.1906
 9336SOL    HW239645   0.633   4.632   8.224  2.7390 -1.2605 -2.4749
 9337SOL     OW39646   4.314   4.085  12.725 -0.2789 -0.4731 -0.0022
 9337SOL    HW139647   4.279   4.026  12.658 -1.7495  0.1177  0.2435
 9337SOL    HW239648   4.385   4.128  12.677  0.1102 -2.4355 -1.1775
 9338SOL     OW39649   1.168   1.799   6.852  0.3991 -0.1487  0.3507
 9338SOL    HW139650   1.078   1.803   6.886  0.6103  0.9555  0.7596
 9338SOL    HW239651   1.210   1.760   6.928  1.9898  2.3519  0.7163
 9339SOL     OW39652   1.487   0.299   1.300 -0.1772 -0.0476 -0.5665
 9339SOL    HW139653   1.412   0.298   1.360 -1.4442  0.1040 -2.1497
 9339SOL    HW239654   1.516   0.208   1.295  0.6568  0.2686 -1.3833
 9340SOL     OW39655   2.297   4.696   0.877  0.6179  0.0628 -0.0993
 9340SOL    HW139656   2.382   4.653   0.867 -0.3400 -1.7326 -0.7576
 9340SOL    HW239657   2.269   4.706   0.786  0.3841 -0.1484 -0.0539
 9341SOL     OW39658   2.185   4.249   5.726  0.3988 -0.1289  0.1043
 9341SOL    HW139659   2.214   4.202   5.647 -0.6380 -0.2411 -0.2025
 9341SOL    HW239660   2.154   4.332   5.691 -3.9163 -1.7810  0.0591
 9342SOL     OW39661   1.341   1.320   3.511  0.4158 -0.0954 -0.0019
 9342SOL    HW139662   1.391   1.253   3.558  1.2952  1.3969  1.1816
 9342SOL    HW239663   1.412   1.372   3.473  0.0696 -0.3569 -1.0137
 9343SOL     OW39664   2.016   0.786   1.221  0.1780 -0.3711 -0.5271
 9343SOL    HW139665   2.071   0.764   1.146  1.6488 -0.2963  0.5177
 9343SOL    HW239666   1.937   0.735   1.209 -1.4494  3.0167 -4.3002
 9344SOL     OW39667   4.210   0.249   3.678 -0.7440  0.3136  0.4835
 9344SOL    HW139668   4.137   0.291   3.722 -1.1532  1.2631 -1.1171
 9344SOL    HW239669   4.231   0.306   3.605  0.1577 -1.0513 -0.3231
 9345SOL     OW39670   2.068   1.229   6.108  0.2497  0.5316 -0.0226
 9345SOL    HW139671   2.064   1.319   6.075 -0.3928 -0.5397 -2.8124
 9345SOL    HW239672   2.025   1.182   6.037 -0.5406  1.3126 -0.0586
 9346SOL     OW39673   4.515   2.496   8.377  0.2163 -0.3298  0.5531
 9346SOL    HW139674   4.606   2.490   8.348  0.7057  0.1817  1.9627
 9346SOL    HW239675   4.522   2.475   8.471 -1.7840 -1.8463  0.3887
 9347SOL     OW39676   1.367   0.699   0.348  0.2128 -0.5710  0.0789
 9347SOL    HW139677   1.336   0.610   0.364  0.2130 -0.8408 -1.4596
 9347SOL    HW239678   1.328   0.716   0.262  0.6720 -1.2453 -0.2559
 9348SOL     OW39679   1.197   0.835   6.049 -0.1698  0.4061  0.1012
 9348SOL    HW139680   1.134   0.853   6.119  0.2968  1.3082  0.2885
 9348SOL    HW239681   1.231   0.922   6.028  0.8256 -0.1864 -0.7305
 9349SOL     OW39682   1.830   0.548   1.500  0.6124 -0.0838 -0.9901
 9349SOL    HW139683   1.750   0.522   1.545  1.2827 -1.4863 -0.5882
 9349SOL    HW239684   1.808   0.548   1.407  0.5747 -2.1711 -0.9732
 9350SOL     OW39685   1.051   3.891   0.547 -0.8001 -0.5383  0.1491
 9350SOL    HW139686   1.098   3.838   0.612  0.2479 -1.6593 -1.5326
 9350SOL    HW239687   0.987   3.943   0.595 -0.0165 -0.9249  1.6071
 9351SOL     OW39688   2.329   1.955  10.347  0.0871  0.2473 -0.1771
 9351SOL    HW139689   2.304   1.872  10.388  0.9280 -1.1463 -2.4800
 9351SOL    HW239690   2.248   1.978  10.302 -0.9642 -1.7633  0.6839
 9352SOL     OW39691   0.522   1.079   4.227 -0.1353 -0.5387 -0.5003
 9352SOL    HW139692   0.508   0.985   4.239 -2.4747  0.1173  1.9494
 9352SOL    HW239693   0.451   1.108   4.171 -0.8566  1.3129  1.4164
 9353SOL     OW39694   1.311   4.411  12.280  0.2262 -0.1441  0.6397
 9353SOL    HW139695   1.279   4.341  12.222 -2.4168  1.1029  0.6181
 9353SOL    HW239696   1.352   4.362  12.352  0.0894  1.7679  2.0265
 9354SOL     OW39697   4.307   2.595   0.291  0.6341 -0.3815 -0.0135
 9354SOL    HW139698   4.238   2.641   0.244  1.0980 -0.8555 -1.1610
 9354SOL    HW239699   4.335   2.540   0.218  1.6137  0.2161 -0.0819
 9355SOL     OW39700   3.456   2.122  11.461 -0.2283  0.2233 -0.0733
 9355SOL    HW139701   3.504   2.179  11.520 -1.5746 -0.6718  1.8779
 9355SOL    HW239702   3.368   2.113  11.496  0.2322  0.5834  1.1593
 9356SOL     OW39703   4.105   3.040   5.314  0.4075 -0.3341  0.1942
 9356SOL    HW139704   4.136   3.037   5.224 -0.8994  0.9498 -0.2980
 9356SOL    HW239705   4.025   3.092   5.314  1.6258  1.5019 -1.4511
 9357SOL     OW39706   3.520   2.999   7.467 -0.2573 -0.1258 -0.0469
 9357SOL    HW139707   3.433   2.974   7.498  0.3052 -0.9885  0.8305
 9357SOL    HW239708   3.528   2.919   7.415 -1.7741 -2.0167  2.6307
 9358SOL     OW39709   3.213   0.535   8.413 -0.4535  0.1182  0.2449
 9358SOL    HW139710   3.255   0.496   8.336 -0.7399  2.0842 -0.9267
 9358SOL    HW239711   3.134   0.481   8.416 -0.5185  0.1440 -0.8957
 9359SOL     OW39712   3.214   3.177   4.348 -0.1319  0.0862 -0.3683
 9359SOL    HW139713   3.270   3.151   4.274 -0.9943 -1.9751 -0.2658
 9359SOL    HW239714   3.149   3.228   4.299  0.9428  1.1688 -0.6693
 9360SOL     OW39715   3.402   1.553   9.812 -0.1606  0.3691 -0.3634
 9360SOL    HW139716   3.444   1.638   9.802 -3.5394  2.3334  2.1528
 9360SOL    HW239717   3.354   1.539   9.731  1.6810 -0.7182 -1.2715
 9361SOL     OW39718   1.406   3.007   7.165 -0.2114 -0.2032  0.2791
 9361SOL    HW139719   1.360   3.056   7.097  1.3516  0.2206 -0.4841
 9361SOL    HW239720   1.352   3.023   7.242 -1.1852  1.3466 -0.7319
 9362SOL     OW39721   2.745   2.677  12.846 -0.0646 -0.0227 -0.2232
 9362SOL    HW139722   2.715   2.586  12.844 -0.0588 -0.0215 -0.3307
 9362SOL    HW239723   2.772   2.684  12.755  1.8089  1.7425  0.4758
 9363SOL     OW39724   0.087   0.747   2.743 -0.0327 -0.1820 -0.2615
 9363SOL    HW139725   0.003   0.778   2.709 -0.8262 -2.4948 -0.3739
 9363SOL    HW239726   0.071   0.653   2.753  1.7622 -0.6392 -1.7587
 9364SOL     OW39727   4.088   3.506   7.935 -0.6073 -0.4609  0.4889
 9364SOL    HW139728   4.037   3.463   7.866  1.4126 -0.8780 -0.7718
 9364SOL    HW239729   4.128   3.426   7.970  0.0254 -1.1176 -1.7209
 9365SOL     OW39730   4.373   0.439   1.863 -0.5410 -0.1198  0.4113
 9365SOL    HW139731   4.354   0.532   1.857 -0.2243  0.0741  2.4191
 9365SOL    HW239732   4.465   0.434   1.888 -0.6327 -2.2443  0.3808
 9366SOL     OW39733   1.152   4.705  11.498  0.2766 -0.0754 -0.2749
 9366SOL    HW139734   1.161   4.624  11.447  2.4116  2.0219 -3.1946
 9366SOL    HW239735   1.240   4.707  11.535 -1.2911  1.6450  3.3841
 9367SOL     OW39736   3.762   3.206  17.255  0.6726 -0.1859 -0.4713
 9367SOL    HW139737   3.745   3.171  17.168  1.7213 -1.7149 -0.0595
 9367SOL    HW239738   3.852   3.177  17.272  0.2689 -0.7962  0.6013
 9368SOL     OW39739   0.172   2.362   9.723  0.3824  0.4929  0.1605
 9368SOL    HW139740   0.238   2.309   9.680  1.7994  0.2581  2.6147
 9368SOL    HW239741   0.159   2.300   9.794  2.1142 -1.2508 -1.0699
 9369SOL     OW39742   1.053   1.142   6.455 -0.4701 -0.4325  0.2856
 9369SOL    HW139743   1.083   1.224   6.417 -1.7089 -0.7520 -1.3824
 9369SOL    HW239744   1.013   1.177   6.534 -1.2328  0.0869 -0.3241
 9370SOL     OW39745   1.922   3.555   1.673  0.4742 -0.6896  0.2754
 9370SOL    HW139746   1.986   3.498   1.715  1.4955 -1.0347 -1.7489
 9370SOL    HW239747   1.879   3.601   1.745  2.2056  0.4544  0.6008
 9371SOL     OW39748   4.135   0.590   4.874  0.1294  0.2756 -0.3892
 9371SOL    HW139749   4.199   0.538   4.826  0.5407 -1.1587  1.7212
 9371SOL    HW239750   4.112   0.526   4.941  1.5558 -0.8213 -0.9549
 9372SOL     OW39751   2.230   3.637   0.779 -0.8595 -0.0859  0.4065
 9372SOL    HW139752   2.208   3.546   0.762  0.5339 -0.5072  0.8855
 9372SOL    HW239753   2.165   3.654   0.847  0.0916  1.4439  0.9467
 9373SOL     OW39754   2.646   2.253   2.947  0.2661  0.6417 -0.2505
 9373SOL    HW139755   2.666   2.315   2.877  0.2567  1.6721  0.6518
 9373SOL    HW239756   2.734   2.231   2.977 -1.1550 -3.2104  1.0424
 9374SOL     OW39757   1.486   0.089   2.515  0.1467 -0.0409 -0.3396
 9374SOL    HW139758   1.513   0.026   2.582  0.6171 -0.2721 -0.7386
 9374SOL    HW239759   1.569   0.107   2.469 -0.4896  0.5468 -1.2554
 9375SOL     OW39760   3.247   0.209   8.166 -0.0211 -0.3050 -0.2944
 9375SOL    HW139761   3.306   0.172   8.101  0.7471  0.0499  0.2060
 9375SOL    HW239762   3.167   0.162   8.141 -1.4937  3.0387 -1.9666
 9376SOL     OW39763   3.429   2.913   9.754  0.3056  0.1947 -0.6430
 9376SOL    HW139764   3.458   2.828   9.721  0.3789 -0.8345  2.1031
 9376SOL    HW239765   3.366   2.877   9.816 -0.8570  1.3780 -1.1422
 9377SOL     OW39766   0.581   2.571   7.212  0.2359  0.0543  0.2390
 9377SOL    HW139767   0.491   2.538   7.208 -0.1402  1.0110  0.7045
 9377SOL    HW239768   0.594   2.591   7.120 -0.5778 -0.9150 -0.0900
 9378SOL     OW39769   3.043   2.051   4.785  0.0821 -0.0567 -0.1816
 9378SOL    HW139770   3.135   2.075   4.796  0.0364 -0.3932  0.9123
 9378SOL    HW239771   2.999   2.132   4.761 -1.1444  0.2818  3.2721
 9379SOL     OW39772   3.639   0.931   4.514 -0.1180  0.0191  0.1358
 9379SOL    HW139773   3.699   0.860   4.536  1.2984  2.3304  3.7798
 9379SOL    HW239774   3.697   1.001   4.482  1.0090 -0.8265  0.3424
 9380SOL     OW39775   2.725   0.448   7.294  0.2536  0.0814 -0.0453
 9380SOL    HW139776   2.753   0.538   7.281 -0.0595  0.0194 -1.1412
 9380SOL    HW239777   2.655   0.449   7.359 -0.3166  1.6583 -0.7042
 9381SOL     OW39778   1.790   4.399   5.743 -0.2848  0.3035 -0.3102
 9381SOL    HW139779   1.762   4.338   5.675  2.0104 -2.8344  1.5511
 9381SOL    HW239780   1.726   4.399   5.814 -0.7551  1.0822 -0.7270
 9382SOL     OW39781   4.556   2.690   9.319  0.1353 -0.0141 -0.1535
 9382SOL    HW139782   4.603   2.626   9.265  0.3162 -0.9302  1.0684
 9382SOL    HW239783   4.473   2.643   9.327  0.7075 -1.0585 -0.2075
 9383SOL     OW39784   3.409   0.187   6.183  0.3534  0.2503 -0.2197
 9383SOL    HW139785   3.416   0.202   6.277 -0.7206 -0.0877 -0.0854
 9383SOL    HW239786   3.384   0.273   6.148 -0.4667 -0.4635 -1.3931
 9384SOL     OW39787   2.977   3.800  15.432 -0.0315 -0.0891  0.0523
 9384SOL    HW139788   3.062   3.844  15.430 -1.0500  1.8797  0.2652
 9384SOL    HW239789   3.007   3.722  15.386  1.9876  0.6186  0.1969
 9385SOL     OW39790   0.674   2.839   5.953  0.4783 -0.1820 -0.1812
 9385SOL    HW139791   0.700   2.850   6.044  1.8321  2.5496 -0.9035
 9385SOL    HW239792   0.579   2.848   5.956  0.6540  1.3642  0.5387
 9386SOL     OW39793   3.669   3.964   2.787 -0.3831 -0.2545 -0.3675
 9386SOL    HW139794   3.678   3.890   2.726 -1.1178 -0.5749 -0.0914
 9386SOL    HW239795   3.598   3.934   2.844 -1.2242 -0.6805 -1.6256
 9387SOL     OW39796   4.400   0.440   7.549  0.0340  0.0589  0.0275
 9387SOL    HW139797   4.331   0.493   7.509  0.4592 -0.3933 -1.3057
 9387SOL    HW239798   4.410   0.488   7.631 -5.1027  0.2739  0.5479
 9388SOL     OW39799   4.196   2.818   5.475 -0.3157  0.0904 -0.2047
 9388SOL    HW139800   4.117   2.806   5.527  0.3159 -2.9661  0.0759
 9388SOL    HW239801   4.179   2.894   5.419  0.8472 -0.4014 -1.2215
 9389SOL     OW39802   3.929   4.033   8.450  0.3591 -0.7675  0.3717
 9389SOL    HW139803   3.910   4.044   8.543  1.8219 -1.1549  0.7103
 9389SOL    HW239804   3.922   3.938   8.440 -1.0197 -0.3542 -2.5743
 9390SOL     OW39805   0.232   3.485   0.130  0.3966  0.3488 -0.0025
 9390SOL    HW139806   0.260   3.409   0.181 -1.8981 -0.3557  0.2453
 9390SOL    HW239807   0.227   3.553   0.197 -0.8168  0.3747 -0.1195
 9391SOL     OW39808   3.671   2.417   7.659 -0.2969  0.1822 -0.0144
 9391SOL    HW139809   3.734   2.486   7.681  0.0613 -0.3605  0.6535
 9391SOL    HW239810   3.589   2.463   7.677 -1.8355 -3.3922  2.0972
 9392SOL     OW39811   3.009   1.724  10.664  0.0801 -0.3015 -0.7277
 9392SOL    HW139812   2.989   1.643  10.617  0.6414 -1.6188  1.3054
 9392SOL    HW239813   3.091   1.703  10.710 -0.8337 -1.0508  0.5515
 9393SOL     OW39814   2.947   3.968   3.356 -0.2698  0.0942  0.3410
 9393SOL    HW139815   2.874   3.905   3.355 -0.1607 -0.0025 -1.8265
 9393SOL    HW239816   2.904   4.050   3.332 -2.6992 -2.1190 -2.8945
 9394SOL     OW39817   3.229   4.666   7.252  0.7251  0.2057  0.0202
 9394SOL    HW139818   3.182   4.733   7.203 -0.4415  0.6311  1.7298
 9394SOL    HW239819   3.209   4.690   7.342  1.0783 -0.2632  0.2271
 9395SOL     OW39820   3.007   3.047   6.107  0.7279 -0.3344  0.1879
 9395SOL    HW139821   3.097   3.063   6.135  0.4587 -0.7825  1.3097
 9395SOL    HW239822   2.966   3.133   6.100  0.6370 -0.3861  0.0673
 9396SOL     OW39823   1.581   0.119  12.103  0.6957  0.0213 -0.3075
 9396SOL    HW139824   1.618   0.202  12.073  1.3094  0.0243  0.4633
 9396SOL    HW239825   1.598   0.124  12.197 -3.1472  0.9150  0.3093
 9397SOL     OW39826   0.939   2.962   1.765  0.9327 -0.0754  0.0063
 9397SOL    HW139827   1.013   2.906   1.788  2.6450  2.8136  1.6234
 9397SOL    HW239828   0.862   2.925   1.810 -0.5337  0.0777 -2.3811
 9398SOL     OW39829   1.553   1.269   8.354 -0.1248  0.7437 -0.3187
 9398SOL    HW139830   1.637   1.286   8.311 -0.4571 -0.2387 -1.3846
 9398SOL    HW239831   1.552   1.332   8.426 -1.0572 -0.6188  0.8583
 9399SOL     OW39832   0.588   4.501   7.743  0.3558  0.6694 -0.1721
 9399SOL    HW139833   0.644   4.557   7.688 -0.0072 -0.4596 -1.6983
 9399SOL    HW239834   0.548   4.561   7.806  1.4505  2.4811 -1.1926
 9400SOL     OW39835   0.904   1.471  14.094 -0.1657 -0.2374 -0.4721
 9400SOL    HW139836   0.949   1.421  14.161 -1.6055  0.6812  1.1621
 9400SOL    HW239837   0.818   1.487  14.134 -0.9519 -0.5765 -2.0095
 9401SOL     OW39838   0.752   0.691   0.802  0.3357 -0.3088  0.6301
 9401SOL    HW139839   0.756   0.784   0.824  2.2458 -0.5632  1.3606
 9401SOL    HW239840   0.658   0.681   0.788  0.9917 -1.9641 -2.6448
 9402SOL     OW39841   3.094   3.412   9.245  0.2791 -0.1845 -0.0097
 9402SOL    HW139842   3.011   3.391   9.286 -1.2569  0.4487 -2.8406
 9402SOL    HW239843   3.151   3.396   9.321  2.5293 -0.4748 -1.7705
 9403SOL     OW39844   4.091   0.115   4.284 -0.1319  0.3831  0.1194
 9403SOL    HW139845   4.116   0.185   4.222 -0.3809 -0.3870 -0.8465
 9403SOL    HW239846   4.106   0.149   4.372  0.0156  1.2670 -0.2370
 9404SOL     OW39847   4.587   3.603   6.814 -0.7686 -0.3569  0.0748
 9404SOL    HW139848   4.524   3.548   6.767 -0.7963  0.3763 -0.7477
 9404SOL    HW239849   4.592   3.551   6.894  0.7971  0.1669  0.3043
 9405SOL     OW39850   4.077   3.864  12.268  0.7603  0.1044  0.7360
 9405SOL    HW139851   4.089   3.781  12.315 -0.1371 -0.8139 -0.6367
 9405SOL    HW239852   4.124   3.849  12.186 -0.1718 -0.3817  0.2901
 9406SOL     OW39853   1.052   1.090   7.657 -0.0800 -0.2391 -0.3865
 9406SOL    HW139854   0.968   1.127   7.682 -0.2534  0.1004 -1.4799
 9406SOL    HW239855   1.055   0.999   7.687 -0.1600 -0.7105 -1.8108
 9407SOL     OW39856   2.945   1.226   8.133  0.4156 -0.0391  0.0192
 9407SOL    HW139857   2.963   1.266   8.219 -2.4560 -0.5767  0.8526
 9407SOL    HW239858   2.886   1.154   8.157  1.2664 -1.0803 -0.9907
 9408SOL     OW39859   1.150   2.261   8.859 -0.1427  0.3865  0.7495
 9408SOL    HW139860   1.081   2.283   8.796  0.5433  0.3449 -0.0154
 9408SOL    HW239861   1.089   2.241   8.930  1.5317  1.5372  2.5067
 9409SOL     OW39862   4.446   2.461   7.310 -0.0614  0.1117  0.0998
 9409SOL    HW139863   4.449   2.374   7.271 -3.8443 -0.8278  1.9604
 9409SOL    HW239864   4.535   2.454   7.344 -0.2231 -1.3041  0.2053
 9410SOL     OW39865   3.561   3.957   3.452  0.3344  0.3605 -0.0710
 9410SOL    HW139866   3.542   4.022   3.520  0.5264  1.5829 -1.1932
 9410SOL    HW239867   3.498   3.985   3.386  1.3677  2.1434 -0.2859
 9411SOL     OW39868   1.373   2.397   6.885  0.7416  0.0852  0.6615
 9411SOL    HW139869   1.319   2.465   6.845 -1.9886 -1.4677  1.6193
 9411SOL    HW239870   1.456   2.420   6.845  0.7860 -1.5341 -0.1946
 9412SOL     OW39871   1.291   2.290   6.299 -0.2526 -0.1744 -0.9813
 9412SOL    HW139872   1.224   2.276   6.232 -0.3948 -1.6447 -0.5180
 9412SOL    HW239873   1.250   2.359   6.351 -1.9296 -2.6587  0.9846
 9413SOL     OW39874   3.890   4.464  15.313  0.7719  0.0825 -0.0165
 9413SOL    HW139875   3.981   4.480  15.340  0.4109  0.8508  0.7479
 9413SOL    HW239876   3.869   4.546  15.269  0.7197 -0.1722 -0.4608
 9414SOL     OW39877   0.887   4.333  11.124 -0.2086  0.3898  0.0346
 9414SOL    HW139878   0.947   4.402  11.093  0.6446  0.0196  0.8622
 9414SOL    HW239879   0.832   4.323  11.046  1.5523 -0.5548 -1.0839
 9415SOL     OW39880   1.487   0.406  16.190  0.1600 -0.0435  0.5334
 9415SOL    HW139881   1.470   0.318  16.156  0.1466  0.1868 -0.0648
 9415SOL    HW239882   1.455   0.387  16.278  0.1758  1.4470  0.8691
 9416SOL     OW39883   2.861   3.444   8.884  0.4458 -0.0074 -0.1091
 9416SOL    HW139884   2.791   3.401   8.833  0.4851 -1.8702  1.3896
 9416SOL    HW239885   2.892   3.514   8.827 -0.2318  0.9928  0.7636
 9417SOL     OW39886   2.659   4.180  16.455 -0.1446 -0.0544 -0.3767
 9417SOL    HW139887   2.648   4.153  16.546  0.4496  0.2653 -0.2102
 9417SOL    HW239888   2.566   4.191  16.437 -0.5165  0.9689  2.1666
 9418SOL     OW39889   4.608   0.699  12.520  0.4361 -0.0100  0.3816
 9418SOL    HW139890   4.621   0.668  12.431  0.2161  0.3912  0.2085
 9418SOL    HW239891   4.691   0.747  12.533  1.4077 -1.3369 -0.9138
 9419SOL     OW39892   0.974   3.946   9.430 -0.1584  0.3038  0.1819
 9419SOL    HW139893   0.965   4.031   9.472 -0.1284  2.1998 -3.7471
 9419SOL    HW239894   0.883   3.917   9.435 -0.9796  2.6051 -1.6676
 9420SOL     OW39895   1.221   0.091   5.273 -0.0404 -0.5764 -0.0461
 9420SOL    HW139896   1.134   0.126   5.257  0.4782  1.1321  0.7861
 9420SOL    HW239897   1.207   0.005   5.314  0.4372 -0.8893 -0.5363
 9421SOL     OW39898   4.526   2.954   9.620  0.2171 -0.6511 -0.2342
 9421SOL    HW139899   4.530   2.965   9.525  0.6653 -1.9003 -0.3711
 9421SOL    HW239900   4.478   2.872   9.632 -1.6992  0.5788  0.4557
 9422SOL     OW39901   2.206   4.421   1.789  0.0966 -0.5358 -0.0584
 9422SOL    HW139902   2.287   4.393   1.747 -0.9117 -3.1293 -0.2519
 9422SOL    HW239903   2.210   4.513   1.762  0.2721 -0.5801 -0.1862
 9423SOL     OW39904   0.187   0.445   4.406  0.2871  0.5820  0.0537
 9423SOL    HW139905   0.207   0.492   4.487 -1.0915 -0.7943  1.2004
 9423SOL    HW239906   0.242   0.367   4.413 -0.8143 -0.1156  0.9982
 9424SOL     OW39907   2.251   1.883  10.029  0.1053  0.0865  0.0802
 9424SOL    HW139908   2.180   1.855  10.088  0.3999 -1.7643 -0.4530
 9424SOL    HW239909   2.290   1.798  10.008  2.5472  1.3137 -0.2558
 9425SOL     OW39910   2.725   3.256   4.632  0.2953 -0.3202 -0.0742
 9425SOL    HW139911   2.780   3.293   4.562 -0.4230 -0.7746 -0.8694
 9425SOL    HW239912   2.654   3.316   4.654  0.1584 -1.6206  2.9597
 9426SOL     OW39913   2.603   2.259  16.881  0.2755  0.2564  0.1380
 9426SOL    HW139914   2.645   2.182  16.921  1.2833  0.5701 -0.3119
 9426SOL    HW239915   2.640   2.329  16.934 -0.4049 -0.3154  1.3720
 9427SOL     OW39916   4.084   4.531   2.707  0.2780  0.0124  0.1465
 9427SOL    HW139917   4.123   4.446   2.729 -2.4943 -1.4693 -0.6357
 9427SOL    HW239918   4.029   4.552   2.782  1.1598 -1.0624  1.0811
 9428SOL     OW39919   4.029   0.070  15.109 -0.1144 -0.3397  0.6461
 9428SOL    HW139920   3.940   0.034  15.103 -0.4700  0.5672  0.4743
 9428SOL    HW239921   4.017   0.133  15.179  0.4298  2.6065 -1.9085
 9429SOL     OW39922   0.513   1.271   1.715 -0.0631  0.3165 -0.5107
 9429SOL    HW139923   0.512   1.230   1.628  0.0010  0.9479 -0.8099
 9429SOL    HW239924   0.498   1.192   1.767  2.0370 -0.6650 -1.3943
 9430SOL     OW39925   4.547   1.827   5.526  0.1195 -0.0492 -0.3272
 9430SOL    HW139926   4.490   1.834   5.450  1.4508  2.7172 -1.0516
 9430SOL    HW239927   4.549   1.921   5.546 -1.1212  0.1801 -1.2878
 9431SOL     OW39928   3.208   2.497   3.855 -0.1766  0.3580  0.1414
 9431SOL    HW139929   3.254   2.418   3.882 -0.1941  0.2671 -0.0999
 9431SOL    HW239930   3.119   2.466   3.867  0.1612 -1.5099 -2.1049
 9432SOL     OW39931   1.652   1.021   2.963 -0.0895 -0.9081 -0.0667
 9432SOL    HW139932   1.686   1.088   3.023  1.3504 -2.2345  0.5912
 9432SOL    HW239933   1.732   0.979   2.932 -0.0538 -0.7838 -0.1449
 9433SOL     OW39934   3.239   2.566   4.816  0.4432  0.3183  0.4915
 9433SOL    HW139935   3.328   2.598   4.829  1.3569 -1.3649 -1.5542
 9433SOL    HW239936   3.241   2.517   4.734  2.0667  2.6335 -0.8589
 9434SOL     OW39937   1.152   3.742   8.090  0.7259 -0.2766 -0.2035
 9434SOL    HW139938   1.075   3.756   8.035  0.7070 -0.2933 -0.1816
 9434SOL    HW239939   1.113   3.688   8.159  0.0430  1.7146  0.9849
 9435SOL     OW39940   0.172   2.682  14.179  0.5041 -0.5044 -0.2490
 9435SOL    HW139941   0.095   2.660  14.230 -0.0427 -0.3433 -0.9990
 9435SOL    HW239942   0.148   2.656  14.090 -1.7081 -1.1746  0.5532
 9436SOL     OW39943   2.323   0.425   4.037  0.5950 -0.1840 -0.5850
 9436SOL    HW139944   2.303   0.348   4.091  0.7399 -0.2534 -0.6301
 9436SOL    HW239945   2.390   0.389   3.978  1.7768 -1.9689  1.7813
 9437SOL     OW39946   1.739   0.805   3.579  0.1438  0.1477 -0.1154
 9437SOL    HW139947   1.699   0.879   3.625 -0.9890 -0.0414 -0.7983
 9437SOL    HW239948   1.829   0.838   3.577 -0.4123  1.8693  3.4597
 9438SOL     OW39949   3.358   1.548   5.045  0.0656  0.3318  0.1533
 9438SOL    HW139950   3.263   1.542   5.058 -0.1326 -0.4723 -1.6396
 9438SOL    HW239951   3.373   1.467   4.997  1.9465  0.4127  0.5837
 9439SOL     OW39952   2.801   4.629   4.470 -0.2669 -0.4229  0.0291
 9439SOL    HW139953   2.811   4.664   4.382  0.7801 -2.6367 -0.7137
 9439SOL    HW239954   2.706   4.618   4.474 -0.1346 -1.0701  1.7769
 9440SOL     OW39955   1.379   3.444   2.214 -0.1344  0.5575  0.1055
 9440SOL    HW139956   1.389   3.527   2.261 -1.4950  0.9275 -0.2578
 9440SOL    HW239957   1.308   3.474   2.157 -0.4590 -2.7627 -1.2858
 9441SOL     OW39958   4.603   2.762   0.906 -0.8774 -0.1797 -0.7260
 9441SOL    HW139959   4.640   2.785   0.821  0.7561  0.0125  0.0520
 9441SOL    HW239960   4.632   2.837   0.958 -0.6631  1.2463 -2.8918
 9442SOL     OW39961   0.872   3.455   8.694 -0.8197 -0.1775 -0.6934
 9442SOL    HW139962   0.963   3.471   8.716 -0.8728  0.6633 -1.0981
 9442SOL    HW239963   0.832   3.439   8.779  1.6412 -0.1283  0.4709
 9443SOL     OW39964   0.727   1.037   2.223  0.0115 -0.0104 -0.4485
 9443SOL    HW139965   0.790   1.088   2.273  0.0348 -0.5573  0.0739
 9443SOL    HW239966   0.652   1.095   2.239 -0.8514 -2.0287  2.6829
 9444SOL     OW39967   2.073   1.538   6.072  0.6822 -0.1230  0.2432
 9444SOL    HW139968   2.142   1.599   6.047  1.0436  0.0640  1.6910
 9444SOL    HW239969   2.025   1.517   5.992  3.0887 -0.0875 -1.2005
 9445SOL     OW39970   1.115   1.512  12.648  0.0763  0.2307  0.2775
 9445SOL    HW139971   1.029   1.470  12.651 -0.2718  0.9038 -0.1806
 9445SOL    HW239972   1.118   1.516  12.552  2.2190 -1.0341  0.3014
 9446SOL     OW39973   4.373   3.250   8.451 -0.0232 -0.1071  0.1847
 9446SOL    HW139974   4.290   3.245   8.499  1.0140 -0.1045  1.9956
 9446SOL    HW239975   4.352   3.310   8.379 -1.7367 -0.8875  0.0217
 9447SOL     OW39976   3.451   3.087   8.310  0.6078  0.7162 -0.1481
 9447SOL    HW139977   3.433   2.993   8.302  2.4581  0.3458 -0.0248
 9447SOL    HW239978   3.541   3.076   8.281 -0.3239 -1.4562 -2.2501
 9448SOL     OW39979   0.634   2.560   2.926  0.2584 -0.0587  0.0746
 9448SOL    HW139980   0.646   2.504   2.850 -1.4995  1.0193 -0.9904
 9448SOL    HW239981   0.678   2.644   2.912  0.0825 -0.3723 -2.2795
 9449SOL     OW39982   1.273   4.567  14.043  0.3166 -0.3510 -0.4148
 9449SOL    HW139983   1.245   4.542  13.955 -3.2921  3.5191 -0.3786
 9449SOL    HW239984   1.368   4.570  14.034  0.4232 -0.1799  0.7447
 9450SOL     OW39985   2.656   4.355   6.042 -0.4000 -0.5588 -0.1134
 9450SOL    HW139986   2.589   4.369   5.975 -0.2193  2.1651  0.2921
 9450SOL    HW239987   2.638   4.435   6.092  0.3613 -0.5119  0.0760
 9451SOL     OW39988   3.936   0.754   4.810 -0.6881 -0.2054 -0.3068
 9451SOL    HW139989   4.007   0.692   4.826 -1.0867 -0.4880  0.3898
 9451SOL    HW239990   3.862   0.698   4.785  0.7947 -3.2798  2.2192
 9452SOL     OW39991   1.365   1.385   7.139  0.3480  0.1248  0.1568
 9452SOL    HW139992   1.440   1.432   7.176  0.7227  0.9524 -1.6188
 9452SOL    HW239993   1.356   1.430   7.055 -0.1866  1.4435  0.9134
 9453SOL     OW39994   3.926   4.522   7.113 -0.0529 -0.7020 -0.7634
 9453SOL    HW139995   3.842   4.480   7.130  1.2956 -2.6352  1.1103
 9453SOL    HW239996   3.992   4.457   7.137  0.9244 -0.5353 -2.9662
 9454SOL     OW39997   1.062   1.197   5.911 -0.0112 -0.4102  0.0663
 9454SOL    HW139998   1.045   1.236   5.996  1.0250 -0.9444  0.5262
 9454SOL    HW239999   0.973   1.181   5.881 -0.0528 -1.1782  0.6013
 9455SOL     OW40000   4.535   2.623  17.124 -0.0531 -0.1653  0.2734
 9455SOL    HW140001   4.541   2.532  17.096  0.1097  0.3050 -1.2290
 9455SOL    HW240002   4.567   2.621  17.214  1.0696 -1.7324 -0.1632
 9456SOL     OW40003   1.238   1.731   4.697  0.1751 -0.6571  1.1096
 9456SOL    HW140004   1.251   1.669   4.769  1.2106 -0.6159  0.9647
 9456SOL    HW240005   1.179   1.802   4.722 -0.6597  0.2931 -3.5861
 9457SOL     OW40006   0.300   4.291   2.037 -0.2501 -0.6029 -0.3564
 9457SOL    HW140007   0.310   4.318   2.129 -2.5075  1.2454 -0.6600
 9457SOL    HW240008   0.283   4.197   2.040 -1.6397 -0.2211  3.8657
 9458SOL     OW40009   2.625   1.527  10.081 -0.3209  0.0794 -0.5153
 9458SOL    HW140010   2.673   1.486  10.153 -1.9789 -0.1545  0.4563
 9458SOL    HW240011   2.657   1.464  10.016 -1.7618 -1.5294  0.3285
 9459SOL     OW40012   3.538   3.530   4.234  0.2933 -0.4010 -0.4190
 9459SOL    HW140013   3.577   3.580   4.162  1.6913  1.7503  1.7923
 9459SOL    HW240014   3.444   3.532   4.220  0.6193  0.0290 -2.5818
 9460SOL     OW40015   2.649   2.317   9.560  0.0831 -0.1738  0.2146
 9460SOL    HW140016   2.561   2.316   9.599 -0.8291  2.3916 -1.7231
 9460SOL    HW240017   2.665   2.411   9.553  2.0620 -0.4843  0.6004
 9461SOL     OW40018   3.859   0.378   6.688 -0.7085 -0.3827  0.3507
 9461SOL    HW140019   3.850   0.463   6.732  1.6387 -0.9742  1.9438
 9461SOL    HW240020   3.796   0.323   6.736 -0.2063 -1.1918  0.0754
 9462SOL     OW40021   2.443   0.391   7.777 -0.1186 -0.3383 -0.3468
 9462SOL    HW140022   2.450   0.385   7.872  2.4032  1.2546 -0.4393
 9462SOL    HW240023   2.386   0.467   7.770  0.4285 -0.1053 -2.2412
 9463SOL     OW40024   0.130   1.457   4.450  0.6329 -0.2017  0.2593
 9463SOL    HW140025   0.214   1.503   4.446  1.2988 -1.2350  2.0908
 9463SOL    HW240026   0.080   1.537   4.466 -1.4786 -1.2368 -1.1668
 9464SOL     OW40027   4.526   0.057   2.520  1.0048  0.1550  0.4975
 9464SOL    HW140028   4.441   0.012   2.524  0.3507  1.3214 -0.2137
 9464SOL    HW240029   4.535   0.097   2.607 -2.8658 -0.8964  1.3767
 9465SOL     OW40030   2.368   4.466   9.530 -0.1232 -0.0354  0.4256
 9465SOL    HW140031   2.437   4.530   9.548 -1.8299  1.9663 -0.2364
 9465SOL    HW240032   2.304   4.514   9.478  1.8405  1.5519 -0.5171
 9466SOL     OW40033   1.497   0.821   5.108 -0.4177 -0.8973 -0.6942
 9466SOL    HW140034   1.532   0.738   5.079  0.6203 -0.7883  0.2173
 9466SOL    HW240035   1.402   0.813   5.100 -0.5144 -1.8896  1.5102
 9467SOL     OW40036   2.470   0.644   4.071  0.0214  0.2143 -0.7242
 9467SOL    HW140037   2.448   0.560   4.110 -0.1263  1.0670  1.0017
 9467SOL    HW240038   2.389   0.695   4.066  0.5336  1.2428  1.7332
 9468SOL     OW40039   4.332   1.812   4.845 -0.2709  0.5298  0.3356
 9468SOL    HW140040   4.300   1.723   4.860  0.6805  0.2922  0.9591
 9468SOL    HW240041   4.422   1.810   4.811 -0.7568  4.3262 -1.1670
 9469SOL     OW40042   4.662   4.122   2.960  0.7939 -0.7024  0.0154
 9469SOL    HW140043   4.614   4.042   2.939  0.8081 -0.5322 -0.6628
 9469SOL    HW240044   4.627   4.182   2.893 -0.6380 -0.8752  0.5985
 9470SOL     OW40045   2.736   3.593  15.519 -0.0445  0.4266 -0.0402
 9470SOL    HW140046   2.758   3.517  15.466  0.5794  2.1107 -2.2251
 9470SOL    HW240047   2.818   3.622  15.559 -1.4551  0.8833  2.5203
 9471SOL     OW40048   4.126   1.520  11.758  0.0260 -0.3304  0.1593
 9471SOL    HW140049   4.114   1.431  11.726  2.5054 -0.1423 -1.2997
 9471SOL    HW240050   4.220   1.530  11.772 -0.0064  3.4382 -2.4236
 9472SOL     OW40051   4.608   3.091   9.080  0.2637 -0.1213 -0.5934
 9472SOL    HW140052   4.594   3.066   9.171  0.7195 -1.0277 -0.7744
 9472SOL    HW240053   4.553   3.025   9.038  1.1162 -0.8808 -0.5202
 9473SOL     OW40054   1.574   4.381   5.893 -0.0325  0.0077  0.3157
 9473SOL    HW140055   1.491   4.335   5.898 -0.9580  1.4724 -1.5063
 9473SOL    HW240056   1.555   4.468   5.929  0.0137  0.0713  0.1863
 9474SOL     OW40057   1.465   0.070  16.182 -0.0593 -0.4852 -0.4990
 9474SOL    HW140058   1.374   0.100  16.175  0.2447  0.5319 -0.0057
 9474SOL    HW240059   1.484   0.034  16.095  1.1856 -1.5659  0.2203
 9475SOL     OW40060   1.812   2.190   4.619  0.4722 -0.2622  0.5906
 9475SOL    HW140061   1.839   2.268   4.571  1.1180  1.1108  3.1860
 9475SOL    HW240062   1.739   2.161   4.564  1.0487  0.0609 -0.3407
 9476SOL     OW40063   2.254   0.565   9.009 -0.1730  0.2285 -0.0890
 9476SOL    HW140064   2.246   0.618   8.929 -1.1422  0.9455  0.4774
 9476SOL    HW240065   2.342   0.528   9.003  0.6325  1.5310  3.7983
 9477SOL     OW40066   0.110   0.125   6.445 -0.0702 -0.1873  0.5685
 9477SOL    HW140067   0.026   0.171   6.444  0.6316  1.0945  0.0205
 9477SOL    HW240068   0.085   0.045   6.491  0.9020 -0.2301  1.0178
 9478SOL     OW40069   2.361   0.503   8.077 -0.6410  0.0901 -0.3212
 9478SOL    HW140070   2.315   0.584   8.054 -1.8806 -0.1837  1.2225
 9478SOL    HW240071   2.292   0.441   8.056 -0.1585 -0.7937  0.6973
 9479SOL     OW40072   0.282   1.130   1.279 -0.1532 -0.0566  0.0083
 9479SOL    HW140073   0.251   1.168   1.197  0.4862  0.9254  0.2249
 9479SOL    HW240074   0.327   1.207   1.314 -0.2582 -0.0460  0.1181
 9480SOL     OW40075   1.227   3.856   6.017  0.0779 -0.9857 -0.4895
 9480SOL    HW140076   1.319   3.846   5.994  0.1866  1.9920 -1.3912
 9480SOL    HW240077   1.200   3.794   5.949 -0.7908  1.0335 -2.0183
 9481SOL     OW40078   1.212   0.087  11.250  0.1670  0.0042  0.4251
 9481SOL    HW140079   1.212   4.732  11.220 -3.0922  0.5494 -1.1754
 9481SOL    HW240080   1.220   0.077  11.345 -1.9414  3.0048  0.9439
 9482SOL     OW40081   0.578   4.532   5.765  0.1020  0.3596 -0.1880
 9482SOL    HW140082   0.563   4.620   5.799  3.1031  0.6826  0.2816
 9482SOL    HW240083   0.606   4.537   5.674 -0.5454  1.2607 -0.3331
 9483SOL     OW40084   0.868   3.982  15.606  0.1206  0.4376  0.4990
 9483SOL    HW140085   0.914   4.065  15.619  0.4072  0.2217  0.8588
 9483SOL    HW240086   0.913   3.949  15.529 -0.2585  1.1959 -0.0518
 9484SOL     OW40087   2.238   4.341   8.309 -0.3710 -0.1216 -0.0051
 9484SOL    HW140088   2.315   4.299   8.272 -0.4238 -1.7543  1.7468
 9484SOL    HW240089   2.176   4.271   8.332 -1.6694  1.2321  0.5911
 9485SOL     OW40090   0.285   3.323   1.157  0.0467  0.6655 -0.0122
 9485SOL    HW140091   0.327   3.255   1.209 -0.1591 -0.2900 -1.0767
 9485SOL    HW240092   0.311   3.300   1.068 -0.5274 -0.0660  0.0074
 9486SOL     OW40093   1.958   3.036  16.325 -0.1891  0.0941  0.1410
 9486SOL    HW140094   1.934   3.081  16.244  0.6983  0.7779  0.2572
 9486SOL    HW240095   1.884   2.975  16.332  0.0502 -0.3951 -1.5600
 9487SOL     OW40096   3.967   4.721   1.235  0.6626  0.9701 -0.0877
 9487SOL    HW140097   3.979   0.006   1.328  0.7417  0.2785  0.0570
 9487SOL    HW240098   4.033   4.651   1.236  0.1172  0.4480 -0.6306
 9488SOL     OW40099   0.353   0.949  10.486 -0.2388  0.4285  0.0312
 9488SOL    HW140100   0.435   0.917  10.448  0.4647  0.9044  1.1718
 9488SOL    HW240101   0.382   0.991  10.566  0.5136  0.6738 -0.3674
 9489SOL     OW40102   4.202   2.427   4.988  0.0016  0.4660  0.0014
 9489SOL    HW140103   4.224   2.405   4.897 -1.8216 -0.2345 -0.2595
 9489SOL    HW240104   4.163   2.345   5.017  0.4195  0.8209  1.5700
 9490SOL     OW40105   0.392   3.623   5.732  0.3159  0.3158 -0.2372
 9490SOL    HW140106   0.429   3.598   5.816  1.8926 -1.7607 -1.5464
 9490SOL    HW240107   0.344   3.543   5.710  0.4085 -0.3291  1.9148
 9491SOL     OW40108   1.372   3.448  16.077  0.2874 -0.1635 -0.0452
 9491SOL    HW140109   1.448   3.425  16.025 -0.1879 -1.5659 -0.1213
 9491SOL    HW240110   1.358   3.362  16.117 -0.9172  1.8682  3.9717
 9492SOL     OW40111   4.226   0.008   8.785  0.6495  0.2680 -0.4880
 9492SOL    HW140112   4.303   0.012   8.727  1.7707 -0.8707  0.9301
 9492SOL    HW240113   4.163   4.690   8.738 -0.6067 -0.4231  2.0340
 9493SOL     OW40114   3.585   1.358   5.468 -0.3839 -0.1044 -0.0521
 9493SOL    HW140115   3.497   1.360   5.428 -1.2691 -1.3611  1.8726
 9493SOL    HW240116   3.570   1.326   5.556  0.7144  0.7748  0.4536
 9494SOL     OW40117   0.281   2.612  12.953 -0.4379  0.0490  0.4161
 9494SOL    HW140118   0.362   2.578  12.916  0.9967  0.0268  3.6188
 9494SOL    HW240119   0.220   2.614  12.879 -1.6095 -0.4951  1.3566
 9495SOL     OW40120   3.128   3.487   4.002 -0.2236 -0.0212  0.1756
 9495SOL    HW140121   3.147   3.571   3.960 -0.7368 -0.3786 -0.7628
 9495SOL    HW240122   3.173   3.421   3.950  1.0365 -1.1045  2.6322
 9496SOL     OW40123   2.858   0.968  12.029 -0.4263  0.3977 -0.0605
 9496SOL    HW140124   2.926   0.913  12.067 -0.9730  0.5761  1.1589
 9496SOL    HW240125   2.804   0.995  12.103  1.7939  2.3700  0.8181
 9497SOL     OW40126   4.467   0.757  12.750 -0.2275  0.4554  0.1315
 9497SOL    HW140127   4.499   0.735  12.663  1.5419  1.7595  0.4470
 9497SOL    HW240128   4.373   0.741  12.741  0.2218 -2.9139  1.2086
 9498SOL     OW40129   1.244   4.545   7.624 -0.4709 -0.2937 -0.4546
 9498SOL    HW140130   1.325   4.507   7.657 -0.1149  0.7275 -0.1834
 9498SOL    HW240131   1.283   4.587   7.547 -0.1895 -0.6094 -0.4867
 9499SOL     OW40132   1.210   4.607   6.302 -0.6684  0.3346 -0.3289
 9499SOL    HW140133   1.205   4.630   6.395 -1.6660  3.6185 -1.1798
 9499SOL    HW240134   1.272   4.672   6.270  2.9225 -2.6952  0.4443
 9500SOL     OW40135   1.374   3.620   7.451 -0.2209 -0.4124  0.0024
 9500SOL    HW140136   1.303   3.563   7.480  0.4934 -1.5501 -0.4958
 9500SOL    HW240137   1.412   3.565   7.382  0.6448  0.3612 -0.1486
 9501SOL     OW40138   3.760   0.753   6.576  0.0264  0.5821  0.5195
 9501SOL    HW140139   3.692   0.742   6.643 -2.6007 -0.3192 -2.3377
 9501SOL    HW240140   3.713   0.704   6.509 -0.1248 -0.2440  1.2317
 9502SOL     OW40141   3.172   1.578   6.206 -0.0598 -0.2113 -0.0121
 9502SOL    HW140142   3.134   1.624   6.281 -0.9394 -0.2183 -0.4518
 9502SOL    HW240143   3.110   1.505   6.199  1.3550 -1.5917  2.2591
 9503SOL     OW40144   0.361   1.376   1.335 -0.5293  0.2042  0.6347
 9503SOL    HW140145   0.351   1.402   1.427  0.2550  0.4531  0.6492
 9503SOL    HW240146   0.327   1.450   1.284  0.0201 -0.2556 -0.3899
 9504SOL     OW40147   1.563   2.445   9.683  0.0922  0.0418  0.0776
 9504SOL    HW140148   1.657   2.441   9.662  0.0033 -1.7164  0.0269
 9504SOL    HW240149   1.545   2.536   9.661 -1.3766 -0.3631 -0.3493
 9505SOL     OW40150   2.760   4.089  17.571  0.1697  0.1982 -0.0434
 9505SOL    HW140151   2.706   4.102  17.493  2.2738  1.6081 -1.2657
 9505SOL    HW240152   2.844   4.129  17.546 -1.1555  2.9737 -0.0482
 9506SOL     OW40153   1.999   2.257   5.537 -0.4519 -0.0196  0.0842
 9506SOL    HW140154   1.983   2.191   5.469  0.1177 -0.9815  0.8910
 9506SOL    HW240155   2.037   2.200   5.604  1.3873 -0.1980 -1.0904
 9507SOL     OW40156   2.386   3.498   5.049  0.3456 -0.1624 -0.4653
 9507SOL    HW140157   2.368   3.586   5.083  2.5347 -0.0852  0.4896
 9507SOL    HW240158   2.344   3.508   4.963  0.6769 -1.3196 -0.7570
 9508SOL     OW40159   4.080   1.143   3.965  0.0561 -0.9987  0.0530
 9508SOL    HW140160   3.999   1.182   3.933  1.3600  0.8592 -0.9745
 9508SOL    HW240161   4.140   1.214   3.988 -0.1444 -0.4764 -1.0390
 9509SOL     OW40162   0.141   3.000   1.483 -0.2494 -0.0118 -0.3898
 9509SOL    HW140163   0.053   3.022   1.454  0.6611  1.7806 -1.7541
 9509SOL    HW240164   0.184   2.990   1.398 -1.3387 -2.3983 -0.6665
 9510SOL     OW40165   0.899   2.394   7.531  0.8596 -0.1362 -0.1077
 9510SOL    HW140166   0.878   2.450   7.606 -0.1140  0.8543 -1.1087
 9510SOL    HW240167   0.816   2.390   7.483  0.5027  2.8652  0.2345
 9511SOL     OW40168   2.059   1.146   7.106  0.2957  1.1286  0.4801
 9511SOL    HW140169   2.069   1.052   7.114  0.3692  1.0409 -0.6196
 9511SOL    HW240170   2.144   1.168   7.066  0.5420 -0.3738  0.2018
 9512SOL     OW40171   4.256   1.420   5.672  0.1366  0.0057 -0.0028
 9512SOL    HW140172   4.241   1.416   5.578  1.3415  0.0566 -0.1845
 9512SOL    HW240173   4.297   1.505   5.666 -1.9280  1.0742  0.8034
 9513SOL     OW40174   4.309   2.683  13.479 -0.8402 -0.2210  0.6361
 9513SOL    HW140175   4.268   2.698  13.394  0.4074  1.2608  0.2957
 9513SOL    HW240176   4.379   2.749  13.480  1.1671 -2.3395 -1.9099
 9514SOL     OW40177   3.981   1.859  12.919  0.2467 -0.2469  0.3165
 9514SOL    HW140178   4.062   1.900  12.890 -1.0523  1.8462 -0.3634
 9514SOL    HW240179   3.964   1.904  13.002 -2.0043  0.6624 -0.6377
 9515SOL     OW40180   0.426   2.465  14.877 -0.8448 -0.0736 -0.0713
 9515SOL    HW140181   0.513   2.504  14.890 -0.9362 -0.1884  0.9427
 9515SOL    HW240182   0.458   2.397  14.818  1.3177  1.6620 -0.8664
 9516SOL     OW40183   2.236   0.601  10.949 -0.2661 -0.7720  0.1407
 9516SOL    HW140184   2.220   0.589  11.042  1.5089  1.5131  0.7329
 9516SOL    HW240185   2.273   0.688  10.940 -0.7437 -0.5140  0.6610
 9517SOL     OW40186   1.218   3.114   7.341 -0.6407 -0.1516 -0.3352
 9517SOL    HW140187   1.280   3.115   7.413 -1.6649  0.5684  0.5445
 9517SOL    HW240188   1.143   3.063   7.371  1.2693 -2.5394  0.3801
 9518SOL     OW40189   2.714   2.760   7.412 -0.1592 -0.0553  0.2844
 9518SOL    HW140190   2.664   2.770   7.331 -0.6574  0.1371  0.6152
 9518SOL    HW240191   2.742   2.669   7.404  2.4257  0.4813  2.8174
 9519SOL     OW40192   3.961   1.449  16.655  0.2053 -0.0918  0.0330
 9519SOL    HW140193   4.024   1.391  16.698  1.8339  0.3789 -1.7187
 9519SOL    HW240194   3.883   1.404  16.688  0.3235  0.5860  1.2546
 9520SOL     OW40195   2.403   2.195   2.700 -0.4008 -0.3391  0.1974
 9520SOL    HW140196   2.347   2.271   2.686  0.1557 -0.6519 -3.6100
 9520SOL    HW240197   2.382   2.190   2.794 -0.1663  0.0428  0.2706
 9521SOL     OW40198   2.852   0.523   8.560 -0.7439 -0.0638 -0.2076
 9521SOL    HW140199   2.882   0.435   8.535 -0.1523  0.2531 -0.5913
 9521SOL    HW240200   2.764   0.518   8.598 -0.2821  1.5417  1.0681
 9522SOL     OW40201   2.989   2.241   5.656 -0.2337 -0.0509  0.1565
 9522SOL    HW140202   3.079   2.221   5.630 -1.3929 -2.0712 -2.3363
 9522SOL    HW240203   2.992   2.191   5.738 -0.5473 -1.8440 -0.9283
 9523SOL     OW40204   0.206   1.245   6.793  0.3286  0.2266 -0.1381
 9523SOL    HW140205   0.158   1.285   6.720 -1.2643 -0.7236  0.3921
 9523SOL    HW240206   0.260   1.321   6.816  0.8451  0.7322 -3.0364
 9524SOL     OW40207   0.737   3.453   4.984  0.7466 -0.5257 -0.4441
 9524SOL    HW140208   0.804   3.443   4.918  0.1791  0.2973 -1.1513
 9524SOL    HW240209   0.659   3.411   4.947  0.9838  1.3072 -3.0200
 9525SOL     OW40210   3.786   0.960   4.911  0.0681  0.1448 -0.1149
 9525SOL    HW140211   3.821   1.038   4.869  3.2728 -0.3020  1.6741
 9525SOL    HW240212   3.853   0.895   4.891 -0.0872  0.2045 -0.8299
 9526SOL     OW40213   4.021   3.140  16.776 -0.1157  0.3167 -0.2266
 9526SOL    HW140214   3.960   3.089  16.829  0.6511 -1.9413 -1.5418
 9526SOL    HW240215   4.073   3.182  16.845  2.6789  0.9422 -2.7205
 9527SOL     OW40216   3.011   3.992   4.666  0.4101  0.6688  0.3044
 9527SOL    HW140217   3.050   4.075   4.637  1.4874 -0.4071 -1.2692
 9527SOL    HW240218   2.923   4.009   4.632  0.8944  1.2449 -0.6445
 9528SOL     OW40219   2.962   0.398   4.753 -0.4743  0.2285 -0.1146
 9528SOL    HW140220   2.931   0.461   4.819  0.5747 -0.4987  1.0777
 9528SOL    HW240221   2.900   0.406   4.681  2.6165  1.5463 -2.6355
 9529SOL     OW40222   3.496   4.607   3.305  0.3167 -0.3362 -0.0503
 9529SOL    HW140223   3.590   4.626   3.306  0.1580  0.3608  0.7166
 9529SOL    HW240224   3.467   4.611   3.214  2.2524  2.2711 -0.5482
 9530SOL     OW40225   3.735   4.134  17.474 -0.5310 -0.0395  0.0472
 9530SOL    HW140226   3.765   4.225  17.483  1.6494 -0.9398  1.7775
 9530SOL    HW240227   3.663   4.136  17.411 -1.2964  1.0377  0.9297
 9531SOL     OW40228   2.984   2.103  16.283 -0.0118 -0.3092 -0.5550
 9531SOL    HW140229   2.973   2.017  16.324  1.5977  0.1680  0.9143
 9531SOL    HW240230   3.068   2.092  16.237  0.8943  0.2696  0.9507
 9532SOL     OW40231   0.716   3.786   4.217  0.4433 -0.1038  0.1456
 9532SOL    HW140232   0.804   3.748   4.209  1.4138  2.0543  0.3854
 9532SOL    HW240233   0.672   3.768   4.134  1.6460  1.1249 -0.7580
 9533SOL     OW40234   3.349   2.848   6.901  0.1741 -0.1478 -0.3641
 9533SOL    HW140235   3.334   2.768   6.951  0.0880  1.1306  1.6100
 9533SOL    HW240236   3.441   2.829   6.880  0.2113 -1.3401  0.9069
 9534SOL     OW40237   0.217   1.852   4.993 -0.0514 -0.3983 -0.1442
 9534SOL    HW140238   0.284   1.796   4.955 -0.7120 -0.8415 -0.6518
 9534SOL    HW240239   0.262   1.895   5.065  0.7594  0.2420 -1.0285
 9535SOL     OW40240   4.340   3.981   5.357  0.0944  0.0622  0.5535
 9535SOL    HW140241   4.263   3.924   5.357  0.5734 -0.5907 -0.8877
 9535SOL    HW240242   4.297   4.063   5.382  1.6849  0.3653  2.2783
 9536SOL     OW40243   4.645   1.642   4.498 -0.0456 -0.3886 -0.0717
 9536SOL    HW140244   4.651   1.681   4.585 -0.1614  0.9136 -0.6537
 9536SOL    HW240245   4.630   1.719   4.443 -0.2092 -0.2467  0.1685
 9537SOL     OW40246   2.211   3.808  12.239  0.5175  0.4213  0.5390
 9537SOL    HW140247   2.188   3.716  12.223  2.8005 -0.1079  0.2799
 9537SOL    HW240248   2.145   3.826  12.306 -3.1578  1.1478 -3.2867
 9538SOL     OW40249   2.811   2.608   4.201  0.2086 -0.3143  0.1988
 9538SOL    HW140250   2.892   2.640   4.160 -0.0603 -0.0844 -0.1458
 9538SOL    HW240251   2.832   2.616   4.294 -0.5326  1.4648  0.1996
 9539SOL     OW40252   3.369   2.731  10.852  0.3280  0.4590 -0.7380
 9539SOL    HW140253   3.278   2.726  10.823 -0.5262  1.3097  1.7978
 9539SOL    HW240254   3.366   2.792  10.925 -1.4926 -0.0579 -0.3809
 9540SOL     OW40255   1.109   2.872  15.711 -0.2289 -0.6238 -0.4309
 9540SOL    HW140256   1.021   2.884  15.676 -1.2202  0.5532  2.4149
 9540SOL    HW240257   1.097   2.930  15.786 -0.4486 -2.6903  1.1203
 9541SOL     OW40258   2.630   3.031   3.048  0.3168 -0.4340  0.3334
 9541SOL    HW140259   2.716   2.992   3.038  0.4756  0.2835 -1.1690
 9541SOL    HW240260   2.572   2.954   3.050 -0.7954  0.4606  2.5767
 9542SOL     OW40261   2.876   0.272   4.034 -0.7627 -0.7965 -0.4170
 9542SOL    HW140262   2.947   0.316   3.987 -0.1329 -2.7926 -1.3542
 9542SOL    HW240263   2.905   0.182   4.050  1.3067 -0.2547 -1.0370
 9543SOL     OW40264   3.729   4.206   7.520 -0.7231  0.1468  0.3383
 9543SOL    HW140265   3.656   4.162   7.475 -1.3509  1.4762  0.0485
 9543SOL    HW240266   3.675   4.269   7.567 -2.3351 -1.6230  0.8949
 9544SOL     OW40267   3.239   2.315   0.959  0.2030  0.2207  0.4670
 9544SOL    HW140268   3.220   2.236   0.909  1.1485 -0.0663  0.5672
 9544SOL    HW240269   3.261   2.373   0.887  0.7611 -0.6011 -0.0199
 9545SOL     OW40270   2.076   0.333  14.846  0.0448  0.0640  0.5437
 9545SOL    HW140271   2.117   0.308  14.762 -2.7080  0.0234 -0.7814
 9545SOL    HW240272   2.146   0.303  14.903  0.5433  0.2683  0.0464
 9546SOL     OW40273   4.483   2.458   8.923  0.0115 -0.1408  0.6216
 9546SOL    HW140274   4.411   2.519   8.907 -0.8417 -0.7889  2.0745
 9546SOL    HW240275   4.481   2.461   9.018 -0.1013 -2.4910  0.6927
 9547SOL     OW40276   1.662   1.020  14.725 -0.1109  0.0616  0.2014
 9547SOL    HW140277   1.680   0.936  14.682 -0.3244  0.5436 -0.8408
 9547SOL    HW240278   1.734   1.077  14.697  0.8662 -0.3723  1.8691
 9548SOL     OW40279   4.554   2.906   3.792  0.1057  0.1459 -0.3418
 9548SOL    HW140280   4.465   2.897   3.826  0.0615  1.0771 -0.2161
 9548SOL    HW240281   4.558   3.001   3.801  2.4486 -0.0964  1.2065
 9549SOL     OW40282   2.144   2.380   0.499  0.1442 -0.1513 -0.0910
 9549SOL    HW140283   2.090   2.338   0.567 -0.0561  0.4900  0.1462
 9549SOL    HW240284   2.105   2.330   0.427  1.4553 -1.5782  0.1749
 9550SOL     OW40285   2.590   2.153   6.827  0.2634 -0.1084 -0.6001
 9550SOL    HW140286   2.570   2.247   6.823  2.4307  0.3187 -1.4948
 9550SOL    HW240287   2.673   2.146   6.780  1.0639 -1.8047  1.0781
 9551SOL     OW40288   2.145   4.237   4.068 -0.6392  0.0887 -0.0958
 9551SOL    HW140289   2.066   4.214   4.019 -1.0243  0.4016  0.3803
 9551SOL    HW240290   2.186   4.150   4.064  1.6828  1.2235 -1.3083
 9552SOL     OW40291   0.200   0.469   3.114  0.2333 -0.1751  0.2231
 9552SOL    HW140292   0.158   0.547   3.079  1.6937  0.3750 -0.3262
 9552SOL    HW240293   0.146   0.455   3.191  0.3262  0.5106  0.4080
 9553SOL     OW40294   0.225   3.473   8.753  0.4085 -0.3091 -0.1768
 9553SOL    HW140295   0.266   3.502   8.671 -2.1699  0.1792 -1.3066
 9553SOL    HW240296   0.139   3.440   8.726 -1.0970  1.3643  2.5249
 9554SOL     OW40297   3.852   3.978   3.617 -0.2115 -0.2432 -0.1724
 9554SOL    HW140298   3.789   4.049   3.608 -0.2963 -0.3368 -0.3139
 9554SOL    HW240299   3.857   3.954   3.524 -2.0009  1.3163 -0.6790
 9555SOL     OW40300   3.290   2.995   7.208 -0.6580  0.3896  0.1621
 9555SOL    HW140301   3.341   2.915   7.192 -0.0463  1.0572 -1.2012
 9555SOL    HW240302   3.313   3.023   7.297  0.0977 -0.8071  0.3512
 9556SOL     OW40303   2.349   4.453  15.168 -0.4188 -0.1880  0.1326
 9556SOL    HW140304   2.408   4.378  15.164  0.1956  0.2741  0.5710
 9556SOL    HW240305   2.321   4.439  15.258  0.8998 -0.2031  0.5467
 9557SOL     OW40306   2.273   0.847  14.376  0.1615 -0.5251  0.4667
 9557SOL    HW140307   2.266   0.914  14.445  0.4312  2.3711 -2.3474
 9557SOL    HW240308   2.357   0.858  14.332 -0.8052  1.6269 -0.7814
 9558SOL     OW40309   1.342   4.096   6.195  0.1565  0.2300 -0.2268
 9558SOL    HW140310   1.315   4.038   6.124  1.0696  0.0182 -0.3983
 9558SOL    HW240311   1.335   4.184   6.158 -0.3579  0.1230 -0.3816
 9559SOL     OW40312   0.990   2.438  16.246  0.3462  0.2250 -0.0383
 9559SOL    HW140313   1.060   2.433  16.181 -0.6655 -0.5769 -1.0589
 9559SOL    HW240314   1.022   2.374  16.310  1.3127 -0.5245 -1.2784
 9560SOL     OW40315   0.543   0.058   3.872 -0.1909  0.3007 -0.7538
 9560SOL    HW140316   0.475   0.125   3.858 -1.1469 -0.5087 -0.0232
 9560SOL    HW240317   0.493   4.714   3.888 -0.0049  0.5387  1.0086
 9561SOL     OW40318   2.159   3.344   7.567  0.1421 -0.3243 -0.4866
 9561SOL    HW140319   2.200   3.260   7.545 -1.2457 -1.0700 -0.2257
 9561SOL    HW240320   2.094   3.357   7.498 -0.3276  0.2800  0.0793
 9562SOL     OW40321   2.673   4.378   9.442 -0.4911 -0.4527 -0.1529
 9562SOL    HW140322   2.614   4.313   9.479  1.5019 -1.1319  1.8562
 9562SOL    HW240323   2.653   4.455   9.495 -1.6334 -0.2706 -0.8554
 9563SOL     OW40324   1.379   2.335   9.505  0.2768 -0.0137 -0.2218
 9563SOL    HW140325   1.337   2.412   9.467 -1.0101 -1.4065 -1.6376
 9563SOL    HW240326   1.457   2.377   9.541 -0.2670 -1.0281  2.1588
 9564SOL     OW40327   3.235   3.307   3.864  0.2142 -0.1342  0.2113
 9564SOL    HW140328   3.199   3.218   3.865  3.7998 -1.5737  2.5249
 9564SOL    HW240329   3.299   3.305   3.793 -1.4191 -1.3018 -1.2255
 9565SOL     OW40330   0.548   2.407   9.484  0.0844  0.1912  0.1764
 9565SOL    HW140331   0.604   2.455   9.424 -0.9611 -0.7541 -1.5810
 9565SOL    HW240332   0.551   2.463   9.561 -0.2827  0.8483 -0.2860
 9566SOL     OW40333   4.566   3.986   4.345  0.1289  0.1143  0.3760
 9566SOL    HW140334   4.604   3.908   4.386 -0.0402  0.9583  2.1464
 9566SOL    HW240335   4.495   4.008   4.406 -0.3354 -2.4846  0.7762
 9567SOL     OW40336   1.680   3.880   5.393  0.0593  0.2182 -0.3979
 9567SOL    HW140337   1.599   3.916   5.357  1.4650  1.6421 -2.1532
 9567SOL    HW240338   1.654   3.794   5.425 -0.7854 -0.3034 -2.5555
 9568SOL     OW40339   1.500   4.164  10.342  0.0597  0.4080  0.0645
 9568SOL    HW140340   1.591   4.134  10.341 -1.1630 -3.3827  0.4972
 9568SOL    HW240341   1.486   4.143  10.249 -1.4674 -0.6030  0.5227
 9569SOL     OW40342   3.012   2.940   7.198 -0.1391 -0.0727 -0.1332
 9569SOL    HW140343   3.098   2.980   7.186 -0.1178 -0.1030 -0.0779
 9569SOL    HW240344   2.994   2.954   7.291  1.3994 -2.0383  0.4591
   4.73566   4.73566  17.74134
